<event>
 4    1  0.5025809E-002  0.4000000E+02  0.7546771E-02  0.1348030E+00
         11   -1    0    0    0    0  0.00000000000E+00  0.00000000000E+00  0.20000000000E+02  0.20000000000E+02  0.00000000000E+00 0. -1.
        -11   -1    0    0    0    0 -0.00000000000E+00 -0.00000000000E+00 -0.20000000000E+02  0.20000000000E+02  0.00000000000E+00 0.  1.
          5    1    1    2  501    0 -0.82991437137E+01 -0.17574261333E+02 -0.42373601043E+00  0.20000000000E+02  0.47000000000E+01 0.  1.
         -5    1    1    2    0  501  0.82991437137E+01  0.17574261333E+02  0.42373601043E+00  0.20000000000E+02  0.47000000000E+01 0. -1.
</event>
<event>
 4    1  0.5025809E-002  0.4000000E+02  0.7546771E-02  0.1348030E+00
         11   -1    0    0    0    0  0.00000000000E+00  0.00000000000E+00  0.20000000000E+02  0.20000000000E+02  0.00000000000E+00 0.  1.
        -11   -1    0    0    0    0 -0.00000000000E+00 -0.00000000000E+00 -0.20000000000E+02  0.20000000000E+02  0.00000000000E+00 0. -1.
          5    1    1    2  501    0  0.31619587953E+01  0.20994982112E+01 -0.19065784113E+02  0.20000000000E+02  0.47000000000E+01 0. -1.
         -5    1    1    2    0  501 -0.31619587953E+01 -0.20994982112E+01  0.19065784113E+02  0.20000000000E+02  0.47000000000E+01 0.  1.
</event>
<event>
 4    1  0.5025809E-002  0.4000000E+02  0.7546771E-02  0.1348030E+00
         11   -1    0    0    0    0  0.00000000000E+00  0.00000000000E+00  0.20000000000E+02  0.20000000000E+02  0.00000000000E+00 0.  1.
        -11   -1    0    0    0    0 -0.00000000000E+00 -0.00000000000E+00 -0.20000000000E+02  0.20000000000E+02  0.00000000000E+00 0. -1.
          5    1    1    2  501    0 -0.26504628737E+01  0.12873286819E+00  0.19257945747E+02  0.20000000000E+02  0.47000000000E+01 0.  1.
         -5    1    1    2    0  501  0.26504628737E+01 -0.12873286819E+00 -0.19257945747E+02  0.20000000000E+02  0.47000000000E+01 0. -1.
</event>
<event>
 4    1  0.5025809E-002  0.4000000E+02  0.7546771E-02  0.1348030E+00
         11   -1    0    0    0    0  0.00000000000E+00  0.00000000000E+00  0.20000000000E+02  0.20000000000E+02  0.00000000000E+00 0. -1.
        -11   -1    0    0    0    0 -0.00000000000E+00 -0.00000000000E+00 -0.20000000000E+02  0.20000000000E+02  0.00000000000E+00 0.  1.
          5    1    1    2  501    0  0.93662226074E+01  0.91239259004E+01 -0.14385334554E+02  0.20000000000E+02  0.47000000000E+01 0.  1.
         -5    1    1    2    0  501 -0.93662226074E+01 -0.91239259004E+01  0.14385334554E+02  0.20000000000E+02  0.47000000000E+01 0. -1.
</event>
<event>
 4    1  0.5025809E-002  0.4000000E+02  0.7546771E-02  0.1348030E+00
         11   -1    0    0    0    0  0.00000000000E+00  0.00000000000E+00  0.20000000000E+02  0.20000000000E+02  0.00000000000E+00 0. -1.
        -11   -1    0    0    0    0 -0.00000000000E+00 -0.00000000000E+00 -0.20000000000E+02  0.20000000000E+02  0.00000000000E+00 0.  1.
          5    1    1    2  501    0  0.17450861838E+02 -0.82581233267E+01 -0.22761415265E+01  0.20000000000E+02  0.47000000000E+01 0.  1.
         -5    1    1    2    0  501 -0.17450861838E+02  0.82581233267E+01  0.22761415265E+01  0.20000000000E+02  0.47000000000E+01 0. -1.
</event>
<event>
 4    1  0.5025809E-002  0.4000000E+02  0.7546771E-02  0.1348030E+00
         11   -1    0    0    0    0  0.00000000000E+00  0.00000000000E+00  0.20000000000E+02  0.20000000000E+02  0.00000000000E+00 0.  1.
        -11   -1    0    0    0    0 -0.00000000000E+00 -0.00000000000E+00 -0.20000000000E+02  0.20000000000E+02  0.00000000000E+00 0. -1.
          5    1    1    2  501    0 -0.19984686368E+01  0.18722798035E+02 -0.48345585977E+01  0.20000000000E+02  0.47000000000E+01 0. -1.
         -5    1    1    2    0  501  0.19984686368E+01 -0.18722798035E+02  0.48345585977E+01  0.20000000000E+02  0.47000000000E+01 0.  1.
</event>
<event>
 4    1  0.5025809E-002  0.4000000E+02  0.7546771E-02  0.1348030E+00
         11   -1    0    0    0    0  0.00000000000E+00  0.00000000000E+00  0.20000000000E+02  0.20000000000E+02  0.00000000000E+00 0.  1.
        -11   -1    0    0    0    0 -0.00000000000E+00 -0.00000000000E+00 -0.20000000000E+02  0.20000000000E+02  0.00000000000E+00 0. -1.
          5    1    1    2  501    0 -0.17070578459E+01  0.51468520817E+01  0.18668311845E+02  0.20000000000E+02  0.47000000000E+01 0.  1.
         -5    1    1    2    0  501  0.17070578459E+01 -0.51468520817E+01 -0.18668311845E+02  0.20000000000E+02  0.47000000000E+01 0. -1.
</event>
<event>
 4    1  0.5025809E-002  0.4000000E+02  0.7546771E-02  0.1348030E+00
         11   -1    0    0    0    0  0.00000000000E+00  0.00000000000E+00  0.20000000000E+02  0.20000000000E+02  0.00000000000E+00 0.  1.
        -11   -1    0    0    0    0 -0.00000000000E+00 -0.00000000000E+00 -0.20000000000E+02  0.20000000000E+02  0.00000000000E+00 0. -1.
          5    1    1    2  501    0 -0.12482662358E+02 -0.36433871468E+01 -0.14450566444E+02  0.20000000000E+02  0.47000000000E+01 0. -1.
         -5    1    1    2    0  501  0.12482662358E+02  0.36433871468E+01  0.14450566444E+02  0.20000000000E+02  0.47000000000E+01 0.  1.
</event>
<event>
 4    1  0.5025809E-002  0.4000000E+02  0.7546771E-02  0.1348030E+00
         11   -1    0    0    0    0  0.00000000000E+00  0.00000000000E+00  0.20000000000E+02  0.20000000000E+02  0.00000000000E+00 0. -1.
        -11   -1    0    0    0    0 -0.00000000000E+00 -0.00000000000E+00 -0.20000000000E+02  0.20000000000E+02  0.00000000000E+00 0.  1.
          5    1    1    2  501    0 -0.35538552748E+01 -0.14173108429E+02  0.12821977622E+02  0.20000000000E+02  0.47000000000E+01 0. -1.
         -5    1    1    2    0  501  0.35538552748E+01  0.14173108429E+02 -0.12821977622E+02  0.20000000000E+02  0.47000000000E+01 0. -1.
</event>
<event>
 4    1  0.5025809E-002  0.4000000E+02  0.7546771E-02  0.1348030E+00
         11   -1    0    0    0    0  0.00000000000E+00  0.00000000000E+00  0.20000000000E+02  0.20000000000E+02  0.00000000000E+00 0. -1.
        -11   -1    0    0    0    0 -0.00000000000E+00 -0.00000000000E+00 -0.20000000000E+02  0.20000000000E+02  0.00000000000E+00 0.  1.
          5    1    1    2  501    0 -0.11980550829E+02 -0.14172245723E+02  0.57899786692E+01  0.20000000000E+02  0.47000000000E+01 0. -1.
         -5    1    1    2    0  501  0.11980550829E+02  0.14172245723E+02 -0.57899786692E+01  0.20000000000E+02  0.47000000000E+01 0.  1.
</event>
<event>
 4    1  0.5025809E-002  0.4000000E+02  0.7546771E-02  0.1348030E+00
         11   -1    0    0    0    0  0.00000000000E+00  0.00000000000E+00  0.20000000000E+02  0.20000000000E+02  0.00000000000E+00 0.  1.
        -11   -1    0    0    0    0 -0.00000000000E+00 -0.00000000000E+00 -0.20000000000E+02  0.20000000000E+02  0.00000000000E+00 0. -1.
          5    1    1    2  501    0 -0.19408580682E+02  0.36314228838E+00 -0.10416926536E+01  0.20000000000E+02  0.47000000000E+01 0.  1.
         -5    1    1    2    0  501  0.19408580682E+02 -0.36314228838E+00  0.10416926536E+01  0.20000000000E+02  0.47000000000E+01 0. -1.
</event>
<event>
 4    1  0.5025809E-002  0.4000000E+02  0.7546771E-02  0.1348030E+00
         11   -1    0    0    0    0  0.00000000000E+00  0.00000000000E+00  0.20000000000E+02  0.20000000000E+02  0.00000000000E+00 0. -1.
        -11   -1    0    0    0    0 -0.00000000000E+00 -0.00000000000E+00 -0.20000000000E+02  0.20000000000E+02  0.00000000000E+00 0.  1.
          5    1    1    2  501    0 -0.35879631967E+01  0.29961349212E+01 -0.18869544129E+02  0.20000000000E+02  0.47000000000E+01 0.  1.
         -5    1    1    2    0  501  0.35879631967E+01 -0.29961349212E+01  0.18869544129E+02  0.20000000000E+02  0.47000000000E+01 0. -1.
</event>
<event>
 4    1  0.5025809E-002  0.4000000E+02  0.7546771E-02  0.1348030E+00
         11   -1    0    0    0    0  0.00000000000E+00  0.00000000000E+00  0.20000000000E+02  0.20000000000E+02  0.00000000000E+00 0.  1.
        -11   -1    0    0    0    0 -0.00000000000E+00 -0.00000000000E+00 -0.20000000000E+02  0.20000000000E+02  0.00000000000E+00 0. -1.
          5    1    1    2  501    0 -0.17908595754E+02 -0.75001542717E+01  0.96947615675E+00  0.20000000000E+02  0.47000000000E+01 0.  1.
         -5    1    1    2    0  501  0.17908595754E+02  0.75001542717E+01 -0.96947615675E+00  0.20000000000E+02  0.47000000000E+01 0. -1.
</event>
<event>
 4    1  0.5025809E-002  0.4000000E+02  0.7546771E-02  0.1348030E+00
         11   -1    0    0    0    0  0.00000000000E+00  0.00000000000E+00  0.20000000000E+02  0.20000000000E+02  0.00000000000E+00 0. -1.
        -11   -1    0    0    0    0 -0.00000000000E+00 -0.00000000000E+00 -0.20000000000E+02  0.20000000000E+02  0.00000000000E+00 0.  1.
          5    1    1    2  501    0 -0.19329033198E+02  0.14478274905E+01 -0.14840051120E+01  0.20000000000E+02  0.47000000000E+01 0. -1.
         -5    1    1    2    0  501  0.19329033198E+02 -0.14478274905E+01  0.14840051120E+01  0.20000000000E+02  0.47000000000E+01 0.  1.
</event>
<event>
 4    1  0.5025809E-002  0.4000000E+02  0.7546771E-02  0.1348030E+00
         11   -1    0    0    0    0  0.00000000000E+00  0.00000000000E+00  0.20000000000E+02  0.20000000000E+02  0.00000000000E+00 0.  1.
        -11   -1    0    0    0    0 -0.00000000000E+00 -0.00000000000E+00 -0.20000000000E+02  0.20000000000E+02  0.00000000000E+00 0. -1.
          5    1    1    2  501    0  0.60769175204E+01  0.50523801219E+01  0.17761039625E+02  0.20000000000E+02  0.47000000000E+01 0.  1.
         -5    1    1    2    0  501 -0.60769175204E+01 -0.50523801219E+01 -0.17761039625E+02  0.20000000000E+02  0.47000000000E+01 0. -1.
</event>
<event>
 4    1  0.5025809E-002  0.4000000E+02  0.7546771E-02  0.1348030E+00
         11   -1    0    0    0    0  0.00000000000E+00  0.00000000000E+00  0.20000000000E+02  0.20000000000E+02  0.00000000000E+00 0.  1.
        -11   -1    0    0    0    0 -0.00000000000E+00 -0.00000000000E+00 -0.20000000000E+02  0.20000000000E+02  0.00000000000E+00 0. -1.
          5    1    1    2  501    0  0.57658223919E+00 -0.57830189369E+01 -0.18550855638E+02  0.20000000000E+02  0.47000000000E+01 0. -1.
         -5    1    1    2    0  501 -0.57658223919E+00  0.57830189369E+01  0.18550855638E+02  0.20000000000E+02  0.47000000000E+01 0.  1.
</event>
<event>
 4    1  0.5025809E-002  0.4000000E+02  0.7546771E-02  0.1348030E+00
         11   -1    0    0    0    0  0.00000000000E+00  0.00000000000E+00  0.20000000000E+02  0.20000000000E+02  0.00000000000E+00 0. -1.
        -11   -1    0    0    0    0 -0.00000000000E+00 -0.00000000000E+00 -0.20000000000E+02  0.20000000000E+02  0.00000000000E+00 0.  1.
          5    1    1    2  501    0 -0.12328564924E+02  0.15005189003E+02 -0.87223269992E+00  0.20000000000E+02  0.47000000000E+01 0.  1.
         -5    1    1    2    0  501  0.12328564924E+02 -0.15005189003E+02  0.87223269992E+00  0.20000000000E+02  0.47000000000E+01 0. -1.
</event>
<event>
 4    1  0.5025809E-002  0.4000000E+02  0.7546771E-02  0.1348030E+00
         11   -1    0    0    0    0  0.00000000000E+00  0.00000000000E+00  0.20000000000E+02  0.20000000000E+02  0.00000000000E+00 0.  1.
        -11   -1    0    0    0    0 -0.00000000000E+00 -0.00000000000E+00 -0.20000000000E+02  0.20000000000E+02  0.00000000000E+00 0. -1.
          5    1    1    2  501    0 -0.16513527848E+02 -0.66693809454E+01 -0.77931223398E+01  0.20000000000E+02  0.47000000000E+01 0. -1.
         -5    1    1    2    0  501  0.16513527848E+02  0.66693809454E+01  0.77931223398E+01  0.20000000000E+02  0.47000000000E+01 0.  1.
</event>
<event>
 4    1  0.5025809E-002  0.4000000E+02  0.7546771E-02  0.1348030E+00
         11   -1    0    0    0    0  0.00000000000E+00  0.00000000000E+00  0.20000000000E+02  0.20000000000E+02  0.00000000000E+00 0. -1.
        -11   -1    0    0    0    0 -0.00000000000E+00 -0.00000000000E+00 -0.20000000000E+02  0.20000000000E+02  0.00000000000E+00 0.  1.
          5    1    1    2  501    0  0.27313303773E+01 -0.18586709305E+02 -0.49984069028E+01  0.20000000000E+02  0.47000000000E+01 0.  1.
         -5    1    1    2    0  501 -0.27313303773E+01  0.18586709305E+02  0.49984069028E+01  0.20000000000E+02  0.47000000000E+01 0. -1.
</event>
<event>
 4    1  0.5025809E-002  0.4000000E+02  0.7546771E-02  0.1348030E+00
         11   -1    0    0    0    0  0.00000000000E+00  0.00000000000E+00  0.20000000000E+02  0.20000000000E+02  0.00000000000E+00 0. -1.
        -11   -1    0    0    0    0 -0.00000000000E+00 -0.00000000000E+00 -0.20000000000E+02  0.20000000000E+02  0.00000000000E+00 0.  1.
          5    1    1    2  501    0  0.38112840447E+01  0.18909418181E+02 -0.24120567960E+01  0.20000000000E+02  0.47000000000E+01 0. -1.
         -5    1    1    2    0  501 -0.38112840447E+01 -0.18909418181E+02  0.24120567960E+01  0.20000000000E+02  0.47000000000E+01 0.  1.
</event>
<event>
 4    1  0.5025809E-002  0.4000000E+02  0.7546771E-02  0.1348030E+00
         11   -1    0    0    0    0  0.00000000000E+00  0.00000000000E+00  0.20000000000E+02  0.20000000000E+02  0.00000000000E+00 0. -1.
        -11   -1    0    0    0    0 -0.00000000000E+00 -0.00000000000E+00 -0.20000000000E+02  0.20000000000E+02  0.00000000000E+00 0.  1.
          5    1    1    2  501    0  0.10932928809E+02 -0.26137573241E+01  0.15860307068E+02  0.20000000000E+02  0.47000000000E+01 0. -1.
         -5    1    1    2    0  501 -0.10932928809E+02  0.26137573241E+01 -0.15860307068E+02  0.20000000000E+02  0.47000000000E+01 0.  1.
</event>
<event>
 4    1  0.5025809E-002  0.4000000E+02  0.7546771E-02  0.1348030E+00
         11   -1    0    0    0    0  0.00000000000E+00  0.00000000000E+00  0.20000000000E+02  0.20000000000E+02  0.00000000000E+00 0. -1.
        -11   -1    0    0    0    0 -0.00000000000E+00 -0.00000000000E+00 -0.20000000000E+02  0.20000000000E+02  0.00000000000E+00 0.  1.
          5    1    1    2  501    0  0.22473395867E+01 -0.10476990073E+02 -0.16220115406E+02  0.20000000000E+02  0.47000000000E+01 0.  1.
         -5    1    1    2    0  501 -0.22473395867E+01  0.10476990073E+02  0.16220115406E+02  0.20000000000E+02  0.47000000000E+01 0. -1.
</event>
<event>
 4    1  0.5025809E-002  0.4000000E+02  0.7546771E-02  0.1348030E+00
         11   -1    0    0    0    0  0.00000000000E+00  0.00000000000E+00  0.20000000000E+02  0.20000000000E+02  0.00000000000E+00 0.  1.
        -11   -1    0    0    0    0 -0.00000000000E+00 -0.00000000000E+00 -0.20000000000E+02  0.20000000000E+02  0.00000000000E+00 0. -1.
          5    1    1    2  501    0 -0.64142355473E+01  0.14052703705E+02 -0.11802080364E+02  0.20000000000E+02  0.47000000000E+01 0. -1.
         -5    1    1    2    0  501  0.64142355473E+01 -0.14052703705E+02  0.11802080364E+02  0.20000000000E+02  0.47000000000E+01 0.  1.
</event>
<event>
 4    1  0.5025809E-002  0.4000000E+02  0.7546771E-02  0.1348030E+00
         11   -1    0    0    0    0  0.00000000000E+00  0.00000000000E+00  0.20000000000E+02  0.20000000000E+02  0.00000000000E+00 0.  1.
        -11   -1    0    0    0    0 -0.00000000000E+00 -0.00000000000E+00 -0.20000000000E+02  0.20000000000E+02  0.00000000000E+00 0. -1.
          5    1    1    2  501    0 -0.50470139101E+01 -0.18464188970E+02 -0.33928419145E+01  0.20000000000E+02  0.47000000000E+01 0. -1.
         -5    1    1    2    0  501  0.50470139101E+01  0.18464188970E+02  0.33928419145E+01  0.20000000000E+02  0.47000000000E+01 0. -1.
</event>
<event>
 4    1  0.5025809E-002  0.4000000E+02  0.7546771E-02  0.1348030E+00
         11   -1    0    0    0    0  0.00000000000E+00  0.00000000000E+00  0.20000000000E+02  0.20000000000E+02  0.00000000000E+00 0.  1.
        -11   -1    0    0    0    0 -0.00000000000E+00 -0.00000000000E+00 -0.20000000000E+02  0.20000000000E+02  0.00000000000E+00 0. -1.
          5    1    1    2  501    0 -0.98217803668E+01 -0.15163150370E+02  0.71778479572E+01  0.20000000000E+02  0.47000000000E+01 0.  1.
         -5    1    1    2    0  501  0.98217803668E+01  0.15163150370E+02 -0.71778479572E+01  0.20000000000E+02  0.47000000000E+01 0. -1.
</event>
<event>
 4    1  0.5025809E-002  0.4000000E+02  0.7546771E-02  0.1348030E+00
         11   -1    0    0    0    0  0.00000000000E+00  0.00000000000E+00  0.20000000000E+02  0.20000000000E+02  0.00000000000E+00 0.  1.
        -11   -1    0    0    0    0 -0.00000000000E+00 -0.00000000000E+00 -0.20000000000E+02  0.20000000000E+02  0.00000000000E+00 0. -1.
          5    1    1    2  501    0 -0.18973303038E+02  0.40274834809E+01  0.13050473697E+01  0.20000000000E+02  0.47000000000E+01 0. -1.
         -5    1    1    2    0  501  0.18973303038E+02 -0.40274834809E+01 -0.13050473697E+01  0.20000000000E+02  0.47000000000E+01 0.  1.
</event>
<event>
 4    1  0.5025809E-002  0.4000000E+02  0.7546771E-02  0.1348030E+00
         11   -1    0    0    0    0  0.00000000000E+00  0.00000000000E+00  0.20000000000E+02  0.20000000000E+02  0.00000000000E+00 0.  1.
        -11   -1    0    0    0    0 -0.00000000000E+00 -0.00000000000E+00 -0.20000000000E+02  0.20000000000E+02  0.00000000000E+00 0. -1.
          5    1    1    2  501    0  0.66311955785E+01  0.38852515661E+01  0.17856149234E+02  0.20000000000E+02  0.47000000000E+01 0.  1.
         -5    1    1    2    0  501 -0.66311955785E+01 -0.38852515661E+01 -0.17856149234E+02  0.20000000000E+02  0.47000000000E+01 0. -1.
</event>
<event>
 4    1  0.5025809E-002  0.4000000E+02  0.7546771E-02  0.1348030E+00
         11   -1    0    0    0    0  0.00000000000E+00  0.00000000000E+00  0.20000000000E+02  0.20000000000E+02  0.00000000000E+00 0.  1.
        -11   -1    0    0    0    0 -0.00000000000E+00 -0.00000000000E+00 -0.20000000000E+02  0.20000000000E+02  0.00000000000E+00 0. -1.
          5    1    1    2  501    0 -0.15720939171E+02 -0.21296213210E+00 -0.11433141244E+02  0.20000000000E+02  0.47000000000E+01 0. -1.
         -5    1    1    2    0  501  0.15720939171E+02  0.21296213210E+00  0.11433141244E+02  0.20000000000E+02  0.47000000000E+01 0.  1.
</event>
<event>
 4    1  0.5025809E-002  0.4000000E+02  0.7546771E-02  0.1348030E+00
         11   -1    0    0    0    0  0.00000000000E+00  0.00000000000E+00  0.20000000000E+02  0.20000000000E+02  0.00000000000E+00 0. -1.
        -11   -1    0    0    0    0 -0.00000000000E+00 -0.00000000000E+00 -0.20000000000E+02  0.20000000000E+02  0.00000000000E+00 0.  1.
          5    1    1    2  501    0 -0.15712828589E+02 -0.11353328058E+02  0.14556647112E+01  0.20000000000E+02  0.47000000000E+01 0.  1.
         -5    1    1    2    0  501  0.15712828589E+02  0.11353328058E+02 -0.14556647112E+01  0.20000000000E+02  0.47000000000E+01 0. -1.
</event>
<event>
 4    1  0.5025809E-002  0.4000000E+02  0.7546771E-02  0.1348030E+00
         11   -1    0    0    0    0  0.00000000000E+00  0.00000000000E+00  0.20000000000E+02  0.20000000000E+02  0.00000000000E+00 0.  1.
        -11   -1    0    0    0    0 -0.00000000000E+00 -0.00000000000E+00 -0.20000000000E+02  0.20000000000E+02  0.00000000000E+00 0. -1.
          5    1    1    2  501    0  0.14835755201E+02 -0.67916780989E+01  0.10568040320E+02  0.20000000000E+02  0.47000000000E+01 0.  1.
         -5    1    1    2    0  501 -0.14835755201E+02  0.67916780989E+01 -0.10568040320E+02  0.20000000000E+02  0.47000000000E+01 0. -1.
</event>
<event>
 4    1  0.5025809E-002  0.4000000E+02  0.7546771E-02  0.1348030E+00
         11   -1    0    0    0    0  0.00000000000E+00  0.00000000000E+00  0.20000000000E+02  0.20000000000E+02  0.00000000000E+00 0.  1.
        -11   -1    0    0    0    0 -0.00000000000E+00 -0.00000000000E+00 -0.20000000000E+02  0.20000000000E+02  0.00000000000E+00 0. -1.
          5    1    1    2  501    0 -0.88478999925E+00 -0.16835125041E+02  0.96801710485E+01  0.20000000000E+02  0.47000000000E+01 0.  1.
         -5    1    1    2    0  501  0.88478999925E+00  0.16835125041E+02 -0.96801710485E+01  0.20000000000E+02  0.47000000000E+01 0. -1.
</event>
<event>
 4    1  0.5025809E-002  0.4000000E+02  0.7546771E-02  0.1348030E+00
         11   -1    0    0    0    0  0.00000000000E+00  0.00000000000E+00  0.20000000000E+02  0.20000000000E+02  0.00000000000E+00 0.  1.
        -11   -1    0    0    0    0 -0.00000000000E+00 -0.00000000000E+00 -0.20000000000E+02  0.20000000000E+02  0.00000000000E+00 0. -1.
          5    1    1    2  501    0  0.19200375939E+02  0.16216547286E+01  0.25740628878E+01  0.20000000000E+02  0.47000000000E+01 0. -1.
         -5    1    1    2    0  501 -0.19200375939E+02 -0.16216547286E+01 -0.25740628878E+01  0.20000000000E+02  0.47000000000E+01 0.  1.
</event>
<event>
 4    1  0.5025809E-002  0.4000000E+02  0.7546771E-02  0.1348030E+00
         11   -1    0    0    0    0  0.00000000000E+00  0.00000000000E+00  0.20000000000E+02  0.20000000000E+02  0.00000000000E+00 0. -1.
        -11   -1    0    0    0    0 -0.00000000000E+00 -0.00000000000E+00 -0.20000000000E+02  0.20000000000E+02  0.00000000000E+00 0.  1.
          5    1    1    2  501    0 -0.50221912573E+01  0.17683026763E+02 -0.63244098130E+01  0.20000000000E+02  0.47000000000E+01 0.  1.
         -5    1    1    2    0  501  0.50221912573E+01 -0.17683026763E+02  0.63244098130E+01  0.20000000000E+02  0.47000000000E+01 0. -1.
</event>
<event>
 4    1  0.5025809E-002  0.4000000E+02  0.7546771E-02  0.1348030E+00
         11   -1    0    0    0    0  0.00000000000E+00  0.00000000000E+00  0.20000000000E+02  0.20000000000E+02  0.00000000000E+00 0.  1.
        -11   -1    0    0    0    0 -0.00000000000E+00 -0.00000000000E+00 -0.20000000000E+02  0.20000000000E+02  0.00000000000E+00 0. -1.
          5    1    1    2  501    0 -0.36788334603E+01 -0.15257095487E+02  0.11471583224E+02  0.20000000000E+02  0.47000000000E+01 0.  1.
         -5    1    1    2    0  501  0.36788334603E+01  0.15257095487E+02 -0.11471583224E+02  0.20000000000E+02  0.47000000000E+01 0. -1.
</event>
<event>
 4    1  0.5025809E-002  0.4000000E+02  0.7546771E-02  0.1348030E+00
         11   -1    0    0    0    0  0.00000000000E+00  0.00000000000E+00  0.20000000000E+02  0.20000000000E+02  0.00000000000E+00 0.  1.
        -11   -1    0    0    0    0 -0.00000000000E+00 -0.00000000000E+00 -0.20000000000E+02  0.20000000000E+02  0.00000000000E+00 0. -1.
          5    1    1    2  501    0 -0.64713538460E+01 -0.11486135433E+02  0.14286366656E+02  0.20000000000E+02  0.47000000000E+01 0.  1.
         -5    1    1    2    0  501  0.64713538460E+01  0.11486135433E+02 -0.14286366656E+02  0.20000000000E+02  0.47000000000E+01 0. -1.
</event>
<event>
 4    1  0.5025809E-002  0.4000000E+02  0.7546771E-02  0.1348030E+00
         11   -1    0    0    0    0  0.00000000000E+00  0.00000000000E+00  0.20000000000E+02  0.20000000000E+02  0.00000000000E+00 0.  1.
        -11   -1    0    0    0    0 -0.00000000000E+00 -0.00000000000E+00 -0.20000000000E+02  0.20000000000E+02  0.00000000000E+00 0. -1.
          5    1    1    2  501    0 -0.14769675902E+02  0.17928869890E+01  0.12512083359E+02  0.20000000000E+02  0.47000000000E+01 0. -1.
         -5    1    1    2    0  501  0.14769675902E+02 -0.17928869890E+01 -0.12512083359E+02  0.20000000000E+02  0.47000000000E+01 0.  1.
</event>
<event>
 4    1  0.5025809E-002  0.4000000E+02  0.7546771E-02  0.1348030E+00
         11   -1    0    0    0    0  0.00000000000E+00  0.00000000000E+00  0.20000000000E+02  0.20000000000E+02  0.00000000000E+00 0. -1.
        -11   -1    0    0    0    0 -0.00000000000E+00 -0.00000000000E+00 -0.20000000000E+02  0.20000000000E+02  0.00000000000E+00 0.  1.
          5    1    1    2  501    0 -0.25800228892E+01 -0.19260385487E+02  0.53947454534E+00  0.20000000000E+02  0.47000000000E+01 0.  1.
         -5    1    1    2    0  501  0.25800228892E+01  0.19260385487E+02 -0.53947454534E+00  0.20000000000E+02  0.47000000000E+01 0. -1.
</event>
<event>
 4    1  0.5025809E-002  0.4000000E+02  0.7546771E-02  0.1348030E+00
         11   -1    0    0    0    0  0.00000000000E+00  0.00000000000E+00  0.20000000000E+02  0.20000000000E+02  0.00000000000E+00 0.  1.
        -11   -1    0    0    0    0 -0.00000000000E+00 -0.00000000000E+00 -0.20000000000E+02  0.20000000000E+02  0.00000000000E+00 0. -1.
          5    1    1    2  501    0 -0.93717855796E+01 -0.13939025908E+02 -0.97868887691E+01  0.20000000000E+02  0.47000000000E+01 0. -1.
         -5    1    1    2    0  501  0.93717855796E+01  0.13939025908E+02  0.97868887691E+01  0.20000000000E+02  0.47000000000E+01 0.  1.
</event>
<event>
 4    1  0.5025809E-002  0.4000000E+02  0.7546771E-02  0.1348030E+00
         11   -1    0    0    0    0  0.00000000000E+00  0.00000000000E+00  0.20000000000E+02  0.20000000000E+02  0.00000000000E+00 0. -1.
        -11   -1    0    0    0    0 -0.00000000000E+00 -0.00000000000E+00 -0.20000000000E+02  0.20000000000E+02  0.00000000000E+00 0.  1.
          5    1    1    2  501    0 -0.92815323143E+01 -0.16903710892E+02 -0.24551407219E+01  0.20000000000E+02  0.47000000000E+01 0.  1.
         -5    1    1    2    0  501  0.92815323143E+01  0.16903710892E+02  0.24551407219E+01  0.20000000000E+02  0.47000000000E+01 0. -1.
</event>
<event>
 4    1  0.5025809E-002  0.4000000E+02  0.7546771E-02  0.1348030E+00
         11   -1    0    0    0    0  0.00000000000E+00  0.00000000000E+00  0.20000000000E+02  0.20000000000E+02  0.00000000000E+00 0.  1.
        -11   -1    0    0    0    0 -0.00000000000E+00 -0.00000000000E+00 -0.20000000000E+02  0.20000000000E+02  0.00000000000E+00 0. -1.
          5    1    1    2  501    0 -0.75451656101E+00 -0.13450905010E+02 -0.14014772891E+02  0.20000000000E+02  0.47000000000E+01 0. -1.
         -5    1    1    2    0  501  0.75451656101E+00  0.13450905010E+02  0.14014772891E+02  0.20000000000E+02  0.47000000000E+01 0.  1.
</event>
<event>
 4    1  0.5025809E-002  0.4000000E+02  0.7546771E-02  0.1348030E+00
         11   -1    0    0    0    0  0.00000000000E+00  0.00000000000E+00  0.20000000000E+02  0.20000000000E+02  0.00000000000E+00 0.  1.
        -11   -1    0    0    0    0 -0.00000000000E+00 -0.00000000000E+00 -0.20000000000E+02  0.20000000000E+02  0.00000000000E+00 0. -1.
          5    1    1    2  501    0 -0.13634148302E+02  0.88829349244E+01 -0.10635481522E+02  0.20000000000E+02  0.47000000000E+01 0. -1.
         -5    1    1    2    0  501  0.13634148302E+02 -0.88829349244E+01  0.10635481522E+02  0.20000000000E+02  0.47000000000E+01 0.  1.
</event>
<event>
 4    1  0.5025809E-002  0.4000000E+02  0.7546771E-02  0.1348030E+00
         11   -1    0    0    0    0  0.00000000000E+00  0.00000000000E+00  0.20000000000E+02  0.20000000000E+02  0.00000000000E+00 0.  1.
        -11   -1    0    0    0    0 -0.00000000000E+00 -0.00000000000E+00 -0.20000000000E+02  0.20000000000E+02  0.00000000000E+00 0. -1.
          5    1    1    2  501    0  0.30939603045E+01  0.62313937581E+01 -0.18152331571E+02  0.20000000000E+02  0.47000000000E+01 0. -1.
         -5    1    1    2    0  501 -0.30939603045E+01 -0.62313937581E+01  0.18152331571E+02  0.20000000000E+02  0.47000000000E+01 0.  1.
</event>
<event>
 4    1  0.5025809E-002  0.4000000E+02  0.7546771E-02  0.1348030E+00
         11   -1    0    0    0    0  0.00000000000E+00  0.00000000000E+00  0.20000000000E+02  0.20000000000E+02  0.00000000000E+00 0. -1.
        -11   -1    0    0    0    0 -0.00000000000E+00 -0.00000000000E+00 -0.20000000000E+02  0.20000000000E+02  0.00000000000E+00 0.  1.
          5    1    1    2  501    0  0.35594127296E+01 -0.57261965812E+01 -0.18233245836E+02  0.20000000000E+02  0.47000000000E+01 0.  1.
         -5    1    1    2    0  501 -0.35594127296E+01  0.57261965812E+01  0.18233245836E+02  0.20000000000E+02  0.47000000000E+01 0. -1.
</event>
<event>
 4    1  0.5025809E-002  0.4000000E+02  0.7546771E-02  0.1348030E+00
         11   -1    0    0    0    0  0.00000000000E+00  0.00000000000E+00  0.20000000000E+02  0.20000000000E+02  0.00000000000E+00 0. -1.
        -11   -1    0    0    0    0 -0.00000000000E+00 -0.00000000000E+00 -0.20000000000E+02  0.20000000000E+02  0.00000000000E+00 0.  1.
          5    1    1    2  501    0 -0.16336093813E+02  0.18272995776E+01  0.10378006320E+02  0.20000000000E+02  0.47000000000E+01 0.  1.
         -5    1    1    2    0  501  0.16336093813E+02 -0.18272995776E+01 -0.10378006320E+02  0.20000000000E+02  0.47000000000E+01 0. -1.
</event>
<event>
 4    1  0.5025809E-002  0.4000000E+02  0.7546771E-02  0.1348030E+00
         11   -1    0    0    0    0  0.00000000000E+00  0.00000000000E+00  0.20000000000E+02  0.20000000000E+02  0.00000000000E+00 0. -1.
        -11   -1    0    0    0    0 -0.00000000000E+00 -0.00000000000E+00 -0.20000000000E+02  0.20000000000E+02  0.00000000000E+00 0.  1.
          5    1    1    2  501    0  0.33791096777E+01 -0.97120133380E+01  0.16497527533E+02  0.20000000000E+02  0.47000000000E+01 0. -1.
         -5    1    1    2    0  501 -0.33791096777E+01  0.97120133380E+01 -0.16497527533E+02  0.20000000000E+02  0.47000000000E+01 0.  1.
</event>
<event>
 4    1  0.5025809E-002  0.4000000E+02  0.7546771E-02  0.1348030E+00
         11   -1    0    0    0    0  0.00000000000E+00  0.00000000000E+00  0.20000000000E+02  0.20000000000E+02  0.00000000000E+00 0. -1.
        -11   -1    0    0    0    0 -0.00000000000E+00 -0.00000000000E+00 -0.20000000000E+02  0.20000000000E+02  0.00000000000E+00 0.  1.
          5    1    1    2  501    0  0.15472398464E+02 -0.10599596005E+02 -0.51150220220E+01  0.20000000000E+02  0.47000000000E+01 0.  1.
         -5    1    1    2    0  501 -0.15472398464E+02  0.10599596005E+02  0.51150220220E+01  0.20000000000E+02  0.47000000000E+01 0. -1.
</event>
<event>
 4    1  0.5025809E-002  0.4000000E+02  0.7546771E-02  0.1348030E+00
         11   -1    0    0    0    0  0.00000000000E+00  0.00000000000E+00  0.20000000000E+02  0.20000000000E+02  0.00000000000E+00 0.  1.
        -11   -1    0    0    0    0 -0.00000000000E+00 -0.00000000000E+00 -0.20000000000E+02  0.20000000000E+02  0.00000000000E+00 0. -1.
          5    1    1    2  501    0  0.60693060632E+01 -0.17221395600E+02 -0.66706114782E+01  0.20000000000E+02  0.47000000000E+01 0. -1.
         -5    1    1    2    0  501 -0.60693060632E+01  0.17221395600E+02  0.66706114782E+01  0.20000000000E+02  0.47000000000E+01 0.  1.
</event>
<event>
 4    1  0.5025809E-002  0.4000000E+02  0.7546771E-02  0.1348030E+00
         11   -1    0    0    0    0  0.00000000000E+00  0.00000000000E+00  0.20000000000E+02  0.20000000000E+02  0.00000000000E+00 0.  1.
        -11   -1    0    0    0    0 -0.00000000000E+00 -0.00000000000E+00 -0.20000000000E+02  0.20000000000E+02  0.00000000000E+00 0. -1.
          5    1    1    2  501    0 -0.26466310172E+00  0.15251690178E+01 -0.19378178782E+02  0.20000000000E+02  0.47000000000E+01 0. -1.
         -5    1    1    2    0  501  0.26466310172E+00 -0.15251690178E+01  0.19378178782E+02  0.20000000000E+02  0.47000000000E+01 0.  1.
</event>
<event>
 4    1  0.5025809E-002  0.4000000E+02  0.7546771E-02  0.1348030E+00
         11   -1    0    0    0    0  0.00000000000E+00  0.00000000000E+00  0.20000000000E+02  0.20000000000E+02  0.00000000000E+00 0.  1.
        -11   -1    0    0    0    0 -0.00000000000E+00 -0.00000000000E+00 -0.20000000000E+02  0.20000000000E+02  0.00000000000E+00 0. -1.
          5    1    1    2  501    0  0.18525443590E+02  0.35479211365E+01 -0.47042741631E+01  0.20000000000E+02  0.47000000000E+01 0.  1.
         -5    1    1    2    0  501 -0.18525443590E+02 -0.35479211365E+01  0.47042741631E+01  0.20000000000E+02  0.47000000000E+01 0.  1.
</event>
<event>
 4    1  0.5025809E-002  0.4000000E+02  0.7546771E-02  0.1348030E+00
         11   -1    0    0    0    0  0.00000000000E+00  0.00000000000E+00  0.20000000000E+02  0.20000000000E+02  0.00000000000E+00 0. -1.
        -11   -1    0    0    0    0 -0.00000000000E+00 -0.00000000000E+00 -0.20000000000E+02  0.20000000000E+02  0.00000000000E+00 0.  1.
          5    1    1    2  501    0  0.15130671520E+02  0.11979408074E+02 -0.23380679108E+01  0.20000000000E+02  0.47000000000E+01 0. -1.
         -5    1    1    2    0  501 -0.15130671520E+02 -0.11979408074E+02  0.23380679108E+01  0.20000000000E+02  0.47000000000E+01 0.  1.
</event>
<event>
 4    1  0.5025809E-002  0.4000000E+02  0.7546771E-02  0.1348030E+00
         11   -1    0    0    0    0  0.00000000000E+00  0.00000000000E+00  0.20000000000E+02  0.20000000000E+02  0.00000000000E+00 0. -1.
        -11   -1    0    0    0    0 -0.00000000000E+00 -0.00000000000E+00 -0.20000000000E+02  0.20000000000E+02  0.00000000000E+00 0.  1.
          5    1    1    2  501    0  0.14394761048E+02  0.11579003576E+02  0.60520682873E+01  0.20000000000E+02  0.47000000000E+01 0. -1.
         -5    1    1    2    0  501 -0.14394761048E+02 -0.11579003576E+02 -0.60520682873E+01  0.20000000000E+02  0.47000000000E+01 0.  1.
</event>
<event>
 4    1  0.5025809E-002  0.4000000E+02  0.7546771E-02  0.1348030E+00
         11   -1    0    0    0    0  0.00000000000E+00  0.00000000000E+00  0.20000000000E+02  0.20000000000E+02  0.00000000000E+00 0.  1.
        -11   -1    0    0    0    0 -0.00000000000E+00 -0.00000000000E+00 -0.20000000000E+02  0.20000000000E+02  0.00000000000E+00 0. -1.
          5    1    1    2  501    0  0.13227465034E+02 -0.13768980418E+02  0.36550440504E+01  0.20000000000E+02  0.47000000000E+01 0. -1.
         -5    1    1    2    0  501 -0.13227465034E+02  0.13768980418E+02 -0.36550440504E+01  0.20000000000E+02  0.47000000000E+01 0.  1.
</event>
<event>
 4    1  0.5025809E-002  0.4000000E+02  0.7546771E-02  0.1348030E+00
         11   -1    0    0    0    0  0.00000000000E+00  0.00000000000E+00  0.20000000000E+02  0.20000000000E+02  0.00000000000E+00 0. -1.
        -11   -1    0    0    0    0 -0.00000000000E+00 -0.00000000000E+00 -0.20000000000E+02  0.20000000000E+02  0.00000000000E+00 0.  1.
          5    1    1    2  501    0  0.10499306815E+02 -0.40129213203E+01 -0.15860990476E+02  0.20000000000E+02  0.47000000000E+01 0.  1.
         -5    1    1    2    0  501 -0.10499306815E+02  0.40129213203E+01  0.15860990476E+02  0.20000000000E+02  0.47000000000E+01 0. -1.
</event>
<event>
 4    1  0.5025809E-002  0.4000000E+02  0.7546771E-02  0.1348030E+00
         11   -1    0    0    0    0  0.00000000000E+00  0.00000000000E+00  0.20000000000E+02  0.20000000000E+02  0.00000000000E+00 0.  1.
        -11   -1    0    0    0    0 -0.00000000000E+00 -0.00000000000E+00 -0.20000000000E+02  0.20000000000E+02  0.00000000000E+00 0. -1.
          5    1    1    2  501    0  0.97117640261E+01  0.15823301485E+02  0.57632256261E+01  0.20000000000E+02  0.47000000000E+01 0. -1.
         -5    1    1    2    0  501 -0.97117640261E+01 -0.15823301485E+02 -0.57632256261E+01  0.20000000000E+02  0.47000000000E+01 0.  1.
</event>
<event>
 4    1  0.5025809E-002  0.4000000E+02  0.7546771E-02  0.1348030E+00
         11   -1    0    0    0    0  0.00000000000E+00  0.00000000000E+00  0.20000000000E+02  0.20000000000E+02  0.00000000000E+00 0.  1.
        -11   -1    0    0    0    0 -0.00000000000E+00 -0.00000000000E+00 -0.20000000000E+02  0.20000000000E+02  0.00000000000E+00 0. -1.
          5    1    1    2  501    0 -0.12014945448E+02 -0.71249518518E+01 -0.13519842713E+02  0.20000000000E+02  0.47000000000E+01 0. -1.
         -5    1    1    2    0  501  0.12014945448E+02  0.71249518518E+01  0.13519842713E+02  0.20000000000E+02  0.47000000000E+01 0.  1.
</event>
<event>
 4    1  0.5025809E-002  0.4000000E+02  0.7546771E-02  0.1348030E+00
         11   -1    0    0    0    0  0.00000000000E+00  0.00000000000E+00  0.20000000000E+02  0.20000000000E+02  0.00000000000E+00 0.  1.
        -11   -1    0    0    0    0 -0.00000000000E+00 -0.00000000000E+00 -0.20000000000E+02  0.20000000000E+02  0.00000000000E+00 0. -1.
          5    1    1    2  501    0 -0.15837353296E+02 -0.97524016001E+01  0.56549892667E+01  0.20000000000E+02  0.47000000000E+01 0.  1.
         -5    1    1    2    0  501  0.15837353296E+02  0.97524016001E+01 -0.56549892667E+01  0.20000000000E+02  0.47000000000E+01 0. -1.
</event>
<event>
 4    1  0.5025809E-002  0.4000000E+02  0.7546771E-02  0.1348030E+00
         11   -1    0    0    0    0  0.00000000000E+00  0.00000000000E+00  0.20000000000E+02  0.20000000000E+02  0.00000000000E+00 0.  1.
        -11   -1    0    0    0    0 -0.00000000000E+00 -0.00000000000E+00 -0.20000000000E+02  0.20000000000E+02  0.00000000000E+00 0. -1.
          5    1    1    2  501    0 -0.19303632642E+02 -0.60867878566E+00 -0.22156888200E+01  0.20000000000E+02  0.47000000000E+01 0. -1.
         -5    1    1    2    0  501  0.19303632642E+02  0.60867878566E+00  0.22156888200E+01  0.20000000000E+02  0.47000000000E+01 0.  1.
</event>
<event>
 4    1  0.5025809E-002  0.4000000E+02  0.7546771E-02  0.1348030E+00
         11   -1    0    0    0    0  0.00000000000E+00  0.00000000000E+00  0.20000000000E+02  0.20000000000E+02  0.00000000000E+00 0. -1.
        -11   -1    0    0    0    0 -0.00000000000E+00 -0.00000000000E+00 -0.20000000000E+02  0.20000000000E+02  0.00000000000E+00 0.  1.
          5    1    1    2  501    0 -0.19355599522E+02 -0.17107283785E+01 -0.58666476067E+00  0.20000000000E+02  0.47000000000E+01 0. -1.
         -5    1    1    2    0  501  0.19355599522E+02  0.17107283785E+01  0.58666476067E+00  0.20000000000E+02  0.47000000000E+01 0. -1.
</event>
<event>
 4    1  0.5025809E-002  0.4000000E+02  0.7546771E-02  0.1348030E+00
         11   -1    0    0    0    0  0.00000000000E+00  0.00000000000E+00  0.20000000000E+02  0.20000000000E+02  0.00000000000E+00 0.  1.
        -11   -1    0    0    0    0 -0.00000000000E+00 -0.00000000000E+00 -0.20000000000E+02  0.20000000000E+02  0.00000000000E+00 0. -1.
          5    1    1    2  501    0 -0.87760866168E+01  0.38800134350E+01 -0.16906679137E+02  0.20000000000E+02  0.47000000000E+01 0. -1.
         -5    1    1    2    0  501  0.87760866168E+01 -0.38800134350E+01  0.16906679137E+02  0.20000000000E+02  0.47000000000E+01 0.  1.
</event>
<event>
 4    1  0.5025809E-002  0.4000000E+02  0.7546771E-02  0.1348030E+00
         11   -1    0    0    0    0  0.00000000000E+00  0.00000000000E+00  0.20000000000E+02  0.20000000000E+02  0.00000000000E+00 0.  1.
        -11   -1    0    0    0    0 -0.00000000000E+00 -0.00000000000E+00 -0.20000000000E+02  0.20000000000E+02  0.00000000000E+00 0. -1.
          5    1    1    2  501    0 -0.14352194844E+02  0.28930466119E+01 -0.12788853916E+02  0.20000000000E+02  0.47000000000E+01 0. -1.
         -5    1    1    2    0  501  0.14352194844E+02 -0.28930466119E+01  0.12788853916E+02  0.20000000000E+02  0.47000000000E+01 0.  1.
</event>
<event>
 4    1  0.5025809E-002  0.4000000E+02  0.7546771E-02  0.1348030E+00
         11   -1    0    0    0    0  0.00000000000E+00  0.00000000000E+00  0.20000000000E+02  0.20000000000E+02  0.00000000000E+00 0.  1.
        -11   -1    0    0    0    0 -0.00000000000E+00 -0.00000000000E+00 -0.20000000000E+02  0.20000000000E+02  0.00000000000E+00 0. -1.
          5    1    1    2  501    0 -0.76396748683E+01 -0.16470513657E+02 -0.69474849976E+01  0.20000000000E+02  0.47000000000E+01 0. -1.
         -5    1    1    2    0  501  0.76396748683E+01  0.16470513657E+02  0.69474849976E+01  0.20000000000E+02  0.47000000000E+01 0.  1.
</event>
<event>
 4    1  0.5025809E-002  0.4000000E+02  0.7546771E-02  0.1348030E+00
         11   -1    0    0    0    0  0.00000000000E+00  0.00000000000E+00  0.20000000000E+02  0.20000000000E+02  0.00000000000E+00 0. -1.
        -11   -1    0    0    0    0 -0.00000000000E+00 -0.00000000000E+00 -0.20000000000E+02  0.20000000000E+02  0.00000000000E+00 0.  1.
          5    1    1    2  501    0  0.96972743461E+01  0.86053001920E+01 -0.14485222776E+02  0.20000000000E+02  0.47000000000E+01 0.  1.
         -5    1    1    2    0  501 -0.96972743461E+01 -0.86053001920E+01  0.14485222776E+02  0.20000000000E+02  0.47000000000E+01 0. -1.
</event>
<event>
 4    1  0.5025809E-002  0.4000000E+02  0.7546771E-02  0.1348030E+00
         11   -1    0    0    0    0  0.00000000000E+00  0.00000000000E+00  0.20000000000E+02  0.20000000000E+02  0.00000000000E+00 0. -1.
        -11   -1    0    0    0    0 -0.00000000000E+00 -0.00000000000E+00 -0.20000000000E+02  0.20000000000E+02  0.00000000000E+00 0.  1.
          5    1    1    2  501    0  0.57848911004E+01 -0.39838288655E+01 -0.18126614205E+02  0.20000000000E+02  0.47000000000E+01 0.  1.
         -5    1    1    2    0  501 -0.57848911004E+01  0.39838288655E+01  0.18126614205E+02  0.20000000000E+02  0.47000000000E+01 0. -1.
</event>
<event>
 4    1  0.5025809E-002  0.4000000E+02  0.7546771E-02  0.1348030E+00
         11   -1    0    0    0    0  0.00000000000E+00  0.00000000000E+00  0.20000000000E+02  0.20000000000E+02  0.00000000000E+00 0. -1.
        -11   -1    0    0    0    0 -0.00000000000E+00 -0.00000000000E+00 -0.20000000000E+02  0.20000000000E+02  0.00000000000E+00 0.  1.
          5    1    1    2  501    0  0.15981629059E+02  0.67877299754E+01 -0.87420966822E+01  0.20000000000E+02  0.47000000000E+01 0.  1.
         -5    1    1    2    0  501 -0.15981629059E+02 -0.67877299754E+01  0.87420966822E+01  0.20000000000E+02  0.47000000000E+01 0. -1.
</event>
<event>
 4    1  0.5025809E-002  0.4000000E+02  0.7546771E-02  0.1348030E+00
         11   -1    0    0    0    0  0.00000000000E+00  0.00000000000E+00  0.20000000000E+02  0.20000000000E+02  0.00000000000E+00 0.  1.
        -11   -1    0    0    0    0 -0.00000000000E+00 -0.00000000000E+00 -0.20000000000E+02  0.20000000000E+02  0.00000000000E+00 0. -1.
          5    1    1    2  501    0 -0.13742946247E+02  0.13141769954E+02 -0.40416965404E+01  0.20000000000E+02  0.47000000000E+01 0.  1.
         -5    1    1    2    0  501  0.13742946247E+02 -0.13141769954E+02  0.40416965404E+01  0.20000000000E+02  0.47000000000E+01 0. -1.
</event>
<event>
 4    1  0.5025809E-002  0.4000000E+02  0.7546771E-02  0.1348030E+00
         11   -1    0    0    0    0  0.00000000000E+00  0.00000000000E+00  0.20000000000E+02  0.20000000000E+02  0.00000000000E+00 0.  1.
        -11   -1    0    0    0    0 -0.00000000000E+00 -0.00000000000E+00 -0.20000000000E+02  0.20000000000E+02  0.00000000000E+00 0. -1.
          5    1    1    2  501    0 -0.78379269478E+01  0.17777646095E+02  0.65741957027E+00  0.20000000000E+02  0.47000000000E+01 0. -1.
         -5    1    1    2    0  501  0.78379269478E+01 -0.17777646095E+02 -0.65741957027E+00  0.20000000000E+02  0.47000000000E+01 0.  1.
</event>
<event>
 4    1  0.5025809E-002  0.4000000E+02  0.7546771E-02  0.1348030E+00
         11   -1    0    0    0    0  0.00000000000E+00  0.00000000000E+00  0.20000000000E+02  0.20000000000E+02  0.00000000000E+00 0.  1.
        -11   -1    0    0    0    0 -0.00000000000E+00 -0.00000000000E+00 -0.20000000000E+02  0.20000000000E+02  0.00000000000E+00 0. -1.
          5    1    1    2  501    0 -0.30692095340E+00 -0.15104011776E+02 -0.12234566923E+02  0.20000000000E+02  0.47000000000E+01 0. -1.
         -5    1    1    2    0  501  0.30692095340E+00  0.15104011776E+02  0.12234566923E+02  0.20000000000E+02  0.47000000000E+01 0.  1.
</event>
<event>
 4    1  0.5025809E-002  0.4000000E+02  0.7546771E-02  0.1348030E+00
         11   -1    0    0    0    0  0.00000000000E+00  0.00000000000E+00  0.20000000000E+02  0.20000000000E+02  0.00000000000E+00 0. -1.
        -11   -1    0    0    0    0 -0.00000000000E+00 -0.00000000000E+00 -0.20000000000E+02  0.20000000000E+02  0.00000000000E+00 0.  1.
          5    1    1    2  501    0 -0.17901875787E+02 -0.38081157819E+01 -0.65521826508E+01  0.20000000000E+02  0.47000000000E+01 0.  1.
         -5    1    1    2    0  501  0.17901875787E+02  0.38081157819E+01  0.65521826508E+01  0.20000000000E+02  0.47000000000E+01 0. -1.
</event>
<event>
 4    1  0.5025809E-002  0.4000000E+02  0.7546771E-02  0.1348030E+00
         11   -1    0    0    0    0  0.00000000000E+00  0.00000000000E+00  0.20000000000E+02  0.20000000000E+02  0.00000000000E+00 0.  1.
        -11   -1    0    0    0    0 -0.00000000000E+00 -0.00000000000E+00 -0.20000000000E+02  0.20000000000E+02  0.00000000000E+00 0. -1.
          5    1    1    2  501    0  0.60403310060E+01 -0.16879989103E+00 -0.18476902011E+02  0.20000000000E+02  0.47000000000E+01 0. -1.
         -5    1    1    2    0  501 -0.60403310060E+01  0.16879989103E+00  0.18476902011E+02  0.20000000000E+02  0.47000000000E+01 0.  1.
</event>
<event>
 4    1  0.5025809E-002  0.4000000E+02  0.7546771E-02  0.1348030E+00
         11   -1    0    0    0    0  0.00000000000E+00  0.00000000000E+00  0.20000000000E+02  0.20000000000E+02  0.00000000000E+00 0. -1.
        -11   -1    0    0    0    0 -0.00000000000E+00 -0.00000000000E+00 -0.20000000000E+02  0.20000000000E+02  0.00000000000E+00 0.  1.
          5    1    1    2  501    0 -0.13869193343E+02 -0.92643792097E+00 -0.13590334388E+02  0.20000000000E+02  0.47000000000E+01 0.  1.
         -5    1    1    2    0  501  0.13869193343E+02  0.92643792097E+00  0.13590334388E+02  0.20000000000E+02  0.47000000000E+01 0. -1.
</event>
<event>
 4    1  0.5025809E-002  0.4000000E+02  0.7546771E-02  0.1348030E+00
         11   -1    0    0    0    0  0.00000000000E+00  0.00000000000E+00  0.20000000000E+02  0.20000000000E+02  0.00000000000E+00 0. -1.
        -11   -1    0    0    0    0 -0.00000000000E+00 -0.00000000000E+00 -0.20000000000E+02  0.20000000000E+02  0.00000000000E+00 0.  1.
          5    1    1    2  501    0  0.47691437125E+01  0.88462130538E+01 -0.16640606445E+02  0.20000000000E+02  0.47000000000E+01 0.  1.
         -5    1    1    2    0  501 -0.47691437125E+01 -0.88462130538E+01  0.16640606445E+02  0.20000000000E+02  0.47000000000E+01 0. -1.
</event>
<event>
 4    1  0.5025809E-002  0.4000000E+02  0.7546771E-02  0.1348030E+00
         11   -1    0    0    0    0  0.00000000000E+00  0.00000000000E+00  0.20000000000E+02  0.20000000000E+02  0.00000000000E+00 0. -1.
        -11   -1    0    0    0    0 -0.00000000000E+00 -0.00000000000E+00 -0.20000000000E+02  0.20000000000E+02  0.00000000000E+00 0.  1.
          5    1    1    2  501    0  0.49263063587E+01  0.35013190072E+01 -0.18476532978E+02  0.20000000000E+02  0.47000000000E+01 0.  1.
         -5    1    1    2    0  501 -0.49263063587E+01 -0.35013190072E+01  0.18476532978E+02  0.20000000000E+02  0.47000000000E+01 0. -1.
</event>
<event>
 4    1  0.5025809E-002  0.4000000E+02  0.7546771E-02  0.1348030E+00
         11   -1    0    0    0    0  0.00000000000E+00  0.00000000000E+00  0.20000000000E+02  0.20000000000E+02  0.00000000000E+00 0.  1.
        -11   -1    0    0    0    0 -0.00000000000E+00 -0.00000000000E+00 -0.20000000000E+02  0.20000000000E+02  0.00000000000E+00 0. -1.
          5    1    1    2  501    0 -0.11994411301E+02 -0.10399676757E+02  0.11220107882E+02  0.20000000000E+02  0.47000000000E+01 0.  1.
         -5    1    1    2    0  501  0.11994411301E+02  0.10399676757E+02 -0.11220107882E+02  0.20000000000E+02  0.47000000000E+01 0.  1.
</event>
<event>
 4    1  0.5025809E-002  0.4000000E+02  0.7546771E-02  0.1348030E+00
         11   -1    0    0    0    0  0.00000000000E+00  0.00000000000E+00  0.20000000000E+02  0.20000000000E+02  0.00000000000E+00 0.  1.
        -11   -1    0    0    0    0 -0.00000000000E+00 -0.00000000000E+00 -0.20000000000E+02  0.20000000000E+02  0.00000000000E+00 0. -1.
          5    1    1    2  501    0  0.83586639302E+01 -0.26416514880E+01 -0.17351207875E+02  0.20000000000E+02  0.47000000000E+01 0. -1.
         -5    1    1    2    0  501 -0.83586639302E+01  0.26416514880E+01  0.17351207875E+02  0.20000000000E+02  0.47000000000E+01 0.  1.
</event>
<event>
 4    1  0.5025809E-002  0.4000000E+02  0.7546771E-02  0.1348030E+00
         11   -1    0    0    0    0  0.00000000000E+00  0.00000000000E+00  0.20000000000E+02  0.20000000000E+02  0.00000000000E+00 0. -1.
        -11   -1    0    0    0    0 -0.00000000000E+00 -0.00000000000E+00 -0.20000000000E+02  0.20000000000E+02  0.00000000000E+00 0.  1.
          5    1    1    2  501    0 -0.28716984805E+01  0.12724287993E+02 -0.14413737992E+02  0.20000000000E+02  0.47000000000E+01 0.  1.
         -5    1    1    2    0  501  0.28716984805E+01 -0.12724287993E+02  0.14413737992E+02  0.20000000000E+02  0.47000000000E+01 0. -1.
</event>
<event>
 4    1  0.5025809E-002  0.4000000E+02  0.7546771E-02  0.1348030E+00
         11   -1    0    0    0    0  0.00000000000E+00  0.00000000000E+00  0.20000000000E+02  0.20000000000E+02  0.00000000000E+00 0.  1.
        -11   -1    0    0    0    0 -0.00000000000E+00 -0.00000000000E+00 -0.20000000000E+02  0.20000000000E+02  0.00000000000E+00 0. -1.
          5    1    1    2  501    0 -0.42562432797E+01  0.71620137814E+01 -0.17564166696E+02  0.20000000000E+02  0.47000000000E+01 0. -1.
         -5    1    1    2    0  501  0.42562432797E+01 -0.71620137814E+01  0.17564166696E+02  0.20000000000E+02  0.47000000000E+01 0.  1.
</event>
<event>
 4    1  0.5025809E-002  0.4000000E+02  0.7546771E-02  0.1348030E+00
         11   -1    0    0    0    0  0.00000000000E+00  0.00000000000E+00  0.20000000000E+02  0.20000000000E+02  0.00000000000E+00 0. -1.
        -11   -1    0    0    0    0 -0.00000000000E+00 -0.00000000000E+00 -0.20000000000E+02  0.20000000000E+02  0.00000000000E+00 0.  1.
          5    1    1    2  501    0  0.44227618320E+01 -0.69859780592E+01  0.17593899179E+02  0.20000000000E+02  0.47000000000E+01 0. -1.
         -5    1    1    2    0  501 -0.44227618320E+01  0.69859780592E+01 -0.17593899179E+02  0.20000000000E+02  0.47000000000E+01 0.  1.
</event>
<event>
 4    1  0.5025809E-002  0.4000000E+02  0.7546771E-02  0.1348030E+00
         11   -1    0    0    0    0  0.00000000000E+00  0.00000000000E+00  0.20000000000E+02  0.20000000000E+02  0.00000000000E+00 0. -1.
        -11   -1    0    0    0    0 -0.00000000000E+00 -0.00000000000E+00 -0.20000000000E+02  0.20000000000E+02  0.00000000000E+00 0.  1.
          5    1    1    2  501    0 -0.35453243609E+01 -0.16447699032E+02 -0.97372414837E+01  0.20000000000E+02  0.47000000000E+01 0.  1.
         -5    1    1    2    0  501  0.35453243609E+01  0.16447699032E+02  0.97372414837E+01  0.20000000000E+02  0.47000000000E+01 0. -1.
</event>
<event>
 4    1  0.5025809E-002  0.4000000E+02  0.7546771E-02  0.1348030E+00
         11   -1    0    0    0    0  0.00000000000E+00  0.00000000000E+00  0.20000000000E+02  0.20000000000E+02  0.00000000000E+00 0.  1.
        -11   -1    0    0    0    0 -0.00000000000E+00 -0.00000000000E+00 -0.20000000000E+02  0.20000000000E+02  0.00000000000E+00 0. -1.
          5    1    1    2  501    0  0.16300873485E+02 -0.52780646754E+01  0.91833303820E+01  0.20000000000E+02  0.47000000000E+01 0.  1.
         -5    1    1    2    0  501 -0.16300873485E+02  0.52780646754E+01 -0.91833303820E+01  0.20000000000E+02  0.47000000000E+01 0.  1.
</event>
<event>
 4    1  0.5025809E-002  0.4000000E+02  0.7546771E-02  0.1348030E+00
         11   -1    0    0    0    0  0.00000000000E+00  0.00000000000E+00  0.20000000000E+02  0.20000000000E+02  0.00000000000E+00 0. -1.
        -11   -1    0    0    0    0 -0.00000000000E+00 -0.00000000000E+00 -0.20000000000E+02  0.20000000000E+02  0.00000000000E+00 0.  1.
          5    1    1    2  501    0  0.75768618432E+01  0.49325712278E+01 -0.17209616663E+02  0.20000000000E+02  0.47000000000E+01 0.  1.
         -5    1    1    2    0  501 -0.75768618432E+01 -0.49325712278E+01  0.17209616663E+02  0.20000000000E+02  0.47000000000E+01 0. -1.
</event>
<event>
 4    1  0.5025809E-002  0.4000000E+02  0.7546771E-02  0.1348030E+00
         11   -1    0    0    0    0  0.00000000000E+00  0.00000000000E+00  0.20000000000E+02  0.20000000000E+02  0.00000000000E+00 0.  1.
        -11   -1    0    0    0    0 -0.00000000000E+00 -0.00000000000E+00 -0.20000000000E+02  0.20000000000E+02  0.00000000000E+00 0. -1.
          5    1    1    2  501    0  0.18997749714E+02 -0.40625162040E+01  0.70104771610E+00  0.20000000000E+02  0.47000000000E+01 0. -1.
         -5    1    1    2    0  501 -0.18997749714E+02  0.40625162040E+01 -0.70104771610E+00  0.20000000000E+02  0.47000000000E+01 0.  1.
</event>
<event>
 4    1  0.5025809E-002  0.4000000E+02  0.7546771E-02  0.1348030E+00
         11   -1    0    0    0    0  0.00000000000E+00  0.00000000000E+00  0.20000000000E+02  0.20000000000E+02  0.00000000000E+00 0. -1.
        -11   -1    0    0    0    0 -0.00000000000E+00 -0.00000000000E+00 -0.20000000000E+02  0.20000000000E+02  0.00000000000E+00 0.  1.
          5    1    1    2  501    0 -0.11989290948E+02  0.11699326944E+02 -0.98637037466E+01  0.20000000000E+02  0.47000000000E+01 0.  1.
         -5    1    1    2    0  501  0.11989290948E+02 -0.11699326944E+02  0.98637037466E+01  0.20000000000E+02  0.47000000000E+01 0. -1.
</event>
<event>
 4    1  0.5025809E-002  0.4000000E+02  0.7546771E-02  0.1348030E+00
         11   -1    0    0    0    0  0.00000000000E+00  0.00000000000E+00  0.20000000000E+02  0.20000000000E+02  0.00000000000E+00 0. -1.
        -11   -1    0    0    0    0 -0.00000000000E+00 -0.00000000000E+00 -0.20000000000E+02  0.20000000000E+02  0.00000000000E+00 0.  1.
          5    1    1    2  501    0  0.16465206550E+02 -0.89239790255E+01 -0.52124439188E+01  0.20000000000E+02  0.47000000000E+01 0.  1.
         -5    1    1    2    0  501 -0.16465206550E+02  0.89239790255E+01  0.52124439188E+01  0.20000000000E+02  0.47000000000E+01 0. -1.
</event>
<event>
 4    1  0.5025809E-002  0.4000000E+02  0.7546771E-02  0.1348030E+00
         11   -1    0    0    0    0  0.00000000000E+00  0.00000000000E+00  0.20000000000E+02  0.20000000000E+02  0.00000000000E+00 0. -1.
        -11   -1    0    0    0    0 -0.00000000000E+00 -0.00000000000E+00 -0.20000000000E+02  0.20000000000E+02  0.00000000000E+00 0.  1.
          5    1    1    2  501    0 -0.18510647490E+02  0.48210367694E-01  0.59383167040E+01  0.20000000000E+02  0.47000000000E+01 0. -1.
         -5    1    1    2    0  501  0.18510647490E+02 -0.48210367694E-01 -0.59383167040E+01  0.20000000000E+02  0.47000000000E+01 0.  1.
</event>
<event>
 4    1  0.5025809E-002  0.4000000E+02  0.7546771E-02  0.1348030E+00
         11   -1    0    0    0    0  0.00000000000E+00  0.00000000000E+00  0.20000000000E+02  0.20000000000E+02  0.00000000000E+00 0. -1.
        -11   -1    0    0    0    0 -0.00000000000E+00 -0.00000000000E+00 -0.20000000000E+02  0.20000000000E+02  0.00000000000E+00 0.  1.
          5    1    1    2  501    0 -0.46602029505E+01  0.53004259800E+01  0.18113475450E+02  0.20000000000E+02  0.47000000000E+01 0. -1.
         -5    1    1    2    0  501  0.46602029505E+01 -0.53004259800E+01 -0.18113475450E+02  0.20000000000E+02  0.47000000000E+01 0.  1.
</event>
<event>
 4    1  0.5025809E-002  0.4000000E+02  0.7546771E-02  0.1348030E+00
         11   -1    0    0    0    0  0.00000000000E+00  0.00000000000E+00  0.20000000000E+02  0.20000000000E+02  0.00000000000E+00 0. -1.
        -11   -1    0    0    0    0 -0.00000000000E+00 -0.00000000000E+00 -0.20000000000E+02  0.20000000000E+02  0.00000000000E+00 0.  1.
          5    1    1    2  501    0  0.13431233275E+02 -0.62600154118E+00 -0.14039946395E+02  0.20000000000E+02  0.47000000000E+01 0.  1.
         -5    1    1    2    0  501 -0.13431233275E+02  0.62600154118E+00  0.14039946395E+02  0.20000000000E+02  0.47000000000E+01 0. -1.
</event>
<event>
 4    1  0.5025809E-002  0.4000000E+02  0.7546771E-02  0.1348030E+00
         11   -1    0    0    0    0  0.00000000000E+00  0.00000000000E+00  0.20000000000E+02  0.20000000000E+02  0.00000000000E+00 0.  1.
        -11   -1    0    0    0    0 -0.00000000000E+00 -0.00000000000E+00 -0.20000000000E+02  0.20000000000E+02  0.00000000000E+00 0. -1.
          5    1    1    2  501    0  0.12063166853E-01 -0.15115990671E+01  0.19381045450E+02  0.20000000000E+02  0.47000000000E+01 0.  1.
         -5    1    1    2    0  501 -0.12063166853E-01  0.15115990671E+01 -0.19381045450E+02  0.20000000000E+02  0.47000000000E+01 0. -1.
</event>
<event>
 4    1  0.5025809E-002  0.4000000E+02  0.7546771E-02  0.1348030E+00
         11   -1    0    0    0    0  0.00000000000E+00  0.00000000000E+00  0.20000000000E+02  0.20000000000E+02  0.00000000000E+00 0. -1.
        -11   -1    0    0    0    0 -0.00000000000E+00 -0.00000000000E+00 -0.20000000000E+02  0.20000000000E+02  0.00000000000E+00 0.  1.
          5    1    1    2  501    0 -0.12421321964E+01  0.94126555774E+01 -0.16963756146E+02  0.20000000000E+02  0.47000000000E+01 0.  1.
         -5    1    1    2    0  501  0.12421321964E+01 -0.94126555774E+01  0.16963756146E+02  0.20000000000E+02  0.47000000000E+01 0. -1.
</event>
<event>
 4    1  0.5025809E-002  0.4000000E+02  0.7546771E-02  0.1348030E+00
         11   -1    0    0    0    0  0.00000000000E+00  0.00000000000E+00  0.20000000000E+02  0.20000000000E+02  0.00000000000E+00 0.  1.
        -11   -1    0    0    0    0 -0.00000000000E+00 -0.00000000000E+00 -0.20000000000E+02  0.20000000000E+02  0.00000000000E+00 0. -1.
          5    1    1    2  501    0  0.97156951361E+01 -0.14769509728E+02 -0.80855952413E+01  0.20000000000E+02  0.47000000000E+01 0. -1.
         -5    1    1    2    0  501 -0.97156951361E+01  0.14769509728E+02  0.80855952413E+01  0.20000000000E+02  0.47000000000E+01 0.  1.
</event>
<event>
 4    1  0.5025809E-002  0.4000000E+02  0.7546771E-02  0.1348030E+00
         11   -1    0    0    0    0  0.00000000000E+00  0.00000000000E+00  0.20000000000E+02  0.20000000000E+02  0.00000000000E+00 0.  1.
        -11   -1    0    0    0    0 -0.00000000000E+00 -0.00000000000E+00 -0.20000000000E+02  0.20000000000E+02  0.00000000000E+00 0. -1.
          5    1    1    2  501    0  0.13129497953E+01 -0.87606806077E+01 -0.17304237577E+02  0.20000000000E+02  0.47000000000E+01 0. -1.
         -5    1    1    2    0  501 -0.13129497953E+01  0.87606806077E+01  0.17304237577E+02  0.20000000000E+02  0.47000000000E+01 0.  1.
</event>
<event>
 4    1  0.5025809E-002  0.4000000E+02  0.7546771E-02  0.1348030E+00
         11   -1    0    0    0    0  0.00000000000E+00  0.00000000000E+00  0.20000000000E+02  0.20000000000E+02  0.00000000000E+00 0.  1.
        -11   -1    0    0    0    0 -0.00000000000E+00 -0.00000000000E+00 -0.20000000000E+02  0.20000000000E+02  0.00000000000E+00 0. -1.
          5    1    1    2  501    0  0.97988884288E+01 -0.13795719819E+02 -0.95692162811E+01  0.20000000000E+02  0.47000000000E+01 0. -1.
         -5    1    1    2    0  501 -0.97988884288E+01  0.13795719819E+02  0.95692162811E+01  0.20000000000E+02  0.47000000000E+01 0.  1.
</event>
<event>
 4    1  0.5025809E-002  0.4000000E+02  0.7546771E-02  0.1348030E+00
         11   -1    0    0    0    0  0.00000000000E+00  0.00000000000E+00  0.20000000000E+02  0.20000000000E+02  0.00000000000E+00 0.  1.
        -11   -1    0    0    0    0 -0.00000000000E+00 -0.00000000000E+00 -0.20000000000E+02  0.20000000000E+02  0.00000000000E+00 0. -1.
          5    1    1    2  501    0  0.47765397978E+01  0.79564710879E+01 -0.17081839344E+02  0.20000000000E+02  0.47000000000E+01 0. -1.
         -5    1    1    2    0  501 -0.47765397978E+01 -0.79564710879E+01  0.17081839344E+02  0.20000000000E+02  0.47000000000E+01 0.  1.
</event>
<event>
 4    1  0.5025809E-002  0.4000000E+02  0.7546771E-02  0.1348030E+00
         11   -1    0    0    0    0  0.00000000000E+00  0.00000000000E+00  0.20000000000E+02  0.20000000000E+02  0.00000000000E+00 0.  1.
        -11   -1    0    0    0    0 -0.00000000000E+00 -0.00000000000E+00 -0.20000000000E+02  0.20000000000E+02  0.00000000000E+00 0. -1.
          5    1    1    2  501    0 -0.17759425629E+02  0.25006423361E+01 -0.75006392546E+01  0.20000000000E+02  0.47000000000E+01 0. -1.
         -5    1    1    2    0  501  0.17759425629E+02 -0.25006423361E+01  0.75006392546E+01  0.20000000000E+02  0.47000000000E+01 0.  1.
</event>
<event>
 4    1  0.5025809E-002  0.4000000E+02  0.7546771E-02  0.1348030E+00
         11   -1    0    0    0    0  0.00000000000E+00  0.00000000000E+00  0.20000000000E+02  0.20000000000E+02  0.00000000000E+00 0.  1.
        -11   -1    0    0    0    0 -0.00000000000E+00 -0.00000000000E+00 -0.20000000000E+02  0.20000000000E+02  0.00000000000E+00 0. -1.
          5    1    1    2  501    0 -0.14372928837E+02  0.13086991120E+02 -0.24409031707E+00  0.20000000000E+02  0.47000000000E+01 0.  1.
         -5    1    1    2    0  501  0.14372928837E+02 -0.13086991120E+02  0.24409031707E+00  0.20000000000E+02  0.47000000000E+01 0. -1.
</event>
<event>
 4    1  0.5025809E-002  0.4000000E+02  0.7546771E-02  0.1348030E+00
         11   -1    0    0    0    0  0.00000000000E+00  0.00000000000E+00  0.20000000000E+02  0.20000000000E+02  0.00000000000E+00 0.  1.
        -11   -1    0    0    0    0 -0.00000000000E+00 -0.00000000000E+00 -0.20000000000E+02  0.20000000000E+02  0.00000000000E+00 0. -1.
          5    1    1    2  501    0 -0.44890781980E+01 -0.15670503759E+02 -0.10592142790E+02  0.20000000000E+02  0.47000000000E+01 0. -1.
         -5    1    1    2    0  501  0.44890781980E+01  0.15670503759E+02  0.10592142790E+02  0.20000000000E+02  0.47000000000E+01 0.  1.
</event>
<event>
 4    1  0.5025809E-002  0.4000000E+02  0.7546771E-02  0.1348030E+00
         11   -1    0    0    0    0  0.00000000000E+00  0.00000000000E+00  0.20000000000E+02  0.20000000000E+02  0.00000000000E+00 0. -1.
        -11   -1    0    0    0    0 -0.00000000000E+00 -0.00000000000E+00 -0.20000000000E+02  0.20000000000E+02  0.00000000000E+00 0.  1.
          5    1    1    2  501    0  0.51168308025E+01 -0.17156376318E+02 -0.75754071952E+01  0.20000000000E+02  0.47000000000E+01 0.  1.
         -5    1    1    2    0  501 -0.51168308025E+01  0.17156376318E+02  0.75754071952E+01  0.20000000000E+02  0.47000000000E+01 0. -1.
</event>
<event>
 4    1  0.5025809E-002  0.4000000E+02  0.7546771E-02  0.1348030E+00
         11   -1    0    0    0    0  0.00000000000E+00  0.00000000000E+00  0.20000000000E+02  0.20000000000E+02  0.00000000000E+00 0.  1.
        -11   -1    0    0    0    0 -0.00000000000E+00 -0.00000000000E+00 -0.20000000000E+02  0.20000000000E+02  0.00000000000E+00 0. -1.
          5    1    1    2  501    0 -0.18163587260E+02  0.63635476409E+01 -0.27384958021E+01  0.20000000000E+02  0.47000000000E+01 0. -1.
         -5    1    1    2    0  501  0.18163587260E+02 -0.63635476409E+01  0.27384958021E+01  0.20000000000E+02  0.47000000000E+01 0.  1.
</event>
<event>
 4    1  0.5025809E-002  0.4000000E+02  0.7546771E-02  0.1348030E+00
         11   -1    0    0    0    0  0.00000000000E+00  0.00000000000E+00  0.20000000000E+02  0.20000000000E+02  0.00000000000E+00 0.  1.
        -11   -1    0    0    0    0 -0.00000000000E+00 -0.00000000000E+00 -0.20000000000E+02  0.20000000000E+02  0.00000000000E+00 0. -1.
          5    1    1    2  501    0  0.16065591290E+02  0.48394592058E+01 -0.98176581262E+01  0.20000000000E+02  0.47000000000E+01 0. -1.
         -5    1    1    2    0  501 -0.16065591290E+02 -0.48394592058E+01  0.98176581262E+01  0.20000000000E+02  0.47000000000E+01 0.  1.
</event>
<event>
 4    1  0.5025809E-002  0.4000000E+02  0.7546771E-02  0.1348030E+00
         11   -1    0    0    0    0  0.00000000000E+00  0.00000000000E+00  0.20000000000E+02  0.20000000000E+02  0.00000000000E+00 0.  1.
        -11   -1    0    0    0    0 -0.00000000000E+00 -0.00000000000E+00 -0.20000000000E+02  0.20000000000E+02  0.00000000000E+00 0. -1.
          5    1    1    2  501    0  0.13229190013E+02 -0.25200009649E+01  0.14019562288E+02  0.20000000000E+02  0.47000000000E+01 0.  1.
         -5    1    1    2    0  501 -0.13229190013E+02  0.25200009649E+01 -0.14019562288E+02  0.20000000000E+02  0.47000000000E+01 0. -1.
</event>
<event>
 4    1  0.5025809E-002  0.4000000E+02  0.7546771E-02  0.1348030E+00
         11   -1    0    0    0    0  0.00000000000E+00  0.00000000000E+00  0.20000000000E+02  0.20000000000E+02  0.00000000000E+00 0.  1.
        -11   -1    0    0    0    0 -0.00000000000E+00 -0.00000000000E+00 -0.20000000000E+02  0.20000000000E+02  0.00000000000E+00 0. -1.
          5    1    1    2  501    0  0.15662709776E+02 -0.72378044235E+01  0.89556523827E+01  0.20000000000E+02  0.47000000000E+01 0.  1.
         -5    1    1    2    0  501 -0.15662709776E+02  0.72378044235E+01 -0.89556523827E+01  0.20000000000E+02  0.47000000000E+01 0. -1.
</event>
<event>
 4    1  0.5025809E-002  0.4000000E+02  0.7546771E-02  0.1348030E+00
         11   -1    0    0    0    0  0.00000000000E+00  0.00000000000E+00  0.20000000000E+02  0.20000000000E+02  0.00000000000E+00 0.  1.
        -11   -1    0    0    0    0 -0.00000000000E+00 -0.00000000000E+00 -0.20000000000E+02  0.20000000000E+02  0.00000000000E+00 0. -1.
          5    1    1    2  501    0 -0.13095048480E+02  0.14278395258E+02  0.15991041788E+01  0.20000000000E+02  0.47000000000E+01 0. -1.
         -5    1    1    2    0  501  0.13095048480E+02 -0.14278395258E+02 -0.15991041788E+01  0.20000000000E+02  0.47000000000E+01 0.  1.
</event>
<event>
 4    1  0.5025809E-002  0.4000000E+02  0.7546771E-02  0.1348030E+00
         11   -1    0    0    0    0  0.00000000000E+00  0.00000000000E+00  0.20000000000E+02  0.20000000000E+02  0.00000000000E+00 0.  1.
        -11   -1    0    0    0    0 -0.00000000000E+00 -0.00000000000E+00 -0.20000000000E+02  0.20000000000E+02  0.00000000000E+00 0. -1.
          5    1    1    2  501    0  0.86057050615E+01  0.16569336185E+02  0.54137730630E+01  0.20000000000E+02  0.47000000000E+01 0. -1.
         -5    1    1    2    0  501 -0.86057050615E+01 -0.16569336185E+02 -0.54137730630E+01  0.20000000000E+02  0.47000000000E+01 0.  1.
</event>
<event>
 4    1  0.5025809E-002  0.4000000E+02  0.7546771E-02  0.1348030E+00
         11   -1    0    0    0    0  0.00000000000E+00  0.00000000000E+00  0.20000000000E+02  0.20000000000E+02  0.00000000000E+00 0. -1.
        -11   -1    0    0    0    0 -0.00000000000E+00 -0.00000000000E+00 -0.20000000000E+02  0.20000000000E+02  0.00000000000E+00 0.  1.
          5    1    1    2  501    0 -0.83939510025E+01  0.14120701375E+02  0.10395065138E+02  0.20000000000E+02  0.47000000000E+01 0.  1.
         -5    1    1    2    0  501  0.83939510025E+01 -0.14120701375E+02 -0.10395065138E+02  0.20000000000E+02  0.47000000000E+01 0. -1.
</event>
<event>
 4    1  0.5025809E-002  0.4000000E+02  0.7546771E-02  0.1348030E+00
         11   -1    0    0    0    0  0.00000000000E+00  0.00000000000E+00  0.20000000000E+02  0.20000000000E+02  0.00000000000E+00 0. -1.
        -11   -1    0    0    0    0 -0.00000000000E+00 -0.00000000000E+00 -0.20000000000E+02  0.20000000000E+02  0.00000000000E+00 0.  1.
          5    1    1    2  501    0 -0.48309378196E+01  0.33411911784E+01 -0.18531283854E+02  0.20000000000E+02  0.47000000000E+01 0.  1.
         -5    1    1    2    0  501  0.48309378196E+01 -0.33411911784E+01  0.18531283854E+02  0.20000000000E+02  0.47000000000E+01 0. -1.
</event>
<event>
 4    1  0.5025809E-002  0.4000000E+02  0.7546771E-02  0.1348030E+00
         11   -1    0    0    0    0  0.00000000000E+00  0.00000000000E+00  0.20000000000E+02  0.20000000000E+02  0.00000000000E+00 0.  1.
        -11   -1    0    0    0    0 -0.00000000000E+00 -0.00000000000E+00 -0.20000000000E+02  0.20000000000E+02  0.00000000000E+00 0. -1.
          5    1    1    2  501    0 -0.46131688101E+01  0.57333097284E+01 -0.17993271884E+02  0.20000000000E+02  0.47000000000E+01 0. -1.
         -5    1    1    2    0  501  0.46131688101E+01 -0.57333097284E+01  0.17993271884E+02  0.20000000000E+02  0.47000000000E+01 0.  1.
</event>
<event>
 4    1  0.5025809E-002  0.4000000E+02  0.7546771E-02  0.1348030E+00
         11   -1    0    0    0    0  0.00000000000E+00  0.00000000000E+00  0.20000000000E+02  0.20000000000E+02  0.00000000000E+00 0.  1.
        -11   -1    0    0    0    0 -0.00000000000E+00 -0.00000000000E+00 -0.20000000000E+02  0.20000000000E+02  0.00000000000E+00 0. -1.
          5    1    1    2  501    0  0.13605339551E+02 -0.67419012429E+01 -0.12138842751E+02  0.20000000000E+02  0.47000000000E+01 0. -1.
         -5    1    1    2    0  501 -0.13605339551E+02  0.67419012429E+01  0.12138842751E+02  0.20000000000E+02  0.47000000000E+01 0.  1.
</event>
<event>
 4    1  0.5025809E-002  0.4000000E+02  0.7546771E-02  0.1348030E+00
         11   -1    0    0    0    0  0.00000000000E+00  0.00000000000E+00  0.20000000000E+02  0.20000000000E+02  0.00000000000E+00 0.  1.
        -11   -1    0    0    0    0 -0.00000000000E+00 -0.00000000000E+00 -0.20000000000E+02  0.20000000000E+02  0.00000000000E+00 0. -1.
          5    1    1    2  501    0 -0.80956403125E+01  0.17663045157E+02 -0.62244976561E+00  0.20000000000E+02  0.47000000000E+01 0. -1.
         -5    1    1    2    0  501  0.80956403125E+01 -0.17663045157E+02  0.62244976561E+00  0.20000000000E+02  0.47000000000E+01 0.  1.
</event>
<event>
 4    1  0.5025809E-002  0.4000000E+02  0.7546771E-02  0.1348030E+00
         11   -1    0    0    0    0  0.00000000000E+00  0.00000000000E+00  0.20000000000E+02  0.20000000000E+02  0.00000000000E+00 0.  1.
        -11   -1    0    0    0    0 -0.00000000000E+00 -0.00000000000E+00 -0.20000000000E+02  0.20000000000E+02  0.00000000000E+00 0. -1.
          5    1    1    2  501    0 -0.12187038322E+02  0.14660609698E+02 -0.38016601910E+01  0.20000000000E+02  0.47000000000E+01 0. -1.
         -5    1    1    2    0  501  0.12187038322E+02 -0.14660609698E+02  0.38016601910E+01  0.20000000000E+02  0.47000000000E+01 0.  1.
</event>
<event>
 4    1  0.5025809E-002  0.4000000E+02  0.7546771E-02  0.1348030E+00
         11   -1    0    0    0    0  0.00000000000E+00  0.00000000000E+00  0.20000000000E+02  0.20000000000E+02  0.00000000000E+00 0.  1.
        -11   -1    0    0    0    0 -0.00000000000E+00 -0.00000000000E+00 -0.20000000000E+02  0.20000000000E+02  0.00000000000E+00 0. -1.
          5    1    1    2  501    0  0.10915054506E+02 -0.61158012385E+01  0.14878459609E+02  0.20000000000E+02  0.47000000000E+01 0.  1.
         -5    1    1    2    0  501 -0.10915054506E+02  0.61158012385E+01 -0.14878459609E+02  0.20000000000E+02  0.47000000000E+01 0. -1.
</event>
<event>
 4    1  0.5025809E-002  0.4000000E+02  0.7546771E-02  0.1348030E+00
         11   -1    0    0    0    0  0.00000000000E+00  0.00000000000E+00  0.20000000000E+02  0.20000000000E+02  0.00000000000E+00 0. -1.
        -11   -1    0    0    0    0 -0.00000000000E+00 -0.00000000000E+00 -0.20000000000E+02  0.20000000000E+02  0.00000000000E+00 0.  1.
          5    1    1    2  501    0 -0.10067381215E+02 -0.16614912255E+02  0.70889084694E+00  0.20000000000E+02  0.47000000000E+01 0.  1.
         -5    1    1    2    0  501  0.10067381215E+02  0.16614912255E+02 -0.70889084694E+00  0.20000000000E+02  0.47000000000E+01 0. -1.
</event>
<event>
 4    1  0.5025809E-002  0.4000000E+02  0.7546771E-02  0.1348030E+00
         11   -1    0    0    0    0  0.00000000000E+00  0.00000000000E+00  0.20000000000E+02  0.20000000000E+02  0.00000000000E+00 0.  1.
        -11   -1    0    0    0    0 -0.00000000000E+00 -0.00000000000E+00 -0.20000000000E+02  0.20000000000E+02  0.00000000000E+00 0. -1.
          5    1    1    2  501    0 -0.67736671229E+01  0.72621917218E+01 -0.16711912072E+02  0.20000000000E+02  0.47000000000E+01 0. -1.
         -5    1    1    2    0  501  0.67736671229E+01 -0.72621917218E+01  0.16711912072E+02  0.20000000000E+02  0.47000000000E+01 0.  1.
</event>
<event>
 4    1  0.5025809E-002  0.4000000E+02  0.7546771E-02  0.1348030E+00
         11   -1    0    0    0    0  0.00000000000E+00  0.00000000000E+00  0.20000000000E+02  0.20000000000E+02  0.00000000000E+00 0. -1.
        -11   -1    0    0    0    0 -0.00000000000E+00 -0.00000000000E+00 -0.20000000000E+02  0.20000000000E+02  0.00000000000E+00 0.  1.
          5    1    1    2  501    0 -0.16643955438E+02  0.12067590953E+01 -0.99715836194E+01  0.20000000000E+02  0.47000000000E+01 0.  1.
         -5    1    1    2    0  501  0.16643955438E+02 -0.12067590953E+01  0.99715836194E+01  0.20000000000E+02  0.47000000000E+01 0. -1.
</event>
<event>
 4    1  0.5025809E-002  0.4000000E+02  0.7546771E-02  0.1348030E+00
         11   -1    0    0    0    0  0.00000000000E+00  0.00000000000E+00  0.20000000000E+02  0.20000000000E+02  0.00000000000E+00 0.  1.
        -11   -1    0    0    0    0 -0.00000000000E+00 -0.00000000000E+00 -0.20000000000E+02  0.20000000000E+02  0.00000000000E+00 0. -1.
          5    1    1    2  501    0  0.32422158458E+01  0.17622547726E+02 -0.75394859280E+01  0.20000000000E+02  0.47000000000E+01 0. -1.
         -5    1    1    2    0  501 -0.32422158458E+01 -0.17622547726E+02  0.75394859280E+01  0.20000000000E+02  0.47000000000E+01 0.  1.
</event>
<event>
 4    1  0.5025809E-002  0.4000000E+02  0.7546771E-02  0.1348030E+00
         11   -1    0    0    0    0  0.00000000000E+00  0.00000000000E+00  0.20000000000E+02  0.20000000000E+02  0.00000000000E+00 0. -1.
        -11   -1    0    0    0    0 -0.00000000000E+00 -0.00000000000E+00 -0.20000000000E+02  0.20000000000E+02  0.00000000000E+00 0.  1.
          5    1    1    2  501    0 -0.17387051370E+02  0.81912247233E-01  0.86944657703E+01  0.20000000000E+02  0.47000000000E+01 0. -1.
         -5    1    1    2    0  501  0.17387051370E+02 -0.81912247233E-01 -0.86944657703E+01  0.20000000000E+02  0.47000000000E+01 0.  1.
</event>
<event>
 4    1  0.5025809E-002  0.4000000E+02  0.7546771E-02  0.1348030E+00
         11   -1    0    0    0    0  0.00000000000E+00  0.00000000000E+00  0.20000000000E+02  0.20000000000E+02  0.00000000000E+00 0. -1.
        -11   -1    0    0    0    0 -0.00000000000E+00 -0.00000000000E+00 -0.20000000000E+02  0.20000000000E+02  0.00000000000E+00 0.  1.
          5    1    1    2  501    0  0.12677730665E+02  0.14682362817E+02  0.12701839700E+01  0.20000000000E+02  0.47000000000E+01 0.  1.
         -5    1    1    2    0  501 -0.12677730665E+02 -0.14682362817E+02 -0.12701839700E+01  0.20000000000E+02  0.47000000000E+01 0. -1.
</event>
<event>
 4    1  0.5025809E-002  0.4000000E+02  0.7546771E-02  0.1348030E+00
         11   -1    0    0    0    0  0.00000000000E+00  0.00000000000E+00  0.20000000000E+02  0.20000000000E+02  0.00000000000E+00 0.  1.
        -11   -1    0    0    0    0 -0.00000000000E+00 -0.00000000000E+00 -0.20000000000E+02  0.20000000000E+02  0.00000000000E+00 0. -1.
          5    1    1    2  501    0  0.10573768942E+02  0.12366285608E+02 -0.10638627290E+02  0.20000000000E+02  0.47000000000E+01 0. -1.
         -5    1    1    2    0  501 -0.10573768942E+02 -0.12366285608E+02  0.10638627290E+02  0.20000000000E+02  0.47000000000E+01 0.  1.
</event>
<event>
 4    1  0.5025809E-002  0.4000000E+02  0.7546771E-02  0.1348030E+00
         11   -1    0    0    0    0  0.00000000000E+00  0.00000000000E+00  0.20000000000E+02  0.20000000000E+02  0.00000000000E+00 0.  1.
        -11   -1    0    0    0    0 -0.00000000000E+00 -0.00000000000E+00 -0.20000000000E+02  0.20000000000E+02  0.00000000000E+00 0. -1.
          5    1    1    2  501    0 -0.12870000459E+02  0.13406765005E+02  0.57036602532E+01  0.20000000000E+02  0.47000000000E+01 0.  1.
         -5    1    1    2    0  501  0.12870000459E+02 -0.13406765005E+02 -0.57036602532E+01  0.20000000000E+02  0.47000000000E+01 0. -1.
</event>
<event>
 4    1  0.5025809E-002  0.4000000E+02  0.7546771E-02  0.1348030E+00
         11   -1    0    0    0    0  0.00000000000E+00  0.00000000000E+00  0.20000000000E+02  0.20000000000E+02  0.00000000000E+00 0. -1.
        -11   -1    0    0    0    0 -0.00000000000E+00 -0.00000000000E+00 -0.20000000000E+02  0.20000000000E+02  0.00000000000E+00 0.  1.
          5    1    1    2  501    0 -0.49190284829E+01  0.13492455939E+02 -0.13102167436E+02  0.20000000000E+02  0.47000000000E+01 0.  1.
         -5    1    1    2    0  501  0.49190284829E+01 -0.13492455939E+02  0.13102167436E+02  0.20000000000E+02  0.47000000000E+01 0. -1.
</event>
<event>
 4    1  0.5025809E-002  0.4000000E+02  0.7546771E-02  0.1348030E+00
         11   -1    0    0    0    0  0.00000000000E+00  0.00000000000E+00  0.20000000000E+02  0.20000000000E+02  0.00000000000E+00 0. -1.
        -11   -1    0    0    0    0 -0.00000000000E+00 -0.00000000000E+00 -0.20000000000E+02  0.20000000000E+02  0.00000000000E+00 0.  1.
          5    1    1    2  501    0 -0.42190511947E+01  0.63805838302E+01 -0.17871702689E+02  0.20000000000E+02  0.47000000000E+01 0.  1.
         -5    1    1    2    0  501  0.42190511947E+01 -0.63805838302E+01  0.17871702689E+02  0.20000000000E+02  0.47000000000E+01 0. -1.
</event>
<event>
 4    1  0.5025809E-002  0.4000000E+02  0.7546771E-02  0.1348030E+00
         11   -1    0    0    0    0  0.00000000000E+00  0.00000000000E+00  0.20000000000E+02  0.20000000000E+02  0.00000000000E+00 0.  1.
        -11   -1    0    0    0    0 -0.00000000000E+00 -0.00000000000E+00 -0.20000000000E+02  0.20000000000E+02  0.00000000000E+00 0. -1.
          5    1    1    2  501    0  0.11948816400E+02 -0.12898880995E+02 -0.82918427220E+01  0.20000000000E+02  0.47000000000E+01 0. -1.
         -5    1    1    2    0  501 -0.11948816400E+02  0.12898880995E+02  0.82918427220E+01  0.20000000000E+02  0.47000000000E+01 0.  1.
</event>
<event>
 4    1  0.5025809E-002  0.4000000E+02  0.7546771E-02  0.1348030E+00
         11   -1    0    0    0    0  0.00000000000E+00  0.00000000000E+00  0.20000000000E+02  0.20000000000E+02  0.00000000000E+00 0.  1.
        -11   -1    0    0    0    0 -0.00000000000E+00 -0.00000000000E+00 -0.20000000000E+02  0.20000000000E+02  0.00000000000E+00 0. -1.
          5    1    1    2  501    0 -0.13574952685E+02  0.13309828144E+02 -0.40594500104E+01  0.20000000000E+02  0.47000000000E+01 0. -1.
         -5    1    1    2    0  501  0.13574952685E+02 -0.13309828144E+02  0.40594500104E+01  0.20000000000E+02  0.47000000000E+01 0.  1.
</event>
<event>
 4    1  0.5025809E-002  0.4000000E+02  0.7546771E-02  0.1348030E+00
         11   -1    0    0    0    0  0.00000000000E+00  0.00000000000E+00  0.20000000000E+02  0.20000000000E+02  0.00000000000E+00 0.  1.
        -11   -1    0    0    0    0 -0.00000000000E+00 -0.00000000000E+00 -0.20000000000E+02  0.20000000000E+02  0.00000000000E+00 0. -1.
          5    1    1    2  501    0 -0.43572856548E+00  0.72981340636E+01 -0.18012700514E+02  0.20000000000E+02  0.47000000000E+01 0. -1.
         -5    1    1    2    0  501  0.43572856548E+00 -0.72981340636E+01  0.18012700514E+02  0.20000000000E+02  0.47000000000E+01 0.  1.
</event>
<event>
 4    1  0.5025809E-002  0.4000000E+02  0.7546771E-02  0.1348030E+00
         11   -1    0    0    0    0  0.00000000000E+00  0.00000000000E+00  0.20000000000E+02  0.20000000000E+02  0.00000000000E+00 0. -1.
        -11   -1    0    0    0    0 -0.00000000000E+00 -0.00000000000E+00 -0.20000000000E+02  0.20000000000E+02  0.00000000000E+00 0.  1.
          5    1    1    2  501    0  0.22816532440E+01  0.13026441429E+02 -0.14248364193E+02  0.20000000000E+02  0.47000000000E+01 0.  1.
         -5    1    1    2    0  501 -0.22816532440E+01 -0.13026441429E+02  0.14248364193E+02  0.20000000000E+02  0.47000000000E+01 0. -1.
</event>
<event>
 4    1  0.5025809E-002  0.4000000E+02  0.7546771E-02  0.1348030E+00
         11   -1    0    0    0    0  0.00000000000E+00  0.00000000000E+00  0.20000000000E+02  0.20000000000E+02  0.00000000000E+00 0.  1.
        -11   -1    0    0    0    0 -0.00000000000E+00 -0.00000000000E+00 -0.20000000000E+02  0.20000000000E+02  0.00000000000E+00 0. -1.
          5    1    1    2  501    0 -0.15382777339E+02  0.32186350932E+01 -0.11442051803E+02  0.20000000000E+02  0.47000000000E+01 0. -1.
         -5    1    1    2    0  501  0.15382777339E+02 -0.32186350932E+01  0.11442051803E+02  0.20000000000E+02  0.47000000000E+01 0.  1.
</event>
<event>
 4    1  0.5025809E-002  0.4000000E+02  0.7546771E-02  0.1348030E+00
         11   -1    0    0    0    0  0.00000000000E+00  0.00000000000E+00  0.20000000000E+02  0.20000000000E+02  0.00000000000E+00 0. -1.
        -11   -1    0    0    0    0 -0.00000000000E+00 -0.00000000000E+00 -0.20000000000E+02  0.20000000000E+02  0.00000000000E+00 0.  1.
          5    1    1    2  501    0 -0.99651402734E+01  0.10761418581E+01 -0.16656767334E+02  0.20000000000E+02  0.47000000000E+01 0.  1.
         -5    1    1    2    0  501  0.99651402734E+01 -0.10761418581E+01  0.16656767334E+02  0.20000000000E+02  0.47000000000E+01 0. -1.
</event>
<event>
 4    1  0.5025809E-002  0.4000000E+02  0.7546771E-02  0.1348030E+00
         11   -1    0    0    0    0  0.00000000000E+00  0.00000000000E+00  0.20000000000E+02  0.20000000000E+02  0.00000000000E+00 0.  1.
        -11   -1    0    0    0    0 -0.00000000000E+00 -0.00000000000E+00 -0.20000000000E+02  0.20000000000E+02  0.00000000000E+00 0. -1.
          5    1    1    2  501    0 -0.56661621879E+01  0.91826615545E+01 -0.16170446278E+02  0.20000000000E+02  0.47000000000E+01 0. -1.
         -5    1    1    2    0  501  0.56661621879E+01 -0.91826615545E+01  0.16170446278E+02  0.20000000000E+02  0.47000000000E+01 0.  1.
</event>
<event>
 4    1  0.5025809E-002  0.4000000E+02  0.7546771E-02  0.1348030E+00
         11   -1    0    0    0    0  0.00000000000E+00  0.00000000000E+00  0.20000000000E+02  0.20000000000E+02  0.00000000000E+00 0.  1.
        -11   -1    0    0    0    0 -0.00000000000E+00 -0.00000000000E+00 -0.20000000000E+02  0.20000000000E+02  0.00000000000E+00 0. -1.
          5    1    1    2  501    0 -0.82161550452E+01  0.24945334961E+01 -0.17440817037E+02  0.20000000000E+02  0.47000000000E+01 0. -1.
         -5    1    1    2    0  501  0.82161550452E+01 -0.24945334961E+01  0.17440817037E+02  0.20000000000E+02  0.47000000000E+01 0.  1.
</event>
<event>
 4    1  0.5025809E-002  0.4000000E+02  0.7546771E-02  0.1348030E+00
         11   -1    0    0    0    0  0.00000000000E+00  0.00000000000E+00  0.20000000000E+02  0.20000000000E+02  0.00000000000E+00 0.  1.
        -11   -1    0    0    0    0 -0.00000000000E+00 -0.00000000000E+00 -0.20000000000E+02  0.20000000000E+02  0.00000000000E+00 0. -1.
          5    1    1    2  501    0 -0.15502140056E+02 -0.75367476359E+00  0.11705794636E+02  0.20000000000E+02  0.47000000000E+01 0.  1.
         -5    1    1    2    0  501  0.15502140056E+02  0.75367476359E+00 -0.11705794636E+02  0.20000000000E+02  0.47000000000E+01 0. -1.
</event>
<event>
 4    1  0.5025809E-002  0.4000000E+02  0.7546771E-02  0.1348030E+00
         11   -1    0    0    0    0  0.00000000000E+00  0.00000000000E+00  0.20000000000E+02  0.20000000000E+02  0.00000000000E+00 0.  1.
        -11   -1    0    0    0    0 -0.00000000000E+00 -0.00000000000E+00 -0.20000000000E+02  0.20000000000E+02  0.00000000000E+00 0. -1.
          5    1    1    2  501    0  0.16051001430E+01 -0.16546064153E+01 -0.19302744135E+02  0.20000000000E+02  0.47000000000E+01 0. -1.
         -5    1    1    2    0  501 -0.16051001430E+01  0.16546064153E+01  0.19302744135E+02  0.20000000000E+02  0.47000000000E+01 0.  1.
</event>
<event>
 4    1  0.5025809E-002  0.4000000E+02  0.7546771E-02  0.1348030E+00
         11   -1    0    0    0    0  0.00000000000E+00  0.00000000000E+00  0.20000000000E+02  0.20000000000E+02  0.00000000000E+00 0.  1.
        -11   -1    0    0    0    0 -0.00000000000E+00 -0.00000000000E+00 -0.20000000000E+02  0.20000000000E+02  0.00000000000E+00 0. -1.
          5    1    1    2  501    0  0.44948136507E+00  0.71575245885E+01 -0.18068696917E+02  0.20000000000E+02  0.47000000000E+01 0. -1.
         -5    1    1    2    0  501 -0.44948136507E+00 -0.71575245885E+01  0.18068696917E+02  0.20000000000E+02  0.47000000000E+01 0.  1.
</event>
<event>
 4    1  0.5025809E-002  0.4000000E+02  0.7546771E-02  0.1348030E+00
         11   -1    0    0    0    0  0.00000000000E+00  0.00000000000E+00  0.20000000000E+02  0.20000000000E+02  0.00000000000E+00 0.  1.
        -11   -1    0    0    0    0 -0.00000000000E+00 -0.00000000000E+00 -0.20000000000E+02  0.20000000000E+02  0.00000000000E+00 0. -1.
          5    1    1    2  501    0  0.55862118521E+01 -0.16074819269E+02 -0.93970432911E+01  0.20000000000E+02  0.47000000000E+01 0. -1.
         -5    1    1    2    0  501 -0.55862118521E+01  0.16074819269E+02  0.93970432911E+01  0.20000000000E+02  0.47000000000E+01 0.  1.
</event>
<event>
 4    1  0.5025809E-002  0.4000000E+02  0.7546771E-02  0.1348030E+00
         11   -1    0    0    0    0  0.00000000000E+00  0.00000000000E+00  0.20000000000E+02  0.20000000000E+02  0.00000000000E+00 0.  1.
        -11   -1    0    0    0    0 -0.00000000000E+00 -0.00000000000E+00 -0.20000000000E+02  0.20000000000E+02  0.00000000000E+00 0. -1.
          5    1    1    2  501    0  0.98301199718E+01 -0.15952712384E+02 -0.51758776006E+01  0.20000000000E+02  0.47000000000E+01 0. -1.
         -5    1    1    2    0  501 -0.98301199718E+01  0.15952712384E+02  0.51758776006E+01  0.20000000000E+02  0.47000000000E+01 0.  1.
</event>
<event>
 4    1  0.5025809E-002  0.4000000E+02  0.7546771E-02  0.1348030E+00
         11   -1    0    0    0    0  0.00000000000E+00  0.00000000000E+00  0.20000000000E+02  0.20000000000E+02  0.00000000000E+00 0. -1.
        -11   -1    0    0    0    0 -0.00000000000E+00 -0.00000000000E+00 -0.20000000000E+02  0.20000000000E+02  0.00000000000E+00 0.  1.
          5    1    1    2  501    0  0.13223744625E+02  0.12331866701E+01  0.14195838430E+02  0.20000000000E+02  0.47000000000E+01 0.  1.
         -5    1    1    2    0  501 -0.13223744625E+02 -0.12331866701E+01 -0.14195838430E+02  0.20000000000E+02  0.47000000000E+01 0. -1.
</event>
<event>
 4    1  0.5025809E-002  0.4000000E+02  0.7546771E-02  0.1348030E+00
         11   -1    0    0    0    0  0.00000000000E+00  0.00000000000E+00  0.20000000000E+02  0.20000000000E+02  0.00000000000E+00 0.  1.
        -11   -1    0    0    0    0 -0.00000000000E+00 -0.00000000000E+00 -0.20000000000E+02  0.20000000000E+02  0.00000000000E+00 0. -1.
          5    1    1    2  501    0 -0.33302172943E+01  0.15098353145E+01  0.19092931941E+02  0.20000000000E+02  0.47000000000E+01 0.  1.
         -5    1    1    2    0  501  0.33302172943E+01 -0.15098353145E+01 -0.19092931941E+02  0.20000000000E+02  0.47000000000E+01 0. -1.
</event>
<event>
 4    1  0.5025809E-002  0.4000000E+02  0.7546771E-02  0.1348030E+00
         11   -1    0    0    0    0  0.00000000000E+00  0.00000000000E+00  0.20000000000E+02  0.20000000000E+02  0.00000000000E+00 0. -1.
        -11   -1    0    0    0    0 -0.00000000000E+00 -0.00000000000E+00 -0.20000000000E+02  0.20000000000E+02  0.00000000000E+00 0.  1.
          5    1    1    2  501    0 -0.16023376663E+02 -0.79225793349E+00  0.10978785346E+02  0.20000000000E+02  0.47000000000E+01 0. -1.
         -5    1    1    2    0  501  0.16023376663E+02  0.79225793349E+00 -0.10978785346E+02  0.20000000000E+02  0.47000000000E+01 0.  1.
</event>
<event>
 4    1  0.5025809E-002  0.4000000E+02  0.7546771E-02  0.1348030E+00
         11   -1    0    0    0    0  0.00000000000E+00  0.00000000000E+00  0.20000000000E+02  0.20000000000E+02  0.00000000000E+00 0. -1.
        -11   -1    0    0    0    0 -0.00000000000E+00 -0.00000000000E+00 -0.20000000000E+02  0.20000000000E+02  0.00000000000E+00 0.  1.
          5    1    1    2  501    0 -0.67591208701E+01  0.18218885121E+02 -0.54452731984E+00  0.20000000000E+02  0.47000000000E+01 0.  1.
         -5    1    1    2    0  501  0.67591208701E+01 -0.18218885121E+02  0.54452731984E+00  0.20000000000E+02  0.47000000000E+01 0. -1.
</event>
<event>
 4    1  0.5025809E-002  0.4000000E+02  0.7546771E-02  0.1348030E+00
         11   -1    0    0    0    0  0.00000000000E+00  0.00000000000E+00  0.20000000000E+02  0.20000000000E+02  0.00000000000E+00 0. -1.
        -11   -1    0    0    0    0 -0.00000000000E+00 -0.00000000000E+00 -0.20000000000E+02  0.20000000000E+02  0.00000000000E+00 0.  1.
          5    1    1    2  501    0  0.17497940171E+02  0.36838888936E+00 -0.84614643769E+01  0.20000000000E+02  0.47000000000E+01 0.  1.
         -5    1    1    2    0  501 -0.17497940171E+02 -0.36838888936E+00  0.84614643769E+01  0.20000000000E+02  0.47000000000E+01 0. -1.
</event>
<event>
 4    1  0.5025809E-002  0.4000000E+02  0.7546771E-02  0.1348030E+00
         11   -1    0    0    0    0  0.00000000000E+00  0.00000000000E+00  0.20000000000E+02  0.20000000000E+02  0.00000000000E+00 0.  1.
        -11   -1    0    0    0    0 -0.00000000000E+00 -0.00000000000E+00 -0.20000000000E+02  0.20000000000E+02  0.00000000000E+00 0. -1.
          5    1    1    2  501    0  0.78462552230E+01 -0.42378645423E+01 -0.17273875740E+02  0.20000000000E+02  0.47000000000E+01 0. -1.
         -5    1    1    2    0  501 -0.78462552230E+01  0.42378645423E+01  0.17273875740E+02  0.20000000000E+02  0.47000000000E+01 0.  1.
</event>
<event>
 4    1  0.5025809E-002  0.4000000E+02  0.7546771E-02  0.1348030E+00
         11   -1    0    0    0    0  0.00000000000E+00  0.00000000000E+00  0.20000000000E+02  0.20000000000E+02  0.00000000000E+00 0. -1.
        -11   -1    0    0    0    0 -0.00000000000E+00 -0.00000000000E+00 -0.20000000000E+02  0.20000000000E+02  0.00000000000E+00 0.  1.
          5    1    1    2  501    0 -0.17152773715E+02  0.31593295265E+01  0.85855105171E+01  0.20000000000E+02  0.47000000000E+01 0. -1.
         -5    1    1    2    0  501  0.17152773715E+02 -0.31593295265E+01 -0.85855105171E+01  0.20000000000E+02  0.47000000000E+01 0.  1.
</event>
<event>
 4    1  0.5025809E-002  0.4000000E+02  0.7546771E-02  0.1348030E+00
         11   -1    0    0    0    0  0.00000000000E+00  0.00000000000E+00  0.20000000000E+02  0.20000000000E+02  0.00000000000E+00 0.  1.
        -11   -1    0    0    0    0 -0.00000000000E+00 -0.00000000000E+00 -0.20000000000E+02  0.20000000000E+02  0.00000000000E+00 0. -1.
          5    1    1    2  501    0  0.13294061568E+02  0.17078649659E+01  0.14080522870E+02  0.20000000000E+02  0.47000000000E+01 0.  1.
         -5    1    1    2    0  501 -0.13294061568E+02 -0.17078649659E+01 -0.14080522870E+02  0.20000000000E+02  0.47000000000E+01 0. -1.
</event>
<event>
 4    1  0.5025809E-002  0.4000000E+02  0.7546771E-02  0.1348030E+00
         11   -1    0    0    0    0  0.00000000000E+00  0.00000000000E+00  0.20000000000E+02  0.20000000000E+02  0.00000000000E+00 0. -1.
        -11   -1    0    0    0    0 -0.00000000000E+00 -0.00000000000E+00 -0.20000000000E+02  0.20000000000E+02  0.00000000000E+00 0.  1.
          5    1    1    2  501    0 -0.62308419398E+01  0.12880753179E+02 -0.13159513907E+02  0.20000000000E+02  0.47000000000E+01 0.  1.
         -5    1    1    2    0  501  0.62308419398E+01 -0.12880753179E+02  0.13159513907E+02  0.20000000000E+02  0.47000000000E+01 0. -1.
</event>
<event>
 4    1  0.5025809E-002  0.4000000E+02  0.7546771E-02  0.1348030E+00
         11   -1    0    0    0    0  0.00000000000E+00  0.00000000000E+00  0.20000000000E+02  0.20000000000E+02  0.00000000000E+00 0.  1.
        -11   -1    0    0    0    0 -0.00000000000E+00 -0.00000000000E+00 -0.20000000000E+02  0.20000000000E+02  0.00000000000E+00 0. -1.
          5    1    1    2  501    0 -0.95637943905E+01  0.12593391394E+01 -0.16877733906E+02  0.20000000000E+02  0.47000000000E+01 0. -1.
         -5    1    1    2    0  501  0.95637943905E+01 -0.12593391394E+01  0.16877733906E+02  0.20000000000E+02  0.47000000000E+01 0.  1.
</event>
<event>
 4    1  0.5025809E-002  0.4000000E+02  0.7546771E-02  0.1348030E+00
         11   -1    0    0    0    0  0.00000000000E+00  0.00000000000E+00  0.20000000000E+02  0.20000000000E+02  0.00000000000E+00 0.  1.
        -11   -1    0    0    0    0 -0.00000000000E+00 -0.00000000000E+00 -0.20000000000E+02  0.20000000000E+02  0.00000000000E+00 0. -1.
          5    1    1    2  501    0  0.17374492611E+02  0.73169483890E+01 -0.47433398348E+01  0.20000000000E+02  0.47000000000E+01 0. -1.
         -5    1    1    2    0  501 -0.17374492611E+02 -0.73169483890E+01  0.47433398348E+01  0.20000000000E+02  0.47000000000E+01 0.  1.
</event>
<event>
 4    1  0.5025809E-002  0.4000000E+02  0.7546771E-02  0.1348030E+00
         11   -1    0    0    0    0  0.00000000000E+00  0.00000000000E+00  0.20000000000E+02  0.20000000000E+02  0.00000000000E+00 0. -1.
        -11   -1    0    0    0    0 -0.00000000000E+00 -0.00000000000E+00 -0.20000000000E+02  0.20000000000E+02  0.00000000000E+00 0.  1.
          5    1    1    2  501    0  0.17601128672E+02 -0.21622860198E+01  0.79645959501E+01  0.20000000000E+02  0.47000000000E+01 0. -1.
         -5    1    1    2    0  501 -0.17601128672E+02  0.21622860198E+01 -0.79645959501E+01  0.20000000000E+02  0.47000000000E+01 0.  1.
</event>
<event>
 4    1  0.5025809E-002  0.4000000E+02  0.7546771E-02  0.1348030E+00
         11   -1    0    0    0    0  0.00000000000E+00  0.00000000000E+00  0.20000000000E+02  0.20000000000E+02  0.00000000000E+00 0.  1.
        -11   -1    0    0    0    0 -0.00000000000E+00 -0.00000000000E+00 -0.20000000000E+02  0.20000000000E+02  0.00000000000E+00 0. -1.
          5    1    1    2  501    0  0.18678494640E+01  0.62057046917E+01  0.18327857694E+02  0.20000000000E+02  0.47000000000E+01 0.  1.
         -5    1    1    2    0  501 -0.18678494640E+01 -0.62057046917E+01 -0.18327857694E+02  0.20000000000E+02  0.47000000000E+01 0. -1.
</event>
<event>
 4    1  0.5025809E-002  0.4000000E+02  0.7546771E-02  0.1348030E+00
         11   -1    0    0    0    0  0.00000000000E+00  0.00000000000E+00  0.20000000000E+02  0.20000000000E+02  0.00000000000E+00 0. -1.
        -11   -1    0    0    0    0 -0.00000000000E+00 -0.00000000000E+00 -0.20000000000E+02  0.20000000000E+02  0.00000000000E+00 0.  1.
          5    1    1    2  501    0  0.14290542001E+02  0.37433280040E+01 -0.12636372294E+02  0.20000000000E+02  0.47000000000E+01 0.  1.
         -5    1    1    2    0  501 -0.14290542001E+02 -0.37433280040E+01  0.12636372294E+02  0.20000000000E+02  0.47000000000E+01 0. -1.
</event>
<event>
 4    1  0.5025809E-002  0.4000000E+02  0.7546771E-02  0.1348030E+00
         11   -1    0    0    0    0  0.00000000000E+00  0.00000000000E+00  0.20000000000E+02  0.20000000000E+02  0.00000000000E+00 0. -1.
        -11   -1    0    0    0    0 -0.00000000000E+00 -0.00000000000E+00 -0.20000000000E+02  0.20000000000E+02  0.00000000000E+00 0.  1.
          5    1    1    2  501    0 -0.18874765301E+02  0.38505868165E+01  0.26127028118E+01  0.20000000000E+02  0.47000000000E+01 0.  1.
         -5    1    1    2    0  501  0.18874765301E+02 -0.38505868165E+01 -0.26127028118E+01  0.20000000000E+02  0.47000000000E+01 0. -1.
</event>
<event>
 4    1  0.5025809E-002  0.4000000E+02  0.7546771E-02  0.1348030E+00
         11   -1    0    0    0    0  0.00000000000E+00  0.00000000000E+00  0.20000000000E+02  0.20000000000E+02  0.00000000000E+00 0.  1.
        -11   -1    0    0    0    0 -0.00000000000E+00 -0.00000000000E+00 -0.20000000000E+02  0.20000000000E+02  0.00000000000E+00 0. -1.
          5    1    1    2  501    0 -0.34645444162E+01  0.14760714943E+02 -0.12166685102E+02  0.20000000000E+02  0.47000000000E+01 0. -1.
         -5    1    1    2    0  501  0.34645444162E+01 -0.14760714943E+02  0.12166685102E+02  0.20000000000E+02  0.47000000000E+01 0.  1.
</event>
<event>
 4    1  0.5025809E-002  0.4000000E+02  0.7546771E-02  0.1348030E+00
         11   -1    0    0    0    0  0.00000000000E+00  0.00000000000E+00  0.20000000000E+02  0.20000000000E+02  0.00000000000E+00 0. -1.
        -11   -1    0    0    0    0 -0.00000000000E+00 -0.00000000000E+00 -0.20000000000E+02  0.20000000000E+02  0.00000000000E+00 0.  1.
          5    1    1    2  501    0 -0.19360145651E+02 -0.17447830916E+01 -0.22470499806E+00  0.20000000000E+02  0.47000000000E+01 0. -1.
         -5    1    1    2    0  501  0.19360145651E+02  0.17447830916E+01  0.22470499806E+00  0.20000000000E+02  0.47000000000E+01 0.  1.
</event>
<event>
 4    1  0.5025809E-002  0.4000000E+02  0.7546771E-02  0.1348030E+00
         11   -1    0    0    0    0  0.00000000000E+00  0.00000000000E+00  0.20000000000E+02  0.20000000000E+02  0.00000000000E+00 0.  1.
        -11   -1    0    0    0    0 -0.00000000000E+00 -0.00000000000E+00 -0.20000000000E+02  0.20000000000E+02  0.00000000000E+00 0. -1.
          5    1    1    2  501    0  0.14072588519E+02 -0.11032232873E+02 -0.76264074250E+01  0.20000000000E+02  0.47000000000E+01 0. -1.
         -5    1    1    2    0  501 -0.14072588519E+02  0.11032232873E+02  0.76264074250E+01  0.20000000000E+02  0.47000000000E+01 0.  1.
</event>
<event>
 4    1  0.5025809E-002  0.4000000E+02  0.7546771E-02  0.1348030E+00
         11   -1    0    0    0    0  0.00000000000E+00  0.00000000000E+00  0.20000000000E+02  0.20000000000E+02  0.00000000000E+00 0. -1.
        -11   -1    0    0    0    0 -0.00000000000E+00 -0.00000000000E+00 -0.20000000000E+02  0.20000000000E+02  0.00000000000E+00 0.  1.
          5    1    1    2  501    0  0.11032903004E+02 -0.94414799219E+01 -0.12924531256E+02  0.20000000000E+02  0.47000000000E+01 0.  1.
         -5    1    1    2    0  501 -0.11032903004E+02  0.94414799219E+01  0.12924531256E+02  0.20000000000E+02  0.47000000000E+01 0. -1.
</event>
<event>
 4    1  0.5025809E-002  0.4000000E+02  0.7546771E-02  0.1348030E+00
         11   -1    0    0    0    0  0.00000000000E+00  0.00000000000E+00  0.20000000000E+02  0.20000000000E+02  0.00000000000E+00 0.  1.
        -11   -1    0    0    0    0 -0.00000000000E+00 -0.00000000000E+00 -0.20000000000E+02  0.20000000000E+02  0.00000000000E+00 0. -1.
          5    1    1    2  501    0 -0.10686084188E+02 -0.11527405844E+02 -0.11438379222E+02  0.20000000000E+02  0.47000000000E+01 0. -1.
         -5    1    1    2    0  501  0.10686084188E+02  0.11527405844E+02  0.11438379222E+02  0.20000000000E+02  0.47000000000E+01 0.  1.
</event>
<event>
 4    1  0.5025809E-002  0.4000000E+02  0.7546771E-02  0.1348030E+00
         11   -1    0    0    0    0  0.00000000000E+00  0.00000000000E+00  0.20000000000E+02  0.20000000000E+02  0.00000000000E+00 0. -1.
        -11   -1    0    0    0    0 -0.00000000000E+00 -0.00000000000E+00 -0.20000000000E+02  0.20000000000E+02  0.00000000000E+00 0.  1.
          5    1    1    2  501    0  0.42119708833E+01  0.59560244010E+01 -0.18019297284E+02  0.20000000000E+02  0.47000000000E+01 0.  1.
         -5    1    1    2    0  501 -0.42119708833E+01 -0.59560244010E+01  0.18019297284E+02  0.20000000000E+02  0.47000000000E+01 0. -1.
</event>
<event>
 4    1  0.5025809E-002  0.4000000E+02  0.7546771E-02  0.1348030E+00
         11   -1    0    0    0    0  0.00000000000E+00  0.00000000000E+00  0.20000000000E+02  0.20000000000E+02  0.00000000000E+00 0.  1.
        -11   -1    0    0    0    0 -0.00000000000E+00 -0.00000000000E+00 -0.20000000000E+02  0.20000000000E+02  0.00000000000E+00 0. -1.
          5    1    1    2  501    0  0.90664533884E+01 -0.63293603554E+01 -0.15989015618E+02  0.20000000000E+02  0.47000000000E+01 0. -1.
         -5    1    1    2    0  501 -0.90664533884E+01  0.63293603554E+01  0.15989015618E+02  0.20000000000E+02  0.47000000000E+01 0.  1.
</event>
<event>
 4    1  0.5025809E-002  0.4000000E+02  0.7546771E-02  0.1348030E+00
         11   -1    0    0    0    0  0.00000000000E+00  0.00000000000E+00  0.20000000000E+02  0.20000000000E+02  0.00000000000E+00 0. -1.
        -11   -1    0    0    0    0 -0.00000000000E+00 -0.00000000000E+00 -0.20000000000E+02  0.20000000000E+02  0.00000000000E+00 0.  1.
          5    1    1    2  501    0  0.86074563178E+01  0.17370328792E+02  0.14468494679E+01  0.20000000000E+02  0.47000000000E+01 0. -1.
         -5    1    1    2    0  501 -0.86074563178E+01 -0.17370328792E+02 -0.14468494679E+01  0.20000000000E+02  0.47000000000E+01 0.  1.
</event>
<event>
 4    1  0.5025809E-002  0.4000000E+02  0.7546771E-02  0.1348030E+00
         11   -1    0    0    0    0  0.00000000000E+00  0.00000000000E+00  0.20000000000E+02  0.20000000000E+02  0.00000000000E+00 0.  1.
        -11   -1    0    0    0    0 -0.00000000000E+00 -0.00000000000E+00 -0.20000000000E+02  0.20000000000E+02  0.00000000000E+00 0. -1.
          5    1    1    2  501    0  0.17142358938E+02 -0.80279766198E+01 -0.44273153761E+01  0.20000000000E+02  0.47000000000E+01 0. -1.
         -5    1    1    2    0  501 -0.17142358938E+02  0.80279766198E+01  0.44273153761E+01  0.20000000000E+02  0.47000000000E+01 0.  1.
</event>
<event>
 4    1  0.5025809E-002  0.4000000E+02  0.7546771E-02  0.1348030E+00
         11   -1    0    0    0    0  0.00000000000E+00  0.00000000000E+00  0.20000000000E+02  0.20000000000E+02  0.00000000000E+00 0.  1.
        -11   -1    0    0    0    0 -0.00000000000E+00 -0.00000000000E+00 -0.20000000000E+02  0.20000000000E+02  0.00000000000E+00 0. -1.
          5    1    1    2  501    0  0.10584710548E+02  0.46848467150E+01 -0.15618134135E+02  0.20000000000E+02  0.47000000000E+01 0. -1.
         -5    1    1    2    0  501 -0.10584710548E+02 -0.46848467150E+01  0.15618134135E+02  0.20000000000E+02  0.47000000000E+01 0.  1.
</event>
<event>
 4    1  0.5025809E-002  0.4000000E+02  0.7546771E-02  0.1348030E+00
         11   -1    0    0    0    0  0.00000000000E+00  0.00000000000E+00  0.20000000000E+02  0.20000000000E+02  0.00000000000E+00 0.  1.
        -11   -1    0    0    0    0 -0.00000000000E+00 -0.00000000000E+00 -0.20000000000E+02  0.20000000000E+02  0.00000000000E+00 0. -1.
          5    1    1    2  501    0  0.10944260525E+02  0.10896023946E+02  0.11807193729E+02  0.20000000000E+02  0.47000000000E+01 0.  1.
         -5    1    1    2    0  501 -0.10944260525E+02 -0.10896023946E+02 -0.11807193729E+02  0.20000000000E+02  0.47000000000E+01 0. -1.
</event>
<event>
 4    1  0.5025809E-002  0.4000000E+02  0.7546771E-02  0.1348030E+00
         11   -1    0    0    0    0  0.00000000000E+00  0.00000000000E+00  0.20000000000E+02  0.20000000000E+02  0.00000000000E+00 0.  1.
        -11   -1    0    0    0    0 -0.00000000000E+00 -0.00000000000E+00 -0.20000000000E+02  0.20000000000E+02  0.00000000000E+00 0. -1.
          5    1    1    2  501    0  0.11473678561E-01 -0.15591515776E+02 -0.11610964825E+02  0.20000000000E+02  0.47000000000E+01 0. -1.
         -5    1    1    2    0  501 -0.11473678561E-01  0.15591515776E+02  0.11610964825E+02  0.20000000000E+02  0.47000000000E+01 0.  1.
</event>
<event>
 4    1  0.5025809E-002  0.4000000E+02  0.7546771E-02  0.1348030E+00
         11   -1    0    0    0    0  0.00000000000E+00  0.00000000000E+00  0.20000000000E+02  0.20000000000E+02  0.00000000000E+00 0.  1.
        -11   -1    0    0    0    0 -0.00000000000E+00 -0.00000000000E+00 -0.20000000000E+02  0.20000000000E+02  0.00000000000E+00 0. -1.
          5    1    1    2  501    0 -0.14625011220E+02 -0.91194770050E+01 -0.89918955721E+01  0.20000000000E+02  0.47000000000E+01 0. -1.
         -5    1    1    2    0  501  0.14625011220E+02  0.91194770050E+01  0.89918955721E+01  0.20000000000E+02  0.47000000000E+01 0.  1.
</event>
<event>
 4    1  0.5025809E-002  0.4000000E+02  0.7546771E-02  0.1348030E+00
         11   -1    0    0    0    0  0.00000000000E+00  0.00000000000E+00  0.20000000000E+02  0.20000000000E+02  0.00000000000E+00 0.  1.
        -11   -1    0    0    0    0 -0.00000000000E+00 -0.00000000000E+00 -0.20000000000E+02  0.20000000000E+02  0.00000000000E+00 0. -1.
          5    1    1    2  501    0 -0.14449336477E+02 -0.94906263592E+01 -0.88912702518E+01  0.20000000000E+02  0.47000000000E+01 0. -1.
         -5    1    1    2    0  501  0.14449336477E+02  0.94906263592E+01  0.88912702518E+01  0.20000000000E+02  0.47000000000E+01 0.  1.
</event>
<event>
 4    1  0.5025809E-002  0.4000000E+02  0.7546771E-02  0.1348030E+00
         11   -1    0    0    0    0  0.00000000000E+00  0.00000000000E+00  0.20000000000E+02  0.20000000000E+02  0.00000000000E+00 0. -1.
        -11   -1    0    0    0    0 -0.00000000000E+00 -0.00000000000E+00 -0.20000000000E+02  0.20000000000E+02  0.00000000000E+00 0.  1.
          5    1    1    2  501    0  0.68601009260E+01 -0.47765728249E+00 -0.18182982671E+02  0.20000000000E+02  0.47000000000E+01 0.  1.
         -5    1    1    2    0  501 -0.68601009260E+01  0.47765728249E+00  0.18182982671E+02  0.20000000000E+02  0.47000000000E+01 0. -1.
</event>
<event>
 4    1  0.5025809E-002  0.4000000E+02  0.7546771E-02  0.1348030E+00
         11   -1    0    0    0    0  0.00000000000E+00  0.00000000000E+00  0.20000000000E+02  0.20000000000E+02  0.00000000000E+00 0. -1.
        -11   -1    0    0    0    0 -0.00000000000E+00 -0.00000000000E+00 -0.20000000000E+02  0.20000000000E+02  0.00000000000E+00 0.  1.
          5    1    1    2  501    0 -0.10353833141E+02  0.90661130994E+01  0.13730030319E+02  0.20000000000E+02  0.47000000000E+01 0. -1.
         -5    1    1    2    0  501  0.10353833141E+02 -0.90661130994E+01 -0.13730030319E+02  0.20000000000E+02  0.47000000000E+01 0.  1.
</event>
<event>
 4    1  0.5025809E-002  0.4000000E+02  0.7546771E-02  0.1348030E+00
         11   -1    0    0    0    0  0.00000000000E+00  0.00000000000E+00  0.20000000000E+02  0.20000000000E+02  0.00000000000E+00 0.  1.
        -11   -1    0    0    0    0 -0.00000000000E+00 -0.00000000000E+00 -0.20000000000E+02  0.20000000000E+02  0.00000000000E+00 0. -1.
          5    1    1    2  501    0  0.28153792196E+01  0.30617343425E+01 -0.18989718867E+02  0.20000000000E+02  0.47000000000E+01 0. -1.
         -5    1    1    2    0  501 -0.28153792196E+01 -0.30617343425E+01  0.18989718867E+02  0.20000000000E+02  0.47000000000E+01 0.  1.
</event>
<event>
 4    1  0.5025809E-002  0.4000000E+02  0.7546771E-02  0.1348030E+00
         11   -1    0    0    0    0  0.00000000000E+00  0.00000000000E+00  0.20000000000E+02  0.20000000000E+02  0.00000000000E+00 0.  1.
        -11   -1    0    0    0    0 -0.00000000000E+00 -0.00000000000E+00 -0.20000000000E+02  0.20000000000E+02  0.00000000000E+00 0. -1.
          5    1    1    2  501    0  0.16481799708E+02  0.49259170302E+01 -0.90551432779E+01  0.20000000000E+02  0.47000000000E+01 0. -1.
         -5    1    1    2    0  501 -0.16481799708E+02 -0.49259170302E+01  0.90551432779E+01  0.20000000000E+02  0.47000000000E+01 0.  1.
</event>
<event>
 4    1  0.5025809E-002  0.4000000E+02  0.7546771E-02  0.1348030E+00
         11   -1    0    0    0    0  0.00000000000E+00  0.00000000000E+00  0.20000000000E+02  0.20000000000E+02  0.00000000000E+00 0. -1.
        -11   -1    0    0    0    0 -0.00000000000E+00 -0.00000000000E+00 -0.20000000000E+02  0.20000000000E+02  0.00000000000E+00 0.  1.
          5    1    1    2  501    0 -0.58358112128E+01  0.18542869433E+02 -0.12369590879E+00  0.20000000000E+02  0.47000000000E+01 0.  1.
         -5    1    1    2    0  501  0.58358112128E+01 -0.18542869433E+02  0.12369590879E+00  0.20000000000E+02  0.47000000000E+01 0. -1.
</event>
<event>
 4    1  0.5025809E-002  0.4000000E+02  0.7546771E-02  0.1348030E+00
         11   -1    0    0    0    0  0.00000000000E+00  0.00000000000E+00  0.20000000000E+02  0.20000000000E+02  0.00000000000E+00 0. -1.
        -11   -1    0    0    0    0 -0.00000000000E+00 -0.00000000000E+00 -0.20000000000E+02  0.20000000000E+02  0.00000000000E+00 0.  1.
          5    1    1    2  501    0  0.72301793670E+01 -0.71170013857E+01  0.16582605272E+02  0.20000000000E+02  0.47000000000E+01 0. -1.
         -5    1    1    2    0  501 -0.72301793670E+01  0.71170013857E+01 -0.16582605272E+02  0.20000000000E+02  0.47000000000E+01 0.  1.
</event>
<event>
 4    1  0.5025809E-002  0.4000000E+02  0.7546771E-02  0.1348030E+00
         11   -1    0    0    0    0  0.00000000000E+00  0.00000000000E+00  0.20000000000E+02  0.20000000000E+02  0.00000000000E+00 0.  1.
        -11   -1    0    0    0    0 -0.00000000000E+00 -0.00000000000E+00 -0.20000000000E+02  0.20000000000E+02  0.00000000000E+00 0. -1.
          5    1    1    2  501    0 -0.40188948696E+01  0.37680170512E+01  0.18642975394E+02  0.20000000000E+02  0.47000000000E+01 0.  1.
         -5    1    1    2    0  501  0.40188948696E+01 -0.37680170512E+01 -0.18642975394E+02  0.20000000000E+02  0.47000000000E+01 0. -1.
</event>
<event>
 4    1  0.5025809E-002  0.4000000E+02  0.7546771E-02  0.1348030E+00
         11   -1    0    0    0    0  0.00000000000E+00  0.00000000000E+00  0.20000000000E+02  0.20000000000E+02  0.00000000000E+00 0.  1.
        -11   -1    0    0    0    0 -0.00000000000E+00 -0.00000000000E+00 -0.20000000000E+02  0.20000000000E+02  0.00000000000E+00 0. -1.
          5    1    1    2  501    0 -0.11518180691E+02  0.60011402006E+01  0.14464709809E+02  0.20000000000E+02  0.47000000000E+01 0.  1.
         -5    1    1    2    0  501  0.11518180691E+02 -0.60011402006E+01 -0.14464709809E+02  0.20000000000E+02  0.47000000000E+01 0. -1.
</event>
<event>
 4    1  0.5025809E-002  0.4000000E+02  0.7546771E-02  0.1348030E+00
         11   -1    0    0    0    0  0.00000000000E+00  0.00000000000E+00  0.20000000000E+02  0.20000000000E+02  0.00000000000E+00 0.  1.
        -11   -1    0    0    0    0 -0.00000000000E+00 -0.00000000000E+00 -0.20000000000E+02  0.20000000000E+02  0.00000000000E+00 0. -1.
          5    1    1    2  501    0 -0.98873420991E+01  0.16504652574E+02 -0.27833270760E+01  0.20000000000E+02  0.47000000000E+01 0. -1.
         -5    1    1    2    0  501  0.98873420991E+01 -0.16504652574E+02  0.27833270760E+01  0.20000000000E+02  0.47000000000E+01 0.  1.
</event>
<event>
 4    1  0.5025809E-002  0.4000000E+02  0.7546771E-02  0.1348030E+00
         11   -1    0    0    0    0  0.00000000000E+00  0.00000000000E+00  0.20000000000E+02  0.20000000000E+02  0.00000000000E+00 0. -1.
        -11   -1    0    0    0    0 -0.00000000000E+00 -0.00000000000E+00 -0.20000000000E+02  0.20000000000E+02  0.00000000000E+00 0.  1.
          5    1    1    2  501    0 -0.10714931123E+02  0.59559511927E+01 -0.15087309118E+02  0.20000000000E+02  0.47000000000E+01 0.  1.
         -5    1    1    2    0  501  0.10714931123E+02 -0.59559511927E+01  0.15087309118E+02  0.20000000000E+02  0.47000000000E+01 0. -1.
</event>
<event>
 4    1  0.5025809E-002  0.4000000E+02  0.7546771E-02  0.1348030E+00
         11   -1    0    0    0    0  0.00000000000E+00  0.00000000000E+00  0.20000000000E+02  0.20000000000E+02  0.00000000000E+00 0. -1.
        -11   -1    0    0    0    0 -0.00000000000E+00 -0.00000000000E+00 -0.20000000000E+02  0.20000000000E+02  0.00000000000E+00 0.  1.
          5    1    1    2  501    0  0.28171712860E+01  0.45605775667E+01 -0.18686216262E+02  0.20000000000E+02  0.47000000000E+01 0.  1.
         -5    1    1    2    0  501 -0.28171712860E+01 -0.45605775667E+01  0.18686216262E+02  0.20000000000E+02  0.47000000000E+01 0. -1.
</event>
<event>
 4    1  0.5025809E-002  0.4000000E+02  0.7546771E-02  0.1348030E+00
         11   -1    0    0    0    0  0.00000000000E+00  0.00000000000E+00  0.20000000000E+02  0.20000000000E+02  0.00000000000E+00 0. -1.
        -11   -1    0    0    0    0 -0.00000000000E+00 -0.00000000000E+00 -0.20000000000E+02  0.20000000000E+02  0.00000000000E+00 0.  1.
          5    1    1    2  501    0 -0.10236727253E+02  0.12974580777E+02 -0.10236194059E+02  0.20000000000E+02  0.47000000000E+01 0.  1.
         -5    1    1    2    0  501  0.10236727253E+02 -0.12974580777E+02  0.10236194059E+02  0.20000000000E+02  0.47000000000E+01 0. -1.
</event>
<event>
 4    1  0.5025809E-002  0.4000000E+02  0.7546771E-02  0.1348030E+00
         11   -1    0    0    0    0  0.00000000000E+00  0.00000000000E+00  0.20000000000E+02  0.20000000000E+02  0.00000000000E+00 0. -1.
        -11   -1    0    0    0    0 -0.00000000000E+00 -0.00000000000E+00 -0.20000000000E+02  0.20000000000E+02  0.00000000000E+00 0.  1.
          5    1    1    2  501    0  0.26461496647E+01  0.65854480680E+01  0.18098059722E+02  0.20000000000E+02  0.47000000000E+01 0. -1.
         -5    1    1    2    0  501 -0.26461496647E+01 -0.65854480680E+01 -0.18098059722E+02  0.20000000000E+02  0.47000000000E+01 0.  1.
</event>
<event>
 4    1  0.5025809E-002  0.4000000E+02  0.7546771E-02  0.1348030E+00
         11   -1    0    0    0    0  0.00000000000E+00  0.00000000000E+00  0.20000000000E+02  0.20000000000E+02  0.00000000000E+00 0.  1.
        -11   -1    0    0    0    0 -0.00000000000E+00 -0.00000000000E+00 -0.20000000000E+02  0.20000000000E+02  0.00000000000E+00 0. -1.
          5    1    1    2  501    0 -0.16316010969E+02  0.97118289166E+01 -0.41687126484E+01  0.20000000000E+02  0.47000000000E+01 0. -1.
         -5    1    1    2    0  501  0.16316010969E+02 -0.97118289166E+01  0.41687126484E+01  0.20000000000E+02  0.47000000000E+01 0.  1.
</event>
<event>
 4    1  0.5025809E-002  0.4000000E+02  0.7546771E-02  0.1348030E+00
         11   -1    0    0    0    0  0.00000000000E+00  0.00000000000E+00  0.20000000000E+02  0.20000000000E+02  0.00000000000E+00 0.  1.
        -11   -1    0    0    0    0 -0.00000000000E+00 -0.00000000000E+00 -0.20000000000E+02  0.20000000000E+02  0.00000000000E+00 0. -1.
          5    1    1    2  501    0 -0.47484779044E+00 -0.83585760892E+01  0.17544763473E+02  0.20000000000E+02  0.47000000000E+01 0.  1.
         -5    1    1    2    0  501  0.47484779044E+00  0.83585760892E+01 -0.17544763473E+02  0.20000000000E+02  0.47000000000E+01 0. -1.
</event>
<event>
 4    1  0.5025809E-002  0.4000000E+02  0.7546771E-02  0.1348030E+00
         11   -1    0    0    0    0  0.00000000000E+00  0.00000000000E+00  0.20000000000E+02  0.20000000000E+02  0.00000000000E+00 0.  1.
        -11   -1    0    0    0    0 -0.00000000000E+00 -0.00000000000E+00 -0.20000000000E+02  0.20000000000E+02  0.00000000000E+00 0. -1.
          5    1    1    2  501    0 -0.50374477879E+01  0.12858370001E+02  0.13681975030E+02  0.20000000000E+02  0.47000000000E+01 0.  1.
         -5    1    1    2    0  501  0.50374477879E+01 -0.12858370001E+02 -0.13681975030E+02  0.20000000000E+02  0.47000000000E+01 0. -1.
</event>
<event>
 4    1  0.5025809E-002  0.4000000E+02  0.7546771E-02  0.1348030E+00
         11   -1    0    0    0    0  0.00000000000E+00  0.00000000000E+00  0.20000000000E+02  0.20000000000E+02  0.00000000000E+00 0.  1.
        -11   -1    0    0    0    0 -0.00000000000E+00 -0.00000000000E+00 -0.20000000000E+02  0.20000000000E+02  0.00000000000E+00 0. -1.
          5    1    1    2  501    0 -0.13655115425E+02 -0.10746751758E+02 -0.87152251478E+01  0.20000000000E+02  0.47000000000E+01 0. -1.
         -5    1    1    2    0  501  0.13655115425E+02  0.10746751758E+02  0.87152251478E+01  0.20000000000E+02  0.47000000000E+01 0.  1.
</event>
<event>
 4    1  0.5025809E-002  0.4000000E+02  0.7546771E-02  0.1348030E+00
         11   -1    0    0    0    0  0.00000000000E+00  0.00000000000E+00  0.20000000000E+02  0.20000000000E+02  0.00000000000E+00 0. -1.
        -11   -1    0    0    0    0 -0.00000000000E+00 -0.00000000000E+00 -0.20000000000E+02  0.20000000000E+02  0.00000000000E+00 0.  1.
          5    1    1    2  501    0 -0.47497635531E+01 -0.66858197176E+01 -0.17625253499E+02  0.20000000000E+02  0.47000000000E+01 0.  1.
         -5    1    1    2    0  501  0.47497635531E+01  0.66858197176E+01  0.17625253499E+02  0.20000000000E+02  0.47000000000E+01 0. -1.
</event>
<event>
 4    1  0.5025809E-002  0.4000000E+02  0.7546771E-02  0.1348030E+00
         11   -1    0    0    0    0  0.00000000000E+00  0.00000000000E+00  0.20000000000E+02  0.20000000000E+02  0.00000000000E+00 0.  1.
        -11   -1    0    0    0    0 -0.00000000000E+00 -0.00000000000E+00 -0.20000000000E+02  0.20000000000E+02  0.00000000000E+00 0. -1.
          5    1    1    2  501    0 -0.54360034998E+01  0.75280392553E+01 -0.17078890213E+02  0.20000000000E+02  0.47000000000E+01 0. -1.
         -5    1    1    2    0  501  0.54360034998E+01 -0.75280392553E+01  0.17078890213E+02  0.20000000000E+02  0.47000000000E+01 0.  1.
</event>
<event>
 4    1  0.5025809E-002  0.4000000E+02  0.7546771E-02  0.1348030E+00
         11   -1    0    0    0    0  0.00000000000E+00  0.00000000000E+00  0.20000000000E+02  0.20000000000E+02  0.00000000000E+00 0.  1.
        -11   -1    0    0    0    0 -0.00000000000E+00 -0.00000000000E+00 -0.20000000000E+02  0.20000000000E+02  0.00000000000E+00 0. -1.
          5    1    1    2  501    0  0.53393685716E+01  0.23912462158E+01  0.18538691561E+02  0.20000000000E+02  0.47000000000E+01 0.  1.
         -5    1    1    2    0  501 -0.53393685716E+01 -0.23912462158E+01 -0.18538691561E+02  0.20000000000E+02  0.47000000000E+01 0. -1.
</event>
<event>
 4    1  0.5025809E-002  0.4000000E+02  0.7546771E-02  0.1348030E+00
         11   -1    0    0    0    0  0.00000000000E+00  0.00000000000E+00  0.20000000000E+02  0.20000000000E+02  0.00000000000E+00 0.  1.
        -11   -1    0    0    0    0 -0.00000000000E+00 -0.00000000000E+00 -0.20000000000E+02  0.20000000000E+02  0.00000000000E+00 0. -1.
          5    1    1    2  501    0 -0.48548481407E+01 -0.18286320625E+02 -0.44666461176E+01  0.20000000000E+02  0.47000000000E+01 0. -1.
         -5    1    1    2    0  501  0.48548481407E+01  0.18286320625E+02  0.44666461176E+01  0.20000000000E+02  0.47000000000E+01 0.  1.
</event>
<event>
 4    1  0.5025809E-002  0.4000000E+02  0.7546771E-02  0.1348030E+00
         11   -1    0    0    0    0  0.00000000000E+00  0.00000000000E+00  0.20000000000E+02  0.20000000000E+02  0.00000000000E+00 0.  1.
        -11   -1    0    0    0    0 -0.00000000000E+00 -0.00000000000E+00 -0.20000000000E+02  0.20000000000E+02  0.00000000000E+00 0. -1.
          5    1    1    2  501    0  0.11969106915E+02 -0.81456169702E+01  0.12973026009E+02  0.20000000000E+02  0.47000000000E+01 0.  1.
         -5    1    1    2    0  501 -0.11969106915E+02  0.81456169702E+01 -0.12973026009E+02  0.20000000000E+02  0.47000000000E+01 0. -1.
</event>
<event>
 4    1  0.5025809E-002  0.4000000E+02  0.7546771E-02  0.1348030E+00
         11   -1    0    0    0    0  0.00000000000E+00  0.00000000000E+00  0.20000000000E+02  0.20000000000E+02  0.00000000000E+00 0.  1.
        -11   -1    0    0    0    0 -0.00000000000E+00 -0.00000000000E+00 -0.20000000000E+02  0.20000000000E+02  0.00000000000E+00 0. -1.
          5    1    1    2  501    0  0.73848141754E+01  0.16139012706E+02 -0.79313799861E+01  0.20000000000E+02  0.47000000000E+01 0.  1.
         -5    1    1    2    0  501 -0.73848141754E+01 -0.16139012706E+02  0.79313799861E+01  0.20000000000E+02  0.47000000000E+01 0. -1.
</event>
<event>
 4    1  0.5025809E-002  0.4000000E+02  0.7546771E-02  0.1348030E+00
         11   -1    0    0    0    0  0.00000000000E+00  0.00000000000E+00  0.20000000000E+02  0.20000000000E+02  0.00000000000E+00 0. -1.
        -11   -1    0    0    0    0 -0.00000000000E+00 -0.00000000000E+00 -0.20000000000E+02  0.20000000000E+02  0.00000000000E+00 0.  1.
          5    1    1    2  501    0  0.16829005724E+02 -0.78981855117E+01 -0.56844728836E+01  0.20000000000E+02  0.47000000000E+01 0.  1.
         -5    1    1    2    0  501 -0.16829005724E+02  0.78981855117E+01  0.56844728836E+01  0.20000000000E+02  0.47000000000E+01 0. -1.
</event>
<event>
 4    1  0.5025809E-002  0.4000000E+02  0.7546771E-02  0.1348030E+00
         11   -1    0    0    0    0  0.00000000000E+00  0.00000000000E+00  0.20000000000E+02  0.20000000000E+02  0.00000000000E+00 0.  1.
        -11   -1    0    0    0    0 -0.00000000000E+00 -0.00000000000E+00 -0.20000000000E+02  0.20000000000E+02  0.00000000000E+00 0. -1.
          5    1    1    2  501    0 -0.44023743638E+01 -0.17635918930E+02  0.68922756382E+01  0.20000000000E+02  0.47000000000E+01 0.  1.
         -5    1    1    2    0  501  0.44023743638E+01  0.17635918930E+02 -0.68922756382E+01  0.20000000000E+02  0.47000000000E+01 0. -1.
</event>
<event>
 4    1  0.5025809E-002  0.4000000E+02  0.7546771E-02  0.1348030E+00
         11   -1    0    0    0    0  0.00000000000E+00  0.00000000000E+00  0.20000000000E+02  0.20000000000E+02  0.00000000000E+00 0.  1.
        -11   -1    0    0    0    0 -0.00000000000E+00 -0.00000000000E+00 -0.20000000000E+02  0.20000000000E+02  0.00000000000E+00 0. -1.
          5    1    1    2  501    0 -0.54472716290E+01 -0.11172731529E+02 -0.14946815781E+02  0.20000000000E+02  0.47000000000E+01 0. -1.
         -5    1    1    2    0  501  0.54472716290E+01  0.11172731529E+02  0.14946815781E+02  0.20000000000E+02  0.47000000000E+01 0.  1.
</event>
<event>
 4    1  0.5025809E-002  0.4000000E+02  0.7546771E-02  0.1348030E+00
         11   -1    0    0    0    0  0.00000000000E+00  0.00000000000E+00  0.20000000000E+02  0.20000000000E+02  0.00000000000E+00 0.  1.
        -11   -1    0    0    0    0 -0.00000000000E+00 -0.00000000000E+00 -0.20000000000E+02  0.20000000000E+02  0.00000000000E+00 0. -1.
          5    1    1    2  501    0 -0.13585069404E+02  0.74033775082E+01 -0.11770551846E+02  0.20000000000E+02  0.47000000000E+01 0. -1.
         -5    1    1    2    0  501  0.13585069404E+02 -0.74033775082E+01  0.11770551846E+02  0.20000000000E+02  0.47000000000E+01 0.  1.
</event>
<event>
 4    1  0.5025809E-002  0.4000000E+02  0.7546771E-02  0.1348030E+00
         11   -1    0    0    0    0  0.00000000000E+00  0.00000000000E+00  0.20000000000E+02  0.20000000000E+02  0.00000000000E+00 0.  1.
        -11   -1    0    0    0    0 -0.00000000000E+00 -0.00000000000E+00 -0.20000000000E+02  0.20000000000E+02  0.00000000000E+00 0. -1.
          5    1    1    2  501    0  0.74453690977E+01  0.17715669158E+02 -0.29379491601E+01  0.20000000000E+02  0.47000000000E+01 0. -1.
         -5    1    1    2    0  501 -0.74453690977E+01 -0.17715669158E+02  0.29379491601E+01  0.20000000000E+02  0.47000000000E+01 0.  1.
</event>
<event>
 4    1  0.5025809E-002  0.4000000E+02  0.7546771E-02  0.1348030E+00
         11   -1    0    0    0    0  0.00000000000E+00  0.00000000000E+00  0.20000000000E+02  0.20000000000E+02  0.00000000000E+00 0.  1.
        -11   -1    0    0    0    0 -0.00000000000E+00 -0.00000000000E+00 -0.20000000000E+02  0.20000000000E+02  0.00000000000E+00 0. -1.
          5    1    1    2  501    0  0.89957062270E+01  0.14549884778E+02 -0.92351568703E+01  0.20000000000E+02  0.47000000000E+01 0. -1.
         -5    1    1    2    0  501 -0.89957062270E+01 -0.14549884778E+02  0.92351568703E+01  0.20000000000E+02  0.47000000000E+01 0.  1.
</event>
<event>
 4    1  0.5025809E-002  0.4000000E+02  0.7546771E-02  0.1348030E+00
         11   -1    0    0    0    0  0.00000000000E+00  0.00000000000E+00  0.20000000000E+02  0.20000000000E+02  0.00000000000E+00 0. -1.
        -11   -1    0    0    0    0 -0.00000000000E+00 -0.00000000000E+00 -0.20000000000E+02  0.20000000000E+02  0.00000000000E+00 0.  1.
          5    1    1    2  501    0 -0.19050259326E+02 -0.15231170281E+01 -0.35605805883E+01  0.20000000000E+02  0.47000000000E+01 0.  1.
         -5    1    1    2    0  501  0.19050259326E+02  0.15231170281E+01  0.35605805883E+01  0.20000000000E+02  0.47000000000E+01 0. -1.
</event>
<event>
 4    1  0.5025809E-002  0.4000000E+02  0.7546771E-02  0.1348030E+00
         11   -1    0    0    0    0  0.00000000000E+00  0.00000000000E+00  0.20000000000E+02  0.20000000000E+02  0.00000000000E+00 0.  1.
        -11   -1    0    0    0    0 -0.00000000000E+00 -0.00000000000E+00 -0.20000000000E+02  0.20000000000E+02  0.00000000000E+00 0. -1.
          5    1    1    2  501    0  0.49920736436E+01  0.96490457882E+01  0.16120952705E+02  0.20000000000E+02  0.47000000000E+01 0.  1.
         -5    1    1    2    0  501 -0.49920736436E+01 -0.96490457882E+01 -0.16120952705E+02  0.20000000000E+02  0.47000000000E+01 0. -1.
</event>
<event>
 4    1  0.5025809E-002  0.4000000E+02  0.7546771E-02  0.1348030E+00
         11   -1    0    0    0    0  0.00000000000E+00  0.00000000000E+00  0.20000000000E+02  0.20000000000E+02  0.00000000000E+00 0.  1.
        -11   -1    0    0    0    0 -0.00000000000E+00 -0.00000000000E+00 -0.20000000000E+02  0.20000000000E+02  0.00000000000E+00 0. -1.
          5    1    1    2  501    0  0.13296174387E+02 -0.14180984184E+02  0.14640446181E+00  0.20000000000E+02  0.47000000000E+01 0.  1.
         -5    1    1    2    0  501 -0.13296174387E+02  0.14180984184E+02 -0.14640446181E+00  0.20000000000E+02  0.47000000000E+01 0. -1.
</event>
<event>
 4    1  0.5025809E-002  0.4000000E+02  0.7546771E-02  0.1348030E+00
         11   -1    0    0    0    0  0.00000000000E+00  0.00000000000E+00  0.20000000000E+02  0.20000000000E+02  0.00000000000E+00 0.  1.
        -11   -1    0    0    0    0 -0.00000000000E+00 -0.00000000000E+00 -0.20000000000E+02  0.20000000000E+02  0.00000000000E+00 0. -1.
          5    1    1    2  501    0 -0.13914421445E+02 -0.12742375489E+02 -0.46830270928E+01  0.20000000000E+02  0.47000000000E+01 0. -1.
         -5    1    1    2    0  501  0.13914421445E+02  0.12742375489E+02  0.46830270928E+01  0.20000000000E+02  0.47000000000E+01 0.  1.
</event>
<event>
 4    1  0.5025809E-002  0.4000000E+02  0.7546771E-02  0.1348030E+00
         11   -1    0    0    0    0  0.00000000000E+00  0.00000000000E+00  0.20000000000E+02  0.20000000000E+02  0.00000000000E+00 0. -1.
        -11   -1    0    0    0    0 -0.00000000000E+00 -0.00000000000E+00 -0.20000000000E+02  0.20000000000E+02  0.00000000000E+00 0.  1.
          5    1    1    2  501    0 -0.45231102764E+01  0.18451894461E+02 -0.41205660095E+01  0.20000000000E+02  0.47000000000E+01 0.  1.
         -5    1    1    2    0  501  0.45231102764E+01 -0.18451894461E+02  0.41205660095E+01  0.20000000000E+02  0.47000000000E+01 0. -1.
</event>
<event>
 4    1  0.5025809E-002  0.4000000E+02  0.7546771E-02  0.1348030E+00
         11   -1    0    0    0    0  0.00000000000E+00  0.00000000000E+00  0.20000000000E+02  0.20000000000E+02  0.00000000000E+00 0. -1.
        -11   -1    0    0    0    0 -0.00000000000E+00 -0.00000000000E+00 -0.20000000000E+02  0.20000000000E+02  0.00000000000E+00 0.  1.
          5    1    1    2  501    0 -0.10305053695E+02 -0.25846422110E+01  0.16279910718E+02  0.20000000000E+02  0.47000000000E+01 0. -1.
         -5    1    1    2    0  501  0.10305053695E+02  0.25846422110E+01 -0.16279910718E+02  0.20000000000E+02  0.47000000000E+01 0.  1.
</event>
<event>
 4    1  0.5025809E-002  0.4000000E+02  0.7546771E-02  0.1348030E+00
         11   -1    0    0    0    0  0.00000000000E+00  0.00000000000E+00  0.20000000000E+02  0.20000000000E+02  0.00000000000E+00 0. -1.
        -11   -1    0    0    0    0 -0.00000000000E+00 -0.00000000000E+00 -0.20000000000E+02  0.20000000000E+02  0.00000000000E+00 0.  1.
          5    1    1    2  501    0 -0.10994740247E+02 -0.17209367990E+01 -0.15939387172E+02  0.20000000000E+02  0.47000000000E+01 0.  1.
         -5    1    1    2    0  501  0.10994740247E+02  0.17209367990E+01  0.15939387172E+02  0.20000000000E+02  0.47000000000E+01 0. -1.
</event>
<event>
 4    1  0.5025809E-002  0.4000000E+02  0.7546771E-02  0.1348030E+00
         11   -1    0    0    0    0  0.00000000000E+00  0.00000000000E+00  0.20000000000E+02  0.20000000000E+02  0.00000000000E+00 0.  1.
        -11   -1    0    0    0    0 -0.00000000000E+00 -0.00000000000E+00 -0.20000000000E+02  0.20000000000E+02  0.00000000000E+00 0. -1.
          5    1    1    2  501    0  0.14741124943E+02  0.95874533958E+01 -0.82879414097E+01  0.20000000000E+02  0.47000000000E+01 0. -1.
         -5    1    1    2    0  501 -0.14741124943E+02 -0.95874533958E+01  0.82879414097E+01  0.20000000000E+02  0.47000000000E+01 0.  1.
</event>
<event>
 4    1  0.5025809E-002  0.4000000E+02  0.7546771E-02  0.1348030E+00
         11   -1    0    0    0    0  0.00000000000E+00  0.00000000000E+00  0.20000000000E+02  0.20000000000E+02  0.00000000000E+00 0.  1.
        -11   -1    0    0    0    0 -0.00000000000E+00 -0.00000000000E+00 -0.20000000000E+02  0.20000000000E+02  0.00000000000E+00 0. -1.
          5    1    1    2  501    0  0.80216929665E+01 -0.11510912262E+02 -0.13455903569E+02  0.20000000000E+02  0.47000000000E+01 0. -1.
         -5    1    1    2    0  501 -0.80216929665E+01  0.11510912262E+02  0.13455903569E+02  0.20000000000E+02  0.47000000000E+01 0.  1.
</event>
<event>
 4    1  0.5025809E-002  0.4000000E+02  0.7546771E-02  0.1348030E+00
         11   -1    0    0    0    0  0.00000000000E+00  0.00000000000E+00  0.20000000000E+02  0.20000000000E+02  0.00000000000E+00 0.  1.
        -11   -1    0    0    0    0 -0.00000000000E+00 -0.00000000000E+00 -0.20000000000E+02  0.20000000000E+02  0.00000000000E+00 0. -1.
          5    1    1    2  501    0  0.17296942901E+02 -0.78041828255E+01  0.42214330153E+01  0.20000000000E+02  0.47000000000E+01 0. -1.
         -5    1    1    2    0  501 -0.17296942901E+02  0.78041828255E+01 -0.42214330153E+01  0.20000000000E+02  0.47000000000E+01 0.  1.
</event>
<event>
 4    1  0.5025809E-002  0.4000000E+02  0.7546771E-02  0.1348030E+00
         11   -1    0    0    0    0  0.00000000000E+00  0.00000000000E+00  0.20000000000E+02  0.20000000000E+02  0.00000000000E+00 0. -1.
        -11   -1    0    0    0    0 -0.00000000000E+00 -0.00000000000E+00 -0.20000000000E+02  0.20000000000E+02  0.00000000000E+00 0.  1.
          5    1    1    2  501    0 -0.90569224465E+01 -0.11967246579E+02 -0.12355855499E+02  0.20000000000E+02  0.47000000000E+01 0.  1.
         -5    1    1    2    0  501  0.90569224465E+01  0.11967246579E+02  0.12355855499E+02  0.20000000000E+02  0.47000000000E+01 0. -1.
</event>
<event>
 4    1  0.5025809E-002  0.4000000E+02  0.7546771E-02  0.1348030E+00
         11   -1    0    0    0    0  0.00000000000E+00  0.00000000000E+00  0.20000000000E+02  0.20000000000E+02  0.00000000000E+00 0.  1.
        -11   -1    0    0    0    0 -0.00000000000E+00 -0.00000000000E+00 -0.20000000000E+02  0.20000000000E+02  0.00000000000E+00 0. -1.
          5    1    1    2  501    0  0.13993323830E+02  0.43563635835E+01  0.12771804278E+02  0.20000000000E+02  0.47000000000E+01 0.  1.
         -5    1    1    2    0  501 -0.13993323830E+02 -0.43563635835E+01 -0.12771804278E+02  0.20000000000E+02  0.47000000000E+01 0. -1.
</event>
<event>
 4    1  0.5025809E-002  0.4000000E+02  0.7546771E-02  0.1348030E+00
         11   -1    0    0    0    0  0.00000000000E+00  0.00000000000E+00  0.20000000000E+02  0.20000000000E+02  0.00000000000E+00 0.  1.
        -11   -1    0    0    0    0 -0.00000000000E+00 -0.00000000000E+00 -0.20000000000E+02  0.20000000000E+02  0.00000000000E+00 0. -1.
          5    1    1    2  501    0 -0.17901944605E+02 -0.60506978978E+01 -0.45628318284E+01  0.20000000000E+02  0.47000000000E+01 0.  1.
         -5    1    1    2    0  501  0.17901944605E+02  0.60506978978E+01  0.45628318284E+01  0.20000000000E+02  0.47000000000E+01 0.  1.
</event>
<event>
 4    1  0.5025809E-002  0.4000000E+02  0.7546771E-02  0.1348030E+00
         11   -1    0    0    0    0  0.00000000000E+00  0.00000000000E+00  0.20000000000E+02  0.20000000000E+02  0.00000000000E+00 0.  1.
        -11   -1    0    0    0    0 -0.00000000000E+00 -0.00000000000E+00 -0.20000000000E+02  0.20000000000E+02  0.00000000000E+00 0. -1.
          5    1    1    2  501    0 -0.31695775765E+01 -0.81542673405E+01 -0.17360060545E+02  0.20000000000E+02  0.47000000000E+01 0. -1.
         -5    1    1    2    0  501  0.31695775765E+01  0.81542673405E+01  0.17360060545E+02  0.20000000000E+02  0.47000000000E+01 0.  1.
</event>
<event>
 4    1  0.5025809E-002  0.4000000E+02  0.7546771E-02  0.1348030E+00
         11   -1    0    0    0    0  0.00000000000E+00  0.00000000000E+00  0.20000000000E+02  0.20000000000E+02  0.00000000000E+00 0.  1.
        -11   -1    0    0    0    0 -0.00000000000E+00 -0.00000000000E+00 -0.20000000000E+02  0.20000000000E+02  0.00000000000E+00 0. -1.
          5    1    1    2  501    0 -0.60969430136E+01 -0.18107910757E+02  0.35834137203E+01  0.20000000000E+02  0.47000000000E+01 0.  1.
         -5    1    1    2    0  501  0.60969430136E+01  0.18107910757E+02 -0.35834137203E+01  0.20000000000E+02  0.47000000000E+01 0. -1.
</event>
<event>
 4    1  0.5025809E-002  0.4000000E+02  0.7546771E-02  0.1348030E+00
         11   -1    0    0    0    0  0.00000000000E+00  0.00000000000E+00  0.20000000000E+02  0.20000000000E+02  0.00000000000E+00 0. -1.
        -11   -1    0    0    0    0 -0.00000000000E+00 -0.00000000000E+00 -0.20000000000E+02  0.20000000000E+02  0.00000000000E+00 0.  1.
          5    1    1    2  501    0 -0.11283626521E+02  0.15795729899E+02 -0.10414842720E+01  0.20000000000E+02  0.47000000000E+01 0. -1.
         -5    1    1    2    0  501  0.11283626521E+02 -0.15795729899E+02  0.10414842720E+01  0.20000000000E+02  0.47000000000E+01 0.  1.
</event>
<event>
 4    1  0.5025809E-002  0.4000000E+02  0.7546771E-02  0.1348030E+00
         11   -1    0    0    0    0  0.00000000000E+00  0.00000000000E+00  0.20000000000E+02  0.20000000000E+02  0.00000000000E+00 0.  1.
        -11   -1    0    0    0    0 -0.00000000000E+00 -0.00000000000E+00 -0.20000000000E+02  0.20000000000E+02  0.00000000000E+00 0. -1.
          5    1    1    2  501    0 -0.17224824302E+02  0.86463642925E+01  0.25408290559E+01  0.20000000000E+02  0.47000000000E+01 0. -1.
         -5    1    1    2    0  501  0.17224824302E+02 -0.86463642925E+01 -0.25408290559E+01  0.20000000000E+02  0.47000000000E+01 0.  1.
</event>
<event>
 4    1  0.5025809E-002  0.4000000E+02  0.7546771E-02  0.1348030E+00
         11   -1    0    0    0    0  0.00000000000E+00  0.00000000000E+00  0.20000000000E+02  0.20000000000E+02  0.00000000000E+00 0.  1.
        -11   -1    0    0    0    0 -0.00000000000E+00 -0.00000000000E+00 -0.20000000000E+02  0.20000000000E+02  0.00000000000E+00 0. -1.
          5    1    1    2  501    0  0.14770779658E+01 -0.15429699215E+02 -0.11732545453E+02  0.20000000000E+02  0.47000000000E+01 0. -1.
         -5    1    1    2    0  501 -0.14770779658E+01  0.15429699215E+02  0.11732545453E+02  0.20000000000E+02  0.47000000000E+01 0.  1.
</event>
<event>
 4    1  0.5025809E-002  0.4000000E+02  0.7546771E-02  0.1348030E+00
         11   -1    0    0    0    0  0.00000000000E+00  0.00000000000E+00  0.20000000000E+02  0.20000000000E+02  0.00000000000E+00 0.  1.
        -11   -1    0    0    0    0 -0.00000000000E+00 -0.00000000000E+00 -0.20000000000E+02  0.20000000000E+02  0.00000000000E+00 0. -1.
          5    1    1    2  501    0  0.64644081874E+00  0.36225644050E+01 -0.19088455710E+02  0.20000000000E+02  0.47000000000E+01 0. -1.
         -5    1    1    2    0  501 -0.64644081874E+00 -0.36225644050E+01  0.19088455710E+02  0.20000000000E+02  0.47000000000E+01 0.  1.
</event>
<event>
 4    1  0.5025809E-002  0.4000000E+02  0.7546771E-02  0.1348030E+00
         11   -1    0    0    0    0  0.00000000000E+00  0.00000000000E+00  0.20000000000E+02  0.20000000000E+02  0.00000000000E+00 0. -1.
        -11   -1    0    0    0    0 -0.00000000000E+00 -0.00000000000E+00 -0.20000000000E+02  0.20000000000E+02  0.00000000000E+00 0.  1.
          5    1    1    2  501    0 -0.79193138917E+01 -0.13191349399E+02 -0.11882035538E+02  0.20000000000E+02  0.47000000000E+01 0.  1.
         -5    1    1    2    0  501  0.79193138917E+01  0.13191349399E+02  0.11882035538E+02  0.20000000000E+02  0.47000000000E+01 0. -1.
</event>
<event>
 4    1  0.5025809E-002  0.4000000E+02  0.7546771E-02  0.1348030E+00
         11   -1    0    0    0    0  0.00000000000E+00  0.00000000000E+00  0.20000000000E+02  0.20000000000E+02  0.00000000000E+00 0. -1.
        -11   -1    0    0    0    0 -0.00000000000E+00 -0.00000000000E+00 -0.20000000000E+02  0.20000000000E+02  0.00000000000E+00 0.  1.
          5    1    1    2  501    0  0.13110839323E+02 -0.47239745283E+01  0.13553595718E+02  0.20000000000E+02  0.47000000000E+01 0. -1.
         -5    1    1    2    0  501 -0.13110839323E+02  0.47239745283E+01 -0.13553595718E+02  0.20000000000E+02  0.47000000000E+01 0.  1.
</event>
<event>
 4    1  0.5025809E-002  0.4000000E+02  0.7546771E-02  0.1348030E+00
         11   -1    0    0    0    0  0.00000000000E+00  0.00000000000E+00  0.20000000000E+02  0.20000000000E+02  0.00000000000E+00 0.  1.
        -11   -1    0    0    0    0 -0.00000000000E+00 -0.00000000000E+00 -0.20000000000E+02  0.20000000000E+02  0.00000000000E+00 0. -1.
          5    1    1    2  501    0 -0.66985039895E+01  0.10185437798E+02 -0.15142552663E+02  0.20000000000E+02  0.47000000000E+01 0. -1.
         -5    1    1    2    0  501  0.66985039895E+01 -0.10185437798E+02  0.15142552663E+02  0.20000000000E+02  0.47000000000E+01 0.  1.
</event>
<event>
 4    1  0.5025809E-002  0.4000000E+02  0.7546771E-02  0.1348030E+00
         11   -1    0    0    0    0  0.00000000000E+00  0.00000000000E+00  0.20000000000E+02  0.20000000000E+02  0.00000000000E+00 0. -1.
        -11   -1    0    0    0    0 -0.00000000000E+00 -0.00000000000E+00 -0.20000000000E+02  0.20000000000E+02  0.00000000000E+00 0.  1.
          5    1    1    2  501    0  0.89180541805E+01  0.17159868684E+02 -0.19791958959E+01  0.20000000000E+02  0.47000000000E+01 0.  1.
         -5    1    1    2    0  501 -0.89180541805E+01 -0.17159868684E+02  0.19791958959E+01  0.20000000000E+02  0.47000000000E+01 0. -1.
</event>
<event>
 4    1  0.5025809E-002  0.4000000E+02  0.7546771E-02  0.1348030E+00
         11   -1    0    0    0    0  0.00000000000E+00  0.00000000000E+00  0.20000000000E+02  0.20000000000E+02  0.00000000000E+00 0.  1.
        -11   -1    0    0    0    0 -0.00000000000E+00 -0.00000000000E+00 -0.20000000000E+02  0.20000000000E+02  0.00000000000E+00 0. -1.
          5    1    1    2  501    0  0.15524629445E+02  0.79633084185E+00 -0.11673120311E+02  0.20000000000E+02  0.47000000000E+01 0. -1.
         -5    1    1    2    0  501 -0.15524629445E+02 -0.79633084185E+00  0.11673120311E+02  0.20000000000E+02  0.47000000000E+01 0.  1.
</event>
<event>
 4    1  0.5025809E-002  0.4000000E+02  0.7546771E-02  0.1348030E+00
         11   -1    0    0    0    0  0.00000000000E+00  0.00000000000E+00  0.20000000000E+02  0.20000000000E+02  0.00000000000E+00 0.  1.
        -11   -1    0    0    0    0 -0.00000000000E+00 -0.00000000000E+00 -0.20000000000E+02  0.20000000000E+02  0.00000000000E+00 0. -1.
          5    1    1    2  501    0 -0.33742474024E+01  0.17290731194E+02 -0.82191890862E+01  0.20000000000E+02  0.47000000000E+01 0. -1.
         -5    1    1    2    0  501  0.33742474024E+01 -0.17290731194E+02  0.82191890862E+01  0.20000000000E+02  0.47000000000E+01 0.  1.
</event>
<event>
 4    1  0.5025809E-002  0.4000000E+02  0.7546771E-02  0.1348030E+00
         11   -1    0    0    0    0  0.00000000000E+00  0.00000000000E+00  0.20000000000E+02  0.20000000000E+02  0.00000000000E+00 0.  1.
        -11   -1    0    0    0    0 -0.00000000000E+00 -0.00000000000E+00 -0.20000000000E+02  0.20000000000E+02  0.00000000000E+00 0. -1.
          5    1    1    2  501    0 -0.14222530385E+02  0.12563647589E+01 -0.13192845676E+02  0.20000000000E+02  0.47000000000E+01 0. -1.
         -5    1    1    2    0  501  0.14222530385E+02 -0.12563647589E+01  0.13192845676E+02  0.20000000000E+02  0.47000000000E+01 0.  1.
</event>
<event>
 4    1  0.5025809E-002  0.4000000E+02  0.7546771E-02  0.1348030E+00
         11   -1    0    0    0    0  0.00000000000E+00  0.00000000000E+00  0.20000000000E+02  0.20000000000E+02  0.00000000000E+00 0.  1.
        -11   -1    0    0    0    0 -0.00000000000E+00 -0.00000000000E+00 -0.20000000000E+02  0.20000000000E+02  0.00000000000E+00 0. -1.
          5    1    1    2  501    0  0.82347776642E+01  0.12820969224E+02 -0.12071503012E+02  0.20000000000E+02  0.47000000000E+01 0. -1.
         -5    1    1    2    0  501 -0.82347776642E+01 -0.12820969224E+02  0.12071503012E+02  0.20000000000E+02  0.47000000000E+01 0.  1.
</event>
<event>
 4    1  0.5025809E-002  0.4000000E+02  0.7546771E-02  0.1348030E+00
         11   -1    0    0    0    0  0.00000000000E+00  0.00000000000E+00  0.20000000000E+02  0.20000000000E+02  0.00000000000E+00 0.  1.
        -11   -1    0    0    0    0 -0.00000000000E+00 -0.00000000000E+00 -0.20000000000E+02  0.20000000000E+02  0.00000000000E+00 0. -1.
          5    1    1    2  501    0 -0.87401424918E+01  0.12115982841E+02 -0.12438764771E+02  0.20000000000E+02  0.47000000000E+01 0. -1.
         -5    1    1    2    0  501  0.87401424918E+01 -0.12115982841E+02  0.12438764771E+02  0.20000000000E+02  0.47000000000E+01 0.  1.
</event>
<event>
 4    1  0.5025809E-002  0.4000000E+02  0.7546771E-02  0.1348030E+00
         11   -1    0    0    0    0  0.00000000000E+00  0.00000000000E+00  0.20000000000E+02  0.20000000000E+02  0.00000000000E+00 0. -1.
        -11   -1    0    0    0    0 -0.00000000000E+00 -0.00000000000E+00 -0.20000000000E+02  0.20000000000E+02  0.00000000000E+00 0.  1.
          5    1    1    2  501    0  0.32232966815E+00 -0.57730381515E+01 -0.18560122146E+02  0.20000000000E+02  0.47000000000E+01 0.  1.
         -5    1    1    2    0  501 -0.32232966815E+00  0.57730381515E+01  0.18560122146E+02  0.20000000000E+02  0.47000000000E+01 0. -1.
</event>
<event>
 4    1  0.5025809E-002  0.4000000E+02  0.7546771E-02  0.1348030E+00
         11   -1    0    0    0    0  0.00000000000E+00  0.00000000000E+00  0.20000000000E+02  0.20000000000E+02  0.00000000000E+00 0.  1.
        -11   -1    0    0    0    0 -0.00000000000E+00 -0.00000000000E+00 -0.20000000000E+02  0.20000000000E+02  0.00000000000E+00 0. -1.
          5    1    1    2  501    0  0.13654095804E+02  0.13829181205E+02 -0.47897283063E+00  0.20000000000E+02  0.47000000000E+01 0.  1.
         -5    1    1    2    0  501 -0.13654095804E+02 -0.13829181205E+02  0.47897283063E+00  0.20000000000E+02  0.47000000000E+01 0. -1.
</event>
<event>
 4    1  0.5025809E-002  0.4000000E+02  0.7546771E-02  0.1348030E+00
         11   -1    0    0    0    0  0.00000000000E+00  0.00000000000E+00  0.20000000000E+02  0.20000000000E+02  0.00000000000E+00 0. -1.
        -11   -1    0    0    0    0 -0.00000000000E+00 -0.00000000000E+00 -0.20000000000E+02  0.20000000000E+02  0.00000000000E+00 0.  1.
          5    1    1    2  501    0  0.13123040844E+02 -0.62321109582E+01  0.12917298170E+02  0.20000000000E+02  0.47000000000E+01 0. -1.
         -5    1    1    2    0  501 -0.13123040844E+02  0.62321109582E+01 -0.12917298170E+02  0.20000000000E+02  0.47000000000E+01 0.  1.
</event>
<event>
 4    1  0.5025809E-002  0.4000000E+02  0.7546771E-02  0.1348030E+00
         11   -1    0    0    0    0  0.00000000000E+00  0.00000000000E+00  0.20000000000E+02  0.20000000000E+02  0.00000000000E+00 0. -1.
        -11   -1    0    0    0    0 -0.00000000000E+00 -0.00000000000E+00 -0.20000000000E+02  0.20000000000E+02  0.00000000000E+00 0.  1.
          5    1    1    2  501    0 -0.17819234126E+00  0.19256417230E+02 -0.26586919595E+01  0.20000000000E+02  0.47000000000E+01 0.  1.
         -5    1    1    2    0  501  0.17819234126E+00 -0.19256417230E+02  0.26586919595E+01  0.20000000000E+02  0.47000000000E+01 0. -1.
</event>
<event>
 4    1  0.5025809E-002  0.4000000E+02  0.7546771E-02  0.1348030E+00
         11   -1    0    0    0    0  0.00000000000E+00  0.00000000000E+00  0.20000000000E+02  0.20000000000E+02  0.00000000000E+00 0.  1.
        -11   -1    0    0    0    0 -0.00000000000E+00 -0.00000000000E+00 -0.20000000000E+02  0.20000000000E+02  0.00000000000E+00 0. -1.
          5    1    1    2  501    0  0.15279989975E+02  0.69676858422E+01  0.97919998147E+01  0.20000000000E+02  0.47000000000E+01 0.  1.
         -5    1    1    2    0  501 -0.15279989975E+02 -0.69676858422E+01 -0.97919998147E+01  0.20000000000E+02  0.47000000000E+01 0. -1.
</event>
<event>
 4    1  0.5025809E-002  0.4000000E+02  0.7546771E-02  0.1348030E+00
         11   -1    0    0    0    0  0.00000000000E+00  0.00000000000E+00  0.20000000000E+02  0.20000000000E+02  0.00000000000E+00 0.  1.
        -11   -1    0    0    0    0 -0.00000000000E+00 -0.00000000000E+00 -0.20000000000E+02  0.20000000000E+02  0.00000000000E+00 0. -1.
          5    1    1    2  501    0  0.13312817736E+02  0.10435865093E+02 -0.95797496675E+01  0.20000000000E+02  0.47000000000E+01 0. -1.
         -5    1    1    2    0  501 -0.13312817736E+02 -0.10435865093E+02  0.95797496675E+01  0.20000000000E+02  0.47000000000E+01 0.  1.
</event>
<event>
 4    1  0.5025809E-002  0.4000000E+02  0.7546771E-02  0.1348030E+00
         11   -1    0    0    0    0  0.00000000000E+00  0.00000000000E+00  0.20000000000E+02  0.20000000000E+02  0.00000000000E+00 0.  1.
        -11   -1    0    0    0    0 -0.00000000000E+00 -0.00000000000E+00 -0.20000000000E+02  0.20000000000E+02  0.00000000000E+00 0. -1.
          5    1    1    2  501    0 -0.56939682948E+00  0.70001999056E+01 -0.18126858209E+02  0.20000000000E+02  0.47000000000E+01 0. -1.
         -5    1    1    2    0  501  0.56939682948E+00 -0.70001999056E+01  0.18126858209E+02  0.20000000000E+02  0.47000000000E+01 0.  1.
</event>
<event>
 4    1  0.5025809E-002  0.4000000E+02  0.7546771E-02  0.1348030E+00
         11   -1    0    0    0    0  0.00000000000E+00  0.00000000000E+00  0.20000000000E+02  0.20000000000E+02  0.00000000000E+00 0.  1.
        -11   -1    0    0    0    0 -0.00000000000E+00 -0.00000000000E+00 -0.20000000000E+02  0.20000000000E+02  0.00000000000E+00 0. -1.
          5    1    1    2  501    0 -0.18259748411E+01 -0.16953093736E+02  0.93364034114E+01  0.20000000000E+02  0.47000000000E+01 0.  1.
         -5    1    1    2    0  501  0.18259748411E+01  0.16953093736E+02 -0.93364034114E+01  0.20000000000E+02  0.47000000000E+01 0. -1.
</event>
<event>
 4    1  0.5025809E-002  0.4000000E+02  0.7546771E-02  0.1348030E+00
         11   -1    0    0    0    0  0.00000000000E+00  0.00000000000E+00  0.20000000000E+02  0.20000000000E+02  0.00000000000E+00 0. -1.
        -11   -1    0    0    0    0 -0.00000000000E+00 -0.00000000000E+00 -0.20000000000E+02  0.20000000000E+02  0.00000000000E+00 0.  1.
          5    1    1    2  501    0 -0.17079803045E+02  0.20865503939E+01 -0.90463603390E+01  0.20000000000E+02  0.47000000000E+01 0.  1.
         -5    1    1    2    0  501  0.17079803045E+02 -0.20865503939E+01  0.90463603390E+01  0.20000000000E+02  0.47000000000E+01 0. -1.
</event>
<event>
 4    1  0.5025809E-002  0.4000000E+02  0.7546771E-02  0.1348030E+00
         11   -1    0    0    0    0  0.00000000000E+00  0.00000000000E+00  0.20000000000E+02  0.20000000000E+02  0.00000000000E+00 0.  1.
        -11   -1    0    0    0    0 -0.00000000000E+00 -0.00000000000E+00 -0.20000000000E+02  0.20000000000E+02  0.00000000000E+00 0. -1.
          5    1    1    2  501    0 -0.68522862250E+01 -0.16174344668E+02 -0.83274694870E+01  0.20000000000E+02  0.47000000000E+01 0. -1.
         -5    1    1    2    0  501  0.68522862250E+01  0.16174344668E+02  0.83274694870E+01  0.20000000000E+02  0.47000000000E+01 0.  1.
</event>
<event>
 4    1  0.5025809E-002  0.4000000E+02  0.7546771E-02  0.1348030E+00
         11   -1    0    0    0    0  0.00000000000E+00  0.00000000000E+00  0.20000000000E+02  0.20000000000E+02  0.00000000000E+00 0.  1.
        -11   -1    0    0    0    0 -0.00000000000E+00 -0.00000000000E+00 -0.20000000000E+02  0.20000000000E+02  0.00000000000E+00 0. -1.
          5    1    1    2  501    0  0.14344443431E+02 -0.89361184561E+01 -0.96069105123E+01  0.20000000000E+02  0.47000000000E+01 0. -1.
         -5    1    1    2    0  501 -0.14344443431E+02  0.89361184561E+01  0.96069105123E+01  0.20000000000E+02  0.47000000000E+01 0.  1.
</event>
<event>
 4    1  0.5025809E-002  0.4000000E+02  0.7546771E-02  0.1348030E+00
         11   -1    0    0    0    0  0.00000000000E+00  0.00000000000E+00  0.20000000000E+02  0.20000000000E+02  0.00000000000E+00 0.  1.
        -11   -1    0    0    0    0 -0.00000000000E+00 -0.00000000000E+00 -0.20000000000E+02  0.20000000000E+02  0.00000000000E+00 0. -1.
          5    1    1    2  501    0  0.11516873361E+02 -0.10537451391E+01  0.15625659959E+02  0.20000000000E+02  0.47000000000E+01 0.  1.
         -5    1    1    2    0  501 -0.11516873361E+02  0.10537451391E+01 -0.15625659959E+02  0.20000000000E+02  0.47000000000E+01 0. -1.
</event>
<event>
 4    1  0.5025809E-002  0.4000000E+02  0.7546771E-02  0.1348030E+00
         11   -1    0    0    0    0  0.00000000000E+00  0.00000000000E+00  0.20000000000E+02  0.20000000000E+02  0.00000000000E+00 0.  1.
        -11   -1    0    0    0    0 -0.00000000000E+00 -0.00000000000E+00 -0.20000000000E+02  0.20000000000E+02  0.00000000000E+00 0. -1.
          5    1    1    2  501    0 -0.69092216674E+01  0.18158845639E+02 -0.65496640484E+00  0.20000000000E+02  0.47000000000E+01 0. -1.
         -5    1    1    2    0  501  0.69092216674E+01 -0.18158845639E+02  0.65496640484E+00  0.20000000000E+02  0.47000000000E+01 0. -1.
</event>
<event>
 4    1  0.5025809E-002  0.4000000E+02  0.7546771E-02  0.1348030E+00
         11   -1    0    0    0    0  0.00000000000E+00  0.00000000000E+00  0.20000000000E+02  0.20000000000E+02  0.00000000000E+00 0.  1.
        -11   -1    0    0    0    0 -0.00000000000E+00 -0.00000000000E+00 -0.20000000000E+02  0.20000000000E+02  0.00000000000E+00 0. -1.
          5    1    1    2  501    0  0.16440911091E+02 -0.73549244365E+01 -0.73151574845E+01  0.20000000000E+02  0.47000000000E+01 0. -1.
         -5    1    1    2    0  501 -0.16440911091E+02  0.73549244365E+01  0.73151574845E+01  0.20000000000E+02  0.47000000000E+01 0.  1.
</event>
<event>
 4    1  0.5025809E-002  0.4000000E+02  0.7546771E-02  0.1348030E+00
         11   -1    0    0    0    0  0.00000000000E+00  0.00000000000E+00  0.20000000000E+02  0.20000000000E+02  0.00000000000E+00 0. -1.
        -11   -1    0    0    0    0 -0.00000000000E+00 -0.00000000000E+00 -0.20000000000E+02  0.20000000000E+02  0.00000000000E+00 0.  1.
          5    1    1    2  501    0 -0.25111030096E+00  0.76121340189E+00 -0.19423375036E+02  0.20000000000E+02  0.47000000000E+01 0.  1.
         -5    1    1    2    0  501  0.25111030096E+00 -0.76121340189E+00  0.19423375036E+02  0.20000000000E+02  0.47000000000E+01 0. -1.
</event>
<event>
 4    1  0.5025809E-002  0.4000000E+02  0.7546771E-02  0.1348030E+00
         11   -1    0    0    0    0  0.00000000000E+00  0.00000000000E+00  0.20000000000E+02  0.20000000000E+02  0.00000000000E+00 0.  1.
        -11   -1    0    0    0    0 -0.00000000000E+00 -0.00000000000E+00 -0.20000000000E+02  0.20000000000E+02  0.00000000000E+00 0. -1.
          5    1    1    2  501    0 -0.17941356772E+02  0.36952969936E+01 -0.65086478875E+01  0.20000000000E+02  0.47000000000E+01 0. -1.
         -5    1    1    2    0  501  0.17941356772E+02 -0.36952969936E+01  0.65086478875E+01  0.20000000000E+02  0.47000000000E+01 0. -1.
</event>
<event>
 4    1  0.5025809E-002  0.4000000E+02  0.7546771E-02  0.1348030E+00
         11   -1    0    0    0    0  0.00000000000E+00  0.00000000000E+00  0.20000000000E+02  0.20000000000E+02  0.00000000000E+00 0.  1.
        -11   -1    0    0    0    0 -0.00000000000E+00 -0.00000000000E+00 -0.20000000000E+02  0.20000000000E+02  0.00000000000E+00 0. -1.
          5    1    1    2  501    0  0.18710097612E+02  0.29593930273E+01 -0.43685512763E+01  0.20000000000E+02  0.47000000000E+01 0. -1.
         -5    1    1    2    0  501 -0.18710097612E+02 -0.29593930273E+01  0.43685512763E+01  0.20000000000E+02  0.47000000000E+01 0.  1.
</event>
<event>
 4    1  0.5025809E-002  0.4000000E+02  0.7546771E-02  0.1348030E+00
         11   -1    0    0    0    0  0.00000000000E+00  0.00000000000E+00  0.20000000000E+02  0.20000000000E+02  0.00000000000E+00 0.  1.
        -11   -1    0    0    0    0 -0.00000000000E+00 -0.00000000000E+00 -0.20000000000E+02  0.20000000000E+02  0.00000000000E+00 0. -1.
          5    1    1    2  501    0  0.36598245336E+01 -0.16659091625E+02  0.93268617775E+01  0.20000000000E+02  0.47000000000E+01 0.  1.
         -5    1    1    2    0  501 -0.36598245336E+01  0.16659091625E+02 -0.93268617775E+01  0.20000000000E+02  0.47000000000E+01 0. -1.
</event>
<event>
 4    1  0.5025809E-002  0.4000000E+02  0.7546771E-02  0.1348030E+00
         11   -1    0    0    0    0  0.00000000000E+00  0.00000000000E+00  0.20000000000E+02  0.20000000000E+02  0.00000000000E+00 0.  1.
        -11   -1    0    0    0    0 -0.00000000000E+00 -0.00000000000E+00 -0.20000000000E+02  0.20000000000E+02  0.00000000000E+00 0. -1.
          5    1    1    2  501    0 -0.15010715857E+02  0.82159551693E+01 -0.92242338502E+01  0.20000000000E+02  0.47000000000E+01 0. -1.
         -5    1    1    2    0  501  0.15010715857E+02 -0.82159551693E+01  0.92242338502E+01  0.20000000000E+02  0.47000000000E+01 0.  1.
</event>
<event>
 4    1  0.5025809E-002  0.4000000E+02  0.7546771E-02  0.1348030E+00
         11   -1    0    0    0    0  0.00000000000E+00  0.00000000000E+00  0.20000000000E+02  0.20000000000E+02  0.00000000000E+00 0.  1.
        -11   -1    0    0    0    0 -0.00000000000E+00 -0.00000000000E+00 -0.20000000000E+02  0.20000000000E+02  0.00000000000E+00 0. -1.
          5    1    1    2  501    0  0.57231397055E+01  0.18144777515E+02  0.39903284121E+01  0.20000000000E+02  0.47000000000E+01 0. -1.
         -5    1    1    2    0  501 -0.57231397055E+01 -0.18144777515E+02 -0.39903284121E+01  0.20000000000E+02  0.47000000000E+01 0. -1.
</event>
<event>
 4    1  0.5025809E-002  0.4000000E+02  0.7546771E-02  0.1348030E+00
         11   -1    0    0    0    0  0.00000000000E+00  0.00000000000E+00  0.20000000000E+02  0.20000000000E+02  0.00000000000E+00 0.  1.
        -11   -1    0    0    0    0 -0.00000000000E+00 -0.00000000000E+00 -0.20000000000E+02  0.20000000000E+02  0.00000000000E+00 0. -1.
          5    1    1    2  501    0  0.12282538814E+01 -0.85297122615E+01 -0.17425423987E+02  0.20000000000E+02  0.47000000000E+01 0. -1.
         -5    1    1    2    0  501 -0.12282538814E+01  0.85297122615E+01  0.17425423987E+02  0.20000000000E+02  0.47000000000E+01 0.  1.
</event>
<event>
 4    1  0.5025809E-002  0.4000000E+02  0.7546771E-02  0.1348030E+00
         11   -1    0    0    0    0  0.00000000000E+00  0.00000000000E+00  0.20000000000E+02  0.20000000000E+02  0.00000000000E+00 0.  1.
        -11   -1    0    0    0    0 -0.00000000000E+00 -0.00000000000E+00 -0.20000000000E+02  0.20000000000E+02  0.00000000000E+00 0. -1.
          5    1    1    2  501    0 -0.18166499582E+02 -0.11742544300E+01  0.68197814813E+01  0.20000000000E+02  0.47000000000E+01 0.  1.
         -5    1    1    2    0  501  0.18166499582E+02  0.11742544300E+01 -0.68197814813E+01  0.20000000000E+02  0.47000000000E+01 0. -1.
</event>
<event>
 4    1  0.5025809E-002  0.4000000E+02  0.7546771E-02  0.1348030E+00
         11   -1    0    0    0    0  0.00000000000E+00  0.00000000000E+00  0.20000000000E+02  0.20000000000E+02  0.00000000000E+00 0.  1.
        -11   -1    0    0    0    0 -0.00000000000E+00 -0.00000000000E+00 -0.20000000000E+02  0.20000000000E+02  0.00000000000E+00 0. -1.
          5    1    1    2  501    0 -0.22536574719E+01  0.30639398601E+01 -0.19064188956E+02  0.20000000000E+02  0.47000000000E+01 0. -1.
         -5    1    1    2    0  501  0.22536574719E+01 -0.30639398601E+01  0.19064188956E+02  0.20000000000E+02  0.47000000000E+01 0.  1.
</event>
<event>
 4    1  0.5025809E-002  0.4000000E+02  0.7546771E-02  0.1348030E+00
         11   -1    0    0    0    0  0.00000000000E+00  0.00000000000E+00  0.20000000000E+02  0.20000000000E+02  0.00000000000E+00 0.  1.
        -11   -1    0    0    0    0 -0.00000000000E+00 -0.00000000000E+00 -0.20000000000E+02  0.20000000000E+02  0.00000000000E+00 0. -1.
          5    1    1    2  501    0 -0.70527621200E+01  0.35678983135E+01 -0.17760592561E+02  0.20000000000E+02  0.47000000000E+01 0. -1.
         -5    1    1    2    0  501  0.70527621200E+01 -0.35678983135E+01  0.17760592561E+02  0.20000000000E+02  0.47000000000E+01 0.  1.
</event>
<event>
 4    1  0.5025809E-002  0.4000000E+02  0.7546771E-02  0.1348030E+00
         11   -1    0    0    0    0  0.00000000000E+00  0.00000000000E+00  0.20000000000E+02  0.20000000000E+02  0.00000000000E+00 0. -1.
        -11   -1    0    0    0    0 -0.00000000000E+00 -0.00000000000E+00 -0.20000000000E+02  0.20000000000E+02  0.00000000000E+00 0.  1.
          5    1    1    2  501    0  0.16882360431E+02  0.25436130945E+01 -0.92965552060E+01  0.20000000000E+02  0.47000000000E+01 0.  1.
         -5    1    1    2    0  501 -0.16882360431E+02 -0.25436130945E+01  0.92965552060E+01  0.20000000000E+02  0.47000000000E+01 0. -1.
</event>
<event>
 4    1  0.5025809E-002  0.4000000E+02  0.7546771E-02  0.1348030E+00
         11   -1    0    0    0    0  0.00000000000E+00  0.00000000000E+00  0.20000000000E+02  0.20000000000E+02  0.00000000000E+00 0. -1.
        -11   -1    0    0    0    0 -0.00000000000E+00 -0.00000000000E+00 -0.20000000000E+02  0.20000000000E+02  0.00000000000E+00 0.  1.
          5    1    1    2  501    0  0.51640665040E+01  0.10548977233E+02  0.15490690639E+02  0.20000000000E+02  0.47000000000E+01 0. -1.
         -5    1    1    2    0  501 -0.51640665040E+01 -0.10548977233E+02 -0.15490690639E+02  0.20000000000E+02  0.47000000000E+01 0.  1.
</event>
<event>
 4    1  0.5025809E-002  0.4000000E+02  0.7546771E-02  0.1348030E+00
         11   -1    0    0    0    0  0.00000000000E+00  0.00000000000E+00  0.20000000000E+02  0.20000000000E+02  0.00000000000E+00 0.  1.
        -11   -1    0    0    0    0 -0.00000000000E+00 -0.00000000000E+00 -0.20000000000E+02  0.20000000000E+02  0.00000000000E+00 0. -1.
          5    1    1    2  501    0  0.14108632770E+02 -0.13229402817E+02 -0.19594342160E+01  0.20000000000E+02  0.47000000000E+01 0. -1.
         -5    1    1    2    0  501 -0.14108632770E+02  0.13229402817E+02  0.19594342160E+01  0.20000000000E+02  0.47000000000E+01 0.  1.
</event>
<event>
 4    1  0.5025809E-002  0.4000000E+02  0.7546771E-02  0.1348030E+00
         11   -1    0    0    0    0  0.00000000000E+00  0.00000000000E+00  0.20000000000E+02  0.20000000000E+02  0.00000000000E+00 0.  1.
        -11   -1    0    0    0    0 -0.00000000000E+00 -0.00000000000E+00 -0.20000000000E+02  0.20000000000E+02  0.00000000000E+00 0. -1.
          5    1    1    2  501    0  0.14198936599E+02 -0.13265872128E+02 -0.56288200089E+00  0.20000000000E+02  0.47000000000E+01 0. -1.
         -5    1    1    2    0  501 -0.14198936599E+02  0.13265872128E+02  0.56288200089E+00  0.20000000000E+02  0.47000000000E+01 0.  1.
</event>
<event>
 4    1  0.5025809E-002  0.4000000E+02  0.7546771E-02  0.1348030E+00
         11   -1    0    0    0    0  0.00000000000E+00  0.00000000000E+00  0.20000000000E+02  0.20000000000E+02  0.00000000000E+00 0. -1.
        -11   -1    0    0    0    0 -0.00000000000E+00 -0.00000000000E+00 -0.20000000000E+02  0.20000000000E+02  0.00000000000E+00 0.  1.
          5    1    1    2  501    0 -0.11087898503E+02  0.10412995415E+02 -0.12105289474E+02  0.20000000000E+02  0.47000000000E+01 0.  1.
         -5    1    1    2    0  501  0.11087898503E+02 -0.10412995415E+02  0.12105289474E+02  0.20000000000E+02  0.47000000000E+01 0. -1.
</event>
<event>
 4    1  0.5025809E-002  0.4000000E+02  0.7546771E-02  0.1348030E+00
         11   -1    0    0    0    0  0.00000000000E+00  0.00000000000E+00  0.20000000000E+02  0.20000000000E+02  0.00000000000E+00 0.  1.
        -11   -1    0    0    0    0 -0.00000000000E+00 -0.00000000000E+00 -0.20000000000E+02  0.20000000000E+02  0.00000000000E+00 0. -1.
          5    1    1    2  501    0 -0.32664018510E+01  0.18898360046E+02  0.31768862918E+01  0.20000000000E+02  0.47000000000E+01 0. -1.
         -5    1    1    2    0  501  0.32664018510E+01 -0.18898360046E+02 -0.31768862918E+01  0.20000000000E+02  0.47000000000E+01 0.  1.
</event>
<event>
 4    1  0.5025809E-002  0.4000000E+02  0.7546771E-02  0.1348030E+00
         11   -1    0    0    0    0  0.00000000000E+00  0.00000000000E+00  0.20000000000E+02  0.20000000000E+02  0.00000000000E+00 0.  1.
        -11   -1    0    0    0    0 -0.00000000000E+00 -0.00000000000E+00 -0.20000000000E+02  0.20000000000E+02  0.00000000000E+00 0. -1.
          5    1    1    2  501    0  0.13362054025E+01  0.99540130421E+01  0.16644584089E+02  0.20000000000E+02  0.47000000000E+01 0.  1.
         -5    1    1    2    0  501 -0.13362054025E+01 -0.99540130421E+01 -0.16644584089E+02  0.20000000000E+02  0.47000000000E+01 0. -1.
</event>
<event>
 4    1  0.5025809E-002  0.4000000E+02  0.7546771E-02  0.1348030E+00
         11   -1    0    0    0    0  0.00000000000E+00  0.00000000000E+00  0.20000000000E+02  0.20000000000E+02  0.00000000000E+00 0.  1.
        -11   -1    0    0    0    0 -0.00000000000E+00 -0.00000000000E+00 -0.20000000000E+02  0.20000000000E+02  0.00000000000E+00 0. -1.
          5    1    1    2  501    0 -0.49177743264E+00  0.10086450913E+02 -0.16611190895E+02  0.20000000000E+02  0.47000000000E+01 0. -1.
         -5    1    1    2    0  501  0.49177743264E+00 -0.10086450913E+02  0.16611190895E+02  0.20000000000E+02  0.47000000000E+01 0.  1.
</event>
<event>
 4    1  0.5025809E-002  0.4000000E+02  0.7546771E-02  0.1348030E+00
         11   -1    0    0    0    0  0.00000000000E+00  0.00000000000E+00  0.20000000000E+02  0.20000000000E+02  0.00000000000E+00 0.  1.
        -11   -1    0    0    0    0 -0.00000000000E+00 -0.00000000000E+00 -0.20000000000E+02  0.20000000000E+02  0.00000000000E+00 0. -1.
          5    1    1    2  501    0  0.91978986085E+01 -0.43130261529E+00 -0.17120824724E+02  0.20000000000E+02  0.47000000000E+01 0. -1.
         -5    1    1    2    0  501 -0.91978986085E+01  0.43130261529E+00  0.17120824724E+02  0.20000000000E+02  0.47000000000E+01 0.  1.
</event>
<event>
 4    1  0.5025809E-002  0.4000000E+02  0.7546771E-02  0.1348030E+00
         11   -1    0    0    0    0  0.00000000000E+00  0.00000000000E+00  0.20000000000E+02  0.20000000000E+02  0.00000000000E+00 0. -1.
        -11   -1    0    0    0    0 -0.00000000000E+00 -0.00000000000E+00 -0.20000000000E+02  0.20000000000E+02  0.00000000000E+00 0.  1.
          5    1    1    2  501    0  0.70025545322E+00 -0.47169240915E+00 -0.19421564009E+02  0.20000000000E+02  0.47000000000E+01 0.  1.
         -5    1    1    2    0  501 -0.70025545322E+00  0.47169240915E+00  0.19421564009E+02  0.20000000000E+02  0.47000000000E+01 0. -1.
</event>
<event>
 4    1  0.5025809E-002  0.4000000E+02  0.7546771E-02  0.1348030E+00
         11   -1    0    0    0    0  0.00000000000E+00  0.00000000000E+00  0.20000000000E+02  0.20000000000E+02  0.00000000000E+00 0. -1.
        -11   -1    0    0    0    0 -0.00000000000E+00 -0.00000000000E+00 -0.20000000000E+02  0.20000000000E+02  0.00000000000E+00 0.  1.
          5    1    1    2  501    0  0.33787136961E+01  0.17098355233E+02 -0.86104902353E+01  0.20000000000E+02  0.47000000000E+01 0.  1.
         -5    1    1    2    0  501 -0.33787136961E+01 -0.17098355233E+02  0.86104902353E+01  0.20000000000E+02  0.47000000000E+01 0. -1.
</event>
<event>
 4    1  0.5025809E-002  0.4000000E+02  0.7546771E-02  0.1348030E+00
         11   -1    0    0    0    0  0.00000000000E+00  0.00000000000E+00  0.20000000000E+02  0.20000000000E+02  0.00000000000E+00 0.  1.
        -11   -1    0    0    0    0 -0.00000000000E+00 -0.00000000000E+00 -0.20000000000E+02  0.20000000000E+02  0.00000000000E+00 0. -1.
          5    1    1    2  501    0 -0.19109039477E+02 -0.84361995461E+00 -0.34702904247E+01  0.20000000000E+02  0.47000000000E+01 0.  1.
         -5    1    1    2    0  501  0.19109039477E+02  0.84361995461E+00  0.34702904247E+01  0.20000000000E+02  0.47000000000E+01 0. -1.
</event>
<event>
 4    1  0.5025809E-002  0.4000000E+02  0.7546771E-02  0.1348030E+00
         11   -1    0    0    0    0  0.00000000000E+00  0.00000000000E+00  0.20000000000E+02  0.20000000000E+02  0.00000000000E+00 0. -1.
        -11   -1    0    0    0    0 -0.00000000000E+00 -0.00000000000E+00 -0.20000000000E+02  0.20000000000E+02  0.00000000000E+00 0.  1.
          5    1    1    2  501    0  0.13450632810E+02  0.10594054215E+02  0.92063289263E+01  0.20000000000E+02  0.47000000000E+01 0.  1.
         -5    1    1    2    0  501 -0.13450632810E+02 -0.10594054215E+02 -0.92063289263E+01  0.20000000000E+02  0.47000000000E+01 0. -1.
</event>
<event>
 4    1  0.5025809E-002  0.4000000E+02  0.7546771E-02  0.1348030E+00
         11   -1    0    0    0    0  0.00000000000E+00  0.00000000000E+00  0.20000000000E+02  0.20000000000E+02  0.00000000000E+00 0. -1.
        -11   -1    0    0    0    0 -0.00000000000E+00 -0.00000000000E+00 -0.20000000000E+02  0.20000000000E+02  0.00000000000E+00 0.  1.
          5    1    1    2  501    0 -0.85000253354E+01 -0.74722125617E+01 -0.15805872603E+02  0.20000000000E+02  0.47000000000E+01 0.  1.
         -5    1    1    2    0  501  0.85000253354E+01  0.74722125617E+01  0.15805872603E+02  0.20000000000E+02  0.47000000000E+01 0. -1.
</event>
<event>
 4    1  0.5025809E-002  0.4000000E+02  0.7546771E-02  0.1348030E+00
         11   -1    0    0    0    0  0.00000000000E+00  0.00000000000E+00  0.20000000000E+02  0.20000000000E+02  0.00000000000E+00 0.  1.
        -11   -1    0    0    0    0 -0.00000000000E+00 -0.00000000000E+00 -0.20000000000E+02  0.20000000000E+02  0.00000000000E+00 0. -1.
          5    1    1    2  501    0 -0.14755067412E+02  0.53641048851E+01 -0.11464046601E+02  0.20000000000E+02  0.47000000000E+01 0.  1.
         -5    1    1    2    0  501  0.14755067412E+02 -0.53641048851E+01  0.11464046601E+02  0.20000000000E+02  0.47000000000E+01 0. -1.
</event>
<event>
 4    1  0.5025809E-002  0.4000000E+02  0.7546771E-02  0.1348030E+00
         11   -1    0    0    0    0  0.00000000000E+00  0.00000000000E+00  0.20000000000E+02  0.20000000000E+02  0.00000000000E+00 0.  1.
        -11   -1    0    0    0    0 -0.00000000000E+00 -0.00000000000E+00 -0.20000000000E+02  0.20000000000E+02  0.00000000000E+00 0. -1.
          5    1    1    2  501    0 -0.64365961096E+01 -0.60488304295E+01  0.17317386667E+02  0.20000000000E+02  0.47000000000E+01 0.  1.
         -5    1    1    2    0  501  0.64365961096E+01  0.60488304295E+01 -0.17317386667E+02  0.20000000000E+02  0.47000000000E+01 0. -1.
</event>
<event>
 4    1  0.5025809E-002  0.4000000E+02  0.7546771E-02  0.1348030E+00
         11   -1    0    0    0    0  0.00000000000E+00  0.00000000000E+00  0.20000000000E+02  0.20000000000E+02  0.00000000000E+00 0. -1.
        -11   -1    0    0    0    0 -0.00000000000E+00 -0.00000000000E+00 -0.20000000000E+02  0.20000000000E+02  0.00000000000E+00 0.  1.
          5    1    1    2  501    0  0.16992083792E+02  0.82473928564E+01 -0.45999564635E+01  0.20000000000E+02  0.47000000000E+01 0.  1.
         -5    1    1    2    0  501 -0.16992083792E+02 -0.82473928564E+01  0.45999564635E+01  0.20000000000E+02  0.47000000000E+01 0. -1.
</event>
<event>
 4    1  0.5025809E-002  0.4000000E+02  0.7546771E-02  0.1348030E+00
         11   -1    0    0    0    0  0.00000000000E+00  0.00000000000E+00  0.20000000000E+02  0.20000000000E+02  0.00000000000E+00 0.  1.
        -11   -1    0    0    0    0 -0.00000000000E+00 -0.00000000000E+00 -0.20000000000E+02  0.20000000000E+02  0.00000000000E+00 0. -1.
          5    1    1    2  501    0  0.18357048103E+02 -0.63729036366E+01  0.56114543144E+00  0.20000000000E+02  0.47000000000E+01 0.  1.
         -5    1    1    2    0  501 -0.18357048103E+02  0.63729036366E+01 -0.56114543144E+00  0.20000000000E+02  0.47000000000E+01 0. -1.
</event>
<event>
 4    1  0.5025809E-002  0.4000000E+02  0.7546771E-02  0.1348030E+00
         11   -1    0    0    0    0  0.00000000000E+00  0.00000000000E+00  0.20000000000E+02  0.20000000000E+02  0.00000000000E+00 0.  1.
        -11   -1    0    0    0    0 -0.00000000000E+00 -0.00000000000E+00 -0.20000000000E+02  0.20000000000E+02  0.00000000000E+00 0. -1.
          5    1    1    2  501    0 -0.12189245469E+02 -0.26638080763E+01  0.14907596098E+02  0.20000000000E+02  0.47000000000E+01 0.  1.
         -5    1    1    2    0  501  0.12189245469E+02  0.26638080763E+01 -0.14907596098E+02  0.20000000000E+02  0.47000000000E+01 0. -1.
</event>
<event>
 4    1  0.5025809E-002  0.4000000E+02  0.7546771E-02  0.1348030E+00
         11   -1    0    0    0    0  0.00000000000E+00  0.00000000000E+00  0.20000000000E+02  0.20000000000E+02  0.00000000000E+00 0. -1.
        -11   -1    0    0    0    0 -0.00000000000E+00 -0.00000000000E+00 -0.20000000000E+02  0.20000000000E+02  0.00000000000E+00 0.  1.
          5    1    1    2  501    0  0.83734923797E+01 -0.16046365363E+01 -0.17470539973E+02  0.20000000000E+02  0.47000000000E+01 0.  1.
         -5    1    1    2    0  501 -0.83734923797E+01  0.16046365363E+01  0.17470539973E+02  0.20000000000E+02  0.47000000000E+01 0. -1.
</event>
<event>
 4    1  0.5025809E-002  0.4000000E+02  0.7546771E-02  0.1348030E+00
         11   -1    0    0    0    0  0.00000000000E+00  0.00000000000E+00  0.20000000000E+02  0.20000000000E+02  0.00000000000E+00 0.  1.
        -11   -1    0    0    0    0 -0.00000000000E+00 -0.00000000000E+00 -0.20000000000E+02  0.20000000000E+02  0.00000000000E+00 0. -1.
          5    1    1    2  501    0  0.12269931077E+02  0.60936822633E+01 -0.13792237956E+02  0.20000000000E+02  0.47000000000E+01 0. -1.
         -5    1    1    2    0  501 -0.12269931077E+02 -0.60936822633E+01  0.13792237956E+02  0.20000000000E+02  0.47000000000E+01 0.  1.
</event>
<event>
 4    1  0.5025809E-002  0.4000000E+02  0.7546771E-02  0.1348030E+00
         11   -1    0    0    0    0  0.00000000000E+00  0.00000000000E+00  0.20000000000E+02  0.20000000000E+02  0.00000000000E+00 0. -1.
        -11   -1    0    0    0    0 -0.00000000000E+00 -0.00000000000E+00 -0.20000000000E+02  0.20000000000E+02  0.00000000000E+00 0.  1.
          5    1    1    2  501    0  0.24233172854E+01  0.15544847759E+02  0.11419073583E+02  0.20000000000E+02  0.47000000000E+01 0. -1.
         -5    1    1    2    0  501 -0.24233172854E+01 -0.15544847759E+02 -0.11419073583E+02  0.20000000000E+02  0.47000000000E+01 0.  1.
</event>
<event>
 4    1  0.5025809E-002  0.4000000E+02  0.7546771E-02  0.1348030E+00
         11   -1    0    0    0    0  0.00000000000E+00  0.00000000000E+00  0.20000000000E+02  0.20000000000E+02  0.00000000000E+00 0. -1.
        -11   -1    0    0    0    0 -0.00000000000E+00 -0.00000000000E+00 -0.20000000000E+02  0.20000000000E+02  0.00000000000E+00 0.  1.
          5    1    1    2  501    0 -0.17725943331E+02 -0.79651637913E+01 -0.50704909990E+00  0.20000000000E+02  0.47000000000E+01 0.  1.
         -5    1    1    2    0  501  0.17725943331E+02  0.79651637913E+01  0.50704909990E+00  0.20000000000E+02  0.47000000000E+01 0. -1.
</event>
<event>
 4    1  0.5025809E-002  0.4000000E+02  0.7546771E-02  0.1348030E+00
         11   -1    0    0    0    0  0.00000000000E+00  0.00000000000E+00  0.20000000000E+02  0.20000000000E+02  0.00000000000E+00 0.  1.
        -11   -1    0    0    0    0 -0.00000000000E+00 -0.00000000000E+00 -0.20000000000E+02  0.20000000000E+02  0.00000000000E+00 0. -1.
          5    1    1    2  501    0 -0.16524488415E+02 -0.83223885079E+01  0.59656627586E+01  0.20000000000E+02  0.47000000000E+01 0. -1.
         -5    1    1    2    0  501  0.16524488415E+02  0.83223885079E+01 -0.59656627586E+01  0.20000000000E+02  0.47000000000E+01 0.  1.
</event>
<event>
 4    1  0.5025809E-002  0.4000000E+02  0.7546771E-02  0.1348030E+00
         11   -1    0    0    0    0  0.00000000000E+00  0.00000000000E+00  0.20000000000E+02  0.20000000000E+02  0.00000000000E+00 0.  1.
        -11   -1    0    0    0    0 -0.00000000000E+00 -0.00000000000E+00 -0.20000000000E+02  0.20000000000E+02  0.00000000000E+00 0. -1.
          5    1    1    2  501    0  0.14414300984E+02  0.12669929070E+02 -0.31001329840E+01  0.20000000000E+02  0.47000000000E+01 0. -1.
         -5    1    1    2    0  501 -0.14414300984E+02 -0.12669929070E+02  0.31001329840E+01  0.20000000000E+02  0.47000000000E+01 0. -1.
</event>
<event>
 4    1  0.5025809E-002  0.4000000E+02  0.7546771E-02  0.1348030E+00
         11   -1    0    0    0    0  0.00000000000E+00  0.00000000000E+00  0.20000000000E+02  0.20000000000E+02  0.00000000000E+00 0.  1.
        -11   -1    0    0    0    0 -0.00000000000E+00 -0.00000000000E+00 -0.20000000000E+02  0.20000000000E+02  0.00000000000E+00 0. -1.
          5    1    1    2  501    0 -0.10933985642E+02  0.81821080429E+01 -0.13835138812E+02  0.20000000000E+02  0.47000000000E+01 0. -1.
         -5    1    1    2    0  501  0.10933985642E+02 -0.81821080429E+01  0.13835138812E+02  0.20000000000E+02  0.47000000000E+01 0.  1.
</event>
<event>
 4    1  0.5025809E-002  0.4000000E+02  0.7546771E-02  0.1348030E+00
         11   -1    0    0    0    0  0.00000000000E+00  0.00000000000E+00  0.20000000000E+02  0.20000000000E+02  0.00000000000E+00 0. -1.
        -11   -1    0    0    0    0 -0.00000000000E+00 -0.00000000000E+00 -0.20000000000E+02  0.20000000000E+02  0.00000000000E+00 0.  1.
          5    1    1    2  501    0  0.15752104030E+02  0.11377191526E+02  0.58372219331E+00  0.20000000000E+02  0.47000000000E+01 0.  1.
         -5    1    1    2    0  501 -0.15752104030E+02 -0.11377191526E+02 -0.58372219331E+00  0.20000000000E+02  0.47000000000E+01 0. -1.
</event>
<event>
 4    1  0.5025809E-002  0.4000000E+02  0.7546771E-02  0.1348030E+00
         11   -1    0    0    0    0  0.00000000000E+00  0.00000000000E+00  0.20000000000E+02  0.20000000000E+02  0.00000000000E+00 0.  1.
        -11   -1    0    0    0    0 -0.00000000000E+00 -0.00000000000E+00 -0.20000000000E+02  0.20000000000E+02  0.00000000000E+00 0. -1.
          5    1    1    2  501    0 -0.74517103981E+01 -0.14662351346E+02 -0.10363274828E+02  0.20000000000E+02  0.47000000000E+01 0. -1.
         -5    1    1    2    0  501  0.74517103981E+01  0.14662351346E+02  0.10363274828E+02  0.20000000000E+02  0.47000000000E+01 0.  1.
</event>
<event>
 4    1  0.5025809E-002  0.4000000E+02  0.7546771E-02  0.1348030E+00
         11   -1    0    0    0    0  0.00000000000E+00  0.00000000000E+00  0.20000000000E+02  0.20000000000E+02  0.00000000000E+00 0.  1.
        -11   -1    0    0    0    0 -0.00000000000E+00 -0.00000000000E+00 -0.20000000000E+02  0.20000000000E+02  0.00000000000E+00 0. -1.
          5    1    1    2  501    0 -0.79830768658E+01  0.13461273339E+02 -0.11531461480E+02  0.20000000000E+02  0.47000000000E+01 0. -1.
         -5    1    1    2    0  501  0.79830768658E+01 -0.13461273339E+02  0.11531461480E+02  0.20000000000E+02  0.47000000000E+01 0.  1.
</event>
<event>
 4    1  0.5025809E-002  0.4000000E+02  0.7546771E-02  0.1348030E+00
         11   -1    0    0    0    0  0.00000000000E+00  0.00000000000E+00  0.20000000000E+02  0.20000000000E+02  0.00000000000E+00 0.  1.
        -11   -1    0    0    0    0 -0.00000000000E+00 -0.00000000000E+00 -0.20000000000E+02  0.20000000000E+02  0.00000000000E+00 0. -1.
          5    1    1    2  501    0 -0.27648391992E+01  0.51525922644E+01  0.18539591613E+02  0.20000000000E+02  0.47000000000E+01 0.  1.
         -5    1    1    2    0  501  0.27648391992E+01 -0.51525922644E+01 -0.18539591613E+02  0.20000000000E+02  0.47000000000E+01 0. -1.
</event>
<event>
 4    1  0.5025809E-002  0.4000000E+02  0.7546771E-02  0.1348030E+00
         11   -1    0    0    0    0  0.00000000000E+00  0.00000000000E+00  0.20000000000E+02  0.20000000000E+02  0.00000000000E+00 0.  1.
        -11   -1    0    0    0    0 -0.00000000000E+00 -0.00000000000E+00 -0.20000000000E+02  0.20000000000E+02  0.00000000000E+00 0. -1.
          5    1    1    2  501    0 -0.14556717205E+02  0.62693033917E+01  0.11256456778E+02  0.20000000000E+02  0.47000000000E+01 0.  1.
         -5    1    1    2    0  501  0.14556717205E+02 -0.62693033917E+01 -0.11256456778E+02  0.20000000000E+02  0.47000000000E+01 0. -1.
</event>
<event>
 4    1  0.5025809E-002  0.4000000E+02  0.7546771E-02  0.1348030E+00
         11   -1    0    0    0    0  0.00000000000E+00  0.00000000000E+00  0.20000000000E+02  0.20000000000E+02  0.00000000000E+00 0.  1.
        -11   -1    0    0    0    0 -0.00000000000E+00 -0.00000000000E+00 -0.20000000000E+02  0.20000000000E+02  0.00000000000E+00 0. -1.
          5    1    1    2  501    0 -0.57390999506E+01 -0.17784191211E+02 -0.53567970576E+01  0.20000000000E+02  0.47000000000E+01 0. -1.
         -5    1    1    2    0  501  0.57390999506E+01  0.17784191211E+02  0.53567970576E+01  0.20000000000E+02  0.47000000000E+01 0.  1.
</event>
<event>
 4    1  0.5025809E-002  0.4000000E+02  0.7546771E-02  0.1348030E+00
         11   -1    0    0    0    0  0.00000000000E+00  0.00000000000E+00  0.20000000000E+02  0.20000000000E+02  0.00000000000E+00 0.  1.
        -11   -1    0    0    0    0 -0.00000000000E+00 -0.00000000000E+00 -0.20000000000E+02  0.20000000000E+02  0.00000000000E+00 0. -1.
          5    1    1    2  501    0 -0.31088980495E+01 -0.33918152565E+01 -0.18887571103E+02  0.20000000000E+02  0.47000000000E+01 0. -1.
         -5    1    1    2    0  501  0.31088980495E+01  0.33918152565E+01  0.18887571103E+02  0.20000000000E+02  0.47000000000E+01 0.  1.
</event>
<event>
 4    1  0.5025809E-002  0.4000000E+02  0.7546771E-02  0.1348030E+00
         11   -1    0    0    0    0  0.00000000000E+00  0.00000000000E+00  0.20000000000E+02  0.20000000000E+02  0.00000000000E+00 0.  1.
        -11   -1    0    0    0    0 -0.00000000000E+00 -0.00000000000E+00 -0.20000000000E+02  0.20000000000E+02  0.00000000000E+00 0. -1.
          5    1    1    2  501    0  0.15096800687E+02 -0.27850087919E+01 -0.11926455259E+02  0.20000000000E+02  0.47000000000E+01 0. -1.
         -5    1    1    2    0  501 -0.15096800687E+02  0.27850087919E+01  0.11926455259E+02  0.20000000000E+02  0.47000000000E+01 0.  1.
</event>
<event>
 4    1  0.5025809E-002  0.4000000E+02  0.7546771E-02  0.1348030E+00
         11   -1    0    0    0    0  0.00000000000E+00  0.00000000000E+00  0.20000000000E+02  0.20000000000E+02  0.00000000000E+00 0.  1.
        -11   -1    0    0    0    0 -0.00000000000E+00 -0.00000000000E+00 -0.20000000000E+02  0.20000000000E+02  0.00000000000E+00 0. -1.
          5    1    1    2  501    0  0.17331788866E+02 -0.68429420291E+00 -0.87778605669E+01  0.20000000000E+02  0.47000000000E+01 0. -1.
         -5    1    1    2    0  501 -0.17331788866E+02  0.68429420291E+00  0.87778605669E+01  0.20000000000E+02  0.47000000000E+01 0.  1.
</event>
<event>
 4    1  0.5025809E-002  0.4000000E+02  0.7546771E-02  0.1348030E+00
         11   -1    0    0    0    0  0.00000000000E+00  0.00000000000E+00  0.20000000000E+02  0.20000000000E+02  0.00000000000E+00 0.  1.
        -11   -1    0    0    0    0 -0.00000000000E+00 -0.00000000000E+00 -0.20000000000E+02  0.20000000000E+02  0.00000000000E+00 0. -1.
          5    1    1    2  501    0  0.67994124769E+01  0.13835593374E+02 -0.11842902768E+02  0.20000000000E+02  0.47000000000E+01 0. -1.
         -5    1    1    2    0  501 -0.67994124769E+01 -0.13835593374E+02  0.11842902768E+02  0.20000000000E+02  0.47000000000E+01 0.  1.
</event>
<event>
 4    1  0.5025809E-002  0.4000000E+02  0.7546771E-02  0.1348030E+00
         11   -1    0    0    0    0  0.00000000000E+00  0.00000000000E+00  0.20000000000E+02  0.20000000000E+02  0.00000000000E+00 0. -1.
        -11   -1    0    0    0    0 -0.00000000000E+00 -0.00000000000E+00 -0.20000000000E+02  0.20000000000E+02  0.00000000000E+00 0.  1.
          5    1    1    2  501    0  0.26781766466E+00  0.38476858020E+01 -0.19053440311E+02  0.20000000000E+02  0.47000000000E+01 0.  1.
         -5    1    1    2    0  501 -0.26781766466E+00 -0.38476858020E+01  0.19053440311E+02  0.20000000000E+02  0.47000000000E+01 0. -1.
</event>
<event>
 4    1  0.5025809E-002  0.4000000E+02  0.7546771E-02  0.1348030E+00
         11   -1    0    0    0    0  0.00000000000E+00  0.00000000000E+00  0.20000000000E+02  0.20000000000E+02  0.00000000000E+00 0.  1.
        -11   -1    0    0    0    0 -0.00000000000E+00 -0.00000000000E+00 -0.20000000000E+02  0.20000000000E+02  0.00000000000E+00 0. -1.
          5    1    1    2  501    0 -0.17397148476E+02 -0.31763043370E+01  0.80721939816E+01  0.20000000000E+02  0.47000000000E+01 0.  1.
         -5    1    1    2    0  501  0.17397148476E+02  0.31763043370E+01 -0.80721939816E+01  0.20000000000E+02  0.47000000000E+01 0. -1.
</event>
<event>
 4    1  0.5025809E-002  0.4000000E+02  0.7546771E-02  0.1348030E+00
         11   -1    0    0    0    0  0.00000000000E+00  0.00000000000E+00  0.20000000000E+02  0.20000000000E+02  0.00000000000E+00 0. -1.
        -11   -1    0    0    0    0 -0.00000000000E+00 -0.00000000000E+00 -0.20000000000E+02  0.20000000000E+02  0.00000000000E+00 0.  1.
          5    1    1    2  501    0 -0.19081490974E+02 -0.35986829694E+01  0.92530163040E+00  0.20000000000E+02  0.47000000000E+01 0. -1.
         -5    1    1    2    0  501  0.19081490974E+02  0.35986829694E+01 -0.92530163040E+00  0.20000000000E+02  0.47000000000E+01 0.  1.
</event>
<event>
 4    1  0.5025809E-002  0.4000000E+02  0.7546771E-02  0.1348030E+00
         11   -1    0    0    0    0  0.00000000000E+00  0.00000000000E+00  0.20000000000E+02  0.20000000000E+02  0.00000000000E+00 0.  1.
        -11   -1    0    0    0    0 -0.00000000000E+00 -0.00000000000E+00 -0.20000000000E+02  0.20000000000E+02  0.00000000000E+00 0. -1.
          5    1    1    2  501    0  0.73987484384E+01  0.14969692871E+02 -0.99537338170E+01  0.20000000000E+02  0.47000000000E+01 0. -1.
         -5    1    1    2    0  501 -0.73987484384E+01 -0.14969692871E+02  0.99537338170E+01  0.20000000000E+02  0.47000000000E+01 0.  1.
</event>
<event>
 4    1  0.5025809E-002  0.4000000E+02  0.7546771E-02  0.1348030E+00
         11   -1    0    0    0    0  0.00000000000E+00  0.00000000000E+00  0.20000000000E+02  0.20000000000E+02  0.00000000000E+00 0.  1.
        -11   -1    0    0    0    0 -0.00000000000E+00 -0.00000000000E+00 -0.20000000000E+02  0.20000000000E+02  0.00000000000E+00 0. -1.
          5    1    1    2  501    0 -0.12628593230E+02 -0.11841952414E+01 -0.14731813013E+02  0.20000000000E+02  0.47000000000E+01 0. -1.
         -5    1    1    2    0  501  0.12628593230E+02  0.11841952414E+01  0.14731813013E+02  0.20000000000E+02  0.47000000000E+01 0.  1.
</event>
<event>
 4    1  0.5025809E-002  0.4000000E+02  0.7546771E-02  0.1348030E+00
         11   -1    0    0    0    0  0.00000000000E+00  0.00000000000E+00  0.20000000000E+02  0.20000000000E+02  0.00000000000E+00 0. -1.
        -11   -1    0    0    0    0 -0.00000000000E+00 -0.00000000000E+00 -0.20000000000E+02  0.20000000000E+02  0.00000000000E+00 0.  1.
          5    1    1    2  501    0 -0.16612642377E+02  0.66852859550E+01 -0.75655181558E+01  0.20000000000E+02  0.47000000000E+01 0.  1.
         -5    1    1    2    0  501  0.16612642377E+02 -0.66852859550E+01  0.75655181558E+01  0.20000000000E+02  0.47000000000E+01 0. -1.
</event>
<event>
 4    1  0.5025809E-002  0.4000000E+02  0.7546771E-02  0.1348030E+00
         11   -1    0    0    0    0  0.00000000000E+00  0.00000000000E+00  0.20000000000E+02  0.20000000000E+02  0.00000000000E+00 0.  1.
        -11   -1    0    0    0    0 -0.00000000000E+00 -0.00000000000E+00 -0.20000000000E+02  0.20000000000E+02  0.00000000000E+00 0. -1.
          5    1    1    2  501    0 -0.40709162208E+01 -0.10001135233E+02 -0.16165238482E+02  0.20000000000E+02  0.47000000000E+01 0. -1.
         -5    1    1    2    0  501  0.40709162208E+01  0.10001135233E+02  0.16165238482E+02  0.20000000000E+02  0.47000000000E+01 0.  1.
</event>
<event>
 4    1  0.5025809E-002  0.4000000E+02  0.7546771E-02  0.1348030E+00
         11   -1    0    0    0    0  0.00000000000E+00  0.00000000000E+00  0.20000000000E+02  0.20000000000E+02  0.00000000000E+00 0.  1.
        -11   -1    0    0    0    0 -0.00000000000E+00 -0.00000000000E+00 -0.20000000000E+02  0.20000000000E+02  0.00000000000E+00 0. -1.
          5    1    1    2  501    0  0.22225247743E+01 -0.11767846931E+02  0.15313006309E+02  0.20000000000E+02  0.47000000000E+01 0.  1.
         -5    1    1    2    0  501 -0.22225247743E+01  0.11767846931E+02 -0.15313006309E+02  0.20000000000E+02  0.47000000000E+01 0. -1.
</event>
<event>
 4    1  0.5025809E-002  0.4000000E+02  0.7546771E-02  0.1348030E+00
         11   -1    0    0    0    0  0.00000000000E+00  0.00000000000E+00  0.20000000000E+02  0.20000000000E+02  0.00000000000E+00 0.  1.
        -11   -1    0    0    0    0 -0.00000000000E+00 -0.00000000000E+00 -0.20000000000E+02  0.20000000000E+02  0.00000000000E+00 0. -1.
          5    1    1    2  501    0 -0.11480597738E+02 -0.23980677204E+01 -0.15503391460E+02  0.20000000000E+02  0.47000000000E+01 0. -1.
         -5    1    1    2    0  501  0.11480597738E+02  0.23980677204E+01  0.15503391460E+02  0.20000000000E+02  0.47000000000E+01 0.  1.
</event>
<event>
 4    1  0.5025809E-002  0.4000000E+02  0.7546771E-02  0.1348030E+00
         11   -1    0    0    0    0  0.00000000000E+00  0.00000000000E+00  0.20000000000E+02  0.20000000000E+02  0.00000000000E+00 0. -1.
        -11   -1    0    0    0    0 -0.00000000000E+00 -0.00000000000E+00 -0.20000000000E+02  0.20000000000E+02  0.00000000000E+00 0.  1.
          5    1    1    2  501    0 -0.11926210000E+02  0.94168601432E+01  0.12124283900E+02  0.20000000000E+02  0.47000000000E+01 0.  1.
         -5    1    1    2    0  501  0.11926210000E+02 -0.94168601432E+01 -0.12124283900E+02  0.20000000000E+02  0.47000000000E+01 0. -1.
</event>
<event>
 4    1  0.5025809E-002  0.4000000E+02  0.7546771E-02  0.1348030E+00
         11   -1    0    0    0    0  0.00000000000E+00  0.00000000000E+00  0.20000000000E+02  0.20000000000E+02  0.00000000000E+00 0.  1.
        -11   -1    0    0    0    0 -0.00000000000E+00 -0.00000000000E+00 -0.20000000000E+02  0.20000000000E+02  0.00000000000E+00 0. -1.
          5    1    1    2  501    0  0.97178556969E+01  0.68860956607E+01 -0.15364080422E+02  0.20000000000E+02  0.47000000000E+01 0. -1.
         -5    1    1    2    0  501 -0.97178556969E+01 -0.68860956607E+01  0.15364080422E+02  0.20000000000E+02  0.47000000000E+01 0.  1.
</event>
<event>
 4    1  0.5025809E-002  0.4000000E+02  0.7546771E-02  0.1348030E+00
         11   -1    0    0    0    0  0.00000000000E+00  0.00000000000E+00  0.20000000000E+02  0.20000000000E+02  0.00000000000E+00 0.  1.
        -11   -1    0    0    0    0 -0.00000000000E+00 -0.00000000000E+00 -0.20000000000E+02  0.20000000000E+02  0.00000000000E+00 0. -1.
          5    1    1    2  501    0 -0.76717528286E+01 -0.17595412532E+02 -0.30750067239E+01  0.20000000000E+02  0.47000000000E+01 0.  1.
         -5    1    1    2    0  501  0.76717528286E+01  0.17595412532E+02  0.30750067239E+01  0.20000000000E+02  0.47000000000E+01 0. -1.
</event>
<event>
 4    1  0.5025809E-002  0.4000000E+02  0.7546771E-02  0.1348030E+00
         11   -1    0    0    0    0  0.00000000000E+00  0.00000000000E+00  0.20000000000E+02  0.20000000000E+02  0.00000000000E+00 0. -1.
        -11   -1    0    0    0    0 -0.00000000000E+00 -0.00000000000E+00 -0.20000000000E+02  0.20000000000E+02  0.00000000000E+00 0.  1.
          5    1    1    2  501    0  0.95230186105E+01  0.12505481478E+02 -0.11438314979E+02  0.20000000000E+02  0.47000000000E+01 0.  1.
         -5    1    1    2    0  501 -0.95230186105E+01 -0.12505481478E+02  0.11438314979E+02  0.20000000000E+02  0.47000000000E+01 0. -1.
</event>
<event>
 4    1  0.5025809E-002  0.4000000E+02  0.7546771E-02  0.1348030E+00
         11   -1    0    0    0    0  0.00000000000E+00  0.00000000000E+00  0.20000000000E+02  0.20000000000E+02  0.00000000000E+00 0.  1.
        -11   -1    0    0    0    0 -0.00000000000E+00 -0.00000000000E+00 -0.20000000000E+02  0.20000000000E+02  0.00000000000E+00 0. -1.
          5    1    1    2  501    0  0.11008227216E+02 -0.15512060914E+02 -0.40130910473E+01  0.20000000000E+02  0.47000000000E+01 0. -1.
         -5    1    1    2    0  501 -0.11008227216E+02  0.15512060914E+02  0.40130910473E+01  0.20000000000E+02  0.47000000000E+01 0.  1.
</event>
<event>
 4    1  0.5025809E-002  0.4000000E+02  0.7546771E-02  0.1348030E+00
         11   -1    0    0    0    0  0.00000000000E+00  0.00000000000E+00  0.20000000000E+02  0.20000000000E+02  0.00000000000E+00 0. -1.
        -11   -1    0    0    0    0 -0.00000000000E+00 -0.00000000000E+00 -0.20000000000E+02  0.20000000000E+02  0.00000000000E+00 0.  1.
          5    1    1    2  501    0 -0.18988982638E+02  0.95422528739E-01  0.41616622780E+01  0.20000000000E+02  0.47000000000E+01 0.  1.
         -5    1    1    2    0  501  0.18988982638E+02 -0.95422528739E-01 -0.41616622780E+01  0.20000000000E+02  0.47000000000E+01 0. -1.
</event>
<event>
 4    1  0.5025809E-002  0.4000000E+02  0.7546771E-02  0.1348030E+00
         11   -1    0    0    0    0  0.00000000000E+00  0.00000000000E+00  0.20000000000E+02  0.20000000000E+02  0.00000000000E+00 0.  1.
        -11   -1    0    0    0    0 -0.00000000000E+00 -0.00000000000E+00 -0.20000000000E+02  0.20000000000E+02  0.00000000000E+00 0. -1.
          5    1    1    2  501    0 -0.15599225056E+02 -0.98767468732E+01 -0.60847390126E+01  0.20000000000E+02  0.47000000000E+01 0. -1.
         -5    1    1    2    0  501  0.15599225056E+02  0.98767468732E+01  0.60847390126E+01  0.20000000000E+02  0.47000000000E+01 0. -1.
</event>
<event>
 4    1  0.5025809E-002  0.4000000E+02  0.7546771E-02  0.1348030E+00
         11   -1    0    0    0    0  0.00000000000E+00  0.00000000000E+00  0.20000000000E+02  0.20000000000E+02  0.00000000000E+00 0.  1.
        -11   -1    0    0    0    0 -0.00000000000E+00 -0.00000000000E+00 -0.20000000000E+02  0.20000000000E+02  0.00000000000E+00 0. -1.
          5    1    1    2  501    0 -0.80720781300E+01  0.96964508248E+00  0.17658180628E+02  0.20000000000E+02  0.47000000000E+01 0.  1.
         -5    1    1    2    0  501  0.80720781300E+01 -0.96964508248E+00 -0.17658180628E+02  0.20000000000E+02  0.47000000000E+01 0. -1.
</event>
<event>
 4    1  0.5025809E-002  0.4000000E+02  0.7546771E-02  0.1348030E+00
         11   -1    0    0    0    0  0.00000000000E+00  0.00000000000E+00  0.20000000000E+02  0.20000000000E+02  0.00000000000E+00 0. -1.
        -11   -1    0    0    0    0 -0.00000000000E+00 -0.00000000000E+00 -0.20000000000E+02  0.20000000000E+02  0.00000000000E+00 0.  1.
          5    1    1    2  501    0 -0.59924885935E+01  0.86647907297E+01  0.16337731852E+02  0.20000000000E+02  0.47000000000E+01 0. -1.
         -5    1    1    2    0  501  0.59924885935E+01 -0.86647907297E+01 -0.16337731852E+02  0.20000000000E+02  0.47000000000E+01 0.  1.
</event>
<event>
 4    1  0.5025809E-002  0.4000000E+02  0.7546771E-02  0.1348030E+00
         11   -1    0    0    0    0  0.00000000000E+00  0.00000000000E+00  0.20000000000E+02  0.20000000000E+02  0.00000000000E+00 0.  1.
        -11   -1    0    0    0    0 -0.00000000000E+00 -0.00000000000E+00 -0.20000000000E+02  0.20000000000E+02  0.00000000000E+00 0. -1.
          5    1    1    2  501    0 -0.15305558734E+02  0.56498110154E+01 -0.10570217941E+02  0.20000000000E+02  0.47000000000E+01 0. -1.
         -5    1    1    2    0  501  0.15305558734E+02 -0.56498110154E+01  0.10570217941E+02  0.20000000000E+02  0.47000000000E+01 0.  1.
</event>
<event>
 4    1  0.5025809E-002  0.4000000E+02  0.7546771E-02  0.1348030E+00
         11   -1    0    0    0    0  0.00000000000E+00  0.00000000000E+00  0.20000000000E+02  0.20000000000E+02  0.00000000000E+00 0. -1.
        -11   -1    0    0    0    0 -0.00000000000E+00 -0.00000000000E+00 -0.20000000000E+02  0.20000000000E+02  0.00000000000E+00 0.  1.
          5    1    1    2  501    0 -0.62277373919E+01 -0.95906749614E+01 -0.15720821886E+02  0.20000000000E+02  0.47000000000E+01 0.  1.
         -5    1    1    2    0  501  0.62277373919E+01  0.95906749614E+01  0.15720821886E+02  0.20000000000E+02  0.47000000000E+01 0. -1.
</event>
<event>
 4    1  0.5025809E-002  0.4000000E+02  0.7546771E-02  0.1348030E+00
         11   -1    0    0    0    0  0.00000000000E+00  0.00000000000E+00  0.20000000000E+02  0.20000000000E+02  0.00000000000E+00 0.  1.
        -11   -1    0    0    0    0 -0.00000000000E+00 -0.00000000000E+00 -0.20000000000E+02  0.20000000000E+02  0.00000000000E+00 0. -1.
          5    1    1    2  501    0  0.79234104163E+00 -0.11616698063E+02 -0.15567097410E+02  0.20000000000E+02  0.47000000000E+01 0. -1.
         -5    1    1    2    0  501 -0.79234104163E+00  0.11616698063E+02  0.15567097410E+02  0.20000000000E+02  0.47000000000E+01 0.  1.
</event>
<event>
 4    1  0.5025809E-002  0.4000000E+02  0.7546771E-02  0.1348030E+00
         11   -1    0    0    0    0  0.00000000000E+00  0.00000000000E+00  0.20000000000E+02  0.20000000000E+02  0.00000000000E+00 0. -1.
        -11   -1    0    0    0    0 -0.00000000000E+00 -0.00000000000E+00 -0.20000000000E+02  0.20000000000E+02  0.00000000000E+00 0.  1.
          5    1    1    2  501    0  0.16564966748E+02 -0.10136345462E+02 -0.87542978824E+00  0.20000000000E+02  0.47000000000E+01 0.  1.
         -5    1    1    2    0  501 -0.16564966748E+02  0.10136345462E+02  0.87542978824E+00  0.20000000000E+02  0.47000000000E+01 0. -1.
</event>
<event>
 4    1  0.5025809E-002  0.4000000E+02  0.7546771E-02  0.1348030E+00
         11   -1    0    0    0    0  0.00000000000E+00  0.00000000000E+00  0.20000000000E+02  0.20000000000E+02  0.00000000000E+00 0.  1.
        -11   -1    0    0    0    0 -0.00000000000E+00 -0.00000000000E+00 -0.20000000000E+02  0.20000000000E+02  0.00000000000E+00 0. -1.
          5    1    1    2  501    0 -0.19119598657E+01 -0.23426386372E+01  0.19203292782E+02  0.20000000000E+02  0.47000000000E+01 0.  1.
         -5    1    1    2    0  501  0.19119598657E+01  0.23426386372E+01 -0.19203292782E+02  0.20000000000E+02  0.47000000000E+01 0. -1.
</event>
<event>
 4    1  0.5025809E-002  0.4000000E+02  0.7546771E-02  0.1348030E+00
         11   -1    0    0    0    0  0.00000000000E+00  0.00000000000E+00  0.20000000000E+02  0.20000000000E+02  0.00000000000E+00 0.  1.
        -11   -1    0    0    0    0 -0.00000000000E+00 -0.00000000000E+00 -0.20000000000E+02  0.20000000000E+02  0.00000000000E+00 0. -1.
          5    1    1    2  501    0  0.10563572830E+02 -0.10894562132E+02 -0.12150285800E+02  0.20000000000E+02  0.47000000000E+01 0. -1.
         -5    1    1    2    0  501 -0.10563572830E+02  0.10894562132E+02  0.12150285800E+02  0.20000000000E+02  0.47000000000E+01 0.  1.
</event>
<event>
 4    1  0.5025809E-002  0.4000000E+02  0.7546771E-02  0.1348030E+00
         11   -1    0    0    0    0  0.00000000000E+00  0.00000000000E+00  0.20000000000E+02  0.20000000000E+02  0.00000000000E+00 0.  1.
        -11   -1    0    0    0    0 -0.00000000000E+00 -0.00000000000E+00 -0.20000000000E+02  0.20000000000E+02  0.00000000000E+00 0. -1.
          5    1    1    2  501    0  0.16460933750E+01 -0.14933522519E+02  0.12336542537E+02  0.20000000000E+02  0.47000000000E+01 0. -1.
         -5    1    1    2    0  501 -0.16460933750E+01  0.14933522519E+02 -0.12336542537E+02  0.20000000000E+02  0.47000000000E+01 0.  1.
</event>
<event>
 4    1  0.5025809E-002  0.4000000E+02  0.7546771E-02  0.1348030E+00
         11   -1    0    0    0    0  0.00000000000E+00  0.00000000000E+00  0.20000000000E+02  0.20000000000E+02  0.00000000000E+00 0.  1.
        -11   -1    0    0    0    0 -0.00000000000E+00 -0.00000000000E+00 -0.20000000000E+02  0.20000000000E+02  0.00000000000E+00 0. -1.
          5    1    1    2  501    0 -0.18207126162E+01 -0.21422080345E+00  0.19353271429E+02  0.20000000000E+02  0.47000000000E+01 0.  1.
         -5    1    1    2    0  501  0.18207126162E+01  0.21422080345E+00 -0.19353271429E+02  0.20000000000E+02  0.47000000000E+01 0. -1.
</event>
<event>
 4    1  0.5025809E-002  0.4000000E+02  0.7546771E-02  0.1348030E+00
         11   -1    0    0    0    0  0.00000000000E+00  0.00000000000E+00  0.20000000000E+02  0.20000000000E+02  0.00000000000E+00 0. -1.
        -11   -1    0    0    0    0 -0.00000000000E+00 -0.00000000000E+00 -0.20000000000E+02  0.20000000000E+02  0.00000000000E+00 0.  1.
          5    1    1    2  501    0  0.14929661315E+02  0.53014056624E+01  0.11265447662E+02  0.20000000000E+02  0.47000000000E+01 0. -1.
         -5    1    1    2    0  501 -0.14929661315E+02 -0.53014056624E+01 -0.11265447662E+02  0.20000000000E+02  0.47000000000E+01 0.  1.
</event>
<event>
 4    1  0.5025809E-002  0.4000000E+02  0.7546771E-02  0.1348030E+00
         11   -1    0    0    0    0  0.00000000000E+00  0.00000000000E+00  0.20000000000E+02  0.20000000000E+02  0.00000000000E+00 0.  1.
        -11   -1    0    0    0    0 -0.00000000000E+00 -0.00000000000E+00 -0.20000000000E+02  0.20000000000E+02  0.00000000000E+00 0. -1.
          5    1    1    2  501    0 -0.10473377496E+02 -0.98868759515E+01  0.13056341285E+02  0.20000000000E+02  0.47000000000E+01 0.  1.
         -5    1    1    2    0  501  0.10473377496E+02  0.98868759515E+01 -0.13056341285E+02  0.20000000000E+02  0.47000000000E+01 0. -1.
</event>
<event>
 4    1  0.5025809E-002  0.4000000E+02  0.7546771E-02  0.1348030E+00
         11   -1    0    0    0    0  0.00000000000E+00  0.00000000000E+00  0.20000000000E+02  0.20000000000E+02  0.00000000000E+00 0. -1.
        -11   -1    0    0    0    0 -0.00000000000E+00 -0.00000000000E+00 -0.20000000000E+02  0.20000000000E+02  0.00000000000E+00 0.  1.
          5    1    1    2  501    0  0.89581634292E+01  0.16085805079E+02 -0.62376424173E+01  0.20000000000E+02  0.47000000000E+01 0.  1.
         -5    1    1    2    0  501 -0.89581634292E+01 -0.16085805079E+02  0.62376424173E+01  0.20000000000E+02  0.47000000000E+01 0. -1.
</event>
<event>
 4    1  0.5025809E-002  0.4000000E+02  0.7546771E-02  0.1348030E+00
         11   -1    0    0    0    0  0.00000000000E+00  0.00000000000E+00  0.20000000000E+02  0.20000000000E+02  0.00000000000E+00 0.  1.
        -11   -1    0    0    0    0 -0.00000000000E+00 -0.00000000000E+00 -0.20000000000E+02  0.20000000000E+02  0.00000000000E+00 0. -1.
          5    1    1    2  501    0 -0.16688154639E+02 -0.99056368375E+01 -0.11374768488E+01  0.20000000000E+02  0.47000000000E+01 0. -1.
         -5    1    1    2    0  501  0.16688154639E+02  0.99056368375E+01  0.11374768488E+01  0.20000000000E+02  0.47000000000E+01 0.  1.
</event>
<event>
 4    1  0.5025809E-002  0.4000000E+02  0.7546771E-02  0.1348030E+00
         11   -1    0    0    0    0  0.00000000000E+00  0.00000000000E+00  0.20000000000E+02  0.20000000000E+02  0.00000000000E+00 0.  1.
        -11   -1    0    0    0    0 -0.00000000000E+00 -0.00000000000E+00 -0.20000000000E+02  0.20000000000E+02  0.00000000000E+00 0. -1.
          5    1    1    2  501    0 -0.17445397294E+02  0.34145784663E+01 -0.78682124491E+01  0.20000000000E+02  0.47000000000E+01 0. -1.
         -5    1    1    2    0  501  0.17445397294E+02 -0.34145784663E+01  0.78682124491E+01  0.20000000000E+02  0.47000000000E+01 0.  1.
</event>
<event>
 4    1  0.5025809E-002  0.4000000E+02  0.7546771E-02  0.1348030E+00
         11   -1    0    0    0    0  0.00000000000E+00  0.00000000000E+00  0.20000000000E+02  0.20000000000E+02  0.00000000000E+00 0.  1.
        -11   -1    0    0    0    0 -0.00000000000E+00 -0.00000000000E+00 -0.20000000000E+02  0.20000000000E+02  0.00000000000E+00 0. -1.
          5    1    1    2  501    0 -0.15315945918E+02 -0.11818833533E+02  0.19097053591E+01  0.20000000000E+02  0.47000000000E+01 0. -1.
         -5    1    1    2    0  501  0.15315945918E+02  0.11818833533E+02 -0.19097053591E+01  0.20000000000E+02  0.47000000000E+01 0.  1.
</event>
<event>
 4    1  0.5025809E-002  0.4000000E+02  0.7546771E-02  0.1348030E+00
         11   -1    0    0    0    0  0.00000000000E+00  0.00000000000E+00  0.20000000000E+02  0.20000000000E+02  0.00000000000E+00 0. -1.
        -11   -1    0    0    0    0 -0.00000000000E+00 -0.00000000000E+00 -0.20000000000E+02  0.20000000000E+02  0.00000000000E+00 0.  1.
          5    1    1    2  501    0  0.70899187536E+01 -0.11877227887E+02  0.13659228009E+02  0.20000000000E+02  0.47000000000E+01 0. -1.
         -5    1    1    2    0  501 -0.70899187536E+01  0.11877227887E+02 -0.13659228009E+02  0.20000000000E+02  0.47000000000E+01 0.  1.
</event>
<event>
 4    1  0.5025809E-002  0.4000000E+02  0.7546771E-02  0.1348030E+00
         11   -1    0    0    0    0  0.00000000000E+00  0.00000000000E+00  0.20000000000E+02  0.20000000000E+02  0.00000000000E+00 0.  1.
        -11   -1    0    0    0    0 -0.00000000000E+00 -0.00000000000E+00 -0.20000000000E+02  0.20000000000E+02  0.00000000000E+00 0. -1.
          5    1    1    2  501    0  0.18066776649E+02  0.59501351821E+01  0.40121656056E+01  0.20000000000E+02  0.47000000000E+01 0.  1.
         -5    1    1    2    0  501 -0.18066776649E+02 -0.59501351821E+01 -0.40121656056E+01  0.20000000000E+02  0.47000000000E+01 0. -1.
</event>
<event>
 4    1  0.5025809E-002  0.4000000E+02  0.7546771E-02  0.1348030E+00
         11   -1    0    0    0    0  0.00000000000E+00  0.00000000000E+00  0.20000000000E+02  0.20000000000E+02  0.00000000000E+00 0.  1.
        -11   -1    0    0    0    0 -0.00000000000E+00 -0.00000000000E+00 -0.20000000000E+02  0.20000000000E+02  0.00000000000E+00 0. -1.
          5    1    1    2  501    0  0.98121723849E+01  0.16496632489E+02 -0.30809721879E+01  0.20000000000E+02  0.47000000000E+01 0.  1.
         -5    1    1    2    0  501 -0.98121723849E+01 -0.16496632489E+02  0.30809721879E+01  0.20000000000E+02  0.47000000000E+01 0. -1.
</event>
<event>
 4    1  0.5025809E-002  0.4000000E+02  0.7546771E-02  0.1348030E+00
         11   -1    0    0    0    0  0.00000000000E+00  0.00000000000E+00  0.20000000000E+02  0.20000000000E+02  0.00000000000E+00 0.  1.
        -11   -1    0    0    0    0 -0.00000000000E+00 -0.00000000000E+00 -0.20000000000E+02  0.20000000000E+02  0.00000000000E+00 0. -1.
          5    1    1    2  501    0  0.61468384280E+01 -0.10955535446E+02 -0.14835855905E+02  0.20000000000E+02  0.47000000000E+01 0. -1.
         -5    1    1    2    0  501 -0.61468384280E+01  0.10955535446E+02  0.14835855905E+02  0.20000000000E+02  0.47000000000E+01 0.  1.
</event>
<event>
 4    1  0.5025809E-002  0.4000000E+02  0.7546771E-02  0.1348030E+00
         11   -1    0    0    0    0  0.00000000000E+00  0.00000000000E+00  0.20000000000E+02  0.20000000000E+02  0.00000000000E+00 0.  1.
        -11   -1    0    0    0    0 -0.00000000000E+00 -0.00000000000E+00 -0.20000000000E+02  0.20000000000E+02  0.00000000000E+00 0. -1.
          5    1    1    2  501    0 -0.18856696989E+01  0.19142698603E+02  0.28127104320E+01  0.20000000000E+02  0.47000000000E+01 0. -1.
         -5    1    1    2    0  501  0.18856696989E+01 -0.19142698603E+02 -0.28127104320E+01  0.20000000000E+02  0.47000000000E+01 0.  1.
</event>
<event>
 4    1  0.5025809E-002  0.4000000E+02  0.7546771E-02  0.1348030E+00
         11   -1    0    0    0    0  0.00000000000E+00  0.00000000000E+00  0.20000000000E+02  0.20000000000E+02  0.00000000000E+00 0.  1.
        -11   -1    0    0    0    0 -0.00000000000E+00 -0.00000000000E+00 -0.20000000000E+02  0.20000000000E+02  0.00000000000E+00 0. -1.
          5    1    1    2  501    0 -0.41118028816E+01  0.79105411488E+00 -0.18983606360E+02  0.20000000000E+02  0.47000000000E+01 0. -1.
         -5    1    1    2    0  501  0.41118028816E+01 -0.79105411488E+00  0.18983606360E+02  0.20000000000E+02  0.47000000000E+01 0.  1.
</event>
<event>
 4    1  0.5025809E-002  0.4000000E+02  0.7546771E-02  0.1348030E+00
         11   -1    0    0    0    0  0.00000000000E+00  0.00000000000E+00  0.20000000000E+02  0.20000000000E+02  0.00000000000E+00 0.  1.
        -11   -1    0    0    0    0 -0.00000000000E+00 -0.00000000000E+00 -0.20000000000E+02  0.20000000000E+02  0.00000000000E+00 0. -1.
          5    1    1    2  501    0 -0.12829432896E+02 -0.32032546627E+01 -0.14249730213E+02  0.20000000000E+02  0.47000000000E+01 0. -1.
         -5    1    1    2    0  501  0.12829432896E+02  0.32032546627E+01  0.14249730213E+02  0.20000000000E+02  0.47000000000E+01 0.  1.
</event>
<event>
 4    1  0.5025809E-002  0.4000000E+02  0.7546771E-02  0.1348030E+00
         11   -1    0    0    0    0  0.00000000000E+00  0.00000000000E+00  0.20000000000E+02  0.20000000000E+02  0.00000000000E+00 0.  1.
        -11   -1    0    0    0    0 -0.00000000000E+00 -0.00000000000E+00 -0.20000000000E+02  0.20000000000E+02  0.00000000000E+00 0. -1.
          5    1    1    2  501    0  0.12400635810E+02 -0.14970446845E+02  0.14125419370E+00  0.20000000000E+02  0.47000000000E+01 0.  1.
         -5    1    1    2    0  501 -0.12400635810E+02  0.14970446845E+02 -0.14125419370E+00  0.20000000000E+02  0.47000000000E+01 0. -1.
</event>
<event>
 4    1  0.5025809E-002  0.4000000E+02  0.7546771E-02  0.1348030E+00
         11   -1    0    0    0    0  0.00000000000E+00  0.00000000000E+00  0.20000000000E+02  0.20000000000E+02  0.00000000000E+00 0.  1.
        -11   -1    0    0    0    0 -0.00000000000E+00 -0.00000000000E+00 -0.20000000000E+02  0.20000000000E+02  0.00000000000E+00 0. -1.
          5    1    1    2  501    0 -0.33280032299E+01  0.84549170963E+01  0.17185714166E+02  0.20000000000E+02  0.47000000000E+01 0.  1.
         -5    1    1    2    0  501  0.33280032299E+01 -0.84549170963E+01 -0.17185714166E+02  0.20000000000E+02  0.47000000000E+01 0. -1.
</event>
<event>
 4    1  0.5025809E-002  0.4000000E+02  0.7546771E-02  0.1348030E+00
         11   -1    0    0    0    0  0.00000000000E+00  0.00000000000E+00  0.20000000000E+02  0.20000000000E+02  0.00000000000E+00 0.  1.
        -11   -1    0    0    0    0 -0.00000000000E+00 -0.00000000000E+00 -0.20000000000E+02  0.20000000000E+02  0.00000000000E+00 0. -1.
          5    1    1    2  501    0  0.62435161083E+01 -0.97307030487E+01 -0.15628241257E+02  0.20000000000E+02  0.47000000000E+01 0. -1.
         -5    1    1    2    0  501 -0.62435161083E+01  0.97307030487E+01  0.15628241257E+02  0.20000000000E+02  0.47000000000E+01 0.  1.
</event>
<event>
 4    1  0.5025809E-002  0.4000000E+02  0.7546771E-02  0.1348030E+00
         11   -1    0    0    0    0  0.00000000000E+00  0.00000000000E+00  0.20000000000E+02  0.20000000000E+02  0.00000000000E+00 0.  1.
        -11   -1    0    0    0    0 -0.00000000000E+00 -0.00000000000E+00 -0.20000000000E+02  0.20000000000E+02  0.00000000000E+00 0. -1.
          5    1    1    2  501    0 -0.56537196750E+01 -0.32618984941E+01  0.18311348177E+02  0.20000000000E+02  0.47000000000E+01 0.  1.
         -5    1    1    2    0  501  0.56537196750E+01  0.32618984941E+01 -0.18311348177E+02  0.20000000000E+02  0.47000000000E+01 0. -1.
</event>
<event>
 4    1  0.5025809E-002  0.4000000E+02  0.7546771E-02  0.1348030E+00
         11   -1    0    0    0    0  0.00000000000E+00  0.00000000000E+00  0.20000000000E+02  0.20000000000E+02  0.00000000000E+00 0.  1.
        -11   -1    0    0    0    0 -0.00000000000E+00 -0.00000000000E+00 -0.20000000000E+02  0.20000000000E+02  0.00000000000E+00 0. -1.
          5    1    1    2  501    0  0.16559343845E+02 -0.10040148116E+02  0.17010459182E+01  0.20000000000E+02  0.47000000000E+01 0.  1.
         -5    1    1    2    0  501 -0.16559343845E+02  0.10040148116E+02 -0.17010459182E+01  0.20000000000E+02  0.47000000000E+01 0. -1.
</event>
<event>
 4    1  0.5025809E-002  0.4000000E+02  0.7546771E-02  0.1348030E+00
         11   -1    0    0    0    0  0.00000000000E+00  0.00000000000E+00  0.20000000000E+02  0.20000000000E+02  0.00000000000E+00 0. -1.
        -11   -1    0    0    0    0 -0.00000000000E+00 -0.00000000000E+00 -0.20000000000E+02  0.20000000000E+02  0.00000000000E+00 0.  1.
          5    1    1    2  501    0  0.82727509367E+01 -0.32672747373E+00 -0.17588770312E+02  0.20000000000E+02  0.47000000000E+01 0.  1.
         -5    1    1    2    0  501 -0.82727509367E+01  0.32672747373E+00  0.17588770312E+02  0.20000000000E+02  0.47000000000E+01 0. -1.
</event>
<event>
 4    1  0.5025809E-002  0.4000000E+02  0.7546771E-02  0.1348030E+00
         11   -1    0    0    0    0  0.00000000000E+00  0.00000000000E+00  0.20000000000E+02  0.20000000000E+02  0.00000000000E+00 0.  1.
        -11   -1    0    0    0    0 -0.00000000000E+00 -0.00000000000E+00 -0.20000000000E+02  0.20000000000E+02  0.00000000000E+00 0. -1.
          5    1    1    2  501    0 -0.11701662574E+02 -0.32251040419E+01  0.15184854195E+02  0.20000000000E+02  0.47000000000E+01 0.  1.
         -5    1    1    2    0  501  0.11701662574E+02  0.32251040419E+01 -0.15184854195E+02  0.20000000000E+02  0.47000000000E+01 0. -1.
</event>
<event>
 4    1  0.5025809E-002  0.4000000E+02  0.7546771E-02  0.1348030E+00
         11   -1    0    0    0    0  0.00000000000E+00  0.00000000000E+00  0.20000000000E+02  0.20000000000E+02  0.00000000000E+00 0.  1.
        -11   -1    0    0    0    0 -0.00000000000E+00 -0.00000000000E+00 -0.20000000000E+02  0.20000000000E+02  0.00000000000E+00 0. -1.
          5    1    1    2  501    0 -0.14332961738E+02 -0.12323286395E+02 -0.45401343871E+01  0.20000000000E+02  0.47000000000E+01 0. -1.
         -5    1    1    2    0  501  0.14332961738E+02  0.12323286395E+02  0.45401343871E+01  0.20000000000E+02  0.47000000000E+01 0.  1.
</event>
<event>
 4    1  0.5025809E-002  0.4000000E+02  0.7546771E-02  0.1348030E+00
         11   -1    0    0    0    0  0.00000000000E+00  0.00000000000E+00  0.20000000000E+02  0.20000000000E+02  0.00000000000E+00 0.  1.
        -11   -1    0    0    0    0 -0.00000000000E+00 -0.00000000000E+00 -0.20000000000E+02  0.20000000000E+02  0.00000000000E+00 0. -1.
          5    1    1    2  501    0 -0.15443994089E+02 -0.73538567024E+01  0.92365490404E+01  0.20000000000E+02  0.47000000000E+01 0.  1.
         -5    1    1    2    0  501  0.15443994089E+02  0.73538567024E+01 -0.92365490404E+01  0.20000000000E+02  0.47000000000E+01 0. -1.
</event>
<event>
 4    1  0.5025809E-002  0.4000000E+02  0.7546771E-02  0.1348030E+00
         11   -1    0    0    0    0  0.00000000000E+00  0.00000000000E+00  0.20000000000E+02  0.20000000000E+02  0.00000000000E+00 0.  1.
        -11   -1    0    0    0    0 -0.00000000000E+00 -0.00000000000E+00 -0.20000000000E+02  0.20000000000E+02  0.00000000000E+00 0. -1.
          5    1    1    2  501    0  0.18523701758E+02 -0.58954295629E+01  0.16242977492E+00  0.20000000000E+02  0.47000000000E+01 0. -1.
         -5    1    1    2    0  501 -0.18523701758E+02  0.58954295629E+01 -0.16242977492E+00  0.20000000000E+02  0.47000000000E+01 0. -1.
</event>
<event>
 4    1  0.5025809E-002  0.4000000E+02  0.7546771E-02  0.1348030E+00
         11   -1    0    0    0    0  0.00000000000E+00  0.00000000000E+00  0.20000000000E+02  0.20000000000E+02  0.00000000000E+00 0.  1.
        -11   -1    0    0    0    0 -0.00000000000E+00 -0.00000000000E+00 -0.20000000000E+02  0.20000000000E+02  0.00000000000E+00 0. -1.
          5    1    1    2  501    0 -0.11288407618E+02 -0.20285529262E+01  0.15696076786E+02  0.20000000000E+02  0.47000000000E+01 0.  1.
         -5    1    1    2    0  501  0.11288407618E+02  0.20285529262E+01 -0.15696076786E+02  0.20000000000E+02  0.47000000000E+01 0. -1.
</event>
<event>
 4    1  0.5025809E-002  0.4000000E+02  0.7546771E-02  0.1348030E+00
         11   -1    0    0    0    0  0.00000000000E+00  0.00000000000E+00  0.20000000000E+02  0.20000000000E+02  0.00000000000E+00 0. -1.
        -11   -1    0    0    0    0 -0.00000000000E+00 -0.00000000000E+00 -0.20000000000E+02  0.20000000000E+02  0.00000000000E+00 0.  1.
          5    1    1    2  501    0 -0.17727868499E+02  0.73529009710E+01 -0.30931417345E+01  0.20000000000E+02  0.47000000000E+01 0.  1.
         -5    1    1    2    0  501  0.17727868499E+02 -0.73529009710E+01  0.30931417345E+01  0.20000000000E+02  0.47000000000E+01 0. -1.
</event>
<event>
 4    1  0.5025809E-002  0.4000000E+02  0.7546771E-02  0.1348030E+00
         11   -1    0    0    0    0  0.00000000000E+00  0.00000000000E+00  0.20000000000E+02  0.20000000000E+02  0.00000000000E+00 0.  1.
        -11   -1    0    0    0    0 -0.00000000000E+00 -0.00000000000E+00 -0.20000000000E+02  0.20000000000E+02  0.00000000000E+00 0. -1.
          5    1    1    2  501    0  0.64886551167E+01  0.84837942933E+01  0.16242924280E+02  0.20000000000E+02  0.47000000000E+01 0.  1.
         -5    1    1    2    0  501 -0.64886551167E+01 -0.84837942933E+01 -0.16242924280E+02  0.20000000000E+02  0.47000000000E+01 0. -1.
</event>
<event>
 4    1  0.5025809E-002  0.4000000E+02  0.7546771E-02  0.1348030E+00
         11   -1    0    0    0    0  0.00000000000E+00  0.00000000000E+00  0.20000000000E+02  0.20000000000E+02  0.00000000000E+00 0.  1.
        -11   -1    0    0    0    0 -0.00000000000E+00 -0.00000000000E+00 -0.20000000000E+02  0.20000000000E+02  0.00000000000E+00 0. -1.
          5    1    1    2  501    0 -0.10378566176E+02 -0.13757728389E+02 -0.89955696710E+01  0.20000000000E+02  0.47000000000E+01 0. -1.
         -5    1    1    2    0  501  0.10378566176E+02  0.13757728389E+02  0.89955696710E+01  0.20000000000E+02  0.47000000000E+01 0.  1.
</event>
<event>
 4    1  0.5025809E-002  0.4000000E+02  0.7546771E-02  0.1348030E+00
         11   -1    0    0    0    0  0.00000000000E+00  0.00000000000E+00  0.20000000000E+02  0.20000000000E+02  0.00000000000E+00 0.  1.
        -11   -1    0    0    0    0 -0.00000000000E+00 -0.00000000000E+00 -0.20000000000E+02  0.20000000000E+02  0.00000000000E+00 0. -1.
          5    1    1    2  501    0  0.45224026395E+01  0.73139984554E+01 -0.17434543325E+02  0.20000000000E+02  0.47000000000E+01 0. -1.
         -5    1    1    2    0  501 -0.45224026395E+01 -0.73139984554E+01  0.17434543325E+02  0.20000000000E+02  0.47000000000E+01 0.  1.
</event>
<event>
 4    1  0.5025809E-002  0.4000000E+02  0.7546771E-02  0.1348030E+00
         11   -1    0    0    0    0  0.00000000000E+00  0.00000000000E+00  0.20000000000E+02  0.20000000000E+02  0.00000000000E+00 0.  1.
        -11   -1    0    0    0    0 -0.00000000000E+00 -0.00000000000E+00 -0.20000000000E+02  0.20000000000E+02  0.00000000000E+00 0. -1.
          5    1    1    2  501    0  0.17046435319E+02 -0.39753323446E+01  0.84572912718E+01  0.20000000000E+02  0.47000000000E+01 0.  1.
         -5    1    1    2    0  501 -0.17046435319E+02  0.39753323446E+01 -0.84572912718E+01  0.20000000000E+02  0.47000000000E+01 0. -1.
</event>
<event>
 4    1  0.5025809E-002  0.4000000E+02  0.7546771E-02  0.1348030E+00
         11   -1    0    0    0    0  0.00000000000E+00  0.00000000000E+00  0.20000000000E+02  0.20000000000E+02  0.00000000000E+00 0.  1.
        -11   -1    0    0    0    0 -0.00000000000E+00 -0.00000000000E+00 -0.20000000000E+02  0.20000000000E+02  0.00000000000E+00 0. -1.
          5    1    1    2  501    0 -0.30122016804E+01 -0.15516982552E+02  0.11316355134E+02  0.20000000000E+02  0.47000000000E+01 0.  1.
         -5    1    1    2    0  501  0.30122016804E+01  0.15516982552E+02 -0.11316355134E+02  0.20000000000E+02  0.47000000000E+01 0. -1.
</event>
<event>
 4    1  0.5025809E-002  0.4000000E+02  0.7546771E-02  0.1348030E+00
         11   -1    0    0    0    0  0.00000000000E+00  0.00000000000E+00  0.20000000000E+02  0.20000000000E+02  0.00000000000E+00 0.  1.
        -11   -1    0    0    0    0 -0.00000000000E+00 -0.00000000000E+00 -0.20000000000E+02  0.20000000000E+02  0.00000000000E+00 0. -1.
          5    1    1    2  501    0  0.37665336781E+01 -0.15395759422E+02 -0.11255834748E+02  0.20000000000E+02  0.47000000000E+01 0. -1.
         -5    1    1    2    0  501 -0.37665336781E+01  0.15395759422E+02  0.11255834748E+02  0.20000000000E+02  0.47000000000E+01 0.  1.
</event>
<event>
 4    1  0.5025809E-002  0.4000000E+02  0.7546771E-02  0.1348030E+00
         11   -1    0    0    0    0  0.00000000000E+00  0.00000000000E+00  0.20000000000E+02  0.20000000000E+02  0.00000000000E+00 0. -1.
        -11   -1    0    0    0    0 -0.00000000000E+00 -0.00000000000E+00 -0.20000000000E+02  0.20000000000E+02  0.00000000000E+00 0.  1.
          5    1    1    2  501    0 -0.13583301583E+02  0.87048407601E+01  0.10845721066E+02  0.20000000000E+02  0.47000000000E+01 0. -1.
         -5    1    1    2    0  501  0.13583301583E+02 -0.87048407601E+01 -0.10845721066E+02  0.20000000000E+02  0.47000000000E+01 0.  1.
</event>
<event>
 4    1  0.5025809E-002  0.4000000E+02  0.7546771E-02  0.1348030E+00
         11   -1    0    0    0    0  0.00000000000E+00  0.00000000000E+00  0.20000000000E+02  0.20000000000E+02  0.00000000000E+00 0.  1.
        -11   -1    0    0    0    0 -0.00000000000E+00 -0.00000000000E+00 -0.20000000000E+02  0.20000000000E+02  0.00000000000E+00 0. -1.
          5    1    1    2  501    0  0.70350313699E+01 -0.26751286129E+01 -0.17923783656E+02  0.20000000000E+02  0.47000000000E+01 0. -1.
         -5    1    1    2    0  501 -0.70350313699E+01  0.26751286129E+01  0.17923783656E+02  0.20000000000E+02  0.47000000000E+01 0.  1.
</event>
<event>
 4    1  0.5025809E-002  0.4000000E+02  0.7546771E-02  0.1348030E+00
         11   -1    0    0    0    0  0.00000000000E+00  0.00000000000E+00  0.20000000000E+02  0.20000000000E+02  0.00000000000E+00 0.  1.
        -11   -1    0    0    0    0 -0.00000000000E+00 -0.00000000000E+00 -0.20000000000E+02  0.20000000000E+02  0.00000000000E+00 0. -1.
          5    1    1    2  501    0  0.57626516325E+01 -0.17090019326E+02  0.72548663392E+01  0.20000000000E+02  0.47000000000E+01 0.  1.
         -5    1    1    2    0  501 -0.57626516325E+01  0.17090019326E+02 -0.72548663392E+01  0.20000000000E+02  0.47000000000E+01 0.  1.
</event>
<event>
 4    1  0.5025809E-002  0.4000000E+02  0.7546771E-02  0.1348030E+00
         11   -1    0    0    0    0  0.00000000000E+00  0.00000000000E+00  0.20000000000E+02  0.20000000000E+02  0.00000000000E+00 0.  1.
        -11   -1    0    0    0    0 -0.00000000000E+00 -0.00000000000E+00 -0.20000000000E+02  0.20000000000E+02  0.00000000000E+00 0. -1.
          5    1    1    2  501    0  0.13381419177E+02 -0.43881384385E+01 -0.13401188823E+02  0.20000000000E+02  0.47000000000E+01 0. -1.
         -5    1    1    2    0  501 -0.13381419177E+02  0.43881384385E+01  0.13401188823E+02  0.20000000000E+02  0.47000000000E+01 0.  1.
</event>
<event>
 4    1  0.5025809E-002  0.4000000E+02  0.7546771E-02  0.1348030E+00
         11   -1    0    0    0    0  0.00000000000E+00  0.00000000000E+00  0.20000000000E+02  0.20000000000E+02  0.00000000000E+00 0.  1.
        -11   -1    0    0    0    0 -0.00000000000E+00 -0.00000000000E+00 -0.20000000000E+02  0.20000000000E+02  0.00000000000E+00 0. -1.
          5    1    1    2  501    0 -0.11522613410E+02  0.12144264840E+02  0.98821157496E+01  0.20000000000E+02  0.47000000000E+01 0. -1.
         -5    1    1    2    0  501  0.11522613410E+02 -0.12144264840E+02 -0.98821157496E+01  0.20000000000E+02  0.47000000000E+01 0.  1.
</event>
<event>
 4    1  0.5025809E-002  0.4000000E+02  0.7546771E-02  0.1348030E+00
         11   -1    0    0    0    0  0.00000000000E+00  0.00000000000E+00  0.20000000000E+02  0.20000000000E+02  0.00000000000E+00 0. -1.
        -11   -1    0    0    0    0 -0.00000000000E+00 -0.00000000000E+00 -0.20000000000E+02  0.20000000000E+02  0.00000000000E+00 0.  1.
          5    1    1    2  501    0  0.17610281232E+02  0.25889986466E+01 -0.78156945266E+01  0.20000000000E+02  0.47000000000E+01 0.  1.
         -5    1    1    2    0  501 -0.17610281232E+02 -0.25889986466E+01  0.78156945266E+01  0.20000000000E+02  0.47000000000E+01 0. -1.
</event>
<event>
 4    1  0.5025809E-002  0.4000000E+02  0.7546771E-02  0.1348030E+00
         11   -1    0    0    0    0  0.00000000000E+00  0.00000000000E+00  0.20000000000E+02  0.20000000000E+02  0.00000000000E+00 0.  1.
        -11   -1    0    0    0    0 -0.00000000000E+00 -0.00000000000E+00 -0.20000000000E+02  0.20000000000E+02  0.00000000000E+00 0. -1.
          5    1    1    2  501    0  0.24729804056E+01 -0.10056885975E+02  0.16451547416E+02  0.20000000000E+02  0.47000000000E+01 0.  1.
         -5    1    1    2    0  501 -0.24729804056E+01  0.10056885975E+02 -0.16451547416E+02  0.20000000000E+02  0.47000000000E+01 0. -1.
</event>
<event>
 4    1  0.5025809E-002  0.4000000E+02  0.7546771E-02  0.1348030E+00
         11   -1    0    0    0    0  0.00000000000E+00  0.00000000000E+00  0.20000000000E+02  0.20000000000E+02  0.00000000000E+00 0. -1.
        -11   -1    0    0    0    0 -0.00000000000E+00 -0.00000000000E+00 -0.20000000000E+02  0.20000000000E+02  0.00000000000E+00 0.  1.
          5    1    1    2  501    0 -0.10300602196E+02  0.14515851188E+02 -0.78164991321E+01  0.20000000000E+02  0.47000000000E+01 0.  1.
         -5    1    1    2    0  501  0.10300602196E+02 -0.14515851188E+02  0.78164991321E+01  0.20000000000E+02  0.47000000000E+01 0. -1.
</event>
<event>
 4    1  0.5025809E-002  0.4000000E+02  0.7546771E-02  0.1348030E+00
         11   -1    0    0    0    0  0.00000000000E+00  0.00000000000E+00  0.20000000000E+02  0.20000000000E+02  0.00000000000E+00 0.  1.
        -11   -1    0    0    0    0 -0.00000000000E+00 -0.00000000000E+00 -0.20000000000E+02  0.20000000000E+02  0.00000000000E+00 0. -1.
          5    1    1    2  501    0 -0.14713802967E+02 -0.50153428897E+01 -0.11673060350E+02  0.20000000000E+02  0.47000000000E+01 0. -1.
         -5    1    1    2    0  501  0.14713802967E+02  0.50153428897E+01  0.11673060350E+02  0.20000000000E+02  0.47000000000E+01 0.  1.
</event>
<event>
 4    1  0.5025809E-002  0.4000000E+02  0.7546771E-02  0.1348030E+00
         11   -1    0    0    0    0  0.00000000000E+00  0.00000000000E+00  0.20000000000E+02  0.20000000000E+02  0.00000000000E+00 0.  1.
        -11   -1    0    0    0    0 -0.00000000000E+00 -0.00000000000E+00 -0.20000000000E+02  0.20000000000E+02  0.00000000000E+00 0. -1.
          5    1    1    2  501    0  0.32400085358E+01 -0.12140093654E+02 -0.14833424107E+02  0.20000000000E+02  0.47000000000E+01 0. -1.
         -5    1    1    2    0  501 -0.32400085358E+01  0.12140093654E+02  0.14833424107E+02  0.20000000000E+02  0.47000000000E+01 0.  1.
</event>
<event>
 4    1  0.5025809E-002  0.4000000E+02  0.7546771E-02  0.1348030E+00
         11   -1    0    0    0    0  0.00000000000E+00  0.00000000000E+00  0.20000000000E+02  0.20000000000E+02  0.00000000000E+00 0.  1.
        -11   -1    0    0    0    0 -0.00000000000E+00 -0.00000000000E+00 -0.20000000000E+02  0.20000000000E+02  0.00000000000E+00 0. -1.
          5    1    1    2  501    0  0.43881298364E+01 -0.16872693825E+02  0.86003790389E+01  0.20000000000E+02  0.47000000000E+01 0. -1.
         -5    1    1    2    0  501 -0.43881298364E+01  0.16872693825E+02 -0.86003790389E+01  0.20000000000E+02  0.47000000000E+01 0.  1.
</event>
<event>
 4    1  0.5025809E-002  0.4000000E+02  0.7546771E-02  0.1348030E+00
         11   -1    0    0    0    0  0.00000000000E+00  0.00000000000E+00  0.20000000000E+02  0.20000000000E+02  0.00000000000E+00 0.  1.
        -11   -1    0    0    0    0 -0.00000000000E+00 -0.00000000000E+00 -0.20000000000E+02  0.20000000000E+02  0.00000000000E+00 0. -1.
          5    1    1    2  501    0  0.89109064269E+01  0.11181033828E+02  0.13171568972E+02  0.20000000000E+02  0.47000000000E+01 0. -1.
         -5    1    1    2    0  501 -0.89109064269E+01 -0.11181033828E+02 -0.13171568972E+02  0.20000000000E+02  0.47000000000E+01 0.  1.
</event>
<event>
 4    1  0.5025809E-002  0.4000000E+02  0.7546771E-02  0.1348030E+00
         11   -1    0    0    0    0  0.00000000000E+00  0.00000000000E+00  0.20000000000E+02  0.20000000000E+02  0.00000000000E+00 0. -1.
        -11   -1    0    0    0    0 -0.00000000000E+00 -0.00000000000E+00 -0.20000000000E+02  0.20000000000E+02  0.00000000000E+00 0.  1.
          5    1    1    2  501    0  0.80175818179E+01 -0.14123418603E+02 -0.10684447985E+02  0.20000000000E+02  0.47000000000E+01 0.  1.
         -5    1    1    2    0  501 -0.80175818179E+01  0.14123418603E+02  0.10684447985E+02  0.20000000000E+02  0.47000000000E+01 0. -1.
</event>
<event>
 4    1  0.5025809E-002  0.4000000E+02  0.7546771E-02  0.1348030E+00
         11   -1    0    0    0    0  0.00000000000E+00  0.00000000000E+00  0.20000000000E+02  0.20000000000E+02  0.00000000000E+00 0. -1.
        -11   -1    0    0    0    0 -0.00000000000E+00 -0.00000000000E+00 -0.20000000000E+02  0.20000000000E+02  0.00000000000E+00 0.  1.
          5    1    1    2  501    0  0.80945998668E+01  0.17461562248E+02 -0.27351959455E+01  0.20000000000E+02  0.47000000000E+01 0.  1.
         -5    1    1    2    0  501 -0.80945998668E+01 -0.17461562248E+02  0.27351959455E+01  0.20000000000E+02  0.47000000000E+01 0. -1.
</event>
<event>
 4    1  0.5025809E-002  0.4000000E+02  0.7546771E-02  0.1348030E+00
         11   -1    0    0    0    0  0.00000000000E+00  0.00000000000E+00  0.20000000000E+02  0.20000000000E+02  0.00000000000E+00 0.  1.
        -11   -1    0    0    0    0 -0.00000000000E+00 -0.00000000000E+00 -0.20000000000E+02  0.20000000000E+02  0.00000000000E+00 0. -1.
          5    1    1    2  501    0 -0.32354848235E+00  0.13494277197E+02 -0.13989631850E+02  0.20000000000E+02  0.47000000000E+01 0. -1.
         -5    1    1    2    0  501  0.32354848235E+00 -0.13494277197E+02  0.13989631850E+02  0.20000000000E+02  0.47000000000E+01 0.  1.
</event>
<event>
 4    1  0.5025809E-002  0.4000000E+02  0.7546771E-02  0.1348030E+00
         11   -1    0    0    0    0  0.00000000000E+00  0.00000000000E+00  0.20000000000E+02  0.20000000000E+02  0.00000000000E+00 0.  1.
        -11   -1    0    0    0    0 -0.00000000000E+00 -0.00000000000E+00 -0.20000000000E+02  0.20000000000E+02  0.00000000000E+00 0. -1.
          5    1    1    2  501    0  0.16045887073E+02 -0.99801542318E+01  0.45646499927E+01  0.20000000000E+02  0.47000000000E+01 0. -1.
         -5    1    1    2    0  501 -0.16045887073E+02  0.99801542318E+01 -0.45646499927E+01  0.20000000000E+02  0.47000000000E+01 0.  1.
</event>
<event>
 4    1  0.5025809E-002  0.4000000E+02  0.7546771E-02  0.1348030E+00
         11   -1    0    0    0    0  0.00000000000E+00  0.00000000000E+00  0.20000000000E+02  0.20000000000E+02  0.00000000000E+00 0.  1.
        -11   -1    0    0    0    0 -0.00000000000E+00 -0.00000000000E+00 -0.20000000000E+02  0.20000000000E+02  0.00000000000E+00 0. -1.
          5    1    1    2  501    0  0.54026233012E+01 -0.44739324265E+01 -0.18130239659E+02  0.20000000000E+02  0.47000000000E+01 0. -1.
         -5    1    1    2    0  501 -0.54026233012E+01  0.44739324265E+01  0.18130239659E+02  0.20000000000E+02  0.47000000000E+01 0.  1.
</event>
<event>
 4    1  0.5025809E-002  0.4000000E+02  0.7546771E-02  0.1348030E+00
         11   -1    0    0    0    0  0.00000000000E+00  0.00000000000E+00  0.20000000000E+02  0.20000000000E+02  0.00000000000E+00 0.  1.
        -11   -1    0    0    0    0 -0.00000000000E+00 -0.00000000000E+00 -0.20000000000E+02  0.20000000000E+02  0.00000000000E+00 0. -1.
          5    1    1    2  501    0  0.66449666637E+01 -0.12381409696E+02 -0.13433358180E+02  0.20000000000E+02  0.47000000000E+01 0. -1.
         -5    1    1    2    0  501 -0.66449666637E+01  0.12381409696E+02  0.13433358180E+02  0.20000000000E+02  0.47000000000E+01 0.  1.
</event>
<event>
 4    1  0.5025809E-002  0.4000000E+02  0.7546771E-02  0.1348030E+00
         11   -1    0    0    0    0  0.00000000000E+00  0.00000000000E+00  0.20000000000E+02  0.20000000000E+02  0.00000000000E+00 0.  1.
        -11   -1    0    0    0    0 -0.00000000000E+00 -0.00000000000E+00 -0.20000000000E+02  0.20000000000E+02  0.00000000000E+00 0. -1.
          5    1    1    2  501    0 -0.16950996833E+02  0.29267283393E+00  0.95125206437E+01  0.20000000000E+02  0.47000000000E+01 0.  1.
         -5    1    1    2    0  501  0.16950996833E+02 -0.29267283393E+00 -0.95125206437E+01  0.20000000000E+02  0.47000000000E+01 0. -1.
</event>
<event>
 4    1  0.5025809E-002  0.4000000E+02  0.7546771E-02  0.1348030E+00
         11   -1    0    0    0    0  0.00000000000E+00  0.00000000000E+00  0.20000000000E+02  0.20000000000E+02  0.00000000000E+00 0.  1.
        -11   -1    0    0    0    0 -0.00000000000E+00 -0.00000000000E+00 -0.20000000000E+02  0.20000000000E+02  0.00000000000E+00 0. -1.
          5    1    1    2  501    0  0.18303327922E+02 -0.29008807230E+01 -0.58722293899E+01  0.20000000000E+02  0.47000000000E+01 0. -1.
         -5    1    1    2    0  501 -0.18303327922E+02  0.29008807230E+01  0.58722293899E+01  0.20000000000E+02  0.47000000000E+01 0.  1.
</event>
<event>
 4    1  0.5025809E-002  0.4000000E+02  0.7546771E-02  0.1348030E+00
         11   -1    0    0    0    0  0.00000000000E+00  0.00000000000E+00  0.20000000000E+02  0.20000000000E+02  0.00000000000E+00 0.  1.
        -11   -1    0    0    0    0 -0.00000000000E+00 -0.00000000000E+00 -0.20000000000E+02  0.20000000000E+02  0.00000000000E+00 0. -1.
          5    1    1    2  501    0  0.56594132485E+01  0.13210071788E+02  0.13091029182E+02  0.20000000000E+02  0.47000000000E+01 0.  1.
         -5    1    1    2    0  501 -0.56594132485E+01 -0.13210071788E+02 -0.13091029182E+02  0.20000000000E+02  0.47000000000E+01 0. -1.
</event>
<event>
 4    1  0.5025809E-002  0.4000000E+02  0.7546771E-02  0.1348030E+00
         11   -1    0    0    0    0  0.00000000000E+00  0.00000000000E+00  0.20000000000E+02  0.20000000000E+02  0.00000000000E+00 0. -1.
        -11   -1    0    0    0    0 -0.00000000000E+00 -0.00000000000E+00 -0.20000000000E+02  0.20000000000E+02  0.00000000000E+00 0.  1.
          5    1    1    2  501    0 -0.72278863589E+01 -0.15989596783E+02 -0.83666273667E+01  0.20000000000E+02  0.47000000000E+01 0.  1.
         -5    1    1    2    0  501  0.72278863589E+01  0.15989596783E+02  0.83666273667E+01  0.20000000000E+02  0.47000000000E+01 0. -1.
</event>
<event>
 4    1  0.5025809E-002  0.4000000E+02  0.7546771E-02  0.1348030E+00
         11   -1    0    0    0    0  0.00000000000E+00  0.00000000000E+00  0.20000000000E+02  0.20000000000E+02  0.00000000000E+00 0.  1.
        -11   -1    0    0    0    0 -0.00000000000E+00 -0.00000000000E+00 -0.20000000000E+02  0.20000000000E+02  0.00000000000E+00 0. -1.
          5    1    1    2  501    0  0.12294010575E+02  0.51009914353E+01 -0.14168528165E+02  0.20000000000E+02  0.47000000000E+01 0. -1.
         -5    1    1    2    0  501 -0.12294010575E+02 -0.51009914353E+01  0.14168528165E+02  0.20000000000E+02  0.47000000000E+01 0.  1.
</event>
<event>
 4    1  0.5025809E-002  0.4000000E+02  0.7546771E-02  0.1348030E+00
         11   -1    0    0    0    0  0.00000000000E+00  0.00000000000E+00  0.20000000000E+02  0.20000000000E+02  0.00000000000E+00 0. -1.
        -11   -1    0    0    0    0 -0.00000000000E+00 -0.00000000000E+00 -0.20000000000E+02  0.20000000000E+02  0.00000000000E+00 0.  1.
          5    1    1    2  501    0  0.20987483120E+01  0.23946889019E+01 -0.19177349154E+02  0.20000000000E+02  0.47000000000E+01 0.  1.
         -5    1    1    2    0  501 -0.20987483120E+01 -0.23946889019E+01  0.19177349154E+02  0.20000000000E+02  0.47000000000E+01 0. -1.
</event>
<event>
 4    1  0.5025809E-002  0.4000000E+02  0.7546771E-02  0.1348030E+00
         11   -1    0    0    0    0  0.00000000000E+00  0.00000000000E+00  0.20000000000E+02  0.20000000000E+02  0.00000000000E+00 0.  1.
        -11   -1    0    0    0    0 -0.00000000000E+00 -0.00000000000E+00 -0.20000000000E+02  0.20000000000E+02  0.00000000000E+00 0. -1.
          5    1    1    2  501    0  0.52376904869E+01 -0.18249355810E+02 -0.41758365499E+01  0.20000000000E+02  0.47000000000E+01 0.  1.
         -5    1    1    2    0  501 -0.52376904869E+01  0.18249355810E+02  0.41758365499E+01  0.20000000000E+02  0.47000000000E+01 0. -1.
</event>
<event>
 4    1  0.5025809E-002  0.4000000E+02  0.7546771E-02  0.1348030E+00
         11   -1    0    0    0    0  0.00000000000E+00  0.00000000000E+00  0.20000000000E+02  0.20000000000E+02  0.00000000000E+00 0.  1.
        -11   -1    0    0    0    0 -0.00000000000E+00 -0.00000000000E+00 -0.20000000000E+02  0.20000000000E+02  0.00000000000E+00 0. -1.
          5    1    1    2  501    0 -0.64928366971E+01 -0.19612218229E+01 -0.18218306194E+02  0.20000000000E+02  0.47000000000E+01 0. -1.
         -5    1    1    2    0  501  0.64928366971E+01  0.19612218229E+01  0.18218306194E+02  0.20000000000E+02  0.47000000000E+01 0.  1.
</event>
<event>
 4    1  0.5025809E-002  0.4000000E+02  0.7546771E-02  0.1348030E+00
         11   -1    0    0    0    0  0.00000000000E+00  0.00000000000E+00  0.20000000000E+02  0.20000000000E+02  0.00000000000E+00 0.  1.
        -11   -1    0    0    0    0 -0.00000000000E+00 -0.00000000000E+00 -0.20000000000E+02  0.20000000000E+02  0.00000000000E+00 0. -1.
          5    1    1    2  501    0  0.65753026621E+01 -0.80749860929E+01 -0.16415541249E+02  0.20000000000E+02  0.47000000000E+01 0. -1.
         -5    1    1    2    0  501 -0.65753026621E+01  0.80749860929E+01  0.16415541249E+02  0.20000000000E+02  0.47000000000E+01 0.  1.
</event>
<event>
 4    1  0.5025809E-002  0.4000000E+02  0.7546771E-02  0.1348030E+00
         11   -1    0    0    0    0  0.00000000000E+00  0.00000000000E+00  0.20000000000E+02  0.20000000000E+02  0.00000000000E+00 0.  1.
        -11   -1    0    0    0    0 -0.00000000000E+00 -0.00000000000E+00 -0.20000000000E+02  0.20000000000E+02  0.00000000000E+00 0. -1.
          5    1    1    2  501    0  0.16130151320E+02  0.86933383709E+00 -0.10815381504E+02  0.20000000000E+02  0.47000000000E+01 0. -1.
         -5    1    1    2    0  501 -0.16130151320E+02 -0.86933383709E+00  0.10815381504E+02  0.20000000000E+02  0.47000000000E+01 0.  1.
</event>
<event>
 4    1  0.5025809E-002  0.4000000E+02  0.7546771E-02  0.1348030E+00
         11   -1    0    0    0    0  0.00000000000E+00  0.00000000000E+00  0.20000000000E+02  0.20000000000E+02  0.00000000000E+00 0.  1.
        -11   -1    0    0    0    0 -0.00000000000E+00 -0.00000000000E+00 -0.20000000000E+02  0.20000000000E+02  0.00000000000E+00 0. -1.
          5    1    1    2  501    0  0.63300244829E+01  0.35630872136E+01 -0.18031783039E+02  0.20000000000E+02  0.47000000000E+01 0. -1.
         -5    1    1    2    0  501 -0.63300244829E+01 -0.35630872136E+01  0.18031783039E+02  0.20000000000E+02  0.47000000000E+01 0.  1.
</event>
<event>
 4    1  0.5025809E-002  0.4000000E+02  0.7546771E-02  0.1348030E+00
         11   -1    0    0    0    0  0.00000000000E+00  0.00000000000E+00  0.20000000000E+02  0.20000000000E+02  0.00000000000E+00 0.  1.
        -11   -1    0    0    0    0 -0.00000000000E+00 -0.00000000000E+00 -0.20000000000E+02  0.20000000000E+02  0.00000000000E+00 0. -1.
          5    1    1    2  501    0 -0.52177607248E+01 -0.50742609001E+01 -0.18026004808E+02  0.20000000000E+02  0.47000000000E+01 0. -1.
         -5    1    1    2    0  501  0.52177607248E+01  0.50742609001E+01  0.18026004808E+02  0.20000000000E+02  0.47000000000E+01 0.  1.
</event>
<event>
 4    1  0.5025809E-002  0.4000000E+02  0.7546771E-02  0.1348030E+00
         11   -1    0    0    0    0  0.00000000000E+00  0.00000000000E+00  0.20000000000E+02  0.20000000000E+02  0.00000000000E+00 0.  1.
        -11   -1    0    0    0    0 -0.00000000000E+00 -0.00000000000E+00 -0.20000000000E+02  0.20000000000E+02  0.00000000000E+00 0. -1.
          5    1    1    2  501    0 -0.13114343279E+02 -0.11831110152E+02  0.81208886784E+01  0.20000000000E+02  0.47000000000E+01 0.  1.
         -5    1    1    2    0  501  0.13114343279E+02  0.11831110152E+02 -0.81208886784E+01  0.20000000000E+02  0.47000000000E+01 0. -1.
</event>
<event>
 4    1  0.5025809E-002  0.4000000E+02  0.7546771E-02  0.1348030E+00
         11   -1    0    0    0    0  0.00000000000E+00  0.00000000000E+00  0.20000000000E+02  0.20000000000E+02  0.00000000000E+00 0.  1.
        -11   -1    0    0    0    0 -0.00000000000E+00 -0.00000000000E+00 -0.20000000000E+02  0.20000000000E+02  0.00000000000E+00 0. -1.
          5    1    1    2  501    0  0.14493809121E+01 -0.99371051707E+01  0.16645216604E+02  0.20000000000E+02  0.47000000000E+01 0.  1.
         -5    1    1    2    0  501 -0.14493809121E+01  0.99371051707E+01 -0.16645216604E+02  0.20000000000E+02  0.47000000000E+01 0. -1.
</event>
<event>
 4    1  0.5025809E-002  0.4000000E+02  0.7546771E-02  0.1348030E+00
         11   -1    0    0    0    0  0.00000000000E+00  0.00000000000E+00  0.20000000000E+02  0.20000000000E+02  0.00000000000E+00 0.  1.
        -11   -1    0    0    0    0 -0.00000000000E+00 -0.00000000000E+00 -0.20000000000E+02  0.20000000000E+02  0.00000000000E+00 0. -1.
          5    1    1    2  501    0  0.16048597380E+02 -0.81970532683E+01 -0.72911480471E+01  0.20000000000E+02  0.47000000000E+01 0. -1.
         -5    1    1    2    0  501 -0.16048597380E+02  0.81970532683E+01  0.72911480471E+01  0.20000000000E+02  0.47000000000E+01 0.  1.
</event>
<event>
 4    1  0.5025809E-002  0.4000000E+02  0.7546771E-02  0.1348030E+00
         11   -1    0    0    0    0  0.00000000000E+00  0.00000000000E+00  0.20000000000E+02  0.20000000000E+02  0.00000000000E+00 0. -1.
        -11   -1    0    0    0    0 -0.00000000000E+00 -0.00000000000E+00 -0.20000000000E+02  0.20000000000E+02  0.00000000000E+00 0.  1.
          5    1    1    2  501    0  0.16249628186E+01  0.11983676809E+02  0.15220413462E+02  0.20000000000E+02  0.47000000000E+01 0. -1.
         -5    1    1    2    0  501 -0.16249628186E+01 -0.11983676809E+02 -0.15220413462E+02  0.20000000000E+02  0.47000000000E+01 0.  1.
</event>
<event>
 4    1  0.5025809E-002  0.4000000E+02  0.7546771E-02  0.1348030E+00
         11   -1    0    0    0    0  0.00000000000E+00  0.00000000000E+00  0.20000000000E+02  0.20000000000E+02  0.00000000000E+00 0. -1.
        -11   -1    0    0    0    0 -0.00000000000E+00 -0.00000000000E+00 -0.20000000000E+02  0.20000000000E+02  0.00000000000E+00 0.  1.
          5    1    1    2  501    0 -0.27065785308E+01  0.65104324949E+00 -0.19239557566E+02  0.20000000000E+02  0.47000000000E+01 0.  1.
         -5    1    1    2    0  501  0.27065785308E+01 -0.65104324949E+00  0.19239557566E+02  0.20000000000E+02  0.47000000000E+01 0. -1.
</event>
<event>
 4    1  0.5025809E-002  0.4000000E+02  0.7546771E-02  0.1348030E+00
         11   -1    0    0    0    0  0.00000000000E+00  0.00000000000E+00  0.20000000000E+02  0.20000000000E+02  0.00000000000E+00 0. -1.
        -11   -1    0    0    0    0 -0.00000000000E+00 -0.00000000000E+00 -0.20000000000E+02  0.20000000000E+02  0.00000000000E+00 0.  1.
          5    1    1    2  501    0  0.46617775414E+01  0.15842773273E+02 -0.10255942920E+02  0.20000000000E+02  0.47000000000E+01 0.  1.
         -5    1    1    2    0  501 -0.46617775414E+01 -0.15842773273E+02  0.10255942920E+02  0.20000000000E+02  0.47000000000E+01 0. -1.
</event>
<event>
 4    1  0.5025809E-002  0.4000000E+02  0.7546771E-02  0.1348030E+00
         11   -1    0    0    0    0  0.00000000000E+00  0.00000000000E+00  0.20000000000E+02  0.20000000000E+02  0.00000000000E+00 0. -1.
        -11   -1    0    0    0    0 -0.00000000000E+00 -0.00000000000E+00 -0.20000000000E+02  0.20000000000E+02  0.00000000000E+00 0.  1.
          5    1    1    2  501    0  0.18444348030E+02 -0.27694669343E+01 -0.54814303462E+01  0.20000000000E+02  0.47000000000E+01 0.  1.
         -5    1    1    2    0  501 -0.18444348030E+02  0.27694669343E+01  0.54814303462E+01  0.20000000000E+02  0.47000000000E+01 0. -1.
</event>
<event>
 4    1  0.5025809E-002  0.4000000E+02  0.7546771E-02  0.1348030E+00
         11   -1    0    0    0    0  0.00000000000E+00  0.00000000000E+00  0.20000000000E+02  0.20000000000E+02  0.00000000000E+00 0.  1.
        -11   -1    0    0    0    0 -0.00000000000E+00 -0.00000000000E+00 -0.20000000000E+02  0.20000000000E+02  0.00000000000E+00 0. -1.
          5    1    1    2  501    0  0.91572169158E+01 -0.13146827355E+02 -0.11009827830E+02  0.20000000000E+02  0.47000000000E+01 0. -1.
         -5    1    1    2    0  501 -0.91572169158E+01  0.13146827355E+02  0.11009827830E+02  0.20000000000E+02  0.47000000000E+01 0.  1.
</event>
<event>
 4    1  0.5025809E-002  0.4000000E+02  0.7546771E-02  0.1348030E+00
         11   -1    0    0    0    0  0.00000000000E+00  0.00000000000E+00  0.20000000000E+02  0.20000000000E+02  0.00000000000E+00 0.  1.
        -11   -1    0    0    0    0 -0.00000000000E+00 -0.00000000000E+00 -0.20000000000E+02  0.20000000000E+02  0.00000000000E+00 0. -1.
          5    1    1    2  501    0 -0.18273700938E+01  0.79564672157E+01 -0.17642713736E+02  0.20000000000E+02  0.47000000000E+01 0. -1.
         -5    1    1    2    0  501  0.18273700938E+01 -0.79564672157E+01  0.17642713736E+02  0.20000000000E+02  0.47000000000E+01 0.  1.
</event>
<event>
 4    1  0.5025809E-002  0.4000000E+02  0.7546771E-02  0.1348030E+00
         11   -1    0    0    0    0  0.00000000000E+00  0.00000000000E+00  0.20000000000E+02  0.20000000000E+02  0.00000000000E+00 0.  1.
        -11   -1    0    0    0    0 -0.00000000000E+00 -0.00000000000E+00 -0.20000000000E+02  0.20000000000E+02  0.00000000000E+00 0. -1.
          5    1    1    2  501    0  0.86653970795E+01  0.33256489744E+01 -0.17081011456E+02  0.20000000000E+02  0.47000000000E+01 0. -1.
         -5    1    1    2    0  501 -0.86653970795E+01 -0.33256489744E+01  0.17081011456E+02  0.20000000000E+02  0.47000000000E+01 0.  1.
</event>
<event>
 4    1  0.5025809E-002  0.4000000E+02  0.7546771E-02  0.1348030E+00
         11   -1    0    0    0    0  0.00000000000E+00  0.00000000000E+00  0.20000000000E+02  0.20000000000E+02  0.00000000000E+00 0.  1.
        -11   -1    0    0    0    0 -0.00000000000E+00 -0.00000000000E+00 -0.20000000000E+02  0.20000000000E+02  0.00000000000E+00 0. -1.
          5    1    1    2  501    0  0.53003797813E+01  0.18702254201E+02 -0.20411263029E+00  0.20000000000E+02  0.47000000000E+01 0. -1.
         -5    1    1    2    0  501 -0.53003797813E+01 -0.18702254201E+02  0.20411263029E+00  0.20000000000E+02  0.47000000000E+01 0.  1.
</event>
<event>
 4    1  0.5025809E-002  0.4000000E+02  0.7546771E-02  0.1348030E+00
         11   -1    0    0    0    0  0.00000000000E+00  0.00000000000E+00  0.20000000000E+02  0.20000000000E+02  0.00000000000E+00 0. -1.
        -11   -1    0    0    0    0 -0.00000000000E+00 -0.00000000000E+00 -0.20000000000E+02  0.20000000000E+02  0.00000000000E+00 0.  1.
          5    1    1    2  501    0  0.10734329013E+02 -0.99970133062E+01  0.12757111962E+02  0.20000000000E+02  0.47000000000E+01 0. -1.
         -5    1    1    2    0  501 -0.10734329013E+02  0.99970133062E+01 -0.12757111962E+02  0.20000000000E+02  0.47000000000E+01 0.  1.
</event>
<event>
 4    1  0.5025809E-002  0.4000000E+02  0.7546771E-02  0.1348030E+00
         11   -1    0    0    0    0  0.00000000000E+00  0.00000000000E+00  0.20000000000E+02  0.20000000000E+02  0.00000000000E+00 0.  1.
        -11   -1    0    0    0    0 -0.00000000000E+00 -0.00000000000E+00 -0.20000000000E+02  0.20000000000E+02  0.00000000000E+00 0. -1.
          5    1    1    2  501    0  0.69754771358E+01  0.28003678515E+01 -0.17927929569E+02  0.20000000000E+02  0.47000000000E+01 0. -1.
         -5    1    1    2    0  501 -0.69754771358E+01 -0.28003678515E+01  0.17927929569E+02  0.20000000000E+02  0.47000000000E+01 0.  1.
</event>
<event>
 4    1  0.5025809E-002  0.4000000E+02  0.7546771E-02  0.1348030E+00
         11   -1    0    0    0    0  0.00000000000E+00  0.00000000000E+00  0.20000000000E+02  0.20000000000E+02  0.00000000000E+00 0. -1.
        -11   -1    0    0    0    0 -0.00000000000E+00 -0.00000000000E+00 -0.20000000000E+02  0.20000000000E+02  0.00000000000E+00 0.  1.
          5    1    1    2  501    0 -0.76786154467E+01  0.12300512785E+02 -0.12947828005E+02  0.20000000000E+02  0.47000000000E+01 0.  1.
         -5    1    1    2    0  501  0.76786154467E+01 -0.12300512785E+02  0.12947828005E+02  0.20000000000E+02  0.47000000000E+01 0. -1.
</event>
<event>
 4    1  0.5025809E-002  0.4000000E+02  0.7546771E-02  0.1348030E+00
         11   -1    0    0    0    0  0.00000000000E+00  0.00000000000E+00  0.20000000000E+02  0.20000000000E+02  0.00000000000E+00 0. -1.
        -11   -1    0    0    0    0 -0.00000000000E+00 -0.00000000000E+00 -0.20000000000E+02  0.20000000000E+02  0.00000000000E+00 0.  1.
          5    1    1    2  501    0 -0.72339891510E+01 -0.52273431234E+01 -0.17270040094E+02  0.20000000000E+02  0.47000000000E+01 0.  1.
         -5    1    1    2    0  501  0.72339891510E+01  0.52273431234E+01  0.17270040094E+02  0.20000000000E+02  0.47000000000E+01 0. -1.
</event>
<event>
 4    1  0.5025809E-002  0.4000000E+02  0.7546771E-02  0.1348030E+00
         11   -1    0    0    0    0  0.00000000000E+00  0.00000000000E+00  0.20000000000E+02  0.20000000000E+02  0.00000000000E+00 0.  1.
        -11   -1    0    0    0    0 -0.00000000000E+00 -0.00000000000E+00 -0.20000000000E+02  0.20000000000E+02  0.00000000000E+00 0. -1.
          5    1    1    2  501    0  0.23428239262E+01  0.10806636858E+02 -0.15988676489E+02  0.20000000000E+02  0.47000000000E+01 0. -1.
         -5    1    1    2    0  501 -0.23428239262E+01 -0.10806636858E+02  0.15988676489E+02  0.20000000000E+02  0.47000000000E+01 0.  1.
</event>
<event>
 4    1  0.5025809E-002  0.4000000E+02  0.7546771E-02  0.1348030E+00
         11   -1    0    0    0    0  0.00000000000E+00  0.00000000000E+00  0.20000000000E+02  0.20000000000E+02  0.00000000000E+00 0. -1.
        -11   -1    0    0    0    0 -0.00000000000E+00 -0.00000000000E+00 -0.20000000000E+02  0.20000000000E+02  0.00000000000E+00 0.  1.
          5    1    1    2  501    0  0.48406346070E+01  0.11520663476E+02 -0.14891358893E+02  0.20000000000E+02  0.47000000000E+01 0.  1.
         -5    1    1    2    0  501 -0.48406346070E+01 -0.11520663476E+02  0.14891358893E+02  0.20000000000E+02  0.47000000000E+01 0. -1.
</event>
<event>
 4    1  0.5025809E-002  0.4000000E+02  0.7546771E-02  0.1348030E+00
         11   -1    0    0    0    0  0.00000000000E+00  0.00000000000E+00  0.20000000000E+02  0.20000000000E+02  0.00000000000E+00 0.  1.
        -11   -1    0    0    0    0 -0.00000000000E+00 -0.00000000000E+00 -0.20000000000E+02  0.20000000000E+02  0.00000000000E+00 0. -1.
          5    1    1    2  501    0  0.10357985348E+02  0.39549765656E+01  0.15968102577E+02  0.20000000000E+02  0.47000000000E+01 0.  1.
         -5    1    1    2    0  501 -0.10357985348E+02 -0.39549765656E+01 -0.15968102577E+02  0.20000000000E+02  0.47000000000E+01 0. -1.
</event>
<event>
 4    1  0.5025809E-002  0.4000000E+02  0.7546771E-02  0.1348030E+00
         11   -1    0    0    0    0  0.00000000000E+00  0.00000000000E+00  0.20000000000E+02  0.20000000000E+02  0.00000000000E+00 0.  1.
        -11   -1    0    0    0    0 -0.00000000000E+00 -0.00000000000E+00 -0.20000000000E+02  0.20000000000E+02  0.00000000000E+00 0. -1.
          5    1    1    2  501    0  0.57266471541E+00  0.41185885339E+01 -0.18989978505E+02  0.20000000000E+02  0.47000000000E+01 0. -1.
         -5    1    1    2    0  501 -0.57266471541E+00 -0.41185885339E+01  0.18989978505E+02  0.20000000000E+02  0.47000000000E+01 0.  1.
</event>
<event>
 4    1  0.5025809E-002  0.4000000E+02  0.7546771E-02  0.1348030E+00
         11   -1    0    0    0    0  0.00000000000E+00  0.00000000000E+00  0.20000000000E+02  0.20000000000E+02  0.00000000000E+00 0.  1.
        -11   -1    0    0    0    0 -0.00000000000E+00 -0.00000000000E+00 -0.20000000000E+02  0.20000000000E+02  0.00000000000E+00 0. -1.
          5    1    1    2  501    0 -0.14277790193E+02  0.11222502986E+02  0.69361469076E+01  0.20000000000E+02  0.47000000000E+01 0. -1.
         -5    1    1    2    0  501  0.14277790193E+02 -0.11222502986E+02 -0.69361469076E+01  0.20000000000E+02  0.47000000000E+01 0.  1.
</event>
<event>
 4    1  0.5025809E-002  0.4000000E+02  0.7546771E-02  0.1348030E+00
         11   -1    0    0    0    0  0.00000000000E+00  0.00000000000E+00  0.20000000000E+02  0.20000000000E+02  0.00000000000E+00 0.  1.
        -11   -1    0    0    0    0 -0.00000000000E+00 -0.00000000000E+00 -0.20000000000E+02  0.20000000000E+02  0.00000000000E+00 0. -1.
          5    1    1    2  501    0 -0.13538960787E+02  0.28223704796E+01  0.13661653109E+02  0.20000000000E+02  0.47000000000E+01 0.  1.
         -5    1    1    2    0  501  0.13538960787E+02 -0.28223704796E+01 -0.13661653109E+02  0.20000000000E+02  0.47000000000E+01 0. -1.
</event>
<event>
 4    1  0.5025809E-002  0.4000000E+02  0.7546771E-02  0.1348030E+00
         11   -1    0    0    0    0  0.00000000000E+00  0.00000000000E+00  0.20000000000E+02  0.20000000000E+02  0.00000000000E+00 0. -1.
        -11   -1    0    0    0    0 -0.00000000000E+00 -0.00000000000E+00 -0.20000000000E+02  0.20000000000E+02  0.00000000000E+00 0.  1.
          5    1    1    2  501    0  0.18543202920E+00 -0.17838337225E+02 -0.77245931938E+01  0.20000000000E+02  0.47000000000E+01 0.  1.
         -5    1    1    2    0  501 -0.18543202920E+00  0.17838337225E+02  0.77245931938E+01  0.20000000000E+02  0.47000000000E+01 0. -1.
</event>
<event>
 4    1  0.5025809E-002  0.4000000E+02  0.7546771E-02  0.1348030E+00
         11   -1    0    0    0    0  0.00000000000E+00  0.00000000000E+00  0.20000000000E+02  0.20000000000E+02  0.00000000000E+00 0.  1.
        -11   -1    0    0    0    0 -0.00000000000E+00 -0.00000000000E+00 -0.20000000000E+02  0.20000000000E+02  0.00000000000E+00 0. -1.
          5    1    1    2  501    0 -0.18310512565E+02  0.56017967809E+01  0.33548476032E+01  0.20000000000E+02  0.47000000000E+01 0.  1.
         -5    1    1    2    0  501  0.18310512565E+02 -0.56017967809E+01 -0.33548476032E+01  0.20000000000E+02  0.47000000000E+01 0. -1.
</event>
<event>
 4    1  0.5025809E-002  0.4000000E+02  0.7546771E-02  0.1348030E+00
         11   -1    0    0    0    0  0.00000000000E+00  0.00000000000E+00  0.20000000000E+02  0.20000000000E+02  0.00000000000E+00 0. -1.
        -11   -1    0    0    0    0 -0.00000000000E+00 -0.00000000000E+00 -0.20000000000E+02  0.20000000000E+02  0.00000000000E+00 0.  1.
          5    1    1    2  501    0  0.75570984055E+01  0.39064044101E+01 -0.17479710188E+02  0.20000000000E+02  0.47000000000E+01 0.  1.
         -5    1    1    2    0  501 -0.75570984055E+01 -0.39064044101E+01  0.17479710188E+02  0.20000000000E+02  0.47000000000E+01 0. -1.
</event>
<event>
 4    1  0.5025809E-002  0.4000000E+02  0.7546771E-02  0.1348030E+00
         11   -1    0    0    0    0  0.00000000000E+00  0.00000000000E+00  0.20000000000E+02  0.20000000000E+02  0.00000000000E+00 0.  1.
        -11   -1    0    0    0    0 -0.00000000000E+00 -0.00000000000E+00 -0.20000000000E+02  0.20000000000E+02  0.00000000000E+00 0. -1.
          5    1    1    2  501    0 -0.16124712654E+02 -0.32305866289E+01  0.10366626831E+02  0.20000000000E+02  0.47000000000E+01 0.  1.
         -5    1    1    2    0  501  0.16124712654E+02  0.32305866289E+01 -0.10366626831E+02  0.20000000000E+02  0.47000000000E+01 0. -1.
</event>
<event>
 4    1  0.5025809E-002  0.4000000E+02  0.7546771E-02  0.1348030E+00
         11   -1    0    0    0    0  0.00000000000E+00  0.00000000000E+00  0.20000000000E+02  0.20000000000E+02  0.00000000000E+00 0.  1.
        -11   -1    0    0    0    0 -0.00000000000E+00 -0.00000000000E+00 -0.20000000000E+02  0.20000000000E+02  0.00000000000E+00 0. -1.
          5    1    1    2  501    0  0.18159895278E+01 -0.14564064817E+02 -0.12747556551E+02  0.20000000000E+02  0.47000000000E+01 0. -1.
         -5    1    1    2    0  501 -0.18159895278E+01  0.14564064817E+02  0.12747556551E+02  0.20000000000E+02  0.47000000000E+01 0.  1.
</event>
<event>
 4    1  0.5025809E-002  0.4000000E+02  0.7546771E-02  0.1348030E+00
         11   -1    0    0    0    0  0.00000000000E+00  0.00000000000E+00  0.20000000000E+02  0.20000000000E+02  0.00000000000E+00 0. -1.
        -11   -1    0    0    0    0 -0.00000000000E+00 -0.00000000000E+00 -0.20000000000E+02  0.20000000000E+02  0.00000000000E+00 0.  1.
          5    1    1    2  501    0 -0.28771651801E+01  0.18745414641E+02 -0.42709894005E+01  0.20000000000E+02  0.47000000000E+01 0.  1.
         -5    1    1    2    0  501  0.28771651801E+01 -0.18745414641E+02  0.42709894005E+01  0.20000000000E+02  0.47000000000E+01 0. -1.
</event>
<event>
 4    1  0.5025809E-002  0.4000000E+02  0.7546771E-02  0.1348030E+00
         11   -1    0    0    0    0  0.00000000000E+00  0.00000000000E+00  0.20000000000E+02  0.20000000000E+02  0.00000000000E+00 0.  1.
        -11   -1    0    0    0    0 -0.00000000000E+00 -0.00000000000E+00 -0.20000000000E+02  0.20000000000E+02  0.00000000000E+00 0. -1.
          5    1    1    2  501    0  0.11438373639E+02  0.91698254169E+00  0.15691805234E+02  0.20000000000E+02  0.47000000000E+01 0.  1.
         -5    1    1    2    0  501 -0.11438373639E+02 -0.91698254169E+00 -0.15691805234E+02  0.20000000000E+02  0.47000000000E+01 0. -1.
</event>
<event>
 4    1  0.5025809E-002  0.4000000E+02  0.7546771E-02  0.1348030E+00
         11   -1    0    0    0    0  0.00000000000E+00  0.00000000000E+00  0.20000000000E+02  0.20000000000E+02  0.00000000000E+00 0.  1.
        -11   -1    0    0    0    0 -0.00000000000E+00 -0.00000000000E+00 -0.20000000000E+02  0.20000000000E+02  0.00000000000E+00 0. -1.
          5    1    1    2  501    0  0.10220215325E+02 -0.14566485106E+02 -0.78278164490E+01  0.20000000000E+02  0.47000000000E+01 0. -1.
         -5    1    1    2    0  501 -0.10220215325E+02  0.14566485106E+02  0.78278164490E+01  0.20000000000E+02  0.47000000000E+01 0.  1.
</event>
<event>
 4    1  0.5025809E-002  0.4000000E+02  0.7546771E-02  0.1348030E+00
         11   -1    0    0    0    0  0.00000000000E+00  0.00000000000E+00  0.20000000000E+02  0.20000000000E+02  0.00000000000E+00 0. -1.
        -11   -1    0    0    0    0 -0.00000000000E+00 -0.00000000000E+00 -0.20000000000E+02  0.20000000000E+02  0.00000000000E+00 0.  1.
          5    1    1    2  501    0 -0.18996835118E+02 -0.39878564086E+01  0.10617234806E+01  0.20000000000E+02  0.47000000000E+01 0. -1.
         -5    1    1    2    0  501  0.18996835118E+02  0.39878564086E+01 -0.10617234806E+01  0.20000000000E+02  0.47000000000E+01 0.  1.
</event>
<event>
 4    1  0.5025809E-002  0.4000000E+02  0.7546771E-02  0.1348030E+00
         11   -1    0    0    0    0  0.00000000000E+00  0.00000000000E+00  0.20000000000E+02  0.20000000000E+02  0.00000000000E+00 0.  1.
        -11   -1    0    0    0    0 -0.00000000000E+00 -0.00000000000E+00 -0.20000000000E+02  0.20000000000E+02  0.00000000000E+00 0. -1.
          5    1    1    2  501    0  0.13508648813E+02 -0.13157744900E+02  0.47223041386E+01  0.20000000000E+02  0.47000000000E+01 0. -1.
         -5    1    1    2    0  501 -0.13508648813E+02  0.13157744900E+02 -0.47223041386E+01  0.20000000000E+02  0.47000000000E+01 0.  1.
</event>
<event>
 4    1  0.5025809E-002  0.4000000E+02  0.7546771E-02  0.1348030E+00
         11   -1    0    0    0    0  0.00000000000E+00  0.00000000000E+00  0.20000000000E+02  0.20000000000E+02  0.00000000000E+00 0.  1.
        -11   -1    0    0    0    0 -0.00000000000E+00 -0.00000000000E+00 -0.20000000000E+02  0.20000000000E+02  0.00000000000E+00 0. -1.
          5    1    1    2  501    0  0.17157024281E+02 -0.87504466743E+01 -0.26412498604E+01  0.20000000000E+02  0.47000000000E+01 0. -1.
         -5    1    1    2    0  501 -0.17157024281E+02  0.87504466743E+01  0.26412498604E+01  0.20000000000E+02  0.47000000000E+01 0.  1.
</event>
<event>
 4    1  0.5025809E-002  0.4000000E+02  0.7546771E-02  0.1348030E+00
         11   -1    0    0    0    0  0.00000000000E+00  0.00000000000E+00  0.20000000000E+02  0.20000000000E+02  0.00000000000E+00 0. -1.
        -11   -1    0    0    0    0 -0.00000000000E+00 -0.00000000000E+00 -0.20000000000E+02  0.20000000000E+02  0.00000000000E+00 0.  1.
          5    1    1    2  501    0 -0.14125529462E+02 -0.13080822121E+02 -0.26965737585E+01  0.20000000000E+02  0.47000000000E+01 0.  1.
         -5    1    1    2    0  501  0.14125529462E+02  0.13080822121E+02  0.26965737585E+01  0.20000000000E+02  0.47000000000E+01 0. -1.
</event>
<event>
 4    1  0.5025809E-002  0.4000000E+02  0.7546771E-02  0.1348030E+00
         11   -1    0    0    0    0  0.00000000000E+00  0.00000000000E+00  0.20000000000E+02  0.20000000000E+02  0.00000000000E+00 0. -1.
        -11   -1    0    0    0    0 -0.00000000000E+00 -0.00000000000E+00 -0.20000000000E+02  0.20000000000E+02  0.00000000000E+00 0.  1.
          5    1    1    2  501    0 -0.12137937150E+02 -0.24346288014E+01 -0.14988431016E+02  0.20000000000E+02  0.47000000000E+01 0.  1.
         -5    1    1    2    0  501  0.12137937150E+02  0.24346288014E+01  0.14988431016E+02  0.20000000000E+02  0.47000000000E+01 0. -1.
</event>
<event>
 4    1  0.5025809E-002  0.4000000E+02  0.7546771E-02  0.1348030E+00
         11   -1    0    0    0    0  0.00000000000E+00  0.00000000000E+00  0.20000000000E+02  0.20000000000E+02  0.00000000000E+00 0.  1.
        -11   -1    0    0    0    0 -0.00000000000E+00 -0.00000000000E+00 -0.20000000000E+02  0.20000000000E+02  0.00000000000E+00 0. -1.
          5    1    1    2  501    0  0.63533648041E+01 -0.10829007854E+02 -0.14841743313E+02  0.20000000000E+02  0.47000000000E+01 0. -1.
         -5    1    1    2    0  501 -0.63533648041E+01  0.10829007854E+02  0.14841743313E+02  0.20000000000E+02  0.47000000000E+01 0.  1.
</event>
<event>
 4    1  0.5025809E-002  0.4000000E+02  0.7546771E-02  0.1348030E+00
         11   -1    0    0    0    0  0.00000000000E+00  0.00000000000E+00  0.20000000000E+02  0.20000000000E+02  0.00000000000E+00 0.  1.
        -11   -1    0    0    0    0 -0.00000000000E+00 -0.00000000000E+00 -0.20000000000E+02  0.20000000000E+02  0.00000000000E+00 0. -1.
          5    1    1    2  501    0 -0.16667645255E+02 -0.80032366090E+01  0.60039824635E+01  0.20000000000E+02  0.47000000000E+01 0. -1.
         -5    1    1    2    0  501  0.16667645255E+02  0.80032366090E+01 -0.60039824635E+01  0.20000000000E+02  0.47000000000E+01 0.  1.
</event>
<event>
 4    1  0.5025809E-002  0.4000000E+02  0.7546771E-02  0.1348030E+00
         11   -1    0    0    0    0  0.00000000000E+00  0.00000000000E+00  0.20000000000E+02  0.20000000000E+02  0.00000000000E+00 0.  1.
        -11   -1    0    0    0    0 -0.00000000000E+00 -0.00000000000E+00 -0.20000000000E+02  0.20000000000E+02  0.00000000000E+00 0. -1.
          5    1    1    2  501    0  0.63662704569E+01  0.24521085079E+00 -0.18366286291E+02  0.20000000000E+02  0.47000000000E+01 0. -1.
         -5    1    1    2    0  501 -0.63662704569E+01 -0.24521085079E+00  0.18366286291E+02  0.20000000000E+02  0.47000000000E+01 0.  1.
</event>
<event>
 4    1  0.5025809E-002  0.4000000E+02  0.7546771E-02  0.1348030E+00
         11   -1    0    0    0    0  0.00000000000E+00  0.00000000000E+00  0.20000000000E+02  0.20000000000E+02  0.00000000000E+00 0. -1.
        -11   -1    0    0    0    0 -0.00000000000E+00 -0.00000000000E+00 -0.20000000000E+02  0.20000000000E+02  0.00000000000E+00 0.  1.
          5    1    1    2  501    0  0.49525443404E+01 -0.18684655215E+02 -0.20654210395E+01  0.20000000000E+02  0.47000000000E+01 0.  1.
         -5    1    1    2    0  501 -0.49525443404E+01  0.18684655215E+02  0.20654210395E+01  0.20000000000E+02  0.47000000000E+01 0. -1.
</event>
<event>
 4    1  0.5025809E-002  0.4000000E+02  0.7546771E-02  0.1348030E+00
         11   -1    0    0    0    0  0.00000000000E+00  0.00000000000E+00  0.20000000000E+02  0.20000000000E+02  0.00000000000E+00 0.  1.
        -11   -1    0    0    0    0 -0.00000000000E+00 -0.00000000000E+00 -0.20000000000E+02  0.20000000000E+02  0.00000000000E+00 0. -1.
          5    1    1    2  501    0 -0.14656314243E+02 -0.12770663404E+02 -0.11228987840E+00  0.20000000000E+02  0.47000000000E+01 0. -1.
         -5    1    1    2    0  501  0.14656314243E+02  0.12770663404E+02  0.11228987840E+00  0.20000000000E+02  0.47000000000E+01 0.  1.
</event>
<event>
 4    1  0.5025809E-002  0.4000000E+02  0.7546771E-02  0.1348030E+00
         11   -1    0    0    0    0  0.00000000000E+00  0.00000000000E+00  0.20000000000E+02  0.20000000000E+02  0.00000000000E+00 0.  1.
        -11   -1    0    0    0    0 -0.00000000000E+00 -0.00000000000E+00 -0.20000000000E+02  0.20000000000E+02  0.00000000000E+00 0. -1.
          5    1    1    2  501    0 -0.34370488664E+01 -0.17045580832E+02 -0.86916551474E+01  0.20000000000E+02  0.47000000000E+01 0. -1.
         -5    1    1    2    0  501  0.34370488664E+01  0.17045580832E+02  0.86916551474E+01  0.20000000000E+02  0.47000000000E+01 0.  1.
</event>
<event>
 4    1  0.5025809E-002  0.4000000E+02  0.7546771E-02  0.1348030E+00
         11   -1    0    0    0    0  0.00000000000E+00  0.00000000000E+00  0.20000000000E+02  0.20000000000E+02  0.00000000000E+00 0.  1.
        -11   -1    0    0    0    0 -0.00000000000E+00 -0.00000000000E+00 -0.20000000000E+02  0.20000000000E+02  0.00000000000E+00 0. -1.
          5    1    1    2  501    0  0.10210987597E+00 -0.19396174045E+02  0.12992328515E+01  0.20000000000E+02  0.47000000000E+01 0.  1.
         -5    1    1    2    0  501 -0.10210987597E+00  0.19396174045E+02 -0.12992328515E+01  0.20000000000E+02  0.47000000000E+01 0. -1.
</event>
<event>
 4    1  0.5025809E-002  0.4000000E+02  0.7546771E-02  0.1348030E+00
         11   -1    0    0    0    0  0.00000000000E+00  0.00000000000E+00  0.20000000000E+02  0.20000000000E+02  0.00000000000E+00 0.  1.
        -11   -1    0    0    0    0 -0.00000000000E+00 -0.00000000000E+00 -0.20000000000E+02  0.20000000000E+02  0.00000000000E+00 0. -1.
          5    1    1    2  501    0  0.42729431243E+01  0.12030074816E+02 -0.14660465783E+02  0.20000000000E+02  0.47000000000E+01 0. -1.
         -5    1    1    2    0  501 -0.42729431243E+01 -0.12030074816E+02  0.14660465783E+02  0.20000000000E+02  0.47000000000E+01 0.  1.
</event>
<event>
 4    1  0.5025809E-002  0.4000000E+02  0.7546771E-02  0.1348030E+00
         11   -1    0    0    0    0  0.00000000000E+00  0.00000000000E+00  0.20000000000E+02  0.20000000000E+02  0.00000000000E+00 0. -1.
        -11   -1    0    0    0    0 -0.00000000000E+00 -0.00000000000E+00 -0.20000000000E+02  0.20000000000E+02  0.00000000000E+00 0.  1.
          5    1    1    2  501    0  0.16417850747E+02 -0.70947425530E+01  0.76176640100E+01  0.20000000000E+02  0.47000000000E+01 0. -1.
         -5    1    1    2    0  501 -0.16417850747E+02  0.70947425530E+01 -0.76176640100E+01  0.20000000000E+02  0.47000000000E+01 0.  1.
</event>
<event>
 4    1  0.5025809E-002  0.4000000E+02  0.7546771E-02  0.1348030E+00
         11   -1    0    0    0    0  0.00000000000E+00  0.00000000000E+00  0.20000000000E+02  0.20000000000E+02  0.00000000000E+00 0. -1.
        -11   -1    0    0    0    0 -0.00000000000E+00 -0.00000000000E+00 -0.20000000000E+02  0.20000000000E+02  0.00000000000E+00 0.  1.
          5    1    1    2  501    0 -0.25509515908E+00 -0.18455226363E+02 -0.61032406426E+01  0.20000000000E+02  0.47000000000E+01 0.  1.
         -5    1    1    2    0  501  0.25509515908E+00  0.18455226363E+02  0.61032406426E+01  0.20000000000E+02  0.47000000000E+01 0. -1.
</event>
<event>
 4    1  0.5025809E-002  0.4000000E+02  0.7546771E-02  0.1348030E+00
         11   -1    0    0    0    0  0.00000000000E+00  0.00000000000E+00  0.20000000000E+02  0.20000000000E+02  0.00000000000E+00 0. -1.
        -11   -1    0    0    0    0 -0.00000000000E+00 -0.00000000000E+00 -0.20000000000E+02  0.20000000000E+02  0.00000000000E+00 0.  1.
          5    1    1    2  501    0  0.89635583268E+01  0.31241462150E+01 -0.16964796861E+02  0.20000000000E+02  0.47000000000E+01 0.  1.
         -5    1    1    2    0  501 -0.89635583268E+01 -0.31241462150E+01  0.16964796861E+02  0.20000000000E+02  0.47000000000E+01 0. -1.
</event>
<event>
 4    1  0.5025809E-002  0.4000000E+02  0.7546771E-02  0.1348030E+00
         11   -1    0    0    0    0  0.00000000000E+00  0.00000000000E+00  0.20000000000E+02  0.20000000000E+02  0.00000000000E+00 0.  1.
        -11   -1    0    0    0    0 -0.00000000000E+00 -0.00000000000E+00 -0.20000000000E+02  0.20000000000E+02  0.00000000000E+00 0. -1.
          5    1    1    2  501    0 -0.13725977000E+02  0.98281080267E+01 -0.96392866958E+01  0.20000000000E+02  0.47000000000E+01 0. -1.
         -5    1    1    2    0  501  0.13725977000E+02 -0.98281080267E+01  0.96392866958E+01  0.20000000000E+02  0.47000000000E+01 0.  1.
</event>
<event>
 4    1  0.5025809E-002  0.4000000E+02  0.7546771E-02  0.1348030E+00
         11   -1    0    0    0    0  0.00000000000E+00  0.00000000000E+00  0.20000000000E+02  0.20000000000E+02  0.00000000000E+00 0. -1.
        -11   -1    0    0    0    0 -0.00000000000E+00 -0.00000000000E+00 -0.20000000000E+02  0.20000000000E+02  0.00000000000E+00 0.  1.
          5    1    1    2  501    0 -0.11640993553E+02  0.57321519216E+01 -0.14475486294E+02  0.20000000000E+02  0.47000000000E+01 0.  1.
         -5    1    1    2    0  501  0.11640993553E+02 -0.57321519216E+01  0.14475486294E+02  0.20000000000E+02  0.47000000000E+01 0. -1.
</event>
<event>
 4    1  0.5025809E-002  0.4000000E+02  0.7546771E-02  0.1348030E+00
         11   -1    0    0    0    0  0.00000000000E+00  0.00000000000E+00  0.20000000000E+02  0.20000000000E+02  0.00000000000E+00 0. -1.
        -11   -1    0    0    0    0 -0.00000000000E+00 -0.00000000000E+00 -0.20000000000E+02  0.20000000000E+02  0.00000000000E+00 0.  1.
          5    1    1    2  501    0 -0.11374210941E+02 -0.10249451590E+02  0.11978567008E+02  0.20000000000E+02  0.47000000000E+01 0.  1.
         -5    1    1    2    0  501  0.11374210941E+02  0.10249451590E+02 -0.11978567008E+02  0.20000000000E+02  0.47000000000E+01 0. -1.
</event>
<event>
 4    1  0.5025809E-002  0.4000000E+02  0.7546771E-02  0.1348030E+00
         11   -1    0    0    0    0  0.00000000000E+00  0.00000000000E+00  0.20000000000E+02  0.20000000000E+02  0.00000000000E+00 0.  1.
        -11   -1    0    0    0    0 -0.00000000000E+00 -0.00000000000E+00 -0.20000000000E+02  0.20000000000E+02  0.00000000000E+00 0. -1.
          5    1    1    2  501    0 -0.11064800275E+02  0.49170719002E+01  0.15208635665E+02  0.20000000000E+02  0.47000000000E+01 0.  1.
         -5    1    1    2    0  501  0.11064800275E+02 -0.49170719002E+01 -0.15208635665E+02  0.20000000000E+02  0.47000000000E+01 0. -1.
</event>
<event>
 4    1  0.5025809E-002  0.4000000E+02  0.7546771E-02  0.1348030E+00
         11   -1    0    0    0    0  0.00000000000E+00  0.00000000000E+00  0.20000000000E+02  0.20000000000E+02  0.00000000000E+00 0. -1.
        -11   -1    0    0    0    0 -0.00000000000E+00 -0.00000000000E+00 -0.20000000000E+02  0.20000000000E+02  0.00000000000E+00 0.  1.
          5    1    1    2  501    0  0.44937771053E+01  0.95520805854E+01 -0.16324022905E+02  0.20000000000E+02  0.47000000000E+01 0.  1.
         -5    1    1    2    0  501 -0.44937771053E+01 -0.95520805854E+01  0.16324022905E+02  0.20000000000E+02  0.47000000000E+01 0. -1.
</event>
<event>
 4    1  0.5025809E-002  0.4000000E+02  0.7546771E-02  0.1348030E+00
         11   -1    0    0    0    0  0.00000000000E+00  0.00000000000E+00  0.20000000000E+02  0.20000000000E+02  0.00000000000E+00 0. -1.
        -11   -1    0    0    0    0 -0.00000000000E+00 -0.00000000000E+00 -0.20000000000E+02  0.20000000000E+02  0.00000000000E+00 0.  1.
          5    1    1    2  501    0 -0.70402202224E+01 -0.15215040199E+02 -0.98411305739E+01  0.20000000000E+02  0.47000000000E+01 0.  1.
         -5    1    1    2    0  501  0.70402202224E+01  0.15215040199E+02  0.98411305739E+01  0.20000000000E+02  0.47000000000E+01 0. -1.
</event>
<event>
 4    1  0.5025809E-002  0.4000000E+02  0.7546771E-02  0.1348030E+00
         11   -1    0    0    0    0  0.00000000000E+00  0.00000000000E+00  0.20000000000E+02  0.20000000000E+02  0.00000000000E+00 0.  1.
        -11   -1    0    0    0    0 -0.00000000000E+00 -0.00000000000E+00 -0.20000000000E+02  0.20000000000E+02  0.00000000000E+00 0. -1.
          5    1    1    2  501    0 -0.54954555111E+00 -0.18649256874E+02 -0.54601481428E+01  0.20000000000E+02  0.47000000000E+01 0. -1.
         -5    1    1    2    0  501  0.54954555111E+00  0.18649256874E+02  0.54601481428E+01  0.20000000000E+02  0.47000000000E+01 0.  1.
</event>
<event>
 4    1  0.5025809E-002  0.4000000E+02  0.7546771E-02  0.1348030E+00
         11   -1    0    0    0    0  0.00000000000E+00  0.00000000000E+00  0.20000000000E+02  0.20000000000E+02  0.00000000000E+00 0. -1.
        -11   -1    0    0    0    0 -0.00000000000E+00 -0.00000000000E+00 -0.20000000000E+02  0.20000000000E+02  0.00000000000E+00 0.  1.
          5    1    1    2  501    0 -0.16452406352E+02  0.73133968252E+01  0.73309311904E+01  0.20000000000E+02  0.47000000000E+01 0. -1.
         -5    1    1    2    0  501  0.16452406352E+02 -0.73133968252E+01 -0.73309311904E+01  0.20000000000E+02  0.47000000000E+01 0.  1.
</event>
<event>
 4    1  0.5025809E-002  0.4000000E+02  0.7546771E-02  0.1348030E+00
         11   -1    0    0    0    0  0.00000000000E+00  0.00000000000E+00  0.20000000000E+02  0.20000000000E+02  0.00000000000E+00 0.  1.
        -11   -1    0    0    0    0 -0.00000000000E+00 -0.00000000000E+00 -0.20000000000E+02  0.20000000000E+02  0.00000000000E+00 0. -1.
          5    1    1    2  501    0  0.75673199338E+01 -0.16873394021E+02  0.59945177636E+01  0.20000000000E+02  0.47000000000E+01 0.  1.
         -5    1    1    2    0  501 -0.75673199338E+01  0.16873394021E+02 -0.59945177636E+01  0.20000000000E+02  0.47000000000E+01 0. -1.
</event>
<event>
 4    1  0.5025809E-002  0.4000000E+02  0.7546771E-02  0.1348030E+00
         11   -1    0    0    0    0  0.00000000000E+00  0.00000000000E+00  0.20000000000E+02  0.20000000000E+02  0.00000000000E+00 0.  1.
        -11   -1    0    0    0    0 -0.00000000000E+00 -0.00000000000E+00 -0.20000000000E+02  0.20000000000E+02  0.00000000000E+00 0. -1.
          5    1    1    2  501    0 -0.59268753609E+01  0.17457678059E+02 -0.61653568621E+01  0.20000000000E+02  0.47000000000E+01 0. -1.
         -5    1    1    2    0  501  0.59268753609E+01 -0.17457678059E+02  0.61653568621E+01  0.20000000000E+02  0.47000000000E+01 0.  1.
</event>
<event>
 4    1  0.5025809E-002  0.4000000E+02  0.7546771E-02  0.1348030E+00
         11   -1    0    0    0    0  0.00000000000E+00  0.00000000000E+00  0.20000000000E+02  0.20000000000E+02  0.00000000000E+00 0. -1.
        -11   -1    0    0    0    0 -0.00000000000E+00 -0.00000000000E+00 -0.20000000000E+02  0.20000000000E+02  0.00000000000E+00 0.  1.
          5    1    1    2  501    0 -0.23063415110E+01  0.81790789188E+01  0.17484091537E+02  0.20000000000E+02  0.47000000000E+01 0. -1.
         -5    1    1    2    0  501  0.23063415110E+01 -0.81790789188E+01 -0.17484091537E+02  0.20000000000E+02  0.47000000000E+01 0.  1.
</event>
<event>
 4    1  0.5025809E-002  0.4000000E+02  0.7546771E-02  0.1348030E+00
         11   -1    0    0    0    0  0.00000000000E+00  0.00000000000E+00  0.20000000000E+02  0.20000000000E+02  0.00000000000E+00 0.  1.
        -11   -1    0    0    0    0 -0.00000000000E+00 -0.00000000000E+00 -0.20000000000E+02  0.20000000000E+02  0.00000000000E+00 0. -1.
          5    1    1    2  501    0 -0.11317137563E+01 -0.15662472732E+02 -0.11459326852E+02  0.20000000000E+02  0.47000000000E+01 0. -1.
         -5    1    1    2    0  501  0.11317137563E+01  0.15662472732E+02  0.11459326852E+02  0.20000000000E+02  0.47000000000E+01 0.  1.
</event>
<event>
 4    1  0.5025809E-002  0.4000000E+02  0.7546771E-02  0.1348030E+00
         11   -1    0    0    0    0  0.00000000000E+00  0.00000000000E+00  0.20000000000E+02  0.20000000000E+02  0.00000000000E+00 0. -1.
        -11   -1    0    0    0    0 -0.00000000000E+00 -0.00000000000E+00 -0.20000000000E+02  0.20000000000E+02  0.00000000000E+00 0.  1.
          5    1    1    2  501    0 -0.74698824238E+01  0.17909827801E+02 -0.11614321749E+01  0.20000000000E+02  0.47000000000E+01 0.  1.
         -5    1    1    2    0  501  0.74698824238E+01 -0.17909827801E+02  0.11614321749E+01  0.20000000000E+02  0.47000000000E+01 0. -1.
</event>
<event>
 4    1  0.5025809E-002  0.4000000E+02  0.7546771E-02  0.1348030E+00
         11   -1    0    0    0    0  0.00000000000E+00  0.00000000000E+00  0.20000000000E+02  0.20000000000E+02  0.00000000000E+00 0.  1.
        -11   -1    0    0    0    0 -0.00000000000E+00 -0.00000000000E+00 -0.20000000000E+02  0.20000000000E+02  0.00000000000E+00 0. -1.
          5    1    1    2  501    0  0.17475773860E+01  0.86162909237E+01  0.17338267041E+02  0.20000000000E+02  0.47000000000E+01 0.  1.
         -5    1    1    2    0  501 -0.17475773860E+01 -0.86162909237E+01 -0.17338267041E+02  0.20000000000E+02  0.47000000000E+01 0. -1.
</event>
<event>
 4    1  0.5025809E-002  0.4000000E+02  0.7546771E-02  0.1348030E+00
         11   -1    0    0    0    0  0.00000000000E+00  0.00000000000E+00  0.20000000000E+02  0.20000000000E+02  0.00000000000E+00 0.  1.
        -11   -1    0    0    0    0 -0.00000000000E+00 -0.00000000000E+00 -0.20000000000E+02  0.20000000000E+02  0.00000000000E+00 0. -1.
          5    1    1    2  501    0 -0.45457864647E+01  0.39772950744E+01  0.18477741997E+02  0.20000000000E+02  0.47000000000E+01 0.  1.
         -5    1    1    2    0  501  0.45457864647E+01 -0.39772950744E+01 -0.18477741997E+02  0.20000000000E+02  0.47000000000E+01 0. -1.
</event>
<event>
 4    1  0.5025809E-002  0.4000000E+02  0.7546771E-02  0.1348030E+00
         11   -1    0    0    0    0  0.00000000000E+00  0.00000000000E+00  0.20000000000E+02  0.20000000000E+02  0.00000000000E+00 0.  1.
        -11   -1    0    0    0    0 -0.00000000000E+00 -0.00000000000E+00 -0.20000000000E+02  0.20000000000E+02  0.00000000000E+00 0. -1.
          5    1    1    2  501    0 -0.39000963116E+01 -0.57736715497E+01  0.18148387410E+02  0.20000000000E+02  0.47000000000E+01 0.  1.
         -5    1    1    2    0  501  0.39000963116E+01  0.57736715497E+01 -0.18148387410E+02  0.20000000000E+02  0.47000000000E+01 0. -1.
</event>
<event>
 4    1  0.5025809E-002  0.4000000E+02  0.7546771E-02  0.1348030E+00
         11   -1    0    0    0    0  0.00000000000E+00  0.00000000000E+00  0.20000000000E+02  0.20000000000E+02  0.00000000000E+00 0. -1.
        -11   -1    0    0    0    0 -0.00000000000E+00 -0.00000000000E+00 -0.20000000000E+02  0.20000000000E+02  0.00000000000E+00 0.  1.
          5    1    1    2  501    0 -0.11722520266E+01 -0.10040372757E+02 -0.16605021532E+02  0.20000000000E+02  0.47000000000E+01 0.  1.
         -5    1    1    2    0  501  0.11722520266E+01  0.10040372757E+02  0.16605021532E+02  0.20000000000E+02  0.47000000000E+01 0. -1.
</event>
<event>
 4    1  0.5025809E-002  0.4000000E+02  0.7546771E-02  0.1348030E+00
         11   -1    0    0    0    0  0.00000000000E+00  0.00000000000E+00  0.20000000000E+02  0.20000000000E+02  0.00000000000E+00 0.  1.
        -11   -1    0    0    0    0 -0.00000000000E+00 -0.00000000000E+00 -0.20000000000E+02  0.20000000000E+02  0.00000000000E+00 0. -1.
          5    1    1    2  501    0  0.45524214501E+00 -0.15286409538E+02 -0.12001184859E+02  0.20000000000E+02  0.47000000000E+01 0. -1.
         -5    1    1    2    0  501 -0.45524214501E+00  0.15286409538E+02  0.12001184859E+02  0.20000000000E+02  0.47000000000E+01 0.  1.
</event>
<event>
 4    1  0.5025809E-002  0.4000000E+02  0.7546771E-02  0.1348030E+00
         11   -1    0    0    0    0  0.00000000000E+00  0.00000000000E+00  0.20000000000E+02  0.20000000000E+02  0.00000000000E+00 0.  1.
        -11   -1    0    0    0    0 -0.00000000000E+00 -0.00000000000E+00 -0.20000000000E+02  0.20000000000E+02  0.00000000000E+00 0. -1.
          5    1    1    2  501    0  0.97085364917E+00  0.19023747325E+02 -0.38812988699E+01  0.20000000000E+02  0.47000000000E+01 0. -1.
         -5    1    1    2    0  501 -0.97085364917E+00 -0.19023747325E+02  0.38812988699E+01  0.20000000000E+02  0.47000000000E+01 0.  1.
</event>
<event>
 4    1  0.5025809E-002  0.4000000E+02  0.7546771E-02  0.1348030E+00
         11   -1    0    0    0    0  0.00000000000E+00  0.00000000000E+00  0.20000000000E+02  0.20000000000E+02  0.00000000000E+00 0.  1.
        -11   -1    0    0    0    0 -0.00000000000E+00 -0.00000000000E+00 -0.20000000000E+02  0.20000000000E+02  0.00000000000E+00 0. -1.
          5    1    1    2  501    0  0.28687929978E+01 -0.66395639522E+01  0.18044284892E+02  0.20000000000E+02  0.47000000000E+01 0.  1.
         -5    1    1    2    0  501 -0.28687929978E+01  0.66395639522E+01 -0.18044284892E+02  0.20000000000E+02  0.47000000000E+01 0. -1.
</event>
<event>
 4    1  0.5025809E-002  0.4000000E+02  0.7546771E-02  0.1348030E+00
         11   -1    0    0    0    0  0.00000000000E+00  0.00000000000E+00  0.20000000000E+02  0.20000000000E+02  0.00000000000E+00 0.  1.
        -11   -1    0    0    0    0 -0.00000000000E+00 -0.00000000000E+00 -0.20000000000E+02  0.20000000000E+02  0.00000000000E+00 0. -1.
          5    1    1    2  501    0  0.60149612581E+01 -0.28096975264E+01 -0.18271175137E+02  0.20000000000E+02  0.47000000000E+01 0. -1.
         -5    1    1    2    0  501 -0.60149612581E+01  0.28096975264E+01  0.18271175137E+02  0.20000000000E+02  0.47000000000E+01 0.  1.
</event>
<event>
 4    1  0.5025809E-002  0.4000000E+02  0.7546771E-02  0.1348030E+00
         11   -1    0    0    0    0  0.00000000000E+00  0.00000000000E+00  0.20000000000E+02  0.20000000000E+02  0.00000000000E+00 0.  1.
        -11   -1    0    0    0    0 -0.00000000000E+00 -0.00000000000E+00 -0.20000000000E+02  0.20000000000E+02  0.00000000000E+00 0. -1.
          5    1    1    2  501    0  0.10070612441E+02 -0.28893687348E+01 -0.16375112622E+02  0.20000000000E+02  0.47000000000E+01 0. -1.
         -5    1    1    2    0  501 -0.10070612441E+02  0.28893687348E+01  0.16375112622E+02  0.20000000000E+02  0.47000000000E+01 0.  1.
</event>
<event>
 4    1  0.5025809E-002  0.4000000E+02  0.7546771E-02  0.1348030E+00
         11   -1    0    0    0    0  0.00000000000E+00  0.00000000000E+00  0.20000000000E+02  0.20000000000E+02  0.00000000000E+00 0.  1.
        -11   -1    0    0    0    0 -0.00000000000E+00 -0.00000000000E+00 -0.20000000000E+02  0.20000000000E+02  0.00000000000E+00 0. -1.
          5    1    1    2  501    0 -0.58416340143E+01  0.11017932499E+02  0.14912762169E+02  0.20000000000E+02  0.47000000000E+01 0.  1.
         -5    1    1    2    0  501  0.58416340143E+01 -0.11017932499E+02 -0.14912762169E+02  0.20000000000E+02  0.47000000000E+01 0. -1.
</event>
<event>
 4    1  0.5025809E-002  0.4000000E+02  0.7546771E-02  0.1348030E+00
         11   -1    0    0    0    0  0.00000000000E+00  0.00000000000E+00  0.20000000000E+02  0.20000000000E+02  0.00000000000E+00 0. -1.
        -11   -1    0    0    0    0 -0.00000000000E+00 -0.00000000000E+00 -0.20000000000E+02  0.20000000000E+02  0.00000000000E+00 0.  1.
          5    1    1    2  501    0  0.25452857185E+00  0.12123138748E+02 -0.15194562255E+02  0.20000000000E+02  0.47000000000E+01 0.  1.
         -5    1    1    2    0  501 -0.25452857185E+00 -0.12123138748E+02  0.15194562255E+02  0.20000000000E+02  0.47000000000E+01 0. -1.
</event>
<event>
 4    1  0.5025809E-002  0.4000000E+02  0.7546771E-02  0.1348030E+00
         11   -1    0    0    0    0  0.00000000000E+00  0.00000000000E+00  0.20000000000E+02  0.20000000000E+02  0.00000000000E+00 0. -1.
        -11   -1    0    0    0    0 -0.00000000000E+00 -0.00000000000E+00 -0.20000000000E+02  0.20000000000E+02  0.00000000000E+00 0.  1.
          5    1    1    2  501    0 -0.14752790864E+02  0.66575396692E+01 -0.10767651893E+02  0.20000000000E+02  0.47000000000E+01 0.  1.
         -5    1    1    2    0  501  0.14752790864E+02 -0.66575396692E+01  0.10767651893E+02  0.20000000000E+02  0.47000000000E+01 0. -1.
</event>
<event>
 4    1  0.5025809E-002  0.4000000E+02  0.7546771E-02  0.1348030E+00
         11   -1    0    0    0    0  0.00000000000E+00  0.00000000000E+00  0.20000000000E+02  0.20000000000E+02  0.00000000000E+00 0.  1.
        -11   -1    0    0    0    0 -0.00000000000E+00 -0.00000000000E+00 -0.20000000000E+02  0.20000000000E+02  0.00000000000E+00 0. -1.
          5    1    1    2  501    0  0.18730964968E+02  0.25671629747E+01  0.45244475484E+01  0.20000000000E+02  0.47000000000E+01 0. -1.
         -5    1    1    2    0  501 -0.18730964968E+02 -0.25671629747E+01 -0.45244475484E+01  0.20000000000E+02  0.47000000000E+01 0.  1.
</event>
<event>
 4    1  0.5025809E-002  0.4000000E+02  0.7546771E-02  0.1348030E+00
         11   -1    0    0    0    0  0.00000000000E+00  0.00000000000E+00  0.20000000000E+02  0.20000000000E+02  0.00000000000E+00 0.  1.
        -11   -1    0    0    0    0 -0.00000000000E+00 -0.00000000000E+00 -0.20000000000E+02  0.20000000000E+02  0.00000000000E+00 0. -1.
          5    1    1    2  501    0 -0.40979017515E+01  0.33928022668E+01  0.18697756390E+02  0.20000000000E+02  0.47000000000E+01 0.  1.
         -5    1    1    2    0  501  0.40979017515E+01 -0.33928022668E+01 -0.18697756390E+02  0.20000000000E+02  0.47000000000E+01 0. -1.
</event>
<event>
 4    1  0.5025809E-002  0.4000000E+02  0.7546771E-02  0.1348030E+00
         11   -1    0    0    0    0  0.00000000000E+00  0.00000000000E+00  0.20000000000E+02  0.20000000000E+02  0.00000000000E+00 0. -1.
        -11   -1    0    0    0    0 -0.00000000000E+00 -0.00000000000E+00 -0.20000000000E+02  0.20000000000E+02  0.00000000000E+00 0.  1.
          5    1    1    2  501    0 -0.74814125277E+01  0.17837333960E+02 -0.19411295152E+01  0.20000000000E+02  0.47000000000E+01 0.  1.
         -5    1    1    2    0  501  0.74814125277E+01 -0.17837333960E+02  0.19411295152E+01  0.20000000000E+02  0.47000000000E+01 0. -1.
</event>
<event>
 4    1  0.5025809E-002  0.4000000E+02  0.7546771E-02  0.1348030E+00
         11   -1    0    0    0    0  0.00000000000E+00  0.00000000000E+00  0.20000000000E+02  0.20000000000E+02  0.00000000000E+00 0.  1.
        -11   -1    0    0    0    0 -0.00000000000E+00 -0.00000000000E+00 -0.20000000000E+02  0.20000000000E+02  0.00000000000E+00 0. -1.
          5    1    1    2  501    0  0.90523215443E+01  0.10158423889E+02 -0.13884232019E+02  0.20000000000E+02  0.47000000000E+01 0. -1.
         -5    1    1    2    0  501 -0.90523215443E+01 -0.10158423889E+02  0.13884232019E+02  0.20000000000E+02  0.47000000000E+01 0.  1.
</event>
<event>
 4    1  0.5025809E-002  0.4000000E+02  0.7546771E-02  0.1348030E+00
         11   -1    0    0    0    0  0.00000000000E+00  0.00000000000E+00  0.20000000000E+02  0.20000000000E+02  0.00000000000E+00 0. -1.
        -11   -1    0    0    0    0 -0.00000000000E+00 -0.00000000000E+00 -0.20000000000E+02  0.20000000000E+02  0.00000000000E+00 0.  1.
          5    1    1    2  501    0  0.79388153903E+01 -0.97219955973E+01 -0.14844797466E+02  0.20000000000E+02  0.47000000000E+01 0.  1.
         -5    1    1    2    0  501 -0.79388153903E+01  0.97219955973E+01  0.14844797466E+02  0.20000000000E+02  0.47000000000E+01 0. -1.
</event>
<event>
 4    1  0.5025809E-002  0.4000000E+02  0.7546771E-02  0.1348030E+00
         11   -1    0    0    0    0  0.00000000000E+00  0.00000000000E+00  0.20000000000E+02  0.20000000000E+02  0.00000000000E+00 0.  1.
        -11   -1    0    0    0    0 -0.00000000000E+00 -0.00000000000E+00 -0.20000000000E+02  0.20000000000E+02  0.00000000000E+00 0. -1.
          5    1    1    2  501    0  0.32925588304E+01  0.75404909522E+01 -0.17612780943E+02  0.20000000000E+02  0.47000000000E+01 0. -1.
         -5    1    1    2    0  501 -0.32925588304E+01 -0.75404909522E+01  0.17612780943E+02  0.20000000000E+02  0.47000000000E+01 0.  1.
</event>
<event>
 4    1  0.5025809E-002  0.4000000E+02  0.7546771E-02  0.1348030E+00
         11   -1    0    0    0    0  0.00000000000E+00  0.00000000000E+00  0.20000000000E+02  0.20000000000E+02  0.00000000000E+00 0.  1.
        -11   -1    0    0    0    0 -0.00000000000E+00 -0.00000000000E+00 -0.20000000000E+02  0.20000000000E+02  0.00000000000E+00 0. -1.
          5    1    1    2  501    0 -0.18234544391E+01 -0.19290843168E+02  0.15647312204E+01  0.20000000000E+02  0.47000000000E+01 0.  1.
         -5    1    1    2    0  501  0.18234544391E+01  0.19290843168E+02 -0.15647312204E+01  0.20000000000E+02  0.47000000000E+01 0. -1.
</event>
<event>
 4    1  0.5025809E-002  0.4000000E+02  0.7546771E-02  0.1348030E+00
         11   -1    0    0    0    0  0.00000000000E+00  0.00000000000E+00  0.20000000000E+02  0.20000000000E+02  0.00000000000E+00 0.  1.
        -11   -1    0    0    0    0 -0.00000000000E+00 -0.00000000000E+00 -0.20000000000E+02  0.20000000000E+02  0.00000000000E+00 0. -1.
          5    1    1    2  501    0  0.75276413253E+01 -0.48779363226E+01 -0.17246749065E+02  0.20000000000E+02  0.47000000000E+01 0. -1.
         -5    1    1    2    0  501 -0.75276413253E+01  0.48779363226E+01  0.17246749065E+02  0.20000000000E+02  0.47000000000E+01 0.  1.
</event>
<event>
 4    1  0.5025809E-002  0.4000000E+02  0.7546771E-02  0.1348030E+00
         11   -1    0    0    0    0  0.00000000000E+00  0.00000000000E+00  0.20000000000E+02  0.20000000000E+02  0.00000000000E+00 0.  1.
        -11   -1    0    0    0    0 -0.00000000000E+00 -0.00000000000E+00 -0.20000000000E+02  0.20000000000E+02  0.00000000000E+00 0. -1.
          5    1    1    2  501    0  0.30150698007E+01 -0.16059988685E+02 -0.10530722555E+02  0.20000000000E+02  0.47000000000E+01 0. -1.
         -5    1    1    2    0  501 -0.30150698007E+01  0.16059988685E+02  0.10530722555E+02  0.20000000000E+02  0.47000000000E+01 0.  1.
</event>
<event>
 4    1  0.5025809E-002  0.4000000E+02  0.7546771E-02  0.1348030E+00
         11   -1    0    0    0    0  0.00000000000E+00  0.00000000000E+00  0.20000000000E+02  0.20000000000E+02  0.00000000000E+00 0. -1.
        -11   -1    0    0    0    0 -0.00000000000E+00 -0.00000000000E+00 -0.20000000000E+02  0.20000000000E+02  0.00000000000E+00 0.  1.
          5    1    1    2  501    0  0.11286509246E+02 -0.63627706819E+00 -0.15815178169E+02  0.20000000000E+02  0.47000000000E+01 0.  1.
         -5    1    1    2    0  501 -0.11286509246E+02  0.63627706819E+00  0.15815178169E+02  0.20000000000E+02  0.47000000000E+01 0. -1.
</event>
<event>
 4    1  0.5025809E-002  0.4000000E+02  0.7546771E-02  0.1348030E+00
         11   -1    0    0    0    0  0.00000000000E+00  0.00000000000E+00  0.20000000000E+02  0.20000000000E+02  0.00000000000E+00 0.  1.
        -11   -1    0    0    0    0 -0.00000000000E+00 -0.00000000000E+00 -0.20000000000E+02  0.20000000000E+02  0.00000000000E+00 0. -1.
          5    1    1    2  501    0  0.15139360212E+02  0.81375706829E+01 -0.90823849155E+01  0.20000000000E+02  0.47000000000E+01 0. -1.
         -5    1    1    2    0  501 -0.15139360212E+02 -0.81375706829E+01  0.90823849155E+01  0.20000000000E+02  0.47000000000E+01 0.  1.
</event>
<event>
 4    1  0.5025809E-002  0.4000000E+02  0.7546771E-02  0.1348030E+00
         11   -1    0    0    0    0  0.00000000000E+00  0.00000000000E+00  0.20000000000E+02  0.20000000000E+02  0.00000000000E+00 0. -1.
        -11   -1    0    0    0    0 -0.00000000000E+00 -0.00000000000E+00 -0.20000000000E+02  0.20000000000E+02  0.00000000000E+00 0.  1.
          5    1    1    2  501    0  0.19356093668E+02 -0.18030784492E+01  0.23366732834E-01  0.20000000000E+02  0.47000000000E+01 0.  1.
         -5    1    1    2    0  501 -0.19356093668E+02  0.18030784492E+01 -0.23366732834E-01  0.20000000000E+02  0.47000000000E+01 0. -1.
</event>
<event>
 4    1  0.5025809E-002  0.4000000E+02  0.7546771E-02  0.1348030E+00
         11   -1    0    0    0    0  0.00000000000E+00  0.00000000000E+00  0.20000000000E+02  0.20000000000E+02  0.00000000000E+00 0. -1.
        -11   -1    0    0    0    0 -0.00000000000E+00 -0.00000000000E+00 -0.20000000000E+02  0.20000000000E+02  0.00000000000E+00 0.  1.
          5    1    1    2  501    0 -0.35550042220E+01 -0.19053195481E+02 -0.14992287795E+01  0.20000000000E+02  0.47000000000E+01 0.  1.
         -5    1    1    2    0  501  0.35550042220E+01  0.19053195481E+02  0.14992287795E+01  0.20000000000E+02  0.47000000000E+01 0. -1.
</event>
<event>
 4    1  0.5025809E-002  0.4000000E+02  0.7546771E-02  0.1348030E+00
         11   -1    0    0    0    0  0.00000000000E+00  0.00000000000E+00  0.20000000000E+02  0.20000000000E+02  0.00000000000E+00 0.  1.
        -11   -1    0    0    0    0 -0.00000000000E+00 -0.00000000000E+00 -0.20000000000E+02  0.20000000000E+02  0.00000000000E+00 0. -1.
          5    1    1    2  501    0 -0.30914972042E+01  0.15558120861E+02 -0.11238216954E+02  0.20000000000E+02  0.47000000000E+01 0. -1.
         -5    1    1    2    0  501  0.30914972042E+01 -0.15558120861E+02  0.11238216954E+02  0.20000000000E+02  0.47000000000E+01 0.  1.
</event>
<event>
 4    1  0.5025809E-002  0.4000000E+02  0.7546771E-02  0.1348030E+00
         11   -1    0    0    0    0  0.00000000000E+00  0.00000000000E+00  0.20000000000E+02  0.20000000000E+02  0.00000000000E+00 0.  1.
        -11   -1    0    0    0    0 -0.00000000000E+00 -0.00000000000E+00 -0.20000000000E+02  0.20000000000E+02  0.00000000000E+00 0. -1.
          5    1    1    2  501    0 -0.94115663859E+01  0.24222233585E+01 -0.16836426348E+02  0.20000000000E+02  0.47000000000E+01 0. -1.
         -5    1    1    2    0  501  0.94115663859E+01 -0.24222233585E+01  0.16836426348E+02  0.20000000000E+02  0.47000000000E+01 0.  1.
</event>
<event>
 4    1  0.5025809E-002  0.4000000E+02  0.7546771E-02  0.1348030E+00
         11   -1    0    0    0    0  0.00000000000E+00  0.00000000000E+00  0.20000000000E+02  0.20000000000E+02  0.00000000000E+00 0.  1.
        -11   -1    0    0    0    0 -0.00000000000E+00 -0.00000000000E+00 -0.20000000000E+02  0.20000000000E+02  0.00000000000E+00 0. -1.
          5    1    1    2  501    0  0.18792710400E+01  0.11321098241E+02 -0.15691114523E+02  0.20000000000E+02  0.47000000000E+01 0. -1.
         -5    1    1    2    0  501 -0.18792710400E+01 -0.11321098241E+02  0.15691114523E+02  0.20000000000E+02  0.47000000000E+01 0.  1.
</event>
<event>
 4    1  0.5025809E-002  0.4000000E+02  0.7546771E-02  0.1348030E+00
         11   -1    0    0    0    0  0.00000000000E+00  0.00000000000E+00  0.20000000000E+02  0.20000000000E+02  0.00000000000E+00 0. -1.
        -11   -1    0    0    0    0 -0.00000000000E+00 -0.00000000000E+00 -0.20000000000E+02  0.20000000000E+02  0.00000000000E+00 0.  1.
          5    1    1    2  501    0 -0.95892366607E+01 -0.15632154113E+02  0.64492091020E+01  0.20000000000E+02  0.47000000000E+01 0.  1.
         -5    1    1    2    0  501  0.95892366607E+01  0.15632154113E+02 -0.64492091020E+01  0.20000000000E+02  0.47000000000E+01 0. -1.
</event>
<event>
 4    1  0.5025809E-002  0.4000000E+02  0.7546771E-02  0.1348030E+00
         11   -1    0    0    0    0  0.00000000000E+00  0.00000000000E+00  0.20000000000E+02  0.20000000000E+02  0.00000000000E+00 0. -1.
        -11   -1    0    0    0    0 -0.00000000000E+00 -0.00000000000E+00 -0.20000000000E+02  0.20000000000E+02  0.00000000000E+00 0.  1.
          5    1    1    2  501    0 -0.18174651690E+02  0.68540655173E+01 -0.78346782632E+00  0.20000000000E+02  0.47000000000E+01 0.  1.
         -5    1    1    2    0  501  0.18174651690E+02 -0.68540655173E+01  0.78346782632E+00  0.20000000000E+02  0.47000000000E+01 0. -1.
</event>
<event>
 4    1  0.5025809E-002  0.4000000E+02  0.7546771E-02  0.1348030E+00
         11   -1    0    0    0    0  0.00000000000E+00  0.00000000000E+00  0.20000000000E+02  0.20000000000E+02  0.00000000000E+00 0.  1.
        -11   -1    0    0    0    0 -0.00000000000E+00 -0.00000000000E+00 -0.20000000000E+02  0.20000000000E+02  0.00000000000E+00 0. -1.
          5    1    1    2  501    0  0.12306512864E+02  0.16038250895E+01 -0.14962870253E+02  0.20000000000E+02  0.47000000000E+01 0. -1.
         -5    1    1    2    0  501 -0.12306512864E+02 -0.16038250895E+01  0.14962870253E+02  0.20000000000E+02  0.47000000000E+01 0.  1.
</event>
<event>
 4    1  0.5025809E-002  0.4000000E+02  0.7546771E-02  0.1348030E+00
         11   -1    0    0    0    0  0.00000000000E+00  0.00000000000E+00  0.20000000000E+02  0.20000000000E+02  0.00000000000E+00 0.  1.
        -11   -1    0    0    0    0 -0.00000000000E+00 -0.00000000000E+00 -0.20000000000E+02  0.20000000000E+02  0.00000000000E+00 0. -1.
          5    1    1    2  501    0  0.82738925221E+00 -0.18766971764E+02 -0.50026190965E+01  0.20000000000E+02  0.47000000000E+01 0. -1.
         -5    1    1    2    0  501 -0.82738925221E+00  0.18766971764E+02  0.50026190965E+01  0.20000000000E+02  0.47000000000E+01 0.  1.
</event>
<event>
 4    1  0.5025809E-002  0.4000000E+02  0.7546771E-02  0.1348030E+00
         11   -1    0    0    0    0  0.00000000000E+00  0.00000000000E+00  0.20000000000E+02  0.20000000000E+02  0.00000000000E+00 0.  1.
        -11   -1    0    0    0    0 -0.00000000000E+00 -0.00000000000E+00 -0.20000000000E+02  0.20000000000E+02  0.00000000000E+00 0. -1.
          5    1    1    2  501    0 -0.82217407935E+01  0.14609177325E+02 -0.98430135737E+01  0.20000000000E+02  0.47000000000E+01 0. -1.
         -5    1    1    2    0  501  0.82217407935E+01 -0.14609177325E+02  0.98430135737E+01  0.20000000000E+02  0.47000000000E+01 0.  1.
</event>
<event>
 4    1  0.5025809E-002  0.4000000E+02  0.7546771E-02  0.1348030E+00
         11   -1    0    0    0    0  0.00000000000E+00  0.00000000000E+00  0.20000000000E+02  0.20000000000E+02  0.00000000000E+00 0.  1.
        -11   -1    0    0    0    0 -0.00000000000E+00 -0.00000000000E+00 -0.20000000000E+02  0.20000000000E+02  0.00000000000E+00 0. -1.
          5    1    1    2  501    0  0.40950199201E+01 -0.93478053211E+01  0.16545674587E+02  0.20000000000E+02  0.47000000000E+01 0.  1.
         -5    1    1    2    0  501 -0.40950199201E+01  0.93478053211E+01 -0.16545674587E+02  0.20000000000E+02  0.47000000000E+01 0. -1.
</event>
<event>
 4    1  0.5025809E-002  0.4000000E+02  0.7546771E-02  0.1348030E+00
         11   -1    0    0    0    0  0.00000000000E+00  0.00000000000E+00  0.20000000000E+02  0.20000000000E+02  0.00000000000E+00 0.  1.
        -11   -1    0    0    0    0 -0.00000000000E+00 -0.00000000000E+00 -0.20000000000E+02  0.20000000000E+02  0.00000000000E+00 0. -1.
          5    1    1    2  501    0 -0.18208418302E+02  0.67831997906E+01 -0.59304599274E+00  0.20000000000E+02  0.47000000000E+01 0. -1.
         -5    1    1    2    0  501  0.18208418302E+02 -0.67831997906E+01  0.59304599274E+00  0.20000000000E+02  0.47000000000E+01 0.  1.
</event>
<event>
 4    1  0.5025809E-002  0.4000000E+02  0.7546771E-02  0.1348030E+00
         11   -1    0    0    0    0  0.00000000000E+00  0.00000000000E+00  0.20000000000E+02  0.20000000000E+02  0.00000000000E+00 0.  1.
        -11   -1    0    0    0    0 -0.00000000000E+00 -0.00000000000E+00 -0.20000000000E+02  0.20000000000E+02  0.00000000000E+00 0. -1.
          5    1    1    2  501    0  0.52231421627E+01 -0.18297687473E+02  0.39778661465E+01  0.20000000000E+02  0.47000000000E+01 0. -1.
         -5    1    1    2    0  501 -0.52231421627E+01  0.18297687473E+02 -0.39778661465E+01  0.20000000000E+02  0.47000000000E+01 0.  1.
</event>
<event>
 4    1  0.5025809E-002  0.4000000E+02  0.7546771E-02  0.1348030E+00
         11   -1    0    0    0    0  0.00000000000E+00  0.00000000000E+00  0.20000000000E+02  0.20000000000E+02  0.00000000000E+00 0.  1.
        -11   -1    0    0    0    0 -0.00000000000E+00 -0.00000000000E+00 -0.20000000000E+02  0.20000000000E+02  0.00000000000E+00 0. -1.
          5    1    1    2  501    0 -0.57887068019E+00 -0.27241565694E+01  0.19239383559E+02  0.20000000000E+02  0.47000000000E+01 0.  1.
         -5    1    1    2    0  501  0.57887068019E+00  0.27241565694E+01 -0.19239383559E+02  0.20000000000E+02  0.47000000000E+01 0. -1.
</event>
<event>
 4    1  0.5025809E-002  0.4000000E+02  0.7546771E-02  0.1348030E+00
         11   -1    0    0    0    0  0.00000000000E+00  0.00000000000E+00  0.20000000000E+02  0.20000000000E+02  0.00000000000E+00 0. -1.
        -11   -1    0    0    0    0 -0.00000000000E+00 -0.00000000000E+00 -0.20000000000E+02  0.20000000000E+02  0.00000000000E+00 0.  1.
          5    1    1    2  501    0  0.10633148851E+02 -0.16272617635E+02  0.21922780211E+00  0.20000000000E+02  0.47000000000E+01 0.  1.
         -5    1    1    2    0  501 -0.10633148851E+02  0.16272617635E+02 -0.21922780211E+00  0.20000000000E+02  0.47000000000E+01 0. -1.
</event>
<event>
 4    1  0.5025809E-002  0.4000000E+02  0.7546771E-02  0.1348030E+00
         11   -1    0    0    0    0  0.00000000000E+00  0.00000000000E+00  0.20000000000E+02  0.20000000000E+02  0.00000000000E+00 0. -1.
        -11   -1    0    0    0    0 -0.00000000000E+00 -0.00000000000E+00 -0.20000000000E+02  0.20000000000E+02  0.00000000000E+00 0.  1.
          5    1    1    2  501    0  0.59654960730E+01  0.26774601982E+01 -0.18307213428E+02  0.20000000000E+02  0.47000000000E+01 0.  1.
         -5    1    1    2    0  501 -0.59654960730E+01 -0.26774601982E+01  0.18307213428E+02  0.20000000000E+02  0.47000000000E+01 0. -1.
</event>
<event>
 4    1  0.5025809E-002  0.4000000E+02  0.7546771E-02  0.1348030E+00
         11   -1    0    0    0    0  0.00000000000E+00  0.00000000000E+00  0.20000000000E+02  0.20000000000E+02  0.00000000000E+00 0. -1.
        -11   -1    0    0    0    0 -0.00000000000E+00 -0.00000000000E+00 -0.20000000000E+02  0.20000000000E+02  0.00000000000E+00 0.  1.
          5    1    1    2  501    0  0.43000611592E+01 -0.14027802188E+02 -0.12753048255E+02  0.20000000000E+02  0.47000000000E+01 0.  1.
         -5    1    1    2    0  501 -0.43000611592E+01  0.14027802188E+02  0.12753048255E+02  0.20000000000E+02  0.47000000000E+01 0. -1.
</event>
<event>
 4    1  0.5025809E-002  0.4000000E+02  0.7546771E-02  0.1348030E+00
         11   -1    0    0    0    0  0.00000000000E+00  0.00000000000E+00  0.20000000000E+02  0.20000000000E+02  0.00000000000E+00 0.  1.
        -11   -1    0    0    0    0 -0.00000000000E+00 -0.00000000000E+00 -0.20000000000E+02  0.20000000000E+02  0.00000000000E+00 0. -1.
          5    1    1    2  501    0 -0.10426708568E+02  0.20873419906E+01  0.16273805697E+02  0.20000000000E+02  0.47000000000E+01 0.  1.
         -5    1    1    2    0  501  0.10426708568E+02 -0.20873419906E+01 -0.16273805697E+02  0.20000000000E+02  0.47000000000E+01 0. -1.
</event>
<event>
 4    1  0.5025809E-002  0.4000000E+02  0.7546771E-02  0.1348030E+00
         11   -1    0    0    0    0  0.00000000000E+00  0.00000000000E+00  0.20000000000E+02  0.20000000000E+02  0.00000000000E+00 0.  1.
        -11   -1    0    0    0    0 -0.00000000000E+00 -0.00000000000E+00 -0.20000000000E+02  0.20000000000E+02  0.00000000000E+00 0. -1.
          5    1    1    2  501    0 -0.46491896777E+01  0.10630863113E+01 -0.18845818710E+02  0.20000000000E+02  0.47000000000E+01 0. -1.
         -5    1    1    2    0  501  0.46491896777E+01 -0.10630863113E+01  0.18845818710E+02  0.20000000000E+02  0.47000000000E+01 0.  1.
</event>
<event>
 4    1  0.5025809E-002  0.4000000E+02  0.7546771E-02  0.1348030E+00
         11   -1    0    0    0    0  0.00000000000E+00  0.00000000000E+00  0.20000000000E+02  0.20000000000E+02  0.00000000000E+00 0.  1.
        -11   -1    0    0    0    0 -0.00000000000E+00 -0.00000000000E+00 -0.20000000000E+02  0.20000000000E+02  0.00000000000E+00 0. -1.
          5    1    1    2  501    0 -0.15175138850E+02 -0.82064377400E+00  0.12122363824E+02  0.20000000000E+02  0.47000000000E+01 0.  1.
         -5    1    1    2    0  501  0.15175138850E+02  0.82064377400E+00 -0.12122363824E+02  0.20000000000E+02  0.47000000000E+01 0. -1.
</event>
<event>
 4    1  0.5025809E-002  0.4000000E+02  0.7546771E-02  0.1348030E+00
         11   -1    0    0    0    0  0.00000000000E+00  0.00000000000E+00  0.20000000000E+02  0.20000000000E+02  0.00000000000E+00 0.  1.
        -11   -1    0    0    0    0 -0.00000000000E+00 -0.00000000000E+00 -0.20000000000E+02  0.20000000000E+02  0.00000000000E+00 0. -1.
          5    1    1    2  501    0  0.72534029196E+01 -0.16524918148E+02 -0.72267023097E+01  0.20000000000E+02  0.47000000000E+01 0. -1.
         -5    1    1    2    0  501 -0.72534029196E+01  0.16524918148E+02  0.72267023097E+01  0.20000000000E+02  0.47000000000E+01 0.  1.
</event>
<event>
 4    1  0.5025809E-002  0.4000000E+02  0.7546771E-02  0.1348030E+00
         11   -1    0    0    0    0  0.00000000000E+00  0.00000000000E+00  0.20000000000E+02  0.20000000000E+02  0.00000000000E+00 0. -1.
        -11   -1    0    0    0    0 -0.00000000000E+00 -0.00000000000E+00 -0.20000000000E+02  0.20000000000E+02  0.00000000000E+00 0.  1.
          5    1    1    2  501    0 -0.10906888303E+00 -0.19409797375E+02  0.10760436002E+01  0.20000000000E+02  0.47000000000E+01 0. -1.
         -5    1    1    2    0  501  0.10906888303E+00  0.19409797375E+02 -0.10760436002E+01  0.20000000000E+02  0.47000000000E+01 0.  1.
</event>
<event>
 4    1  0.5025809E-002  0.4000000E+02  0.7546771E-02  0.1348030E+00
         11   -1    0    0    0    0  0.00000000000E+00  0.00000000000E+00  0.20000000000E+02  0.20000000000E+02  0.00000000000E+00 0. -1.
        -11   -1    0    0    0    0 -0.00000000000E+00 -0.00000000000E+00 -0.20000000000E+02  0.20000000000E+02  0.00000000000E+00 0.  1.
          5    1    1    2  501    0  0.14884331735E+02 -0.12379362848E+02 -0.17657984767E+01  0.20000000000E+02  0.47000000000E+01 0.  1.
         -5    1    1    2    0  501 -0.14884331735E+02  0.12379362848E+02  0.17657984767E+01  0.20000000000E+02  0.47000000000E+01 0. -1.
</event>
<event>
 4    1  0.5025809E-002  0.4000000E+02  0.7546771E-02  0.1348030E+00
         11   -1    0    0    0    0  0.00000000000E+00  0.00000000000E+00  0.20000000000E+02  0.20000000000E+02  0.00000000000E+00 0.  1.
        -11   -1    0    0    0    0 -0.00000000000E+00 -0.00000000000E+00 -0.20000000000E+02  0.20000000000E+02  0.00000000000E+00 0. -1.
          5    1    1    2  501    0 -0.43749356467E+01 -0.13296117134E+02 -0.13490115168E+02  0.20000000000E+02  0.47000000000E+01 0. -1.
         -5    1    1    2    0  501  0.43749356467E+01  0.13296117134E+02  0.13490115168E+02  0.20000000000E+02  0.47000000000E+01 0.  1.
</event>
<event>
 4    1  0.5025809E-002  0.4000000E+02  0.7546771E-02  0.1348030E+00
         11   -1    0    0    0    0  0.00000000000E+00  0.00000000000E+00  0.20000000000E+02  0.20000000000E+02  0.00000000000E+00 0.  1.
        -11   -1    0    0    0    0 -0.00000000000E+00 -0.00000000000E+00 -0.20000000000E+02  0.20000000000E+02  0.00000000000E+00 0. -1.
          5    1    1    2  501    0  0.14782637157E+02  0.11650805070E+02  0.48623430479E+01  0.20000000000E+02  0.47000000000E+01 0. -1.
         -5    1    1    2    0  501 -0.14782637157E+02 -0.11650805070E+02 -0.48623430479E+01  0.20000000000E+02  0.47000000000E+01 0.  1.
</event>
<event>
 4    1  0.5025809E-002  0.4000000E+02  0.7546771E-02  0.1348030E+00
         11   -1    0    0    0    0  0.00000000000E+00  0.00000000000E+00  0.20000000000E+02  0.20000000000E+02  0.00000000000E+00 0.  1.
        -11   -1    0    0    0    0 -0.00000000000E+00 -0.00000000000E+00 -0.20000000000E+02  0.20000000000E+02  0.00000000000E+00 0. -1.
          5    1    1    2  501    0 -0.72725060849E+01  0.53586091228E+01  0.17213540121E+02  0.20000000000E+02  0.47000000000E+01 0.  1.
         -5    1    1    2    0  501  0.72725060849E+01 -0.53586091228E+01 -0.17213540121E+02  0.20000000000E+02  0.47000000000E+01 0. -1.
</event>
<event>
 4    1  0.5025809E-002  0.4000000E+02  0.7546771E-02  0.1348030E+00
         11   -1    0    0    0    0  0.00000000000E+00  0.00000000000E+00  0.20000000000E+02  0.20000000000E+02  0.00000000000E+00 0. -1.
        -11   -1    0    0    0    0 -0.00000000000E+00 -0.00000000000E+00 -0.20000000000E+02  0.20000000000E+02  0.00000000000E+00 0.  1.
          5    1    1    2  501    0 -0.14240224587E+02  0.12322745843E+02 -0.48245143375E+01  0.20000000000E+02  0.47000000000E+01 0.  1.
         -5    1    1    2    0  501  0.14240224587E+02 -0.12322745843E+02  0.48245143375E+01  0.20000000000E+02  0.47000000000E+01 0. -1.
</event>
<event>
 4    1  0.5025809E-002  0.4000000E+02  0.7546771E-02  0.1348030E+00
         11   -1    0    0    0    0  0.00000000000E+00  0.00000000000E+00  0.20000000000E+02  0.20000000000E+02  0.00000000000E+00 0.  1.
        -11   -1    0    0    0    0 -0.00000000000E+00 -0.00000000000E+00 -0.20000000000E+02  0.20000000000E+02  0.00000000000E+00 0. -1.
          5    1    1    2  501    0  0.82568435675E+01  0.17197891579E+02 -0.37372529387E+01  0.20000000000E+02  0.47000000000E+01 0. -1.
         -5    1    1    2    0  501 -0.82568435675E+01 -0.17197891579E+02  0.37372529387E+01  0.20000000000E+02  0.47000000000E+01 0.  1.
</event>
<event>
 4    1  0.5025809E-002  0.4000000E+02  0.7546771E-02  0.1348030E+00
         11   -1    0    0    0    0  0.00000000000E+00  0.00000000000E+00  0.20000000000E+02  0.20000000000E+02  0.00000000000E+00 0.  1.
        -11   -1    0    0    0    0 -0.00000000000E+00 -0.00000000000E+00 -0.20000000000E+02  0.20000000000E+02  0.00000000000E+00 0. -1.
          5    1    1    2  501    0 -0.15797963299E+02 -0.10849704659E+02  0.32585678460E+01  0.20000000000E+02  0.47000000000E+01 0.  1.
         -5    1    1    2    0  501  0.15797963299E+02  0.10849704659E+02 -0.32585678460E+01  0.20000000000E+02  0.47000000000E+01 0. -1.
</event>
<event>
 4    1  0.5025809E-002  0.4000000E+02  0.7546771E-02  0.1348030E+00
         11   -1    0    0    0    0  0.00000000000E+00  0.00000000000E+00  0.20000000000E+02  0.20000000000E+02  0.00000000000E+00 0. -1.
        -11   -1    0    0    0    0 -0.00000000000E+00 -0.00000000000E+00 -0.20000000000E+02  0.20000000000E+02  0.00000000000E+00 0.  1.
          5    1    1    2  501    0 -0.30619892418E+01 -0.16662282373E+02  0.95342838221E+01  0.20000000000E+02  0.47000000000E+01 0. -1.
         -5    1    1    2    0  501  0.30619892418E+01  0.16662282373E+02 -0.95342838221E+01  0.20000000000E+02  0.47000000000E+01 0.  1.
</event>
<event>
 4    1  0.5025809E-002  0.4000000E+02  0.7546771E-02  0.1348030E+00
         11   -1    0    0    0    0  0.00000000000E+00  0.00000000000E+00  0.20000000000E+02  0.20000000000E+02  0.00000000000E+00 0.  1.
        -11   -1    0    0    0    0 -0.00000000000E+00 -0.00000000000E+00 -0.20000000000E+02  0.20000000000E+02  0.00000000000E+00 0. -1.
          5    1    1    2  501    0 -0.88933979273E+00  0.18340573597E+02  0.63829800926E+01  0.20000000000E+02  0.47000000000E+01 0.  1.
         -5    1    1    2    0  501  0.88933979273E+00 -0.18340573597E+02 -0.63829800926E+01  0.20000000000E+02  0.47000000000E+01 0. -1.
</event>
<event>
 4    1  0.5025809E-002  0.4000000E+02  0.7546771E-02  0.1348030E+00
         11   -1    0    0    0    0  0.00000000000E+00  0.00000000000E+00  0.20000000000E+02  0.20000000000E+02  0.00000000000E+00 0. -1.
        -11   -1    0    0    0    0 -0.00000000000E+00 -0.00000000000E+00 -0.20000000000E+02  0.20000000000E+02  0.00000000000E+00 0.  1.
          5    1    1    2  501    0  0.10866852473E+02  0.14267427448E+02 -0.75008020472E+01  0.20000000000E+02  0.47000000000E+01 0.  1.
         -5    1    1    2    0  501 -0.10866852473E+02 -0.14267427448E+02  0.75008020472E+01  0.20000000000E+02  0.47000000000E+01 0. -1.
</event>
<event>
 4    1  0.5025809E-002  0.4000000E+02  0.7546771E-02  0.1348030E+00
         11   -1    0    0    0    0  0.00000000000E+00  0.00000000000E+00  0.20000000000E+02  0.20000000000E+02  0.00000000000E+00 0.  1.
        -11   -1    0    0    0    0 -0.00000000000E+00 -0.00000000000E+00 -0.20000000000E+02  0.20000000000E+02  0.00000000000E+00 0. -1.
          5    1    1    2  501    0  0.12114293011E+02 -0.32190001176E+01 -0.14859069388E+02  0.20000000000E+02  0.47000000000E+01 0. -1.
         -5    1    1    2    0  501 -0.12114293011E+02  0.32190001176E+01  0.14859069388E+02  0.20000000000E+02  0.47000000000E+01 0.  1.
</event>
<event>
 4    1  0.5025809E-002  0.4000000E+02  0.7546771E-02  0.1348030E+00
         11   -1    0    0    0    0  0.00000000000E+00  0.00000000000E+00  0.20000000000E+02  0.20000000000E+02  0.00000000000E+00 0.  1.
        -11   -1    0    0    0    0 -0.00000000000E+00 -0.00000000000E+00 -0.20000000000E+02  0.20000000000E+02  0.00000000000E+00 0. -1.
          5    1    1    2  501    0  0.13066767882E+01 -0.14717134150E+01 -0.19340027285E+02  0.20000000000E+02  0.47000000000E+01 0. -1.
         -5    1    1    2    0  501 -0.13066767882E+01  0.14717134150E+01  0.19340027285E+02  0.20000000000E+02  0.47000000000E+01 0.  1.
</event>
<event>
 4    1  0.5025809E-002  0.4000000E+02  0.7546771E-02  0.1348030E+00
         11   -1    0    0    0    0  0.00000000000E+00  0.00000000000E+00  0.20000000000E+02  0.20000000000E+02  0.00000000000E+00 0.  1.
        -11   -1    0    0    0    0 -0.00000000000E+00 -0.00000000000E+00 -0.20000000000E+02  0.20000000000E+02  0.00000000000E+00 0. -1.
          5    1    1    2  501    0  0.12104950102E+02 -0.11016599544E+02 -0.10488790088E+02  0.20000000000E+02  0.47000000000E+01 0. -1.
         -5    1    1    2    0  501 -0.12104950102E+02  0.11016599544E+02  0.10488790088E+02  0.20000000000E+02  0.47000000000E+01 0.  1.
</event>
<event>
 4    1  0.5025809E-002  0.4000000E+02  0.7546771E-02  0.1348030E+00
         11   -1    0    0    0    0  0.00000000000E+00  0.00000000000E+00  0.20000000000E+02  0.20000000000E+02  0.00000000000E+00 0.  1.
        -11   -1    0    0    0    0 -0.00000000000E+00 -0.00000000000E+00 -0.20000000000E+02  0.20000000000E+02  0.00000000000E+00 0. -1.
          5    1    1    2  501    0  0.32905711411E+01 -0.10604160474E+02 -0.15957252966E+02  0.20000000000E+02  0.47000000000E+01 0. -1.
         -5    1    1    2    0  501 -0.32905711411E+01  0.10604160474E+02  0.15957252966E+02  0.20000000000E+02  0.47000000000E+01 0.  1.
</event>
<event>
 4    1  0.5025809E-002  0.4000000E+02  0.7546771E-02  0.1348030E+00
         11   -1    0    0    0    0  0.00000000000E+00  0.00000000000E+00  0.20000000000E+02  0.20000000000E+02  0.00000000000E+00 0. -1.
        -11   -1    0    0    0    0 -0.00000000000E+00 -0.00000000000E+00 -0.20000000000E+02  0.20000000000E+02  0.00000000000E+00 0.  1.
          5    1    1    2  501    0 -0.16812612303E+02  0.10060866778E+01 -0.97074124854E+01  0.20000000000E+02  0.47000000000E+01 0.  1.
         -5    1    1    2    0  501  0.16812612303E+02 -0.10060866778E+01  0.97074124854E+01  0.20000000000E+02  0.47000000000E+01 0. -1.
</event>
<event>
 4    1  0.5025809E-002  0.4000000E+02  0.7546771E-02  0.1348030E+00
         11   -1    0    0    0    0  0.00000000000E+00  0.00000000000E+00  0.20000000000E+02  0.20000000000E+02  0.00000000000E+00 0. -1.
        -11   -1    0    0    0    0 -0.00000000000E+00 -0.00000000000E+00 -0.20000000000E+02  0.20000000000E+02  0.00000000000E+00 0.  1.
          5    1    1    2  501    0  0.10523407932E+02 -0.10816496550E+02  0.12254439517E+02  0.20000000000E+02  0.47000000000E+01 0. -1.
         -5    1    1    2    0  501 -0.10523407932E+02  0.10816496550E+02 -0.12254439517E+02  0.20000000000E+02  0.47000000000E+01 0.  1.
</event>
<event>
 4    1  0.5025809E-002  0.4000000E+02  0.7546771E-02  0.1348030E+00
         11   -1    0    0    0    0  0.00000000000E+00  0.00000000000E+00  0.20000000000E+02  0.20000000000E+02  0.00000000000E+00 0.  1.
        -11   -1    0    0    0    0 -0.00000000000E+00 -0.00000000000E+00 -0.20000000000E+02  0.20000000000E+02  0.00000000000E+00 0. -1.
          5    1    1    2  501    0 -0.14900161365E+02  0.11343148095E+02  0.52180631062E+01  0.20000000000E+02  0.47000000000E+01 0.  1.
         -5    1    1    2    0  501  0.14900161365E+02 -0.11343148095E+02 -0.52180631062E+01  0.20000000000E+02  0.47000000000E+01 0. -1.
</event>
<event>
 4    1  0.5025809E-002  0.4000000E+02  0.7546771E-02  0.1348030E+00
         11   -1    0    0    0    0  0.00000000000E+00  0.00000000000E+00  0.20000000000E+02  0.20000000000E+02  0.00000000000E+00 0.  1.
        -11   -1    0    0    0    0 -0.00000000000E+00 -0.00000000000E+00 -0.20000000000E+02  0.20000000000E+02  0.00000000000E+00 0. -1.
          5    1    1    2  501    0  0.16930297476E+02  0.42690326975E+01  0.85469519246E+01  0.20000000000E+02  0.47000000000E+01 0. -1.
         -5    1    1    2    0  501 -0.16930297476E+02 -0.42690326975E+01 -0.85469519246E+01  0.20000000000E+02  0.47000000000E+01 0.  1.
</event>
<event>
 4    1  0.5025809E-002  0.4000000E+02  0.7546771E-02  0.1348030E+00
         11   -1    0    0    0    0  0.00000000000E+00  0.00000000000E+00  0.20000000000E+02  0.20000000000E+02  0.00000000000E+00 0.  1.
        -11   -1    0    0    0    0 -0.00000000000E+00 -0.00000000000E+00 -0.20000000000E+02  0.20000000000E+02  0.00000000000E+00 0. -1.
          5    1    1    2  501    0 -0.15883363339E+01  0.39808133430E+00  0.19370821329E+02  0.20000000000E+02  0.47000000000E+01 0.  1.
         -5    1    1    2    0  501  0.15883363339E+01 -0.39808133430E+00 -0.19370821329E+02  0.20000000000E+02  0.47000000000E+01 0. -1.
</event>
<event>
 4    1  0.5025809E-002  0.4000000E+02  0.7546771E-02  0.1348030E+00
         11   -1    0    0    0    0  0.00000000000E+00  0.00000000000E+00  0.20000000000E+02  0.20000000000E+02  0.00000000000E+00 0.  1.
        -11   -1    0    0    0    0 -0.00000000000E+00 -0.00000000000E+00 -0.20000000000E+02  0.20000000000E+02  0.00000000000E+00 0. -1.
          5    1    1    2  501    0 -0.35352835019E+01  0.96670130809E+01 -0.16491228840E+02  0.20000000000E+02  0.47000000000E+01 0. -1.
         -5    1    1    2    0  501  0.35352835019E+01 -0.96670130809E+01  0.16491228840E+02  0.20000000000E+02  0.47000000000E+01 0.  1.
</event>
<event>
 4    1  0.5025809E-002  0.4000000E+02  0.7546771E-02  0.1348030E+00
         11   -1    0    0    0    0  0.00000000000E+00  0.00000000000E+00  0.20000000000E+02  0.20000000000E+02  0.00000000000E+00 0. -1.
        -11   -1    0    0    0    0 -0.00000000000E+00 -0.00000000000E+00 -0.20000000000E+02  0.20000000000E+02  0.00000000000E+00 0.  1.
          5    1    1    2  501    0  0.35993178236E+00  0.12411140850E+02 -0.14958075809E+02  0.20000000000E+02  0.47000000000E+01 0.  1.
         -5    1    1    2    0  501 -0.35993178236E+00 -0.12411140850E+02  0.14958075809E+02  0.20000000000E+02  0.47000000000E+01 0. -1.
</event>
<event>
 4    1  0.5025809E-002  0.4000000E+02  0.7546771E-02  0.1348030E+00
         11   -1    0    0    0    0  0.00000000000E+00  0.00000000000E+00  0.20000000000E+02  0.20000000000E+02  0.00000000000E+00 0.  1.
        -11   -1    0    0    0    0 -0.00000000000E+00 -0.00000000000E+00 -0.20000000000E+02  0.20000000000E+02  0.00000000000E+00 0. -1.
          5    1    1    2  501    0 -0.90952999232E+01 -0.16825404567E+02  0.34772518534E+01  0.20000000000E+02  0.47000000000E+01 0. -1.
         -5    1    1    2    0  501  0.90952999232E+01  0.16825404567E+02 -0.34772518534E+01  0.20000000000E+02  0.47000000000E+01 0.  1.
</event>
<event>
 4    1  0.5025809E-002  0.4000000E+02  0.7546771E-02  0.1348030E+00
         11   -1    0    0    0    0  0.00000000000E+00  0.00000000000E+00  0.20000000000E+02  0.20000000000E+02  0.00000000000E+00 0.  1.
        -11   -1    0    0    0    0 -0.00000000000E+00 -0.00000000000E+00 -0.20000000000E+02  0.20000000000E+02  0.00000000000E+00 0. -1.
          5    1    1    2  501    0  0.50602652379E+01 -0.11984562898E+01 -0.18731455316E+02  0.20000000000E+02  0.47000000000E+01 0. -1.
         -5    1    1    2    0  501 -0.50602652379E+01  0.11984562898E+01  0.18731455316E+02  0.20000000000E+02  0.47000000000E+01 0.  1.
</event>
<event>
 4    1  0.5025809E-002  0.4000000E+02  0.7546771E-02  0.1348030E+00
         11   -1    0    0    0    0  0.00000000000E+00  0.00000000000E+00  0.20000000000E+02  0.20000000000E+02  0.00000000000E+00 0.  1.
        -11   -1    0    0    0    0 -0.00000000000E+00 -0.00000000000E+00 -0.20000000000E+02  0.20000000000E+02  0.00000000000E+00 0. -1.
          5    1    1    2  501    0 -0.10119801926E+02 -0.14780019340E+02 -0.75531872284E+01  0.20000000000E+02  0.47000000000E+01 0. -1.
         -5    1    1    2    0  501  0.10119801926E+02  0.14780019340E+02  0.75531872284E+01  0.20000000000E+02  0.47000000000E+01 0.  1.
</event>
<event>
 4    1  0.5025809E-002  0.4000000E+02  0.7546771E-02  0.1348030E+00
         11   -1    0    0    0    0  0.00000000000E+00  0.00000000000E+00  0.20000000000E+02  0.20000000000E+02  0.00000000000E+00 0. -1.
        -11   -1    0    0    0    0 -0.00000000000E+00 -0.00000000000E+00 -0.20000000000E+02  0.20000000000E+02  0.00000000000E+00 0.  1.
          5    1    1    2  501    0  0.19163937571E+02 -0.53193964414E-01  0.32635359921E+01  0.20000000000E+02  0.47000000000E+01 0.  1.
         -5    1    1    2    0  501 -0.19163937571E+02  0.53193964414E-01 -0.32635359921E+01  0.20000000000E+02  0.47000000000E+01 0. -1.
</event>
<event>
 4    1  0.5025809E-002  0.4000000E+02  0.7546771E-02  0.1348030E+00
         11   -1    0    0    0    0  0.00000000000E+00  0.00000000000E+00  0.20000000000E+02  0.20000000000E+02  0.00000000000E+00 0.  1.
        -11   -1    0    0    0    0 -0.00000000000E+00 -0.00000000000E+00 -0.20000000000E+02  0.20000000000E+02  0.00000000000E+00 0. -1.
          5    1    1    2  501    0  0.17916877656E+02  0.42908747378E+01  0.62035384285E+01  0.20000000000E+02  0.47000000000E+01 0. -1.
         -5    1    1    2    0  501 -0.17916877656E+02 -0.42908747378E+01 -0.62035384285E+01  0.20000000000E+02  0.47000000000E+01 0.  1.
</event>
<event>
 4    1  0.5025809E-002  0.4000000E+02  0.7546771E-02  0.1348030E+00
         11   -1    0    0    0    0  0.00000000000E+00  0.00000000000E+00  0.20000000000E+02  0.20000000000E+02  0.00000000000E+00 0.  1.
        -11   -1    0    0    0    0 -0.00000000000E+00 -0.00000000000E+00 -0.20000000000E+02  0.20000000000E+02  0.00000000000E+00 0. -1.
          5    1    1    2  501    0 -0.12333492695E+02 -0.14653808448E+01 -0.14954852621E+02  0.20000000000E+02  0.47000000000E+01 0. -1.
         -5    1    1    2    0  501  0.12333492695E+02  0.14653808448E+01  0.14954852621E+02  0.20000000000E+02  0.47000000000E+01 0.  1.
</event>
<event>
 4    1  0.5025809E-002  0.4000000E+02  0.7546771E-02  0.1348030E+00
         11   -1    0    0    0    0  0.00000000000E+00  0.00000000000E+00  0.20000000000E+02  0.20000000000E+02  0.00000000000E+00 0.  1.
        -11   -1    0    0    0    0 -0.00000000000E+00 -0.00000000000E+00 -0.20000000000E+02  0.20000000000E+02  0.00000000000E+00 0. -1.
          5    1    1    2  501    0 -0.18000199540E+02  0.21241850674E+01 -0.70278484853E+01  0.20000000000E+02  0.47000000000E+01 0. -1.
         -5    1    1    2    0  501  0.18000199540E+02 -0.21241850674E+01  0.70278484853E+01  0.20000000000E+02  0.47000000000E+01 0.  1.
</event>
<event>
 4    1  0.5025809E-002  0.4000000E+02  0.7546771E-02  0.1348030E+00
         11   -1    0    0    0    0  0.00000000000E+00  0.00000000000E+00  0.20000000000E+02  0.20000000000E+02  0.00000000000E+00 0.  1.
        -11   -1    0    0    0    0 -0.00000000000E+00 -0.00000000000E+00 -0.20000000000E+02  0.20000000000E+02  0.00000000000E+00 0. -1.
          5    1    1    2  501    0  0.40540302540E+01  0.15922501423E+02 -0.10389840573E+02  0.20000000000E+02  0.47000000000E+01 0. -1.
         -5    1    1    2    0  501 -0.40540302540E+01 -0.15922501423E+02  0.10389840573E+02  0.20000000000E+02  0.47000000000E+01 0.  1.
</event>
<event>
 4    1  0.5025809E-002  0.4000000E+02  0.7546771E-02  0.1348030E+00
         11   -1    0    0    0    0  0.00000000000E+00  0.00000000000E+00  0.20000000000E+02  0.20000000000E+02  0.00000000000E+00 0.  1.
        -11   -1    0    0    0    0 -0.00000000000E+00 -0.00000000000E+00 -0.20000000000E+02  0.20000000000E+02  0.00000000000E+00 0. -1.
          5    1    1    2  501    0 -0.39744917474E+01 -0.32635204709E+01 -0.18747342465E+02  0.20000000000E+02  0.47000000000E+01 0. -1.
         -5    1    1    2    0  501  0.39744917474E+01  0.32635204709E+01  0.18747342465E+02  0.20000000000E+02  0.47000000000E+01 0.  1.
</event>
<event>
 4    1  0.5025809E-002  0.4000000E+02  0.7546771E-02  0.1348030E+00
         11   -1    0    0    0    0  0.00000000000E+00  0.00000000000E+00  0.20000000000E+02  0.20000000000E+02  0.00000000000E+00 0.  1.
        -11   -1    0    0    0    0 -0.00000000000E+00 -0.00000000000E+00 -0.20000000000E+02  0.20000000000E+02  0.00000000000E+00 0. -1.
          5    1    1    2  501    0 -0.57657670340E+01 -0.61574148539E+01 -0.17514341918E+02  0.20000000000E+02  0.47000000000E+01 0. -1.
         -5    1    1    2    0  501  0.57657670340E+01  0.61574148539E+01  0.17514341918E+02  0.20000000000E+02  0.47000000000E+01 0.  1.
</event>
<event>
 4    1  0.5025809E-002  0.4000000E+02  0.7546771E-02  0.1348030E+00
         11   -1    0    0    0    0  0.00000000000E+00  0.00000000000E+00  0.20000000000E+02  0.20000000000E+02  0.00000000000E+00 0.  1.
        -11   -1    0    0    0    0 -0.00000000000E+00 -0.00000000000E+00 -0.20000000000E+02  0.20000000000E+02  0.00000000000E+00 0. -1.
          5    1    1    2  501    0  0.46917528947E+01 -0.26745896455E+01 -0.18674689422E+02  0.20000000000E+02  0.47000000000E+01 0. -1.
         -5    1    1    2    0  501 -0.46917528947E+01  0.26745896455E+01  0.18674689422E+02  0.20000000000E+02  0.47000000000E+01 0.  1.
</event>
<event>
 4    1  0.5025809E-002  0.4000000E+02  0.7546771E-02  0.1348030E+00
         11   -1    0    0    0    0  0.00000000000E+00  0.00000000000E+00  0.20000000000E+02  0.20000000000E+02  0.00000000000E+00 0.  1.
        -11   -1    0    0    0    0 -0.00000000000E+00 -0.00000000000E+00 -0.20000000000E+02  0.20000000000E+02  0.00000000000E+00 0. -1.
          5    1    1    2  501    0  0.78925597452E+01 -0.17659824559E+02  0.19360003138E+01  0.20000000000E+02  0.47000000000E+01 0.  1.
         -5    1    1    2    0  501 -0.78925597452E+01  0.17659824559E+02 -0.19360003138E+01  0.20000000000E+02  0.47000000000E+01 0. -1.
</event>
<event>
 4    1  0.5025809E-002  0.4000000E+02  0.7546771E-02  0.1348030E+00
         11   -1    0    0    0    0  0.00000000000E+00  0.00000000000E+00  0.20000000000E+02  0.20000000000E+02  0.00000000000E+00 0.  1.
        -11   -1    0    0    0    0 -0.00000000000E+00 -0.00000000000E+00 -0.20000000000E+02  0.20000000000E+02  0.00000000000E+00 0. -1.
          5    1    1    2  501    0 -0.14938472202E+02  0.53549394072E+01 -0.11228386892E+02  0.20000000000E+02  0.47000000000E+01 0. -1.
         -5    1    1    2    0  501  0.14938472202E+02 -0.53549394072E+01  0.11228386892E+02  0.20000000000E+02  0.47000000000E+01 0.  1.
</event>
<event>
 4    1  0.5025809E-002  0.4000000E+02  0.7546771E-02  0.1348030E+00
         11   -1    0    0    0    0  0.00000000000E+00  0.00000000000E+00  0.20000000000E+02  0.20000000000E+02  0.00000000000E+00 0. -1.
        -11   -1    0    0    0    0 -0.00000000000E+00 -0.00000000000E+00 -0.20000000000E+02  0.20000000000E+02  0.00000000000E+00 0.  1.
          5    1    1    2  501    0  0.16385454069E+02  0.85547276548E+01  0.60202599367E+01  0.20000000000E+02  0.47000000000E+01 0. -1.
         -5    1    1    2    0  501 -0.16385454069E+02 -0.85547276548E+01 -0.60202599367E+01  0.20000000000E+02  0.47000000000E+01 0.  1.
</event>
<event>
 4    1  0.5025809E-002  0.4000000E+02  0.7546771E-02  0.1348030E+00
         11   -1    0    0    0    0  0.00000000000E+00  0.00000000000E+00  0.20000000000E+02  0.20000000000E+02  0.00000000000E+00 0.  1.
        -11   -1    0    0    0    0 -0.00000000000E+00 -0.00000000000E+00 -0.20000000000E+02  0.20000000000E+02  0.00000000000E+00 0. -1.
          5    1    1    2  501    0 -0.37646502473E+01  0.43521985501E+01 -0.18568677290E+02  0.20000000000E+02  0.47000000000E+01 0. -1.
         -5    1    1    2    0  501  0.37646502473E+01 -0.43521985501E+01  0.18568677290E+02  0.20000000000E+02  0.47000000000E+01 0.  1.
</event>
<event>
 4    1  0.5025809E-002  0.4000000E+02  0.7546771E-02  0.1348030E+00
         11   -1    0    0    0    0  0.00000000000E+00  0.00000000000E+00  0.20000000000E+02  0.20000000000E+02  0.00000000000E+00 0. -1.
        -11   -1    0    0    0    0 -0.00000000000E+00 -0.00000000000E+00 -0.20000000000E+02  0.20000000000E+02  0.00000000000E+00 0.  1.
          5    1    1    2  501    0  0.17290038869E+02  0.71487069573E+01 -0.52783088924E+01  0.20000000000E+02  0.47000000000E+01 0.  1.
         -5    1    1    2    0  501 -0.17290038869E+02 -0.71487069573E+01  0.52783088924E+01  0.20000000000E+02  0.47000000000E+01 0. -1.
</event>
<event>
 4    1  0.5025809E-002  0.4000000E+02  0.7546771E-02  0.1348030E+00
         11   -1    0    0    0    0  0.00000000000E+00  0.00000000000E+00  0.20000000000E+02  0.20000000000E+02  0.00000000000E+00 0. -1.
        -11   -1    0    0    0    0 -0.00000000000E+00 -0.00000000000E+00 -0.20000000000E+02  0.20000000000E+02  0.00000000000E+00 0.  1.
          5    1    1    2  501    0 -0.16179873915E+02  0.39482528239E+01 -0.10026613573E+02  0.20000000000E+02  0.47000000000E+01 0.  1.
         -5    1    1    2    0  501  0.16179873915E+02 -0.39482528239E+01  0.10026613573E+02  0.20000000000E+02  0.47000000000E+01 0. -1.
</event>
<event>
 4    1  0.5025809E-002  0.4000000E+02  0.7546771E-02  0.1348030E+00
         11   -1    0    0    0    0  0.00000000000E+00  0.00000000000E+00  0.20000000000E+02  0.20000000000E+02  0.00000000000E+00 0.  1.
        -11   -1    0    0    0    0 -0.00000000000E+00 -0.00000000000E+00 -0.20000000000E+02  0.20000000000E+02  0.00000000000E+00 0. -1.
          5    1    1    2  501    0 -0.47432577380E+01 -0.70218698427E+01 -0.17495852364E+02  0.20000000000E+02  0.47000000000E+01 0. -1.
         -5    1    1    2    0  501  0.47432577380E+01  0.70218698427E+01  0.17495852364E+02  0.20000000000E+02  0.47000000000E+01 0.  1.
</event>
<event>
 4    1  0.5025809E-002  0.4000000E+02  0.7546771E-02  0.1348030E+00
         11   -1    0    0    0    0  0.00000000000E+00  0.00000000000E+00  0.20000000000E+02  0.20000000000E+02  0.00000000000E+00 0. -1.
        -11   -1    0    0    0    0 -0.00000000000E+00 -0.00000000000E+00 -0.20000000000E+02  0.20000000000E+02  0.00000000000E+00 0.  1.
          5    1    1    2  501    0  0.72939459660E+01 -0.22885385293E+01  0.17873750128E+02  0.20000000000E+02  0.47000000000E+01 0. -1.
         -5    1    1    2    0  501 -0.72939459660E+01  0.22885385293E+01 -0.17873750128E+02  0.20000000000E+02  0.47000000000E+01 0.  1.
</event>
<event>
 4    1  0.5025809E-002  0.4000000E+02  0.7546771E-02  0.1348030E+00
         11   -1    0    0    0    0  0.00000000000E+00  0.00000000000E+00  0.20000000000E+02  0.20000000000E+02  0.00000000000E+00 0. -1.
        -11   -1    0    0    0    0 -0.00000000000E+00 -0.00000000000E+00 -0.20000000000E+02  0.20000000000E+02  0.00000000000E+00 0.  1.
          5    1    1    2  501    0 -0.14100639134E+02  0.13275881592E+02  0.16831351611E+01  0.20000000000E+02  0.47000000000E+01 0.  1.
         -5    1    1    2    0  501  0.14100639134E+02 -0.13275881592E+02 -0.16831351611E+01  0.20000000000E+02  0.47000000000E+01 0. -1.
</event>
<event>
 4    1  0.5025809E-002  0.4000000E+02  0.7546771E-02  0.1348030E+00
         11   -1    0    0    0    0  0.00000000000E+00  0.00000000000E+00  0.20000000000E+02  0.20000000000E+02  0.00000000000E+00 0.  1.
        -11   -1    0    0    0    0 -0.00000000000E+00 -0.00000000000E+00 -0.20000000000E+02  0.20000000000E+02  0.00000000000E+00 0. -1.
          5    1    1    2  501    0 -0.17637249960E+02 -0.81353297638E+01 -0.80859351507E+00  0.20000000000E+02  0.47000000000E+01 0.  1.
         -5    1    1    2    0  501  0.17637249960E+02  0.81353297638E+01  0.80859351507E+00  0.20000000000E+02  0.47000000000E+01 0. -1.
</event>
<event>
 4    1  0.5025809E-002  0.4000000E+02  0.7546771E-02  0.1348030E+00
         11   -1    0    0    0    0  0.00000000000E+00  0.00000000000E+00  0.20000000000E+02  0.20000000000E+02  0.00000000000E+00 0.  1.
        -11   -1    0    0    0    0 -0.00000000000E+00 -0.00000000000E+00 -0.20000000000E+02  0.20000000000E+02  0.00000000000E+00 0. -1.
          5    1    1    2  501    0  0.49144875075E+01 -0.52398195468E+01 -0.18063834135E+02  0.20000000000E+02  0.47000000000E+01 0. -1.
         -5    1    1    2    0  501 -0.49144875075E+01  0.52398195468E+01  0.18063834135E+02  0.20000000000E+02  0.47000000000E+01 0.  1.
</event>
<event>
 4    1  0.5025809E-002  0.4000000E+02  0.7546771E-02  0.1348030E+00
         11   -1    0    0    0    0  0.00000000000E+00  0.00000000000E+00  0.20000000000E+02  0.20000000000E+02  0.00000000000E+00 0.  1.
        -11   -1    0    0    0    0 -0.00000000000E+00 -0.00000000000E+00 -0.20000000000E+02  0.20000000000E+02  0.00000000000E+00 0. -1.
          5    1    1    2  501    0  0.62036165127E+01 -0.14004571184E+02  0.11970677847E+02  0.20000000000E+02  0.47000000000E+01 0. -1.
         -5    1    1    2    0  501 -0.62036165127E+01  0.14004571184E+02 -0.11970677847E+02  0.20000000000E+02  0.47000000000E+01 0.  1.
</event>
<event>
 4    1  0.5025809E-002  0.4000000E+02  0.7546771E-02  0.1348030E+00
         11   -1    0    0    0    0  0.00000000000E+00  0.00000000000E+00  0.20000000000E+02  0.20000000000E+02  0.00000000000E+00 0.  1.
        -11   -1    0    0    0    0 -0.00000000000E+00 -0.00000000000E+00 -0.20000000000E+02  0.20000000000E+02  0.00000000000E+00 0. -1.
          5    1    1    2  501    0  0.97586512681E+01  0.19887958747E+01 -0.16695011722E+02  0.20000000000E+02  0.47000000000E+01 0. -1.
         -5    1    1    2    0  501 -0.97586512681E+01 -0.19887958747E+01  0.16695011722E+02  0.20000000000E+02  0.47000000000E+01 0.  1.
</event>
<event>
 4    1  0.5025809E-002  0.4000000E+02  0.7546771E-02  0.1348030E+00
         11   -1    0    0    0    0  0.00000000000E+00  0.00000000000E+00  0.20000000000E+02  0.20000000000E+02  0.00000000000E+00 0.  1.
        -11   -1    0    0    0    0 -0.00000000000E+00 -0.00000000000E+00 -0.20000000000E+02  0.20000000000E+02  0.00000000000E+00 0. -1.
          5    1    1    2  501    0  0.17675650430E+02  0.19057113944E+01  0.78644545879E+01  0.20000000000E+02  0.47000000000E+01 0.  1.
         -5    1    1    2    0  501 -0.17675650430E+02 -0.19057113944E+01 -0.78644545879E+01  0.20000000000E+02  0.47000000000E+01 0. -1.
</event>
<event>
 4    1  0.5025809E-002  0.4000000E+02  0.7546771E-02  0.1348030E+00
         11   -1    0    0    0    0  0.00000000000E+00  0.00000000000E+00  0.20000000000E+02  0.20000000000E+02  0.00000000000E+00 0.  1.
        -11   -1    0    0    0    0 -0.00000000000E+00 -0.00000000000E+00 -0.20000000000E+02  0.20000000000E+02  0.00000000000E+00 0. -1.
          5    1    1    2  501    0  0.31907331170E+01  0.18868853604E+02 -0.34198809701E+01  0.20000000000E+02  0.47000000000E+01 0. -1.
         -5    1    1    2    0  501 -0.31907331170E+01 -0.18868853604E+02  0.34198809701E+01  0.20000000000E+02  0.47000000000E+01 0.  1.
</event>
<event>
 4    1  0.5025809E-002  0.4000000E+02  0.7546771E-02  0.1348030E+00
         11   -1    0    0    0    0  0.00000000000E+00  0.00000000000E+00  0.20000000000E+02  0.20000000000E+02  0.00000000000E+00 0.  1.
        -11   -1    0    0    0    0 -0.00000000000E+00 -0.00000000000E+00 -0.20000000000E+02  0.20000000000E+02  0.00000000000E+00 0. -1.
          5    1    1    2  501    0 -0.52734857238E+01  0.10867874170E+02 -0.15231206759E+02  0.20000000000E+02  0.47000000000E+01 0. -1.
         -5    1    1    2    0  501  0.52734857238E+01 -0.10867874170E+02  0.15231206759E+02  0.20000000000E+02  0.47000000000E+01 0.  1.
</event>
<event>
 4    1  0.5025809E-002  0.4000000E+02  0.7546771E-02  0.1348030E+00
         11   -1    0    0    0    0  0.00000000000E+00  0.00000000000E+00  0.20000000000E+02  0.20000000000E+02  0.00000000000E+00 0. -1.
        -11   -1    0    0    0    0 -0.00000000000E+00 -0.00000000000E+00 -0.20000000000E+02  0.20000000000E+02  0.00000000000E+00 0.  1.
          5    1    1    2  501    0  0.15462860102E+02  0.54400494287E+01  0.10450637286E+02  0.20000000000E+02  0.47000000000E+01 0.  1.
         -5    1    1    2    0  501 -0.15462860102E+02 -0.54400494287E+01 -0.10450637286E+02  0.20000000000E+02  0.47000000000E+01 0. -1.
</event>
<event>
 4    1  0.5025809E-002  0.4000000E+02  0.7546771E-02  0.1348030E+00
         11   -1    0    0    0    0  0.00000000000E+00  0.00000000000E+00  0.20000000000E+02  0.20000000000E+02  0.00000000000E+00 0.  1.
        -11   -1    0    0    0    0 -0.00000000000E+00 -0.00000000000E+00 -0.20000000000E+02  0.20000000000E+02  0.00000000000E+00 0. -1.
          5    1    1    2  501    0  0.12431169250E+01  0.18562221265E+01 -0.19311113374E+02  0.20000000000E+02  0.47000000000E+01 0. -1.
         -5    1    1    2    0  501 -0.12431169250E+01 -0.18562221265E+01  0.19311113374E+02  0.20000000000E+02  0.47000000000E+01 0.  1.
</event>
<event>
 4    1  0.5025809E-002  0.4000000E+02  0.7546771E-02  0.1348030E+00
         11   -1    0    0    0    0  0.00000000000E+00  0.00000000000E+00  0.20000000000E+02  0.20000000000E+02  0.00000000000E+00 0.  1.
        -11   -1    0    0    0    0 -0.00000000000E+00 -0.00000000000E+00 -0.20000000000E+02  0.20000000000E+02  0.00000000000E+00 0. -1.
          5    1    1    2  501    0  0.10390022999E+02  0.13827365362E+02  0.88747613613E+01  0.20000000000E+02  0.47000000000E+01 0.  1.
         -5    1    1    2    0  501 -0.10390022999E+02 -0.13827365362E+02 -0.88747613613E+01  0.20000000000E+02  0.47000000000E+01 0. -1.
</event>
<event>
 4    1  0.5025809E-002  0.4000000E+02  0.7546771E-02  0.1348030E+00
         11   -1    0    0    0    0  0.00000000000E+00  0.00000000000E+00  0.20000000000E+02  0.20000000000E+02  0.00000000000E+00 0.  1.
        -11   -1    0    0    0    0 -0.00000000000E+00 -0.00000000000E+00 -0.20000000000E+02  0.20000000000E+02  0.00000000000E+00 0. -1.
          5    1    1    2  501    0 -0.10264618329E+01  0.19407443235E+02 -0.45554714341E+00  0.20000000000E+02  0.47000000000E+01 0.  1.
         -5    1    1    2    0  501  0.10264618329E+01 -0.19407443235E+02  0.45554714341E+00  0.20000000000E+02  0.47000000000E+01 0. -1.
</event>
<event>
 4    1  0.5025809E-002  0.4000000E+02  0.7546771E-02  0.1348030E+00
         11   -1    0    0    0    0  0.00000000000E+00  0.00000000000E+00  0.20000000000E+02  0.20000000000E+02  0.00000000000E+00 0.  1.
        -11   -1    0    0    0    0 -0.00000000000E+00 -0.00000000000E+00 -0.20000000000E+02  0.20000000000E+02  0.00000000000E+00 0. -1.
          5    1    1    2  501    0  0.28420210990E+01 -0.17769432204E+02 -0.73539237980E+01  0.20000000000E+02  0.47000000000E+01 0. -1.
         -5    1    1    2    0  501 -0.28420210990E+01  0.17769432204E+02  0.73539237980E+01  0.20000000000E+02  0.47000000000E+01 0.  1.
</event>
<event>
 4    1  0.5025809E-002  0.4000000E+02  0.7546771E-02  0.1348030E+00
         11   -1    0    0    0    0  0.00000000000E+00  0.00000000000E+00  0.20000000000E+02  0.20000000000E+02  0.00000000000E+00 0. -1.
        -11   -1    0    0    0    0 -0.00000000000E+00 -0.00000000000E+00 -0.20000000000E+02  0.20000000000E+02  0.00000000000E+00 0.  1.
          5    1    1    2  501    0  0.38761711179E+01  0.35941833093E+01 -0.18707408794E+02  0.20000000000E+02  0.47000000000E+01 0.  1.
         -5    1    1    2    0  501 -0.38761711179E+01 -0.35941833093E+01  0.18707408794E+02  0.20000000000E+02  0.47000000000E+01 0. -1.
</event>
<event>
 4    1  0.5025809E-002  0.4000000E+02  0.7546771E-02  0.1348030E+00
         11   -1    0    0    0    0  0.00000000000E+00  0.00000000000E+00  0.20000000000E+02  0.20000000000E+02  0.00000000000E+00 0.  1.
        -11   -1    0    0    0    0 -0.00000000000E+00 -0.00000000000E+00 -0.20000000000E+02  0.20000000000E+02  0.00000000000E+00 0. -1.
          5    1    1    2  501    0 -0.17873538962E+02  0.57950864732E+01 -0.49863391121E+01  0.20000000000E+02  0.47000000000E+01 0.  1.
         -5    1    1    2    0  501  0.17873538962E+02 -0.57950864732E+01  0.49863391121E+01  0.20000000000E+02  0.47000000000E+01 0. -1.
</event>
<event>
 4    1  0.5025809E-002  0.4000000E+02  0.7546771E-02  0.1348030E+00
         11   -1    0    0    0    0  0.00000000000E+00  0.00000000000E+00  0.20000000000E+02  0.20000000000E+02  0.00000000000E+00 0.  1.
        -11   -1    0    0    0    0 -0.00000000000E+00 -0.00000000000E+00 -0.20000000000E+02  0.20000000000E+02  0.00000000000E+00 0. -1.
          5    1    1    2  501    0  0.14007461144E+01  0.18570216710E+02 -0.55762856504E+01  0.20000000000E+02  0.47000000000E+01 0. -1.
         -5    1    1    2    0  501 -0.14007461144E+01 -0.18570216710E+02  0.55762856504E+01  0.20000000000E+02  0.47000000000E+01 0.  1.
</event>
<event>
 4    1  0.5025809E-002  0.4000000E+02  0.7546771E-02  0.1348030E+00
         11   -1    0    0    0    0  0.00000000000E+00  0.00000000000E+00  0.20000000000E+02  0.20000000000E+02  0.00000000000E+00 0. -1.
        -11   -1    0    0    0    0 -0.00000000000E+00 -0.00000000000E+00 -0.20000000000E+02  0.20000000000E+02  0.00000000000E+00 0.  1.
          5    1    1    2  501    0  0.19107176489E+02 -0.26703267471E+01 -0.23864537911E+01  0.20000000000E+02  0.47000000000E+01 0. -1.
         -5    1    1    2    0  501 -0.19107176489E+02  0.26703267471E+01  0.23864537911E+01  0.20000000000E+02  0.47000000000E+01 0.  1.
</event>
<event>
 4    1  0.5025809E-002  0.4000000E+02  0.7546771E-02  0.1348030E+00
         11   -1    0    0    0    0  0.00000000000E+00  0.00000000000E+00  0.20000000000E+02  0.20000000000E+02  0.00000000000E+00 0.  1.
        -11   -1    0    0    0    0 -0.00000000000E+00 -0.00000000000E+00 -0.20000000000E+02  0.20000000000E+02  0.00000000000E+00 0. -1.
          5    1    1    2  501    0  0.15677200604E+02 -0.79612062025E+01 -0.82918379759E+01  0.20000000000E+02  0.47000000000E+01 0. -1.
         -5    1    1    2    0  501 -0.15677200604E+02  0.79612062025E+01  0.82918379759E+01  0.20000000000E+02  0.47000000000E+01 0.  1.
</event>
<event>
 4    1  0.5025809E-002  0.4000000E+02  0.7546771E-02  0.1348030E+00
         11   -1    0    0    0    0  0.00000000000E+00  0.00000000000E+00  0.20000000000E+02  0.20000000000E+02  0.00000000000E+00 0.  1.
        -11   -1    0    0    0    0 -0.00000000000E+00 -0.00000000000E+00 -0.20000000000E+02  0.20000000000E+02  0.00000000000E+00 0. -1.
          5    1    1    2  501    0  0.74679893380E+01  0.17063850449E+02 -0.55645433876E+01  0.20000000000E+02  0.47000000000E+01 0. -1.
         -5    1    1    2    0  501 -0.74679893380E+01 -0.17063850449E+02  0.55645433876E+01  0.20000000000E+02  0.47000000000E+01 0.  1.
</event>
<event>
 4    1  0.5025809E-002  0.4000000E+02  0.7546771E-02  0.1348030E+00
         11   -1    0    0    0    0  0.00000000000E+00  0.00000000000E+00  0.20000000000E+02  0.20000000000E+02  0.00000000000E+00 0. -1.
        -11   -1    0    0    0    0 -0.00000000000E+00 -0.00000000000E+00 -0.20000000000E+02  0.20000000000E+02  0.00000000000E+00 0.  1.
          5    1    1    2  501    0  0.51234320199E+01  0.11626554294E+02 -0.14713384369E+02  0.20000000000E+02  0.47000000000E+01 0.  1.
         -5    1    1    2    0  501 -0.51234320199E+01 -0.11626554294E+02  0.14713384369E+02  0.20000000000E+02  0.47000000000E+01 0. -1.
</event>
<event>
 4    1  0.5025809E-002  0.4000000E+02  0.7546771E-02  0.1348030E+00
         11   -1    0    0    0    0  0.00000000000E+00  0.00000000000E+00  0.20000000000E+02  0.20000000000E+02  0.00000000000E+00 0. -1.
        -11   -1    0    0    0    0 -0.00000000000E+00 -0.00000000000E+00 -0.20000000000E+02  0.20000000000E+02  0.00000000000E+00 0.  1.
          5    1    1    2  501    0  0.49959769156E+01 -0.27217622283E+01 -0.18588766098E+02  0.20000000000E+02  0.47000000000E+01 0.  1.
         -5    1    1    2    0  501 -0.49959769156E+01  0.27217622283E+01  0.18588766098E+02  0.20000000000E+02  0.47000000000E+01 0. -1.
</event>
<event>
 4    1  0.5025809E-002  0.4000000E+02  0.7546771E-02  0.1348030E+00
         11   -1    0    0    0    0  0.00000000000E+00  0.00000000000E+00  0.20000000000E+02  0.20000000000E+02  0.00000000000E+00 0. -1.
        -11   -1    0    0    0    0 -0.00000000000E+00 -0.00000000000E+00 -0.20000000000E+02  0.20000000000E+02  0.00000000000E+00 0.  1.
          5    1    1    2  501    0 -0.99781137034E+00 -0.16610344206E+02 -0.10050414809E+02  0.20000000000E+02  0.47000000000E+01 0.  1.
         -5    1    1    2    0  501  0.99781137034E+00  0.16610344206E+02  0.10050414809E+02  0.20000000000E+02  0.47000000000E+01 0. -1.
</event>
<event>
 4    1  0.5025809E-002  0.4000000E+02  0.7546771E-02  0.1348030E+00
         11   -1    0    0    0    0  0.00000000000E+00  0.00000000000E+00  0.20000000000E+02  0.20000000000E+02  0.00000000000E+00 0.  1.
        -11   -1    0    0    0    0 -0.00000000000E+00 -0.00000000000E+00 -0.20000000000E+02  0.20000000000E+02  0.00000000000E+00 0. -1.
          5    1    1    2  501    0  0.37817004287E+01 -0.10098773918E+02 -0.16174779974E+02  0.20000000000E+02  0.47000000000E+01 0. -1.
         -5    1    1    2    0  501 -0.37817004287E+01  0.10098773918E+02  0.16174779974E+02  0.20000000000E+02  0.47000000000E+01 0.  1.
</event>
<event>
 4    1  0.5025809E-002  0.4000000E+02  0.7546771E-02  0.1348030E+00
         11   -1    0    0    0    0  0.00000000000E+00  0.00000000000E+00  0.20000000000E+02  0.20000000000E+02  0.00000000000E+00 0.  1.
        -11   -1    0    0    0    0 -0.00000000000E+00 -0.00000000000E+00 -0.20000000000E+02  0.20000000000E+02  0.00000000000E+00 0. -1.
          5    1    1    2  501    0  0.12512808486E+02 -0.17063478060E+01 -0.14779309895E+02  0.20000000000E+02  0.47000000000E+01 0. -1.
         -5    1    1    2    0  501 -0.12512808486E+02  0.17063478060E+01  0.14779309895E+02  0.20000000000E+02  0.47000000000E+01 0.  1.
</event>
<event>
 4    1  0.5025809E-002  0.4000000E+02  0.7546771E-02  0.1348030E+00
         11   -1    0    0    0    0  0.00000000000E+00  0.00000000000E+00  0.20000000000E+02  0.20000000000E+02  0.00000000000E+00 0. -1.
        -11   -1    0    0    0    0 -0.00000000000E+00 -0.00000000000E+00 -0.20000000000E+02  0.20000000000E+02  0.00000000000E+00 0.  1.
          5    1    1    2  501    0 -0.18680727911E+02 -0.27032481676E+01 -0.46511132083E+01  0.20000000000E+02  0.47000000000E+01 0.  1.
         -5    1    1    2    0  501  0.18680727911E+02  0.27032481676E+01  0.46511132083E+01  0.20000000000E+02  0.47000000000E+01 0. -1.
</event>
<event>
 4    1  0.5025809E-002  0.4000000E+02  0.7546771E-02  0.1348030E+00
         11   -1    0    0    0    0  0.00000000000E+00  0.00000000000E+00  0.20000000000E+02  0.20000000000E+02  0.00000000000E+00 0. -1.
        -11   -1    0    0    0    0 -0.00000000000E+00 -0.00000000000E+00 -0.20000000000E+02  0.20000000000E+02  0.00000000000E+00 0.  1.
          5    1    1    2  501    0  0.14826004529E+01 -0.14460393605E+01  0.19329274846E+02  0.20000000000E+02  0.47000000000E+01 0. -1.
         -5    1    1    2    0  501 -0.14826004529E+01  0.14460393605E+01 -0.19329274846E+02  0.20000000000E+02  0.47000000000E+01 0.  1.
</event>
<event>
 4    1  0.5025809E-002  0.4000000E+02  0.7546771E-02  0.1348030E+00
         11   -1    0    0    0    0  0.00000000000E+00  0.00000000000E+00  0.20000000000E+02  0.20000000000E+02  0.00000000000E+00 0.  1.
        -11   -1    0    0    0    0 -0.00000000000E+00 -0.00000000000E+00 -0.20000000000E+02  0.20000000000E+02  0.00000000000E+00 0. -1.
          5    1    1    2  501    0  0.11974598598E+02  0.26093996178E+01 -0.15090063686E+02  0.20000000000E+02  0.47000000000E+01 0. -1.
         -5    1    1    2    0  501 -0.11974598598E+02 -0.26093996178E+01  0.15090063686E+02  0.20000000000E+02  0.47000000000E+01 0.  1.
</event>
<event>
 4    1  0.5025809E-002  0.4000000E+02  0.7546771E-02  0.1348030E+00
         11   -1    0    0    0    0  0.00000000000E+00  0.00000000000E+00  0.20000000000E+02  0.20000000000E+02  0.00000000000E+00 0.  1.
        -11   -1    0    0    0    0 -0.00000000000E+00 -0.00000000000E+00 -0.20000000000E+02  0.20000000000E+02  0.00000000000E+00 0. -1.
          5    1    1    2  501    0 -0.13889834581E+02 -0.11864013496E+02  0.66503893945E+01  0.20000000000E+02  0.47000000000E+01 0.  1.
         -5    1    1    2    0  501  0.13889834581E+02  0.11864013496E+02 -0.66503893945E+01  0.20000000000E+02  0.47000000000E+01 0. -1.
</event>
<event>
 4    1  0.5025809E-002  0.4000000E+02  0.7546771E-02  0.1348030E+00
         11   -1    0    0    0    0  0.00000000000E+00  0.00000000000E+00  0.20000000000E+02  0.20000000000E+02  0.00000000000E+00 0.  1.
        -11   -1    0    0    0    0 -0.00000000000E+00 -0.00000000000E+00 -0.20000000000E+02  0.20000000000E+02  0.00000000000E+00 0. -1.
          5    1    1    2  501    0  0.21482940803E+01 -0.12106945223E+01  0.19282869375E+02  0.20000000000E+02  0.47000000000E+01 0.  1.
         -5    1    1    2    0  501 -0.21482940803E+01  0.12106945223E+01 -0.19282869375E+02  0.20000000000E+02  0.47000000000E+01 0. -1.
</event>
<event>
 4    1  0.5025809E-002  0.4000000E+02  0.7546771E-02  0.1348030E+00
         11   -1    0    0    0    0  0.00000000000E+00  0.00000000000E+00  0.20000000000E+02  0.20000000000E+02  0.00000000000E+00 0. -1.
        -11   -1    0    0    0    0 -0.00000000000E+00 -0.00000000000E+00 -0.20000000000E+02  0.20000000000E+02  0.00000000000E+00 0.  1.
          5    1    1    2  501    0 -0.10497158030E+01 -0.15259772320E+02 -0.11997810028E+02  0.20000000000E+02  0.47000000000E+01 0.  1.
         -5    1    1    2    0  501  0.10497158030E+01  0.15259772320E+02  0.11997810028E+02  0.20000000000E+02  0.47000000000E+01 0. -1.
</event>
<event>
 4    1  0.5025809E-002  0.4000000E+02  0.7546771E-02  0.1348030E+00
         11   -1    0    0    0    0  0.00000000000E+00  0.00000000000E+00  0.20000000000E+02  0.20000000000E+02  0.00000000000E+00 0.  1.
        -11   -1    0    0    0    0 -0.00000000000E+00 -0.00000000000E+00 -0.20000000000E+02  0.20000000000E+02  0.00000000000E+00 0. -1.
          5    1    1    2  501    0  0.16959228793E+01  0.17482996286E+02 -0.83293869203E+01  0.20000000000E+02  0.47000000000E+01 0. -1.
         -5    1    1    2    0  501 -0.16959228793E+01 -0.17482996286E+02  0.83293869203E+01  0.20000000000E+02  0.47000000000E+01 0.  1.
</event>
<event>
 4    1  0.5025809E-002  0.4000000E+02  0.7546771E-02  0.1348030E+00
         11   -1    0    0    0    0  0.00000000000E+00  0.00000000000E+00  0.20000000000E+02  0.20000000000E+02  0.00000000000E+00 0.  1.
        -11   -1    0    0    0    0 -0.00000000000E+00 -0.00000000000E+00 -0.20000000000E+02  0.20000000000E+02  0.00000000000E+00 0. -1.
          5    1    1    2  501    0 -0.16482761326E+02  0.11240808493E+01 -0.10245243839E+02  0.20000000000E+02  0.47000000000E+01 0. -1.
         -5    1    1    2    0  501  0.16482761326E+02 -0.11240808493E+01  0.10245243839E+02  0.20000000000E+02  0.47000000000E+01 0.  1.
</event>
<event>
 4    1  0.5025809E-002  0.4000000E+02  0.7546771E-02  0.1348030E+00
         11   -1    0    0    0    0  0.00000000000E+00  0.00000000000E+00  0.20000000000E+02  0.20000000000E+02  0.00000000000E+00 0.  1.
        -11   -1    0    0    0    0 -0.00000000000E+00 -0.00000000000E+00 -0.20000000000E+02  0.20000000000E+02  0.00000000000E+00 0. -1.
          5    1    1    2  501    0  0.77783929585E+01 -0.16491793005E+02  0.67399826757E+01  0.20000000000E+02  0.47000000000E+01 0.  1.
         -5    1    1    2    0  501 -0.77783929585E+01  0.16491793005E+02 -0.67399826757E+01  0.20000000000E+02  0.47000000000E+01 0.  1.
</event>
<event>
 4    1  0.5025809E-002  0.4000000E+02  0.7546771E-02  0.1348030E+00
         11   -1    0    0    0    0  0.00000000000E+00  0.00000000000E+00  0.20000000000E+02  0.20000000000E+02  0.00000000000E+00 0.  1.
        -11   -1    0    0    0    0 -0.00000000000E+00 -0.00000000000E+00 -0.20000000000E+02  0.20000000000E+02  0.00000000000E+00 0. -1.
          5    1    1    2  501    0 -0.51907292199E+01  0.95170279625E+01 -0.16136682092E+02  0.20000000000E+02  0.47000000000E+01 0. -1.
         -5    1    1    2    0  501  0.51907292199E+01 -0.95170279625E+01  0.16136682092E+02  0.20000000000E+02  0.47000000000E+01 0.  1.
</event>
<event>
 4    1  0.5025809E-002  0.4000000E+02  0.7546771E-02  0.1348030E+00
         11   -1    0    0    0    0  0.00000000000E+00  0.00000000000E+00  0.20000000000E+02  0.20000000000E+02  0.00000000000E+00 0.  1.
        -11   -1    0    0    0    0 -0.00000000000E+00 -0.00000000000E+00 -0.20000000000E+02  0.20000000000E+02  0.00000000000E+00 0. -1.
          5    1    1    2  501    0  0.47350707494E+01  0.10649512572E+02  0.15558823444E+02  0.20000000000E+02  0.47000000000E+01 0.  1.
         -5    1    1    2    0  501 -0.47350707494E+01 -0.10649512572E+02 -0.15558823444E+02  0.20000000000E+02  0.47000000000E+01 0. -1.
</event>
<event>
 4    1  0.5025809E-002  0.4000000E+02  0.7546771E-02  0.1348030E+00
         11   -1    0    0    0    0  0.00000000000E+00  0.00000000000E+00  0.20000000000E+02  0.20000000000E+02  0.00000000000E+00 0. -1.
        -11   -1    0    0    0    0 -0.00000000000E+00 -0.00000000000E+00 -0.20000000000E+02  0.20000000000E+02  0.00000000000E+00 0.  1.
          5    1    1    2  501    0 -0.91323191618E+01 -0.14937188542E+01 -0.17096185268E+02  0.20000000000E+02  0.47000000000E+01 0.  1.
         -5    1    1    2    0  501  0.91323191618E+01  0.14937188542E+01  0.17096185268E+02  0.20000000000E+02  0.47000000000E+01 0. -1.
</event>
<event>
 4    1  0.5025809E-002  0.4000000E+02  0.7546771E-02  0.1348030E+00
         11   -1    0    0    0    0  0.00000000000E+00  0.00000000000E+00  0.20000000000E+02  0.20000000000E+02  0.00000000000E+00 0.  1.
        -11   -1    0    0    0    0 -0.00000000000E+00 -0.00000000000E+00 -0.20000000000E+02  0.20000000000E+02  0.00000000000E+00 0. -1.
          5    1    1    2  501    0 -0.77251244886E+01  0.98302144505E+01 -0.14886212933E+02  0.20000000000E+02  0.47000000000E+01 0. -1.
         -5    1    1    2    0  501  0.77251244886E+01 -0.98302144505E+01  0.14886212933E+02  0.20000000000E+02  0.47000000000E+01 0.  1.
</event>
<event>
 4    1  0.5025809E-002  0.4000000E+02  0.7546771E-02  0.1348030E+00
         11   -1    0    0    0    0  0.00000000000E+00  0.00000000000E+00  0.20000000000E+02  0.20000000000E+02  0.00000000000E+00 0.  1.
        -11   -1    0    0    0    0 -0.00000000000E+00 -0.00000000000E+00 -0.20000000000E+02  0.20000000000E+02  0.00000000000E+00 0. -1.
          5    1    1    2  501    0  0.28772630028E+01 -0.35905488555E+01 -0.18887543952E+02  0.20000000000E+02  0.47000000000E+01 0. -1.
         -5    1    1    2    0  501 -0.28772630028E+01  0.35905488555E+01  0.18887543952E+02  0.20000000000E+02  0.47000000000E+01 0.  1.
</event>
<event>
 4    1  0.5025809E-002  0.4000000E+02  0.7546771E-02  0.1348030E+00
         11   -1    0    0    0    0  0.00000000000E+00  0.00000000000E+00  0.20000000000E+02  0.20000000000E+02  0.00000000000E+00 0.  1.
        -11   -1    0    0    0    0 -0.00000000000E+00 -0.00000000000E+00 -0.20000000000E+02  0.20000000000E+02  0.00000000000E+00 0. -1.
          5    1    1    2  501    0  0.10697425228E+02 -0.14390870872E+02 -0.75085237589E+01  0.20000000000E+02  0.47000000000E+01 0. -1.
         -5    1    1    2    0  501 -0.10697425228E+02  0.14390870872E+02  0.75085237589E+01  0.20000000000E+02  0.47000000000E+01 0.  1.
</event>
<event>
 4    1  0.5025809E-002  0.4000000E+02  0.7546771E-02  0.1348030E+00
         11   -1    0    0    0    0  0.00000000000E+00  0.00000000000E+00  0.20000000000E+02  0.20000000000E+02  0.00000000000E+00 0. -1.
        -11   -1    0    0    0    0 -0.00000000000E+00 -0.00000000000E+00 -0.20000000000E+02  0.20000000000E+02  0.00000000000E+00 0.  1.
          5    1    1    2  501    0  0.65628419876E+01 -0.69317220292E+01  0.16934885142E+02  0.20000000000E+02  0.47000000000E+01 0. -1.
         -5    1    1    2    0  501 -0.65628419876E+01  0.69317220292E+01 -0.16934885142E+02  0.20000000000E+02  0.47000000000E+01 0.  1.
</event>
<event>
 4    1  0.5025809E-002  0.4000000E+02  0.7546771E-02  0.1348030E+00
         11   -1    0    0    0    0  0.00000000000E+00  0.00000000000E+00  0.20000000000E+02  0.20000000000E+02  0.00000000000E+00 0.  1.
        -11   -1    0    0    0    0 -0.00000000000E+00 -0.00000000000E+00 -0.20000000000E+02  0.20000000000E+02  0.00000000000E+00 0. -1.
          5    1    1    2  501    0  0.82366443285E+01  0.49067595418E+01 -0.16911280289E+02  0.20000000000E+02  0.47000000000E+01 0. -1.
         -5    1    1    2    0  501 -0.82366443285E+01 -0.49067595418E+01  0.16911280289E+02  0.20000000000E+02  0.47000000000E+01 0.  1.
</event>
<event>
 4    1  0.5025809E-002  0.4000000E+02  0.7546771E-02  0.1348030E+00
         11   -1    0    0    0    0  0.00000000000E+00  0.00000000000E+00  0.20000000000E+02  0.20000000000E+02  0.00000000000E+00 0.  1.
        -11   -1    0    0    0    0 -0.00000000000E+00 -0.00000000000E+00 -0.20000000000E+02  0.20000000000E+02  0.00000000000E+00 0. -1.
          5    1    1    2  501    0 -0.18394752972E+02 -0.42223473740E+01 -0.46599190731E+01  0.20000000000E+02  0.47000000000E+01 0. -1.
         -5    1    1    2    0  501  0.18394752972E+02  0.42223473740E+01  0.46599190731E+01  0.20000000000E+02  0.47000000000E+01 0.  1.
</event>
<event>
 4    1  0.5025809E-002  0.4000000E+02  0.7546771E-02  0.1348030E+00
         11   -1    0    0    0    0  0.00000000000E+00  0.00000000000E+00  0.20000000000E+02  0.20000000000E+02  0.00000000000E+00 0. -1.
        -11   -1    0    0    0    0 -0.00000000000E+00 -0.00000000000E+00 -0.20000000000E+02  0.20000000000E+02  0.00000000000E+00 0.  1.
          5    1    1    2  501    0 -0.10246559378E+02  0.15756538667E+02 -0.49648273054E+01  0.20000000000E+02  0.47000000000E+01 0. -1.
         -5    1    1    2    0  501  0.10246559378E+02 -0.15756538667E+02  0.49648273054E+01  0.20000000000E+02  0.47000000000E+01 0.  1.
</event>
<event>
 4    1  0.5025809E-002  0.4000000E+02  0.7546771E-02  0.1348030E+00
         11   -1    0    0    0    0  0.00000000000E+00  0.00000000000E+00  0.20000000000E+02  0.20000000000E+02  0.00000000000E+00 0. -1.
        -11   -1    0    0    0    0 -0.00000000000E+00 -0.00000000000E+00 -0.20000000000E+02  0.20000000000E+02  0.00000000000E+00 0.  1.
          5    1    1    2  501    0 -0.16785411265E+02 -0.24848721312E+01  0.94860623628E+01  0.20000000000E+02  0.47000000000E+01 0.  1.
         -5    1    1    2    0  501  0.16785411265E+02  0.24848721312E+01 -0.94860623628E+01  0.20000000000E+02  0.47000000000E+01 0. -1.
</event>
<event>
 4    1  0.5025809E-002  0.4000000E+02  0.7546771E-02  0.1348030E+00
         11   -1    0    0    0    0  0.00000000000E+00  0.00000000000E+00  0.20000000000E+02  0.20000000000E+02  0.00000000000E+00 0.  1.
        -11   -1    0    0    0    0 -0.00000000000E+00 -0.00000000000E+00 -0.20000000000E+02  0.20000000000E+02  0.00000000000E+00 0. -1.
          5    1    1    2  501    0 -0.24662270869E+01 -0.12827148953E+02  0.14397637782E+02  0.20000000000E+02  0.47000000000E+01 0.  1.
         -5    1    1    2    0  501  0.24662270869E+01  0.12827148953E+02 -0.14397637782E+02  0.20000000000E+02  0.47000000000E+01 0. -1.
</event>
<event>
 4    1  0.5025809E-002  0.4000000E+02  0.7546771E-02  0.1348030E+00
         11   -1    0    0    0    0  0.00000000000E+00  0.00000000000E+00  0.20000000000E+02  0.20000000000E+02  0.00000000000E+00 0.  1.
        -11   -1    0    0    0    0 -0.00000000000E+00 -0.00000000000E+00 -0.20000000000E+02  0.20000000000E+02  0.00000000000E+00 0. -1.
          5    1    1    2  501    0  0.24660831336E+01  0.10056063422E+02 -0.16453085499E+02  0.20000000000E+02  0.47000000000E+01 0. -1.
         -5    1    1    2    0  501 -0.24660831336E+01 -0.10056063422E+02  0.16453085499E+02  0.20000000000E+02  0.47000000000E+01 0.  1.
</event>
<event>
 4    1  0.5025809E-002  0.4000000E+02  0.7546771E-02  0.1348030E+00
         11   -1    0    0    0    0  0.00000000000E+00  0.00000000000E+00  0.20000000000E+02  0.20000000000E+02  0.00000000000E+00 0.  1.
        -11   -1    0    0    0    0 -0.00000000000E+00 -0.00000000000E+00 -0.20000000000E+02  0.20000000000E+02  0.00000000000E+00 0. -1.
          5    1    1    2  501    0  0.14387297449E+02 -0.61062523295E+01 -0.11559816374E+02  0.20000000000E+02  0.47000000000E+01 0. -1.
         -5    1    1    2    0  501 -0.14387297449E+02  0.61062523295E+01  0.11559816374E+02  0.20000000000E+02  0.47000000000E+01 0.  1.
</event>
<event>
 4    1  0.5025809E-002  0.4000000E+02  0.7546771E-02  0.1348030E+00
         11   -1    0    0    0    0  0.00000000000E+00  0.00000000000E+00  0.20000000000E+02  0.20000000000E+02  0.00000000000E+00 0.  1.
        -11   -1    0    0    0    0 -0.00000000000E+00 -0.00000000000E+00 -0.20000000000E+02  0.20000000000E+02  0.00000000000E+00 0. -1.
          5    1    1    2  501    0 -0.25997646753E+01 -0.78857855062E+01 -0.17577417631E+02  0.20000000000E+02  0.47000000000E+01 0. -1.
         -5    1    1    2    0  501  0.25997646753E+01  0.78857855062E+01  0.17577417631E+02  0.20000000000E+02  0.47000000000E+01 0.  1.
</event>
<event>
 4    1  0.5025809E-002  0.4000000E+02  0.7546771E-02  0.1348030E+00
         11   -1    0    0    0    0  0.00000000000E+00  0.00000000000E+00  0.20000000000E+02  0.20000000000E+02  0.00000000000E+00 0.  1.
        -11   -1    0    0    0    0 -0.00000000000E+00 -0.00000000000E+00 -0.20000000000E+02  0.20000000000E+02  0.00000000000E+00 0. -1.
          5    1    1    2  501    0 -0.60408996174E+01 -0.15584886003E+02 -0.99261704639E+01  0.20000000000E+02  0.47000000000E+01 0. -1.
         -5    1    1    2    0  501  0.60408996174E+01  0.15584886003E+02  0.99261704639E+01  0.20000000000E+02  0.47000000000E+01 0.  1.
</event>
<event>
 4    1  0.5025809E-002  0.4000000E+02  0.7546771E-02  0.1348030E+00
         11   -1    0    0    0    0  0.00000000000E+00  0.00000000000E+00  0.20000000000E+02  0.20000000000E+02  0.00000000000E+00 0.  1.
        -11   -1    0    0    0    0 -0.00000000000E+00 -0.00000000000E+00 -0.20000000000E+02  0.20000000000E+02  0.00000000000E+00 0. -1.
          5    1    1    2  501    0 -0.67168352396E+01 -0.41919439014E+01  0.17754484805E+02  0.20000000000E+02  0.47000000000E+01 0.  1.
         -5    1    1    2    0  501  0.67168352396E+01  0.41919439014E+01 -0.17754484805E+02  0.20000000000E+02  0.47000000000E+01 0. -1.
</event>
<event>
 4    1  0.5025809E-002  0.4000000E+02  0.7546771E-02  0.1348030E+00
         11   -1    0    0    0    0  0.00000000000E+00  0.00000000000E+00  0.20000000000E+02  0.20000000000E+02  0.00000000000E+00 0.  1.
        -11   -1    0    0    0    0 -0.00000000000E+00 -0.00000000000E+00 -0.20000000000E+02  0.20000000000E+02  0.00000000000E+00 0. -1.
          5    1    1    2  501    0 -0.33217086028E+01  0.18388165267E+02  0.53620546510E+01  0.20000000000E+02  0.47000000000E+01 0.  1.
         -5    1    1    2    0  501  0.33217086028E+01 -0.18388165267E+02 -0.53620546510E+01  0.20000000000E+02  0.47000000000E+01 0. -1.
</event>
<event>
 4    1  0.5025809E-002  0.4000000E+02  0.7546771E-02  0.1348030E+00
         11   -1    0    0    0    0  0.00000000000E+00  0.00000000000E+00  0.20000000000E+02  0.20000000000E+02  0.00000000000E+00 0.  1.
        -11   -1    0    0    0    0 -0.00000000000E+00 -0.00000000000E+00 -0.20000000000E+02  0.20000000000E+02  0.00000000000E+00 0. -1.
          5    1    1    2  501    0 -0.11136181339E+02 -0.89513669987E+00 -0.15908934454E+02  0.20000000000E+02  0.47000000000E+01 0. -1.
         -5    1    1    2    0  501  0.11136181339E+02  0.89513669987E+00  0.15908934454E+02  0.20000000000E+02  0.47000000000E+01 0.  1.
</event>
<event>
 4    1  0.5025809E-002  0.4000000E+02  0.7546771E-02  0.1348030E+00
         11   -1    0    0    0    0  0.00000000000E+00  0.00000000000E+00  0.20000000000E+02  0.20000000000E+02  0.00000000000E+00 0.  1.
        -11   -1    0    0    0    0 -0.00000000000E+00 -0.00000000000E+00 -0.20000000000E+02  0.20000000000E+02  0.00000000000E+00 0. -1.
          5    1    1    2  501    0  0.14460953203E+02 -0.75746486604E+01 -0.10555355519E+02  0.20000000000E+02  0.47000000000E+01 0. -1.
         -5    1    1    2    0  501 -0.14460953203E+02  0.75746486604E+01  0.10555355519E+02  0.20000000000E+02  0.47000000000E+01 0.  1.
</event>
<event>
 4    1  0.5025809E-002  0.4000000E+02  0.7546771E-02  0.1348030E+00
         11   -1    0    0    0    0  0.00000000000E+00  0.00000000000E+00  0.20000000000E+02  0.20000000000E+02  0.00000000000E+00 0.  1.
        -11   -1    0    0    0    0 -0.00000000000E+00 -0.00000000000E+00 -0.20000000000E+02  0.20000000000E+02  0.00000000000E+00 0. -1.
          5    1    1    2  501    0 -0.13444445552E+02  0.89271260485E+01  0.10838048917E+02  0.20000000000E+02  0.47000000000E+01 0. -1.
         -5    1    1    2    0  501  0.13444445552E+02 -0.89271260485E+01 -0.10838048917E+02  0.20000000000E+02  0.47000000000E+01 0.  1.
</event>
<event>
 4    1  0.5025809E-002  0.4000000E+02  0.7546771E-02  0.1348030E+00
         11   -1    0    0    0    0  0.00000000000E+00  0.00000000000E+00  0.20000000000E+02  0.20000000000E+02  0.00000000000E+00 0.  1.
        -11   -1    0    0    0    0 -0.00000000000E+00 -0.00000000000E+00 -0.20000000000E+02  0.20000000000E+02  0.00000000000E+00 0. -1.
          5    1    1    2  501    0  0.43967767392E+01  0.95472932237E+01 -0.16353212113E+02  0.20000000000E+02  0.47000000000E+01 0. -1.
         -5    1    1    2    0  501 -0.43967767392E+01 -0.95472932237E+01  0.16353212113E+02  0.20000000000E+02  0.47000000000E+01 0.  1.
</event>
<event>
 4    1  0.5025809E-002  0.4000000E+02  0.7546771E-02  0.1348030E+00
         11   -1    0    0    0    0  0.00000000000E+00  0.00000000000E+00  0.20000000000E+02  0.20000000000E+02  0.00000000000E+00 0.  1.
        -11   -1    0    0    0    0 -0.00000000000E+00 -0.00000000000E+00 -0.20000000000E+02  0.20000000000E+02  0.00000000000E+00 0. -1.
          5    1    1    2  501    0  0.21592883089E+00  0.86398659649E+01 -0.17413101127E+02  0.20000000000E+02  0.47000000000E+01 0. -1.
         -5    1    1    2    0  501 -0.21592883089E+00 -0.86398659649E+01  0.17413101127E+02  0.20000000000E+02  0.47000000000E+01 0.  1.
</event>
<event>
 4    1  0.5025809E-002  0.4000000E+02  0.7546771E-02  0.1348030E+00
         11   -1    0    0    0    0  0.00000000000E+00  0.00000000000E+00  0.20000000000E+02  0.20000000000E+02  0.00000000000E+00 0.  1.
        -11   -1    0    0    0    0 -0.00000000000E+00 -0.00000000000E+00 -0.20000000000E+02  0.20000000000E+02  0.00000000000E+00 0. -1.
          5    1    1    2  501    0  0.85044721382E+01  0.11123402423E+02  0.13485320618E+02  0.20000000000E+02  0.47000000000E+01 0.  1.
         -5    1    1    2    0  501 -0.85044721382E+01 -0.11123402423E+02 -0.13485320618E+02  0.20000000000E+02  0.47000000000E+01 0. -1.
</event>
<event>
 4    1  0.5025809E-002  0.4000000E+02  0.7546771E-02  0.1348030E+00
         11   -1    0    0    0    0  0.00000000000E+00  0.00000000000E+00  0.20000000000E+02  0.20000000000E+02  0.00000000000E+00 0.  1.
        -11   -1    0    0    0    0 -0.00000000000E+00 -0.00000000000E+00 -0.20000000000E+02  0.20000000000E+02  0.00000000000E+00 0. -1.
          5    1    1    2  501    0 -0.17192029059E+01 -0.15614205576E+02 -0.11452114460E+02  0.20000000000E+02  0.47000000000E+01 0. -1.
         -5    1    1    2    0  501  0.17192029059E+01  0.15614205576E+02  0.11452114460E+02  0.20000000000E+02  0.47000000000E+01 0.  1.
</event>
<event>
 4    1  0.5025809E-002  0.4000000E+02  0.7546771E-02  0.1348030E+00
         11   -1    0    0    0    0  0.00000000000E+00  0.00000000000E+00  0.20000000000E+02  0.20000000000E+02  0.00000000000E+00 0.  1.
        -11   -1    0    0    0    0 -0.00000000000E+00 -0.00000000000E+00 -0.20000000000E+02  0.20000000000E+02  0.00000000000E+00 0. -1.
          5    1    1    2  501    0 -0.40344413481E+01 -0.18454026353E+02 -0.45915350764E+01  0.20000000000E+02  0.47000000000E+01 0. -1.
         -5    1    1    2    0  501  0.40344413481E+01  0.18454026353E+02  0.45915350764E+01  0.20000000000E+02  0.47000000000E+01 0.  1.
</event>
<event>
 4    1  0.5025809E-002  0.4000000E+02  0.7546771E-02  0.1348030E+00
         11   -1    0    0    0    0  0.00000000000E+00  0.00000000000E+00  0.20000000000E+02  0.20000000000E+02  0.00000000000E+00 0.  1.
        -11   -1    0    0    0    0 -0.00000000000E+00 -0.00000000000E+00 -0.20000000000E+02  0.20000000000E+02  0.00000000000E+00 0. -1.
          5    1    1    2  501    0 -0.11615212647E+02 -0.14646414528E+02  0.53366072205E+01  0.20000000000E+02  0.47000000000E+01 0. -1.
         -5    1    1    2    0  501  0.11615212647E+02  0.14646414528E+02 -0.53366072205E+01  0.20000000000E+02  0.47000000000E+01 0.  1.
</event>
<event>
 4    1  0.5025809E-002  0.4000000E+02  0.7546771E-02  0.1348030E+00
         11   -1    0    0    0    0  0.00000000000E+00  0.00000000000E+00  0.20000000000E+02  0.20000000000E+02  0.00000000000E+00 0.  1.
        -11   -1    0    0    0    0 -0.00000000000E+00 -0.00000000000E+00 -0.20000000000E+02  0.20000000000E+02  0.00000000000E+00 0. -1.
          5    1    1    2  501    0  0.92787858584E+01  0.15537920195E+01 -0.17011756622E+02  0.20000000000E+02  0.47000000000E+01 0. -1.
         -5    1    1    2    0  501 -0.92787858584E+01 -0.15537920195E+01  0.17011756622E+02  0.20000000000E+02  0.47000000000E+01 0.  1.
</event>
<event>
 4    1  0.5025809E-002  0.4000000E+02  0.7546771E-02  0.1348030E+00
         11   -1    0    0    0    0  0.00000000000E+00  0.00000000000E+00  0.20000000000E+02  0.20000000000E+02  0.00000000000E+00 0.  1.
        -11   -1    0    0    0    0 -0.00000000000E+00 -0.00000000000E+00 -0.20000000000E+02  0.20000000000E+02  0.00000000000E+00 0. -1.
          5    1    1    2  501    0 -0.62331524903E+01 -0.11363896279E+02 -0.14488604881E+02  0.20000000000E+02  0.47000000000E+01 0. -1.
         -5    1    1    2    0  501  0.62331524903E+01  0.11363896279E+02  0.14488604881E+02  0.20000000000E+02  0.47000000000E+01 0.  1.
</event>
<event>
 4    1  0.5025809E-002  0.4000000E+02  0.7546771E-02  0.1348030E+00
         11   -1    0    0    0    0  0.00000000000E+00  0.00000000000E+00  0.20000000000E+02  0.20000000000E+02  0.00000000000E+00 0.  1.
        -11   -1    0    0    0    0 -0.00000000000E+00 -0.00000000000E+00 -0.20000000000E+02  0.20000000000E+02  0.00000000000E+00 0. -1.
          5    1    1    2  501    0 -0.23690194993E+01 -0.13587558627E+02  0.13699488938E+02  0.20000000000E+02  0.47000000000E+01 0.  1.
         -5    1    1    2    0  501  0.23690194993E+01  0.13587558627E+02 -0.13699488938E+02  0.20000000000E+02  0.47000000000E+01 0. -1.
</event>
<event>
 4    1  0.5025809E-002  0.4000000E+02  0.7546771E-02  0.1348030E+00
         11   -1    0    0    0    0  0.00000000000E+00  0.00000000000E+00  0.20000000000E+02  0.20000000000E+02  0.00000000000E+00 0.  1.
        -11   -1    0    0    0    0 -0.00000000000E+00 -0.00000000000E+00 -0.20000000000E+02  0.20000000000E+02  0.00000000000E+00 0. -1.
          5    1    1    2  501    0  0.11709889313E+02 -0.50065315448E+01 -0.14687516269E+02  0.20000000000E+02  0.47000000000E+01 0. -1.
         -5    1    1    2    0  501 -0.11709889313E+02  0.50065315448E+01  0.14687516269E+02  0.20000000000E+02  0.47000000000E+01 0.  1.
</event>
<event>
 4    1  0.5025809E-002  0.4000000E+02  0.7546771E-02  0.1348030E+00
         11   -1    0    0    0    0  0.00000000000E+00  0.00000000000E+00  0.20000000000E+02  0.20000000000E+02  0.00000000000E+00 0. -1.
        -11   -1    0    0    0    0 -0.00000000000E+00 -0.00000000000E+00 -0.20000000000E+02  0.20000000000E+02  0.00000000000E+00 0.  1.
          5    1    1    2  501    0  0.11179452290E+01  0.62058710528E+01 -0.18388783618E+02  0.20000000000E+02  0.47000000000E+01 0.  1.
         -5    1    1    2    0  501 -0.11179452290E+01 -0.62058710528E+01  0.18388783618E+02  0.20000000000E+02  0.47000000000E+01 0. -1.
</event>
<event>
 4    1  0.5025809E-002  0.4000000E+02  0.7546771E-02  0.1348030E+00
         11   -1    0    0    0    0  0.00000000000E+00  0.00000000000E+00  0.20000000000E+02  0.20000000000E+02  0.00000000000E+00 0.  1.
        -11   -1    0    0    0    0 -0.00000000000E+00 -0.00000000000E+00 -0.20000000000E+02  0.20000000000E+02  0.00000000000E+00 0. -1.
          5    1    1    2  501    0 -0.77399194878E+01  0.12659543398E+02 -0.12559442953E+02  0.20000000000E+02  0.47000000000E+01 0. -1.
         -5    1    1    2    0  501  0.77399194878E+01 -0.12659543398E+02  0.12559442953E+02  0.20000000000E+02  0.47000000000E+01 0.  1.
</event>
<event>
 4    1  0.5025809E-002  0.4000000E+02  0.7546771E-02  0.1348030E+00
         11   -1    0    0    0    0  0.00000000000E+00  0.00000000000E+00  0.20000000000E+02  0.20000000000E+02  0.00000000000E+00 0.  1.
        -11   -1    0    0    0    0 -0.00000000000E+00 -0.00000000000E+00 -0.20000000000E+02  0.20000000000E+02  0.00000000000E+00 0. -1.
          5    1    1    2  501    0  0.18012069317E+02  0.37246816886E+00  0.73031928899E+01  0.20000000000E+02  0.47000000000E+01 0. -1.
         -5    1    1    2    0  501 -0.18012069317E+02 -0.37246816886E+00 -0.73031928899E+01  0.20000000000E+02  0.47000000000E+01 0. -1.
</event>
<event>
 4    1  0.5025809E-002  0.4000000E+02  0.7546771E-02  0.1348030E+00
         11   -1    0    0    0    0  0.00000000000E+00  0.00000000000E+00  0.20000000000E+02  0.20000000000E+02  0.00000000000E+00 0.  1.
        -11   -1    0    0    0    0 -0.00000000000E+00 -0.00000000000E+00 -0.20000000000E+02  0.20000000000E+02  0.00000000000E+00 0. -1.
          5    1    1    2  501    0 -0.98560043786E+01 -0.16717247185E+02 -0.11414132638E+01  0.20000000000E+02  0.47000000000E+01 0. -1.
         -5    1    1    2    0  501  0.98560043786E+01  0.16717247185E+02  0.11414132638E+01  0.20000000000E+02  0.47000000000E+01 0.  1.
</event>
<event>
 4    1  0.5025809E-002  0.4000000E+02  0.7546771E-02  0.1348030E+00
         11   -1    0    0    0    0  0.00000000000E+00  0.00000000000E+00  0.20000000000E+02  0.20000000000E+02  0.00000000000E+00 0.  1.
        -11   -1    0    0    0    0 -0.00000000000E+00 -0.00000000000E+00 -0.20000000000E+02  0.20000000000E+02  0.00000000000E+00 0. -1.
          5    1    1    2  501    0 -0.95368239814E+01  0.26274638052E+01 -0.16734856507E+02  0.20000000000E+02  0.47000000000E+01 0. -1.
         -5    1    1    2    0  501  0.95368239814E+01 -0.26274638052E+01  0.16734856507E+02  0.20000000000E+02  0.47000000000E+01 0.  1.
</event>
<event>
 4    1  0.5025809E-002  0.4000000E+02  0.7546771E-02  0.1348030E+00
         11   -1    0    0    0    0  0.00000000000E+00  0.00000000000E+00  0.20000000000E+02  0.20000000000E+02  0.00000000000E+00 0. -1.
        -11   -1    0    0    0    0 -0.00000000000E+00 -0.00000000000E+00 -0.20000000000E+02  0.20000000000E+02  0.00000000000E+00 0.  1.
          5    1    1    2  501    0  0.20411242694E+00 -0.91419338970E+00 -0.19417327019E+02  0.20000000000E+02  0.47000000000E+01 0.  1.
         -5    1    1    2    0  501 -0.20411242694E+00  0.91419338970E+00  0.19417327019E+02  0.20000000000E+02  0.47000000000E+01 0. -1.
</event>
<event>
 4    1  0.5025809E-002  0.4000000E+02  0.7546771E-02  0.1348030E+00
         11   -1    0    0    0    0  0.00000000000E+00  0.00000000000E+00  0.20000000000E+02  0.20000000000E+02  0.00000000000E+00 0. -1.
        -11   -1    0    0    0    0 -0.00000000000E+00 -0.00000000000E+00 -0.20000000000E+02  0.20000000000E+02  0.00000000000E+00 0.  1.
          5    1    1    2  501    0  0.14876708631E+02  0.97528748942E+01  0.78405976558E+01  0.20000000000E+02  0.47000000000E+01 0.  1.
         -5    1    1    2    0  501 -0.14876708631E+02 -0.97528748942E+01 -0.78405976558E+01  0.20000000000E+02  0.47000000000E+01 0. -1.
</event>
<event>
 4    1  0.5025809E-002  0.4000000E+02  0.7546771E-02  0.1348030E+00
         11   -1    0    0    0    0  0.00000000000E+00  0.00000000000E+00  0.20000000000E+02  0.20000000000E+02  0.00000000000E+00 0.  1.
        -11   -1    0    0    0    0 -0.00000000000E+00 -0.00000000000E+00 -0.20000000000E+02  0.20000000000E+02  0.00000000000E+00 0. -1.
          5    1    1    2  501    0 -0.18617408157E+01  0.11678628346E+02  0.15428984448E+02  0.20000000000E+02  0.47000000000E+01 0.  1.
         -5    1    1    2    0  501  0.18617408157E+01 -0.11678628346E+02 -0.15428984448E+02  0.20000000000E+02  0.47000000000E+01 0. -1.
</event>
<event>
 4    1  0.5025809E-002  0.4000000E+02  0.7546771E-02  0.1348030E+00
         11   -1    0    0    0    0  0.00000000000E+00  0.00000000000E+00  0.20000000000E+02  0.20000000000E+02  0.00000000000E+00 0.  1.
        -11   -1    0    0    0    0 -0.00000000000E+00 -0.00000000000E+00 -0.20000000000E+02  0.20000000000E+02  0.00000000000E+00 0. -1.
          5    1    1    2  501    0  0.90447588710E+01  0.81887118201E+01 -0.15134309885E+02  0.20000000000E+02  0.47000000000E+01 0. -1.
         -5    1    1    2    0  501 -0.90447588710E+01 -0.81887118201E+01  0.15134309885E+02  0.20000000000E+02  0.47000000000E+01 0.  1.
</event>
<event>
 4    1  0.5025809E-002  0.4000000E+02  0.7546771E-02  0.1348030E+00
         11   -1    0    0    0    0  0.00000000000E+00  0.00000000000E+00  0.20000000000E+02  0.20000000000E+02  0.00000000000E+00 0.  1.
        -11   -1    0    0    0    0 -0.00000000000E+00 -0.00000000000E+00 -0.20000000000E+02  0.20000000000E+02  0.00000000000E+00 0. -1.
          5    1    1    2  501    0 -0.13860133485E+02 -0.94830405440E+01  0.97917639785E+01  0.20000000000E+02  0.47000000000E+01 0.  1.
         -5    1    1    2    0  501  0.13860133485E+02  0.94830405440E+01 -0.97917639785E+01  0.20000000000E+02  0.47000000000E+01 0. -1.
</event>
<event>
 4    1  0.5025809E-002  0.4000000E+02  0.7546771E-02  0.1348030E+00
         11   -1    0    0    0    0  0.00000000000E+00  0.00000000000E+00  0.20000000000E+02  0.20000000000E+02  0.00000000000E+00 0.  1.
        -11   -1    0    0    0    0 -0.00000000000E+00 -0.00000000000E+00 -0.20000000000E+02  0.20000000000E+02  0.00000000000E+00 0. -1.
          5    1    1    2  501    0  0.72492982129E+01 -0.14092496219E+02 -0.11258739971E+02  0.20000000000E+02  0.47000000000E+01 0. -1.
         -5    1    1    2    0  501 -0.72492982129E+01  0.14092496219E+02  0.11258739971E+02  0.20000000000E+02  0.47000000000E+01 0.  1.
</event>
<event>
 4    1  0.5025809E-002  0.4000000E+02  0.7546771E-02  0.1348030E+00
         11   -1    0    0    0    0  0.00000000000E+00  0.00000000000E+00  0.20000000000E+02  0.20000000000E+02  0.00000000000E+00 0.  1.
        -11   -1    0    0    0    0 -0.00000000000E+00 -0.00000000000E+00 -0.20000000000E+02  0.20000000000E+02  0.00000000000E+00 0. -1.
          5    1    1    2  501    0  0.15820518322E+02  0.82893438215E+01  0.76751533562E+01  0.20000000000E+02  0.47000000000E+01 0.  1.
         -5    1    1    2    0  501 -0.15820518322E+02 -0.82893438215E+01 -0.76751533562E+01  0.20000000000E+02  0.47000000000E+01 0. -1.
</event>
<event>
 4    1  0.5025809E-002  0.4000000E+02  0.7546771E-02  0.1348030E+00
         11   -1    0    0    0    0  0.00000000000E+00  0.00000000000E+00  0.20000000000E+02  0.20000000000E+02  0.00000000000E+00 0.  1.
        -11   -1    0    0    0    0 -0.00000000000E+00 -0.00000000000E+00 -0.20000000000E+02  0.20000000000E+02  0.00000000000E+00 0. -1.
          5    1    1    2  501    0 -0.14377073933E+02  0.98692468290E+01  0.85911414925E+01  0.20000000000E+02  0.47000000000E+01 0.  1.
         -5    1    1    2    0  501  0.14377073933E+02 -0.98692468290E+01 -0.85911414925E+01  0.20000000000E+02  0.47000000000E+01 0. -1.
</event>
<event>
 4    1  0.5025809E-002  0.4000000E+02  0.7546771E-02  0.1348030E+00
         11   -1    0    0    0    0  0.00000000000E+00  0.00000000000E+00  0.20000000000E+02  0.20000000000E+02  0.00000000000E+00 0.  1.
        -11   -1    0    0    0    0 -0.00000000000E+00 -0.00000000000E+00 -0.20000000000E+02  0.20000000000E+02  0.00000000000E+00 0. -1.
          5    1    1    2  501    0  0.14497055477E+02 -0.48737388010E+01  0.11999668853E+02  0.20000000000E+02  0.47000000000E+01 0.  1.
         -5    1    1    2    0  501 -0.14497055477E+02  0.48737388010E+01 -0.11999668853E+02  0.20000000000E+02  0.47000000000E+01 0. -1.
</event>
<event>
 4    1  0.5025809E-002  0.4000000E+02  0.7546771E-02  0.1348030E+00
         11   -1    0    0    0    0  0.00000000000E+00  0.00000000000E+00  0.20000000000E+02  0.20000000000E+02  0.00000000000E+00 0. -1.
        -11   -1    0    0    0    0 -0.00000000000E+00 -0.00000000000E+00 -0.20000000000E+02  0.20000000000E+02  0.00000000000E+00 0.  1.
          5    1    1    2  501    0 -0.82601011155E+01  0.76551265870E+01 -0.15845496726E+02  0.20000000000E+02  0.47000000000E+01 0.  1.
         -5    1    1    2    0  501  0.82601011155E+01 -0.76551265870E+01  0.15845496726E+02  0.20000000000E+02  0.47000000000E+01 0. -1.
</event>
<event>
 4    1  0.5025809E-002  0.4000000E+02  0.7546771E-02  0.1348030E+00
         11   -1    0    0    0    0  0.00000000000E+00  0.00000000000E+00  0.20000000000E+02  0.20000000000E+02  0.00000000000E+00 0.  1.
        -11   -1    0    0    0    0 -0.00000000000E+00 -0.00000000000E+00 -0.20000000000E+02  0.20000000000E+02  0.00000000000E+00 0. -1.
          5    1    1    2  501    0  0.10175930193E+02  0.75174150720E+01  0.14759705801E+02  0.20000000000E+02  0.47000000000E+01 0.  1.
         -5    1    1    2    0  501 -0.10175930193E+02 -0.75174150720E+01 -0.14759705801E+02  0.20000000000E+02  0.47000000000E+01 0. -1.
</event>
<event>
 4    1  0.5025809E-002  0.4000000E+02  0.7546771E-02  0.1348030E+00
         11   -1    0    0    0    0  0.00000000000E+00  0.00000000000E+00  0.20000000000E+02  0.20000000000E+02  0.00000000000E+00 0. -1.
        -11   -1    0    0    0    0 -0.00000000000E+00 -0.00000000000E+00 -0.20000000000E+02  0.20000000000E+02  0.00000000000E+00 0.  1.
          5    1    1    2  501    0 -0.14044650492E+02  0.12508505533E+02 -0.49188496519E+01  0.20000000000E+02  0.47000000000E+01 0.  1.
         -5    1    1    2    0  501  0.14044650492E+02 -0.12508505533E+02  0.49188496519E+01  0.20000000000E+02  0.47000000000E+01 0. -1.
</event>
<event>
 4    1  0.5025809E-002  0.4000000E+02  0.7546771E-02  0.1348030E+00
         11   -1    0    0    0    0  0.00000000000E+00  0.00000000000E+00  0.20000000000E+02  0.20000000000E+02  0.00000000000E+00 0. -1.
        -11   -1    0    0    0    0 -0.00000000000E+00 -0.00000000000E+00 -0.20000000000E+02  0.20000000000E+02  0.00000000000E+00 0.  1.
          5    1    1    2  501    0 -0.33207156975E+01 -0.10576809660E+02 -0.15969156041E+02  0.20000000000E+02  0.47000000000E+01 0.  1.
         -5    1    1    2    0  501  0.33207156975E+01  0.10576809660E+02  0.15969156041E+02  0.20000000000E+02  0.47000000000E+01 0. -1.
</event>
<event>
 4    1  0.5025809E-002  0.4000000E+02  0.7546771E-02  0.1348030E+00
         11   -1    0    0    0    0  0.00000000000E+00  0.00000000000E+00  0.20000000000E+02  0.20000000000E+02  0.00000000000E+00 0.  1.
        -11   -1    0    0    0    0 -0.00000000000E+00 -0.00000000000E+00 -0.20000000000E+02  0.20000000000E+02  0.00000000000E+00 0. -1.
          5    1    1    2  501    0 -0.17417581231E+02 -0.82581119958E+01  0.25182236483E+01  0.20000000000E+02  0.47000000000E+01 0. -1.
         -5    1    1    2    0  501  0.17417581231E+02  0.82581119958E+01 -0.25182236483E+01  0.20000000000E+02  0.47000000000E+01 0.  1.
</event>
<event>
 4    1  0.5025809E-002  0.4000000E+02  0.7546771E-02  0.1348030E+00
         11   -1    0    0    0    0  0.00000000000E+00  0.00000000000E+00  0.20000000000E+02  0.20000000000E+02  0.00000000000E+00 0.  1.
        -11   -1    0    0    0    0 -0.00000000000E+00 -0.00000000000E+00 -0.20000000000E+02  0.20000000000E+02  0.00000000000E+00 0. -1.
          5    1    1    2  501    0  0.12873683558E+02  0.76537739243E+01  0.12393466680E+02  0.20000000000E+02  0.47000000000E+01 0.  1.
         -5    1    1    2    0  501 -0.12873683558E+02 -0.76537739243E+01 -0.12393466680E+02  0.20000000000E+02  0.47000000000E+01 0. -1.
</event>
<event>
 4    1  0.5025809E-002  0.4000000E+02  0.7546771E-02  0.1348030E+00
         11   -1    0    0    0    0  0.00000000000E+00  0.00000000000E+00  0.20000000000E+02  0.20000000000E+02  0.00000000000E+00 0. -1.
        -11   -1    0    0    0    0 -0.00000000000E+00 -0.00000000000E+00 -0.20000000000E+02  0.20000000000E+02  0.00000000000E+00 0.  1.
          5    1    1    2  501    0  0.16743447973E+02  0.90335199790E+01  0.39953055926E+01  0.20000000000E+02  0.47000000000E+01 0.  1.
         -5    1    1    2    0  501 -0.16743447973E+02 -0.90335199790E+01 -0.39953055926E+01  0.20000000000E+02  0.47000000000E+01 0. -1.
</event>
<event>
 4    1  0.5025809E-002  0.4000000E+02  0.7546771E-02  0.1348030E+00
         11   -1    0    0    0    0  0.00000000000E+00  0.00000000000E+00  0.20000000000E+02  0.20000000000E+02  0.00000000000E+00 0.  1.
        -11   -1    0    0    0    0 -0.00000000000E+00 -0.00000000000E+00 -0.20000000000E+02  0.20000000000E+02  0.00000000000E+00 0. -1.
          5    1    1    2  501    0 -0.48644923657E+01  0.89975944958E+01  0.16531485333E+02  0.20000000000E+02  0.47000000000E+01 0.  1.
         -5    1    1    2    0  501  0.48644923657E+01 -0.89975944958E+01 -0.16531485333E+02  0.20000000000E+02  0.47000000000E+01 0. -1.
</event>
<event>
 4    1  0.5025809E-002  0.4000000E+02  0.7546771E-02  0.1348030E+00
         11   -1    0    0    0    0  0.00000000000E+00  0.00000000000E+00  0.20000000000E+02  0.20000000000E+02  0.00000000000E+00 0. -1.
        -11   -1    0    0    0    0 -0.00000000000E+00 -0.00000000000E+00 -0.20000000000E+02  0.20000000000E+02  0.00000000000E+00 0.  1.
          5    1    1    2  501    0  0.13870509174E+02  0.13585743951E+02  0.97290110838E+00  0.20000000000E+02  0.47000000000E+01 0.  1.
         -5    1    1    2    0  501 -0.13870509174E+02 -0.13585743951E+02 -0.97290110838E+00  0.20000000000E+02  0.47000000000E+01 0. -1.
</event>
<event>
 4    1  0.5025809E-002  0.4000000E+02  0.7546771E-02  0.1348030E+00
         11   -1    0    0    0    0  0.00000000000E+00  0.00000000000E+00  0.20000000000E+02  0.20000000000E+02  0.00000000000E+00 0. -1.
        -11   -1    0    0    0    0 -0.00000000000E+00 -0.00000000000E+00 -0.20000000000E+02  0.20000000000E+02  0.00000000000E+00 0.  1.
          5    1    1    2  501    0 -0.12210202938E+02 -0.14798376133E+02 -0.31351248873E+01  0.20000000000E+02  0.47000000000E+01 0.  1.
         -5    1    1    2    0  501  0.12210202938E+02  0.14798376133E+02  0.31351248873E+01  0.20000000000E+02  0.47000000000E+01 0. -1.
</event>
<event>
 4    1  0.5025809E-002  0.4000000E+02  0.7546771E-02  0.1348030E+00
         11   -1    0    0    0    0  0.00000000000E+00  0.00000000000E+00  0.20000000000E+02  0.20000000000E+02  0.00000000000E+00 0.  1.
        -11   -1    0    0    0    0 -0.00000000000E+00 -0.00000000000E+00 -0.20000000000E+02  0.20000000000E+02  0.00000000000E+00 0. -1.
          5    1    1    2  501    0 -0.48588124093E+01  0.15727997268E+02  0.10340795129E+02  0.20000000000E+02  0.47000000000E+01 0.  1.
         -5    1    1    2    0  501  0.48588124093E+01 -0.15727997268E+02 -0.10340795129E+02  0.20000000000E+02  0.47000000000E+01 0. -1.
</event>
<event>
 4    1  0.5025809E-002  0.4000000E+02  0.7546771E-02  0.1348030E+00
         11   -1    0    0    0    0  0.00000000000E+00  0.00000000000E+00  0.20000000000E+02  0.20000000000E+02  0.00000000000E+00 0.  1.
        -11   -1    0    0    0    0 -0.00000000000E+00 -0.00000000000E+00 -0.20000000000E+02  0.20000000000E+02  0.00000000000E+00 0. -1.
          5    1    1    2  501    0 -0.12605605132E+02 -0.16332180803E+01 -0.14708545746E+02  0.20000000000E+02  0.47000000000E+01 0. -1.
         -5    1    1    2    0  501  0.12605605132E+02  0.16332180803E+01  0.14708545746E+02  0.20000000000E+02  0.47000000000E+01 0.  1.
</event>
<event>
 4    1  0.5025809E-002  0.4000000E+02  0.7546771E-02  0.1348030E+00
         11   -1    0    0    0    0  0.00000000000E+00  0.00000000000E+00  0.20000000000E+02  0.20000000000E+02  0.00000000000E+00 0.  1.
        -11   -1    0    0    0    0 -0.00000000000E+00 -0.00000000000E+00 -0.20000000000E+02  0.20000000000E+02  0.00000000000E+00 0. -1.
          5    1    1    2  501    0 -0.23627646108E+01 -0.14130171799E+02  0.13140227865E+02  0.20000000000E+02  0.47000000000E+01 0.  1.
         -5    1    1    2    0  501  0.23627646108E+01  0.14130171799E+02 -0.13140227865E+02  0.20000000000E+02  0.47000000000E+01 0. -1.
</event>
<event>
 4    1  0.5025809E-002  0.4000000E+02  0.7546771E-02  0.1348030E+00
         11   -1    0    0    0    0  0.00000000000E+00  0.00000000000E+00  0.20000000000E+02  0.20000000000E+02  0.00000000000E+00 0. -1.
        -11   -1    0    0    0    0 -0.00000000000E+00 -0.00000000000E+00 -0.20000000000E+02  0.20000000000E+02  0.00000000000E+00 0.  1.
          5    1    1    2  501    0  0.90751032448E+01  0.12848327095E+02 -0.11422477487E+02  0.20000000000E+02  0.47000000000E+01 0.  1.
         -5    1    1    2    0  501 -0.90751032448E+01 -0.12848327095E+02  0.11422477487E+02  0.20000000000E+02  0.47000000000E+01 0. -1.
</event>
<event>
 4    1  0.5025809E-002  0.4000000E+02  0.7546771E-02  0.1348030E+00
         11   -1    0    0    0    0  0.00000000000E+00  0.00000000000E+00  0.20000000000E+02  0.20000000000E+02  0.00000000000E+00 0.  1.
        -11   -1    0    0    0    0 -0.00000000000E+00 -0.00000000000E+00 -0.20000000000E+02  0.20000000000E+02  0.00000000000E+00 0. -1.
          5    1    1    2  501    0 -0.14106915063E+02  0.82284701043E+01 -0.10545009586E+02  0.20000000000E+02  0.47000000000E+01 0.  1.
         -5    1    1    2    0  501  0.14106915063E+02 -0.82284701043E+01  0.10545009586E+02  0.20000000000E+02  0.47000000000E+01 0. -1.
</event>
<event>
 4    1  0.5025809E-002  0.4000000E+02  0.7546771E-02  0.1348030E+00
         11   -1    0    0    0    0  0.00000000000E+00  0.00000000000E+00  0.20000000000E+02  0.20000000000E+02  0.00000000000E+00 0.  1.
        -11   -1    0    0    0    0 -0.00000000000E+00 -0.00000000000E+00 -0.20000000000E+02  0.20000000000E+02  0.00000000000E+00 0. -1.
          5    1    1    2  501    0 -0.95504924139E+01  0.55839277646E+01 -0.15984925567E+02  0.20000000000E+02  0.47000000000E+01 0. -1.
         -5    1    1    2    0  501  0.95504924139E+01 -0.55839277646E+01  0.15984925567E+02  0.20000000000E+02  0.47000000000E+01 0.  1.
</event>
<event>
 4    1  0.5025809E-002  0.4000000E+02  0.7546771E-02  0.1348030E+00
         11   -1    0    0    0    0  0.00000000000E+00  0.00000000000E+00  0.20000000000E+02  0.20000000000E+02  0.00000000000E+00 0.  1.
        -11   -1    0    0    0    0 -0.00000000000E+00 -0.00000000000E+00 -0.20000000000E+02  0.20000000000E+02  0.00000000000E+00 0. -1.
          5    1    1    2  501    0 -0.38276346424E+00 -0.13686527735E+02 -0.13800088793E+02  0.20000000000E+02  0.47000000000E+01 0. -1.
         -5    1    1    2    0  501  0.38276346424E+00  0.13686527735E+02  0.13800088793E+02  0.20000000000E+02  0.47000000000E+01 0.  1.
</event>
<event>
 4    1  0.5025809E-002  0.4000000E+02  0.7546771E-02  0.1348030E+00
         11   -1    0    0    0    0  0.00000000000E+00  0.00000000000E+00  0.20000000000E+02  0.20000000000E+02  0.00000000000E+00 0.  1.
        -11   -1    0    0    0    0 -0.00000000000E+00 -0.00000000000E+00 -0.20000000000E+02  0.20000000000E+02  0.00000000000E+00 0. -1.
          5    1    1    2  501    0  0.57313868682E+01 -0.13766643529E+02 -0.12471596951E+02  0.20000000000E+02  0.47000000000E+01 0. -1.
         -5    1    1    2    0  501 -0.57313868682E+01  0.13766643529E+02  0.12471596951E+02  0.20000000000E+02  0.47000000000E+01 0.  1.
</event>
<event>
 4    1  0.5025809E-002  0.4000000E+02  0.7546771E-02  0.1348030E+00
         11   -1    0    0    0    0  0.00000000000E+00  0.00000000000E+00  0.20000000000E+02  0.20000000000E+02  0.00000000000E+00 0.  1.
        -11   -1    0    0    0    0 -0.00000000000E+00 -0.00000000000E+00 -0.20000000000E+02  0.20000000000E+02  0.00000000000E+00 0. -1.
          5    1    1    2  501    0 -0.30630984389E+01  0.35573423116E+00  0.19193771935E+02  0.20000000000E+02  0.47000000000E+01 0.  1.
         -5    1    1    2    0  501  0.30630984389E+01 -0.35573423116E+00 -0.19193771935E+02  0.20000000000E+02  0.47000000000E+01 0. -1.
</event>
<event>
 4    1  0.5025809E-002  0.4000000E+02  0.7546771E-02  0.1348030E+00
         11   -1    0    0    0    0  0.00000000000E+00  0.00000000000E+00  0.20000000000E+02  0.20000000000E+02  0.00000000000E+00 0.  1.
        -11   -1    0    0    0    0 -0.00000000000E+00 -0.00000000000E+00 -0.20000000000E+02  0.20000000000E+02  0.00000000000E+00 0. -1.
          5    1    1    2  501    0 -0.81996813565E+01 -0.12467364310E+02 -0.12459536621E+02  0.20000000000E+02  0.47000000000E+01 0. -1.
         -5    1    1    2    0  501  0.81996813565E+01  0.12467364310E+02  0.12459536621E+02  0.20000000000E+02  0.47000000000E+01 0.  1.
</event>
<event>
 4    1  0.5025809E-002  0.4000000E+02  0.7546771E-02  0.1348030E+00
         11   -1    0    0    0    0  0.00000000000E+00  0.00000000000E+00  0.20000000000E+02  0.20000000000E+02  0.00000000000E+00 0. -1.
        -11   -1    0    0    0    0 -0.00000000000E+00 -0.00000000000E+00 -0.20000000000E+02  0.20000000000E+02  0.00000000000E+00 0.  1.
          5    1    1    2  501    0  0.59421263407E+00 -0.66901942082E+01  0.18242757818E+02  0.20000000000E+02  0.47000000000E+01 0. -1.
         -5    1    1    2    0  501 -0.59421263407E+00  0.66901942082E+01 -0.18242757818E+02  0.20000000000E+02  0.47000000000E+01 0.  1.
</event>
<event>
 4    1  0.5025809E-002  0.4000000E+02  0.7546771E-02  0.1348030E+00
         11   -1    0    0    0    0  0.00000000000E+00  0.00000000000E+00  0.20000000000E+02  0.20000000000E+02  0.00000000000E+00 0. -1.
        -11   -1    0    0    0    0 -0.00000000000E+00 -0.00000000000E+00 -0.20000000000E+02  0.20000000000E+02  0.00000000000E+00 0.  1.
          5    1    1    2  501    0 -0.33385219127E+01  0.83460034871E+00 -0.19132896114E+02  0.20000000000E+02  0.47000000000E+01 0.  1.
         -5    1    1    2    0  501  0.33385219127E+01 -0.83460034871E+00  0.19132896114E+02  0.20000000000E+02  0.47000000000E+01 0. -1.
</event>
<event>
 4    1  0.5025809E-002  0.4000000E+02  0.7546771E-02  0.1348030E+00
         11   -1    0    0    0    0  0.00000000000E+00  0.00000000000E+00  0.20000000000E+02  0.20000000000E+02  0.00000000000E+00 0.  1.
        -11   -1    0    0    0    0 -0.00000000000E+00 -0.00000000000E+00 -0.20000000000E+02  0.20000000000E+02  0.00000000000E+00 0. -1.
          5    1    1    2  501    0 -0.15922459086E+01 -0.63395009607E+00 -0.19364215973E+02  0.20000000000E+02  0.47000000000E+01 0. -1.
         -5    1    1    2    0  501  0.15922459086E+01  0.63395009607E+00  0.19364215973E+02  0.20000000000E+02  0.47000000000E+01 0.  1.
</event>
<event>
 4    1  0.5025809E-002  0.4000000E+02  0.7546771E-02  0.1348030E+00
         11   -1    0    0    0    0  0.00000000000E+00  0.00000000000E+00  0.20000000000E+02  0.20000000000E+02  0.00000000000E+00 0.  1.
        -11   -1    0    0    0    0 -0.00000000000E+00 -0.00000000000E+00 -0.20000000000E+02  0.20000000000E+02  0.00000000000E+00 0. -1.
          5    1    1    2  501    0  0.11879985747E+02 -0.80932373272E+01  0.13087224618E+02  0.20000000000E+02  0.47000000000E+01 0.  1.
         -5    1    1    2    0  501 -0.11879985747E+02  0.80932373272E+01 -0.13087224618E+02  0.20000000000E+02  0.47000000000E+01 0.  1.
</event>
<event>
 4    1  0.5025809E-002  0.4000000E+02  0.7546771E-02  0.1348030E+00
         11   -1    0    0    0    0  0.00000000000E+00  0.00000000000E+00  0.20000000000E+02  0.20000000000E+02  0.00000000000E+00 0. -1.
        -11   -1    0    0    0    0 -0.00000000000E+00 -0.00000000000E+00 -0.20000000000E+02  0.20000000000E+02  0.00000000000E+00 0.  1.
          5    1    1    2  501    0 -0.55378596179E-01  0.93488855658E+00 -0.19417335466E+02  0.20000000000E+02  0.47000000000E+01 0.  1.
         -5    1    1    2    0  501  0.55378596179E-01 -0.93488855658E+00  0.19417335466E+02  0.20000000000E+02  0.47000000000E+01 0. -1.
</event>
<event>
 4    1  0.5025809E-002  0.4000000E+02  0.7546771E-02  0.1348030E+00
         11   -1    0    0    0    0  0.00000000000E+00  0.00000000000E+00  0.20000000000E+02  0.20000000000E+02  0.00000000000E+00 0.  1.
        -11   -1    0    0    0    0 -0.00000000000E+00 -0.00000000000E+00 -0.20000000000E+02  0.20000000000E+02  0.00000000000E+00 0. -1.
          5    1    1    2  501    0  0.34528645685E+01 -0.21157667716E+01 -0.19013449378E+02  0.20000000000E+02  0.47000000000E+01 0. -1.
         -5    1    1    2    0  501 -0.34528645685E+01  0.21157667716E+01  0.19013449378E+02  0.20000000000E+02  0.47000000000E+01 0.  1.
</event>
<event>
 4    1  0.5025809E-002  0.4000000E+02  0.7546771E-02  0.1348030E+00
         11   -1    0    0    0    0  0.00000000000E+00  0.00000000000E+00  0.20000000000E+02  0.20000000000E+02  0.00000000000E+00 0. -1.
        -11   -1    0    0    0    0 -0.00000000000E+00 -0.00000000000E+00 -0.20000000000E+02  0.20000000000E+02  0.00000000000E+00 0.  1.
          5    1    1    2  501    0  0.62637465921E+01 -0.86112083718E+01 -0.16264149809E+02  0.20000000000E+02  0.47000000000E+01 0.  1.
         -5    1    1    2    0  501 -0.62637465921E+01  0.86112083718E+01  0.16264149809E+02  0.20000000000E+02  0.47000000000E+01 0. -1.
</event>
<event>
 4    1  0.5025809E-002  0.4000000E+02  0.7546771E-02  0.1348030E+00
         11   -1    0    0    0    0  0.00000000000E+00  0.00000000000E+00  0.20000000000E+02  0.20000000000E+02  0.00000000000E+00 0. -1.
        -11   -1    0    0    0    0 -0.00000000000E+00 -0.00000000000E+00 -0.20000000000E+02  0.20000000000E+02  0.00000000000E+00 0.  1.
          5    1    1    2  501    0  0.10837250176E+02 -0.46286719038E+01  0.15460899231E+02  0.20000000000E+02  0.47000000000E+01 0. -1.
         -5    1    1    2    0  501 -0.10837250176E+02  0.46286719038E+01 -0.15460899231E+02  0.20000000000E+02  0.47000000000E+01 0.  1.
</event>
<event>
 4    1  0.5025809E-002  0.4000000E+02  0.7546771E-02  0.1348030E+00
         11   -1    0    0    0    0  0.00000000000E+00  0.00000000000E+00  0.20000000000E+02  0.20000000000E+02  0.00000000000E+00 0.  1.
        -11   -1    0    0    0    0 -0.00000000000E+00 -0.00000000000E+00 -0.20000000000E+02  0.20000000000E+02  0.00000000000E+00 0. -1.
          5    1    1    2  501    0  0.31696202181E+01  0.13038665492E+02  0.14066154765E+02  0.20000000000E+02  0.47000000000E+01 0.  1.
         -5    1    1    2    0  501 -0.31696202181E+01 -0.13038665492E+02 -0.14066154765E+02  0.20000000000E+02  0.47000000000E+01 0. -1.
</event>
<event>
 4    1  0.5025809E-002  0.4000000E+02  0.7546771E-02  0.1348030E+00
         11   -1    0    0    0    0  0.00000000000E+00  0.00000000000E+00  0.20000000000E+02  0.20000000000E+02  0.00000000000E+00 0.  1.
        -11   -1    0    0    0    0 -0.00000000000E+00 -0.00000000000E+00 -0.20000000000E+02  0.20000000000E+02  0.00000000000E+00 0. -1.
          5    1    1    2  501    0 -0.51783551622E+01 -0.17095093654E+02  0.76715324927E+01  0.20000000000E+02  0.47000000000E+01 0.  1.
         -5    1    1    2    0  501  0.51783551622E+01  0.17095093654E+02 -0.76715324927E+01  0.20000000000E+02  0.47000000000E+01 0. -1.
</event>
<event>
 4    1  0.5025809E-002  0.4000000E+02  0.7546771E-02  0.1348030E+00
         11   -1    0    0    0    0  0.00000000000E+00  0.00000000000E+00  0.20000000000E+02  0.20000000000E+02  0.00000000000E+00 0.  1.
        -11   -1    0    0    0    0 -0.00000000000E+00 -0.00000000000E+00 -0.20000000000E+02  0.20000000000E+02  0.00000000000E+00 0. -1.
          5    1    1    2  501    0 -0.30788096931E+01 -0.17514561073E+02  0.78530937396E+01  0.20000000000E+02  0.47000000000E+01 0.  1.
         -5    1    1    2    0  501  0.30788096931E+01  0.17514561073E+02 -0.78530937396E+01  0.20000000000E+02  0.47000000000E+01 0. -1.
</event>
<event>
 4    1  0.5025809E-002  0.4000000E+02  0.7546771E-02  0.1348030E+00
         11   -1    0    0    0    0  0.00000000000E+00  0.00000000000E+00  0.20000000000E+02  0.20000000000E+02  0.00000000000E+00 0. -1.
        -11   -1    0    0    0    0 -0.00000000000E+00 -0.00000000000E+00 -0.20000000000E+02  0.20000000000E+02  0.00000000000E+00 0.  1.
          5    1    1    2  501    0  0.58959383722E+01 -0.10764955597E+01  0.18492946440E+02  0.20000000000E+02  0.47000000000E+01 0. -1.
         -5    1    1    2    0  501 -0.58959383722E+01  0.10764955597E+01 -0.18492946440E+02  0.20000000000E+02  0.47000000000E+01 0.  1.
</event>
<event>
 4    1  0.5025809E-002  0.4000000E+02  0.7546771E-02  0.1348030E+00
         11   -1    0    0    0    0  0.00000000000E+00  0.00000000000E+00  0.20000000000E+02  0.20000000000E+02  0.00000000000E+00 0. -1.
        -11   -1    0    0    0    0 -0.00000000000E+00 -0.00000000000E+00 -0.20000000000E+02  0.20000000000E+02  0.00000000000E+00 0.  1.
          5    1    1    2  501    0 -0.12782484729E+02 -0.10467317702E+01 -0.14608984796E+02  0.20000000000E+02  0.47000000000E+01 0.  1.
         -5    1    1    2    0  501  0.12782484729E+02  0.10467317702E+01  0.14608984796E+02  0.20000000000E+02  0.47000000000E+01 0. -1.
</event>
<event>
 4    1  0.5025809E-002  0.4000000E+02  0.7546771E-02  0.1348030E+00
         11   -1    0    0    0    0  0.00000000000E+00  0.00000000000E+00  0.20000000000E+02  0.20000000000E+02  0.00000000000E+00 0.  1.
        -11   -1    0    0    0    0 -0.00000000000E+00 -0.00000000000E+00 -0.20000000000E+02  0.20000000000E+02  0.00000000000E+00 0. -1.
          5    1    1    2  501    0  0.60969659992E+01  0.52677221477E+00 -0.18451545102E+02  0.20000000000E+02  0.47000000000E+01 0. -1.
         -5    1    1    2    0  501 -0.60969659992E+01 -0.52677221477E+00  0.18451545102E+02  0.20000000000E+02  0.47000000000E+01 0.  1.
</event>
<event>
 4    1  0.5025809E-002  0.4000000E+02  0.7546771E-02  0.1348030E+00
         11   -1    0    0    0    0  0.00000000000E+00  0.00000000000E+00  0.20000000000E+02  0.20000000000E+02  0.00000000000E+00 0.  1.
        -11   -1    0    0    0    0 -0.00000000000E+00 -0.00000000000E+00 -0.20000000000E+02  0.20000000000E+02  0.00000000000E+00 0. -1.
          5    1    1    2  501    0 -0.93082733529E+00  0.19405880450E+02 -0.67480696846E+00  0.20000000000E+02  0.47000000000E+01 0. -1.
         -5    1    1    2    0  501  0.93082733529E+00 -0.19405880450E+02  0.67480696846E+00  0.20000000000E+02  0.47000000000E+01 0.  1.
</event>
<event>
 4    1  0.5025809E-002  0.4000000E+02  0.7546771E-02  0.1348030E+00
         11   -1    0    0    0    0  0.00000000000E+00  0.00000000000E+00  0.20000000000E+02  0.20000000000E+02  0.00000000000E+00 0.  1.
        -11   -1    0    0    0    0 -0.00000000000E+00 -0.00000000000E+00 -0.20000000000E+02  0.20000000000E+02  0.00000000000E+00 0. -1.
          5    1    1    2  501    0  0.76823545331E+01  0.49981545618E+01  0.17143800040E+02  0.20000000000E+02  0.47000000000E+01 0.  1.
         -5    1    1    2    0  501 -0.76823545331E+01 -0.49981545618E+01 -0.17143800040E+02  0.20000000000E+02  0.47000000000E+01 0. -1.
</event>
<event>
 4    1  0.5025809E-002  0.4000000E+02  0.7546771E-02  0.1348030E+00
         11   -1    0    0    0    0  0.00000000000E+00  0.00000000000E+00  0.20000000000E+02  0.20000000000E+02  0.00000000000E+00 0.  1.
        -11   -1    0    0    0    0 -0.00000000000E+00 -0.00000000000E+00 -0.20000000000E+02  0.20000000000E+02  0.00000000000E+00 0. -1.
          5    1    1    2  501    0 -0.16499840168E+02 -0.77837644378E+01 -0.67140364628E+01  0.20000000000E+02  0.47000000000E+01 0. -1.
         -5    1    1    2    0  501  0.16499840168E+02  0.77837644378E+01  0.67140364628E+01  0.20000000000E+02  0.47000000000E+01 0.  1.
</event>
<event>
 4    1  0.5025809E-002  0.4000000E+02  0.7546771E-02  0.1348030E+00
         11   -1    0    0    0    0  0.00000000000E+00  0.00000000000E+00  0.20000000000E+02  0.20000000000E+02  0.00000000000E+00 0.  1.
        -11   -1    0    0    0    0 -0.00000000000E+00 -0.00000000000E+00 -0.20000000000E+02  0.20000000000E+02  0.00000000000E+00 0. -1.
          5    1    1    2  501    0  0.19747853550E+01 -0.16354657708E+02  0.10321598425E+02  0.20000000000E+02  0.47000000000E+01 0.  1.
         -5    1    1    2    0  501 -0.19747853550E+01  0.16354657708E+02 -0.10321598425E+02  0.20000000000E+02  0.47000000000E+01 0. -1.
</event>
<event>
 4    1  0.5025809E-002  0.4000000E+02  0.7546771E-02  0.1348030E+00
         11   -1    0    0    0    0  0.00000000000E+00  0.00000000000E+00  0.20000000000E+02  0.20000000000E+02  0.00000000000E+00 0.  1.
        -11   -1    0    0    0    0 -0.00000000000E+00 -0.00000000000E+00 -0.20000000000E+02  0.20000000000E+02  0.00000000000E+00 0. -1.
          5    1    1    2  501    0  0.35518668188E+01  0.37873380864E+01 -0.18733667882E+02  0.20000000000E+02  0.47000000000E+01 0. -1.
         -5    1    1    2    0  501 -0.35518668188E+01 -0.37873380864E+01  0.18733667882E+02  0.20000000000E+02  0.47000000000E+01 0.  1.
</event>
<event>
 4    1  0.5025809E-002  0.4000000E+02  0.7546771E-02  0.1348030E+00
         11   -1    0    0    0    0  0.00000000000E+00  0.00000000000E+00  0.20000000000E+02  0.20000000000E+02  0.00000000000E+00 0. -1.
        -11   -1    0    0    0    0 -0.00000000000E+00 -0.00000000000E+00 -0.20000000000E+02  0.20000000000E+02  0.00000000000E+00 0.  1.
          5    1    1    2  501    0 -0.17711888308E+02  0.66361364295E+01  0.44900674658E+01  0.20000000000E+02  0.47000000000E+01 0.  1.
         -5    1    1    2    0  501  0.17711888308E+02 -0.66361364295E+01 -0.44900674658E+01  0.20000000000E+02  0.47000000000E+01 0. -1.
</event>
<event>
 4    1  0.5025809E-002  0.4000000E+02  0.7546771E-02  0.1348030E+00
         11   -1    0    0    0    0  0.00000000000E+00  0.00000000000E+00  0.20000000000E+02  0.20000000000E+02  0.00000000000E+00 0.  1.
        -11   -1    0    0    0    0 -0.00000000000E+00 -0.00000000000E+00 -0.20000000000E+02  0.20000000000E+02  0.00000000000E+00 0. -1.
          5    1    1    2  501    0 -0.12848696339E+02  0.10812213477E+02 -0.97937246288E+01  0.20000000000E+02  0.47000000000E+01 0. -1.
         -5    1    1    2    0  501  0.12848696339E+02 -0.10812213477E+02  0.97937246288E+01  0.20000000000E+02  0.47000000000E+01 0.  1.
</event>
<event>
 4    1  0.5025809E-002  0.4000000E+02  0.7546771E-02  0.1348030E+00
         11   -1    0    0    0    0  0.00000000000E+00  0.00000000000E+00  0.20000000000E+02  0.20000000000E+02  0.00000000000E+00 0.  1.
        -11   -1    0    0    0    0 -0.00000000000E+00 -0.00000000000E+00 -0.20000000000E+02  0.20000000000E+02  0.00000000000E+00 0. -1.
          5    1    1    2  501    0 -0.16792097719E+02 -0.75575956937E+01 -0.62304254695E+01  0.20000000000E+02  0.47000000000E+01 0. -1.
         -5    1    1    2    0  501  0.16792097719E+02  0.75575956937E+01  0.62304254695E+01  0.20000000000E+02  0.47000000000E+01 0.  1.
</event>
<event>
 4    1  0.5025809E-002  0.4000000E+02  0.7546771E-02  0.1348030E+00
         11   -1    0    0    0    0  0.00000000000E+00  0.00000000000E+00  0.20000000000E+02  0.20000000000E+02  0.00000000000E+00 0. -1.
        -11   -1    0    0    0    0 -0.00000000000E+00 -0.00000000000E+00 -0.20000000000E+02  0.20000000000E+02  0.00000000000E+00 0.  1.
          5    1    1    2  501    0 -0.18312284573E+02 -0.61787550854E+01 -0.20960007892E+01  0.20000000000E+02  0.47000000000E+01 0.  1.
         -5    1    1    2    0  501  0.18312284573E+02  0.61787550854E+01  0.20960007892E+01  0.20000000000E+02  0.47000000000E+01 0. -1.
</event>
<event>
 4    1  0.5025809E-002  0.4000000E+02  0.7546771E-02  0.1348030E+00
         11   -1    0    0    0    0  0.00000000000E+00  0.00000000000E+00  0.20000000000E+02  0.20000000000E+02  0.00000000000E+00 0. -1.
        -11   -1    0    0    0    0 -0.00000000000E+00 -0.00000000000E+00 -0.20000000000E+02  0.20000000000E+02  0.00000000000E+00 0.  1.
          5    1    1    2  501    0  0.14047043608E+01 -0.16323664571E+02 -0.10463019671E+02  0.20000000000E+02  0.47000000000E+01 0.  1.
         -5    1    1    2    0  501 -0.14047043608E+01  0.16323664571E+02  0.10463019671E+02  0.20000000000E+02  0.47000000000E+01 0. -1.
</event>
<event>
 4    1  0.5025809E-002  0.4000000E+02  0.7546771E-02  0.1348030E+00
         11   -1    0    0    0    0  0.00000000000E+00  0.00000000000E+00  0.20000000000E+02  0.20000000000E+02  0.00000000000E+00 0.  1.
        -11   -1    0    0    0    0 -0.00000000000E+00 -0.00000000000E+00 -0.20000000000E+02  0.20000000000E+02  0.00000000000E+00 0. -1.
          5    1    1    2  501    0  0.19194453117E+02  0.63224437779E+00 -0.30138408331E+01  0.20000000000E+02  0.47000000000E+01 0. -1.
         -5    1    1    2    0  501 -0.19194453117E+02 -0.63224437779E+00  0.30138408331E+01  0.20000000000E+02  0.47000000000E+01 0.  1.
</event>
<event>
 4    1  0.5025809E-002  0.4000000E+02  0.7546771E-02  0.1348030E+00
         11   -1    0    0    0    0  0.00000000000E+00  0.00000000000E+00  0.20000000000E+02  0.20000000000E+02  0.00000000000E+00 0.  1.
        -11   -1    0    0    0    0 -0.00000000000E+00 -0.00000000000E+00 -0.20000000000E+02  0.20000000000E+02  0.00000000000E+00 0. -1.
          5    1    1    2  501    0 -0.11615681532E+02 -0.34126435613E+01 -0.15209858857E+02  0.20000000000E+02  0.47000000000E+01 0. -1.
         -5    1    1    2    0  501  0.11615681532E+02  0.34126435613E+01  0.15209858857E+02  0.20000000000E+02  0.47000000000E+01 0.  1.
</event>
<event>
 4    1  0.5025809E-002  0.4000000E+02  0.7546771E-02  0.1348030E+00
         11   -1    0    0    0    0  0.00000000000E+00  0.00000000000E+00  0.20000000000E+02  0.20000000000E+02  0.00000000000E+00 0. -1.
        -11   -1    0    0    0    0 -0.00000000000E+00 -0.00000000000E+00 -0.20000000000E+02  0.20000000000E+02  0.00000000000E+00 0.  1.
          5    1    1    2  501    0  0.90890941296E+01  0.98316060054E+01  0.14093895532E+02  0.20000000000E+02  0.47000000000E+01 0. -1.
         -5    1    1    2    0  501 -0.90890941296E+01 -0.98316060054E+01 -0.14093895532E+02  0.20000000000E+02  0.47000000000E+01 0.  1.
</event>
<event>
 4    1  0.5025809E-002  0.4000000E+02  0.7546771E-02  0.1348030E+00
         11   -1    0    0    0    0  0.00000000000E+00  0.00000000000E+00  0.20000000000E+02  0.20000000000E+02  0.00000000000E+00 0. -1.
        -11   -1    0    0    0    0 -0.00000000000E+00 -0.00000000000E+00 -0.20000000000E+02  0.20000000000E+02  0.00000000000E+00 0.  1.
          5    1    1    2  501    0 -0.17285545120E+02 -0.89105910647E-01 -0.88944921178E+01  0.20000000000E+02  0.47000000000E+01 0.  1.
         -5    1    1    2    0  501  0.17285545120E+02  0.89105910647E-01  0.88944921178E+01  0.20000000000E+02  0.47000000000E+01 0. -1.
</event>
<event>
 4    1  0.5025809E-002  0.4000000E+02  0.7546771E-02  0.1348030E+00
         11   -1    0    0    0    0  0.00000000000E+00  0.00000000000E+00  0.20000000000E+02  0.20000000000E+02  0.00000000000E+00 0.  1.
        -11   -1    0    0    0    0 -0.00000000000E+00 -0.00000000000E+00 -0.20000000000E+02  0.20000000000E+02  0.00000000000E+00 0. -1.
          5    1    1    2  501    0  0.14668758261E+02 -0.10445845964E+02  0.73226930268E+01  0.20000000000E+02  0.47000000000E+01 0.  1.
         -5    1    1    2    0  501 -0.14668758261E+02  0.10445845964E+02 -0.73226930268E+01  0.20000000000E+02  0.47000000000E+01 0. -1.
</event>
<event>
 4    1  0.5025809E-002  0.4000000E+02  0.7546771E-02  0.1348030E+00
         11   -1    0    0    0    0  0.00000000000E+00  0.00000000000E+00  0.20000000000E+02  0.20000000000E+02  0.00000000000E+00 0.  1.
        -11   -1    0    0    0    0 -0.00000000000E+00 -0.00000000000E+00 -0.20000000000E+02  0.20000000000E+02  0.00000000000E+00 0. -1.
          5    1    1    2  501    0 -0.11505702168E+02  0.47322795864E+01 -0.14937682134E+02  0.20000000000E+02  0.47000000000E+01 0. -1.
         -5    1    1    2    0  501  0.11505702168E+02 -0.47322795864E+01  0.14937682134E+02  0.20000000000E+02  0.47000000000E+01 0.  1.
</event>
<event>
 4    1  0.5025809E-002  0.4000000E+02  0.7546771E-02  0.1348030E+00
         11   -1    0    0    0    0  0.00000000000E+00  0.00000000000E+00  0.20000000000E+02  0.20000000000E+02  0.00000000000E+00 0.  1.
        -11   -1    0    0    0    0 -0.00000000000E+00 -0.00000000000E+00 -0.20000000000E+02  0.20000000000E+02  0.00000000000E+00 0. -1.
          5    1    1    2  501    0  0.77908820212E+01 -0.60614210430E+01 -0.16747278354E+02  0.20000000000E+02  0.47000000000E+01 0. -1.
         -5    1    1    2    0  501 -0.77908820212E+01  0.60614210430E+01  0.16747278354E+02  0.20000000000E+02  0.47000000000E+01 0.  1.
</event>
<event>
 4    1  0.5025809E-002  0.4000000E+02  0.7546771E-02  0.1348030E+00
         11   -1    0    0    0    0  0.00000000000E+00  0.00000000000E+00  0.20000000000E+02  0.20000000000E+02  0.00000000000E+00 0.  1.
        -11   -1    0    0    0    0 -0.00000000000E+00 -0.00000000000E+00 -0.20000000000E+02  0.20000000000E+02  0.00000000000E+00 0. -1.
          5    1    1    2  501    0  0.12305304136E+02  0.88502003668E+01  0.12172240697E+02  0.20000000000E+02  0.47000000000E+01 0.  1.
         -5    1    1    2    0  501 -0.12305304136E+02 -0.88502003668E+01 -0.12172240697E+02  0.20000000000E+02  0.47000000000E+01 0. -1.
</event>
<event>
 4    1  0.5025809E-002  0.4000000E+02  0.7546771E-02  0.1348030E+00
         11   -1    0    0    0    0  0.00000000000E+00  0.00000000000E+00  0.20000000000E+02  0.20000000000E+02  0.00000000000E+00 0.  1.
        -11   -1    0    0    0    0 -0.00000000000E+00 -0.00000000000E+00 -0.20000000000E+02  0.20000000000E+02  0.00000000000E+00 0. -1.
          5    1    1    2  501    0 -0.20567156736E+01  0.15565906158E+02 -0.11462219947E+02  0.20000000000E+02  0.47000000000E+01 0. -1.
         -5    1    1    2    0  501  0.20567156736E+01 -0.15565906158E+02  0.11462219947E+02  0.20000000000E+02  0.47000000000E+01 0.  1.
</event>
<event>
 4    1  0.5025809E-002  0.4000000E+02  0.7546771E-02  0.1348030E+00
         11   -1    0    0    0    0  0.00000000000E+00  0.00000000000E+00  0.20000000000E+02  0.20000000000E+02  0.00000000000E+00 0.  1.
        -11   -1    0    0    0    0 -0.00000000000E+00 -0.00000000000E+00 -0.20000000000E+02  0.20000000000E+02  0.00000000000E+00 0. -1.
          5    1    1    2  501    0  0.17218266886E+02  0.73514033390E+01 -0.52343246356E+01  0.20000000000E+02  0.47000000000E+01 0. -1.
         -5    1    1    2    0  501 -0.17218266886E+02 -0.73514033390E+01  0.52343246356E+01  0.20000000000E+02  0.47000000000E+01 0.  1.
</event>
<event>
 4    1  0.5025809E-002  0.4000000E+02  0.7546771E-02  0.1348030E+00
         11   -1    0    0    0    0  0.00000000000E+00  0.00000000000E+00  0.20000000000E+02  0.20000000000E+02  0.00000000000E+00 0.  1.
        -11   -1    0    0    0    0 -0.00000000000E+00 -0.00000000000E+00 -0.20000000000E+02  0.20000000000E+02  0.00000000000E+00 0. -1.
          5    1    1    2  501    0  0.11167288547E+02  0.49318481881E+01 -0.15128732265E+02  0.20000000000E+02  0.47000000000E+01 0. -1.
         -5    1    1    2    0  501 -0.11167288547E+02 -0.49318481881E+01  0.15128732265E+02  0.20000000000E+02  0.47000000000E+01 0.  1.
</event>
<event>
 4    1  0.5025809E-002  0.4000000E+02  0.7546771E-02  0.1348030E+00
         11   -1    0    0    0    0  0.00000000000E+00  0.00000000000E+00  0.20000000000E+02  0.20000000000E+02  0.00000000000E+00 0.  1.
        -11   -1    0    0    0    0 -0.00000000000E+00 -0.00000000000E+00 -0.20000000000E+02  0.20000000000E+02  0.00000000000E+00 0. -1.
          5    1    1    2  501    0  0.15240636993E+02 -0.50301638901E+01 -0.10969523020E+02  0.20000000000E+02  0.47000000000E+01 0. -1.
         -5    1    1    2    0  501 -0.15240636993E+02  0.50301638901E+01  0.10969523020E+02  0.20000000000E+02  0.47000000000E+01 0.  1.
</event>
<event>
 4    1  0.5025809E-002  0.4000000E+02  0.7546771E-02  0.1348030E+00
         11   -1    0    0    0    0  0.00000000000E+00  0.00000000000E+00  0.20000000000E+02  0.20000000000E+02  0.00000000000E+00 0. -1.
        -11   -1    0    0    0    0 -0.00000000000E+00 -0.00000000000E+00 -0.20000000000E+02  0.20000000000E+02  0.00000000000E+00 0.  1.
          5    1    1    2  501    0 -0.14561858743E+02 -0.94159241911E+01  0.87865033761E+01  0.20000000000E+02  0.47000000000E+01 0.  1.
         -5    1    1    2    0  501  0.14561858743E+02  0.94159241911E+01 -0.87865033761E+01  0.20000000000E+02  0.47000000000E+01 0. -1.
</event>
<event>
 4    1  0.5025809E-002  0.4000000E+02  0.7546771E-02  0.1348030E+00
         11   -1    0    0    0    0  0.00000000000E+00  0.00000000000E+00  0.20000000000E+02  0.20000000000E+02  0.00000000000E+00 0. -1.
        -11   -1    0    0    0    0 -0.00000000000E+00 -0.00000000000E+00 -0.20000000000E+02  0.20000000000E+02  0.00000000000E+00 0.  1.
          5    1    1    2  501    0  0.95339353783E+01  0.16453174684E+02  0.40382074024E+01  0.20000000000E+02  0.47000000000E+01 0.  1.
         -5    1    1    2    0  501 -0.95339353783E+01 -0.16453174684E+02 -0.40382074024E+01  0.20000000000E+02  0.47000000000E+01 0. -1.
</event>
<event>
 4    1  0.5025809E-002  0.4000000E+02  0.7546771E-02  0.1348030E+00
         11   -1    0    0    0    0  0.00000000000E+00  0.00000000000E+00  0.20000000000E+02  0.20000000000E+02  0.00000000000E+00 0.  1.
        -11   -1    0    0    0    0 -0.00000000000E+00 -0.00000000000E+00 -0.20000000000E+02  0.20000000000E+02  0.00000000000E+00 0. -1.
          5    1    1    2  501    0  0.16213520122E+02  0.53047165458E+01 -0.93215743108E+01  0.20000000000E+02  0.47000000000E+01 0. -1.
         -5    1    1    2    0  501 -0.16213520122E+02 -0.53047165458E+01  0.93215743108E+01  0.20000000000E+02  0.47000000000E+01 0.  1.
</event>
<event>
 4    1  0.5025809E-002  0.4000000E+02  0.7546771E-02  0.1348030E+00
         11   -1    0    0    0    0  0.00000000000E+00  0.00000000000E+00  0.20000000000E+02  0.20000000000E+02  0.00000000000E+00 0.  1.
        -11   -1    0    0    0    0 -0.00000000000E+00 -0.00000000000E+00 -0.20000000000E+02  0.20000000000E+02  0.00000000000E+00 0. -1.
          5    1    1    2  501    0 -0.31111572054E+01  0.15252943390E+02 -0.11643814615E+02  0.20000000000E+02  0.47000000000E+01 0. -1.
         -5    1    1    2    0  501  0.31111572054E+01 -0.15252943390E+02  0.11643814615E+02  0.20000000000E+02  0.47000000000E+01 0.  1.
</event>
<event>
 4    1  0.5025809E-002  0.4000000E+02  0.7546771E-02  0.1348030E+00
         11   -1    0    0    0    0  0.00000000000E+00  0.00000000000E+00  0.20000000000E+02  0.20000000000E+02  0.00000000000E+00 0.  1.
        -11   -1    0    0    0    0 -0.00000000000E+00 -0.00000000000E+00 -0.20000000000E+02  0.20000000000E+02  0.00000000000E+00 0. -1.
          5    1    1    2  501    0  0.72013956347E+01  0.14741052825E+02 -0.10428387341E+02  0.20000000000E+02  0.47000000000E+01 0. -1.
         -5    1    1    2    0  501 -0.72013956347E+01 -0.14741052825E+02  0.10428387341E+02  0.20000000000E+02  0.47000000000E+01 0.  1.
</event>
<event>
 4    1  0.5025809E-002  0.4000000E+02  0.7546771E-02  0.1348030E+00
         11   -1    0    0    0    0  0.00000000000E+00  0.00000000000E+00  0.20000000000E+02  0.20000000000E+02  0.00000000000E+00 0.  1.
        -11   -1    0    0    0    0 -0.00000000000E+00 -0.00000000000E+00 -0.20000000000E+02  0.20000000000E+02  0.00000000000E+00 0. -1.
          5    1    1    2  501    0 -0.16218137278E+02  0.91673265645E+01 -0.55535706421E+01  0.20000000000E+02  0.47000000000E+01 0. -1.
         -5    1    1    2    0  501  0.16218137278E+02 -0.91673265645E+01  0.55535706421E+01  0.20000000000E+02  0.47000000000E+01 0.  1.
</event>
<event>
 4    1  0.5025809E-002  0.4000000E+02  0.7546771E-02  0.1348030E+00
         11   -1    0    0    0    0  0.00000000000E+00  0.00000000000E+00  0.20000000000E+02  0.20000000000E+02  0.00000000000E+00 0.  1.
        -11   -1    0    0    0    0 -0.00000000000E+00 -0.00000000000E+00 -0.20000000000E+02  0.20000000000E+02  0.00000000000E+00 0. -1.
          5    1    1    2  501    0 -0.38621484316E+01  0.18877186205E+02  0.25779159139E+01  0.20000000000E+02  0.47000000000E+01 0.  1.
         -5    1    1    2    0  501  0.38621484316E+01 -0.18877186205E+02 -0.25779159139E+01  0.20000000000E+02  0.47000000000E+01 0. -1.
</event>
<event>
 4    1  0.5025809E-002  0.4000000E+02  0.7546771E-02  0.1348030E+00
         11   -1    0    0    0    0  0.00000000000E+00  0.00000000000E+00  0.20000000000E+02  0.20000000000E+02  0.00000000000E+00 0.  1.
        -11   -1    0    0    0    0 -0.00000000000E+00 -0.00000000000E+00 -0.20000000000E+02  0.20000000000E+02  0.00000000000E+00 0. -1.
          5    1    1    2  501    0  0.10135109975E+02 -0.16373354173E+02 -0.26651114284E+01  0.20000000000E+02  0.47000000000E+01 0.  1.
         -5    1    1    2    0  501 -0.10135109975E+02  0.16373354173E+02  0.26651114284E+01  0.20000000000E+02  0.47000000000E+01 0.  1.
</event>
<event>
 4    1  0.5025809E-002  0.4000000E+02  0.7546771E-02  0.1348030E+00
         11   -1    0    0    0    0  0.00000000000E+00  0.00000000000E+00  0.20000000000E+02  0.20000000000E+02  0.00000000000E+00 0.  1.
        -11   -1    0    0    0    0 -0.00000000000E+00 -0.00000000000E+00 -0.20000000000E+02  0.20000000000E+02  0.00000000000E+00 0. -1.
          5    1    1    2  501    0 -0.41499405576E+01 -0.12541503399E+02 -0.14261791117E+02  0.20000000000E+02  0.47000000000E+01 0. -1.
         -5    1    1    2    0  501  0.41499405576E+01  0.12541503399E+02  0.14261791117E+02  0.20000000000E+02  0.47000000000E+01 0.  1.
</event>
<event>
 4    1  0.5025809E-002  0.4000000E+02  0.7546771E-02  0.1348030E+00
         11   -1    0    0    0    0  0.00000000000E+00  0.00000000000E+00  0.20000000000E+02  0.20000000000E+02  0.00000000000E+00 0. -1.
        -11   -1    0    0    0    0 -0.00000000000E+00 -0.00000000000E+00 -0.20000000000E+02  0.20000000000E+02  0.00000000000E+00 0.  1.
          5    1    1    2  501    0 -0.10052494491E+02 -0.16412029563E+02 -0.27390947676E+01  0.20000000000E+02  0.47000000000E+01 0.  1.
         -5    1    1    2    0  501  0.10052494491E+02  0.16412029563E+02  0.27390947676E+01  0.20000000000E+02  0.47000000000E+01 0. -1.
</event>
<event>
 4    1  0.5025809E-002  0.4000000E+02  0.7546771E-02  0.1348030E+00
         11   -1    0    0    0    0  0.00000000000E+00  0.00000000000E+00  0.20000000000E+02  0.20000000000E+02  0.00000000000E+00 0.  1.
        -11   -1    0    0    0    0 -0.00000000000E+00 -0.00000000000E+00 -0.20000000000E+02  0.20000000000E+02  0.00000000000E+00 0. -1.
          5    1    1    2  501    0  0.31269615592E+01  0.18706501659E+02 -0.42660177063E+01  0.20000000000E+02  0.47000000000E+01 0. -1.
         -5    1    1    2    0  501 -0.31269615592E+01 -0.18706501659E+02  0.42660177063E+01  0.20000000000E+02  0.47000000000E+01 0.  1.
</event>
<event>
 4    1  0.5025809E-002  0.4000000E+02  0.7546771E-02  0.1348030E+00
         11   -1    0    0    0    0  0.00000000000E+00  0.00000000000E+00  0.20000000000E+02  0.20000000000E+02  0.00000000000E+00 0.  1.
        -11   -1    0    0    0    0 -0.00000000000E+00 -0.00000000000E+00 -0.20000000000E+02  0.20000000000E+02  0.00000000000E+00 0. -1.
          5    1    1    2  501    0  0.11240716999E+02 -0.11011278659E+02  0.11415253989E+02  0.20000000000E+02  0.47000000000E+01 0.  1.
         -5    1    1    2    0  501 -0.11240716999E+02  0.11011278659E+02 -0.11415253989E+02  0.20000000000E+02  0.47000000000E+01 0. -1.
</event>
<event>
 4    1  0.5025809E-002  0.4000000E+02  0.7546771E-02  0.1348030E+00
         11   -1    0    0    0    0  0.00000000000E+00  0.00000000000E+00  0.20000000000E+02  0.20000000000E+02  0.00000000000E+00 0.  1.
        -11   -1    0    0    0    0 -0.00000000000E+00 -0.00000000000E+00 -0.20000000000E+02  0.20000000000E+02  0.00000000000E+00 0. -1.
          5    1    1    2  501    0 -0.16893644074E+02  0.94961333379E+01  0.15291309725E+01  0.20000000000E+02  0.47000000000E+01 0. -1.
         -5    1    1    2    0  501  0.16893644074E+02 -0.94961333379E+01 -0.15291309725E+01  0.20000000000E+02  0.47000000000E+01 0.  1.
</event>
<event>
 4    1  0.5025809E-002  0.4000000E+02  0.7546771E-02  0.1348030E+00
         11   -1    0    0    0    0  0.00000000000E+00  0.00000000000E+00  0.20000000000E+02  0.20000000000E+02  0.00000000000E+00 0.  1.
        -11   -1    0    0    0    0 -0.00000000000E+00 -0.00000000000E+00 -0.20000000000E+02  0.20000000000E+02  0.00000000000E+00 0. -1.
          5    1    1    2  501    0  0.14299311202E+01 -0.35293559452E+01  0.19063287849E+02  0.20000000000E+02  0.47000000000E+01 0.  1.
         -5    1    1    2    0  501 -0.14299311202E+01  0.35293559452E+01 -0.19063287849E+02  0.20000000000E+02  0.47000000000E+01 0. -1.
</event>
<event>
 4    1  0.5025809E-002  0.4000000E+02  0.7546771E-02  0.1348030E+00
         11   -1    0    0    0    0  0.00000000000E+00  0.00000000000E+00  0.20000000000E+02  0.20000000000E+02  0.00000000000E+00 0.  1.
        -11   -1    0    0    0    0 -0.00000000000E+00 -0.00000000000E+00 -0.20000000000E+02  0.20000000000E+02  0.00000000000E+00 0. -1.
          5    1    1    2  501    0 -0.13417192108E+02  0.11039659549E+02 -0.87186508701E+01  0.20000000000E+02  0.47000000000E+01 0. -1.
         -5    1    1    2    0  501  0.13417192108E+02 -0.11039659549E+02  0.87186508701E+01  0.20000000000E+02  0.47000000000E+01 0.  1.
</event>
<event>
 4    1  0.5025809E-002  0.4000000E+02  0.7546771E-02  0.1348030E+00
         11   -1    0    0    0    0  0.00000000000E+00  0.00000000000E+00  0.20000000000E+02  0.20000000000E+02  0.00000000000E+00 0.  1.
        -11   -1    0    0    0    0 -0.00000000000E+00 -0.00000000000E+00 -0.20000000000E+02  0.20000000000E+02  0.00000000000E+00 0. -1.
          5    1    1    2  501    0  0.16027120783E+02 -0.10381039662E+02 -0.36435442850E+01  0.20000000000E+02  0.47000000000E+01 0. -1.
         -5    1    1    2    0  501 -0.16027120783E+02  0.10381039662E+02  0.36435442850E+01  0.20000000000E+02  0.47000000000E+01 0.  1.
</event>
<event>
 4    1  0.5025809E-002  0.4000000E+02  0.7546771E-02  0.1348030E+00
         11   -1    0    0    0    0  0.00000000000E+00  0.00000000000E+00  0.20000000000E+02  0.20000000000E+02  0.00000000000E+00 0.  1.
        -11   -1    0    0    0    0 -0.00000000000E+00 -0.00000000000E+00 -0.20000000000E+02  0.20000000000E+02  0.00000000000E+00 0. -1.
          5    1    1    2  501    0 -0.30401826859E+01 -0.12282059916E+02  0.14758668418E+02  0.20000000000E+02  0.47000000000E+01 0.  1.
         -5    1    1    2    0  501  0.30401826859E+01  0.12282059916E+02 -0.14758668418E+02  0.20000000000E+02  0.47000000000E+01 0. -1.
</event>
<event>
 4    1  0.5025809E-002  0.4000000E+02  0.7546771E-02  0.1348030E+00
         11   -1    0    0    0    0  0.00000000000E+00  0.00000000000E+00  0.20000000000E+02  0.20000000000E+02  0.00000000000E+00 0.  1.
        -11   -1    0    0    0    0 -0.00000000000E+00 -0.00000000000E+00 -0.20000000000E+02  0.20000000000E+02  0.00000000000E+00 0. -1.
          5    1    1    2  501    0 -0.84792141716E+01  0.65547614276E+01 -0.16218755490E+02  0.20000000000E+02  0.47000000000E+01 0. -1.
         -5    1    1    2    0  501  0.84792141716E+01 -0.65547614276E+01  0.16218755490E+02  0.20000000000E+02  0.47000000000E+01 0.  1.
</event>
<event>
 4    1  0.5025809E-002  0.4000000E+02  0.7546771E-02  0.1348030E+00
         11   -1    0    0    0    0  0.00000000000E+00  0.00000000000E+00  0.20000000000E+02  0.20000000000E+02  0.00000000000E+00 0. -1.
        -11   -1    0    0    0    0 -0.00000000000E+00 -0.00000000000E+00 -0.20000000000E+02  0.20000000000E+02  0.00000000000E+00 0.  1.
          5    1    1    2  501    0 -0.60813175164E+01  0.13798866812E+02 -0.12268612472E+02  0.20000000000E+02  0.47000000000E+01 0.  1.
         -5    1    1    2    0  501  0.60813175164E+01 -0.13798866812E+02  0.12268612472E+02  0.20000000000E+02  0.47000000000E+01 0. -1.
</event>
<event>
 4    1  0.5025809E-002  0.4000000E+02  0.7546771E-02  0.1348030E+00
         11   -1    0    0    0    0  0.00000000000E+00  0.00000000000E+00  0.20000000000E+02  0.20000000000E+02  0.00000000000E+00 0.  1.
        -11   -1    0    0    0    0 -0.00000000000E+00 -0.00000000000E+00 -0.20000000000E+02  0.20000000000E+02  0.00000000000E+00 0. -1.
          5    1    1    2  501    0  0.82959739084E+01 -0.13107767367E+02 -0.11716366824E+02  0.20000000000E+02  0.47000000000E+01 0. -1.
         -5    1    1    2    0  501 -0.82959739084E+01  0.13107767367E+02  0.11716366824E+02  0.20000000000E+02  0.47000000000E+01 0.  1.
</event>
<event>
 4    1  0.5025809E-002  0.4000000E+02  0.7546771E-02  0.1348030E+00
         11   -1    0    0    0    0  0.00000000000E+00  0.00000000000E+00  0.20000000000E+02  0.20000000000E+02  0.00000000000E+00 0.  1.
        -11   -1    0    0    0    0 -0.00000000000E+00 -0.00000000000E+00 -0.20000000000E+02  0.20000000000E+02  0.00000000000E+00 0. -1.
          5    1    1    2  501    0  0.91555062382E+00  0.11905883211E+02  0.15340199217E+02  0.20000000000E+02  0.47000000000E+01 0.  1.
         -5    1    1    2    0  501 -0.91555062382E+00 -0.11905883211E+02 -0.15340199217E+02  0.20000000000E+02  0.47000000000E+01 0. -1.
</event>
<event>
 4    1  0.5025809E-002  0.4000000E+02  0.7546771E-02  0.1348030E+00
         11   -1    0    0    0    0  0.00000000000E+00  0.00000000000E+00  0.20000000000E+02  0.20000000000E+02  0.00000000000E+00 0.  1.
        -11   -1    0    0    0    0 -0.00000000000E+00 -0.00000000000E+00 -0.20000000000E+02  0.20000000000E+02  0.00000000000E+00 0. -1.
          5    1    1    2  501    0  0.52462684994E-01  0.18874224293E+02 -0.46552019297E+01  0.20000000000E+02  0.47000000000E+01 0. -1.
         -5    1    1    2    0  501 -0.52462684994E-01 -0.18874224293E+02  0.46552019297E+01  0.20000000000E+02  0.47000000000E+01 0.  1.
</event>
<event>
 4    1  0.5025809E-002  0.4000000E+02  0.7546771E-02  0.1348030E+00
         11   -1    0    0    0    0  0.00000000000E+00  0.00000000000E+00  0.20000000000E+02  0.20000000000E+02  0.00000000000E+00 0.  1.
        -11   -1    0    0    0    0 -0.00000000000E+00 -0.00000000000E+00 -0.20000000000E+02  0.20000000000E+02  0.00000000000E+00 0. -1.
          5    1    1    2  501    0 -0.12051821586E+02  0.15227976396E+02 -0.87882384004E+00  0.20000000000E+02  0.47000000000E+01 0. -1.
         -5    1    1    2    0  501  0.12051821586E+02 -0.15227976396E+02  0.87882384004E+00  0.20000000000E+02  0.47000000000E+01 0.  1.
</event>
<event>
 4    1  0.5025809E-002  0.4000000E+02  0.7546771E-02  0.1348030E+00
         11   -1    0    0    0    0  0.00000000000E+00  0.00000000000E+00  0.20000000000E+02  0.20000000000E+02  0.00000000000E+00 0. -1.
        -11   -1    0    0    0    0 -0.00000000000E+00 -0.00000000000E+00 -0.20000000000E+02  0.20000000000E+02  0.00000000000E+00 0.  1.
          5    1    1    2  501    0 -0.19051945035E+02  0.38640348129E+01 -0.51238164993E-01  0.20000000000E+02  0.47000000000E+01 0.  1.
         -5    1    1    2    0  501  0.19051945035E+02 -0.38640348129E+01  0.51238164993E-01  0.20000000000E+02  0.47000000000E+01 0. -1.
</event>
<event>
 4    1  0.5025809E-002  0.4000000E+02  0.7546771E-02  0.1348030E+00
         11   -1    0    0    0    0  0.00000000000E+00  0.00000000000E+00  0.20000000000E+02  0.20000000000E+02  0.00000000000E+00 0.  1.
        -11   -1    0    0    0    0 -0.00000000000E+00 -0.00000000000E+00 -0.20000000000E+02  0.20000000000E+02  0.00000000000E+00 0. -1.
          5    1    1    2  501    0  0.18004674243E+02  0.21941796092E+01  0.69948038735E+01  0.20000000000E+02  0.47000000000E+01 0.  1.
         -5    1    1    2    0  501 -0.18004674243E+02 -0.21941796092E+01 -0.69948038735E+01  0.20000000000E+02  0.47000000000E+01 0. -1.
</event>
<event>
 4    1  0.5025809E-002  0.4000000E+02  0.7546771E-02  0.1348030E+00
         11   -1    0    0    0    0  0.00000000000E+00  0.00000000000E+00  0.20000000000E+02  0.20000000000E+02  0.00000000000E+00 0. -1.
        -11   -1    0    0    0    0 -0.00000000000E+00 -0.00000000000E+00 -0.20000000000E+02  0.20000000000E+02  0.00000000000E+00 0.  1.
          5    1    1    2  501    0 -0.14101554144E+02  0.51005493762E+01 -0.12370956584E+02  0.20000000000E+02  0.47000000000E+01 0.  1.
         -5    1    1    2    0  501  0.14101554144E+02 -0.51005493762E+01  0.12370956584E+02  0.20000000000E+02  0.47000000000E+01 0. -1.
</event>
<event>
 4    1  0.5025809E-002  0.4000000E+02  0.7546771E-02  0.1348030E+00
         11   -1    0    0    0    0  0.00000000000E+00  0.00000000000E+00  0.20000000000E+02  0.20000000000E+02  0.00000000000E+00 0.  1.
        -11   -1    0    0    0    0 -0.00000000000E+00 -0.00000000000E+00 -0.20000000000E+02  0.20000000000E+02  0.00000000000E+00 0. -1.
          5    1    1    2  501    0  0.11535931368E+02 -0.29663949456E+01  0.15363358633E+02  0.20000000000E+02  0.47000000000E+01 0.  1.
         -5    1    1    2    0  501 -0.11535931368E+02  0.29663949456E+01 -0.15363358633E+02  0.20000000000E+02  0.47000000000E+01 0. -1.
</event>
<event>
 4    1  0.5025809E-002  0.4000000E+02  0.7546771E-02  0.1348030E+00
         11   -1    0    0    0    0  0.00000000000E+00  0.00000000000E+00  0.20000000000E+02  0.20000000000E+02  0.00000000000E+00 0. -1.
        -11   -1    0    0    0    0 -0.00000000000E+00 -0.00000000000E+00 -0.20000000000E+02  0.20000000000E+02  0.00000000000E+00 0.  1.
          5    1    1    2  501    0  0.10340179773E+02 -0.15566028812E+02  0.53562514207E+01  0.20000000000E+02  0.47000000000E+01 0. -1.
         -5    1    1    2    0  501 -0.10340179773E+02  0.15566028812E+02 -0.53562514207E+01  0.20000000000E+02  0.47000000000E+01 0.  1.
</event>
<event>
 4    1  0.5025809E-002  0.4000000E+02  0.7546771E-02  0.1348030E+00
         11   -1    0    0    0    0  0.00000000000E+00  0.00000000000E+00  0.20000000000E+02  0.20000000000E+02  0.00000000000E+00 0.  1.
        -11   -1    0    0    0    0 -0.00000000000E+00 -0.00000000000E+00 -0.20000000000E+02  0.20000000000E+02  0.00000000000E+00 0. -1.
          5    1    1    2  501    0  0.68832317469E+01 -0.50279108889E+01  0.17471440490E+02  0.20000000000E+02  0.47000000000E+01 0.  1.
         -5    1    1    2    0  501 -0.68832317469E+01  0.50279108889E+01 -0.17471440490E+02  0.20000000000E+02  0.47000000000E+01 0. -1.
</event>
<event>
 4    1  0.5025809E-002  0.4000000E+02  0.7546771E-02  0.1348030E+00
         11   -1    0    0    0    0  0.00000000000E+00  0.00000000000E+00  0.20000000000E+02  0.20000000000E+02  0.00000000000E+00 0.  1.
        -11   -1    0    0    0    0 -0.00000000000E+00 -0.00000000000E+00 -0.20000000000E+02  0.20000000000E+02  0.00000000000E+00 0. -1.
          5    1    1    2  501    0 -0.14293493416E+01 -0.89688423616E+01 -0.17187984965E+02  0.20000000000E+02  0.47000000000E+01 0. -1.
         -5    1    1    2    0  501  0.14293493416E+01  0.89688423616E+01  0.17187984965E+02  0.20000000000E+02  0.47000000000E+01 0.  1.
</event>
<event>
 4    1  0.5025809E-002  0.4000000E+02  0.7546771E-02  0.1348030E+00
         11   -1    0    0    0    0  0.00000000000E+00  0.00000000000E+00  0.20000000000E+02  0.20000000000E+02  0.00000000000E+00 0.  1.
        -11   -1    0    0    0    0 -0.00000000000E+00 -0.00000000000E+00 -0.20000000000E+02  0.20000000000E+02  0.00000000000E+00 0. -1.
          5    1    1    2  501    0 -0.92075951938E+01 -0.20331744157E+01  0.16999893898E+02  0.20000000000E+02  0.47000000000E+01 0.  1.
         -5    1    1    2    0  501  0.92075951938E+01  0.20331744157E+01 -0.16999893898E+02  0.20000000000E+02  0.47000000000E+01 0. -1.
</event>
<event>
 4    1  0.5025809E-002  0.4000000E+02  0.7546771E-02  0.1348030E+00
         11   -1    0    0    0    0  0.00000000000E+00  0.00000000000E+00  0.20000000000E+02  0.20000000000E+02  0.00000000000E+00 0.  1.
        -11   -1    0    0    0    0 -0.00000000000E+00 -0.00000000000E+00 -0.20000000000E+02  0.20000000000E+02  0.00000000000E+00 0. -1.
          5    1    1    2  501    0  0.49939599832E+01  0.11904907829E+02 -0.14534219390E+02  0.20000000000E+02  0.47000000000E+01 0. -1.
         -5    1    1    2    0  501 -0.49939599832E+01 -0.11904907829E+02  0.14534219390E+02  0.20000000000E+02  0.47000000000E+01 0.  1.
</event>
<event>
 4    1  0.5025809E-002  0.4000000E+02  0.7546771E-02  0.1348030E+00
         11   -1    0    0    0    0  0.00000000000E+00  0.00000000000E+00  0.20000000000E+02  0.20000000000E+02  0.00000000000E+00 0.  1.
        -11   -1    0    0    0    0 -0.00000000000E+00 -0.00000000000E+00 -0.20000000000E+02  0.20000000000E+02  0.00000000000E+00 0. -1.
          5    1    1    2  501    0 -0.71471374394E-01 -0.17250388855E+02 -0.89626433716E+01  0.20000000000E+02  0.47000000000E+01 0. -1.
         -5    1    1    2    0  501  0.71471374394E-01  0.17250388855E+02  0.89626433716E+01  0.20000000000E+02  0.47000000000E+01 0.  1.
</event>
<event>
 4    1  0.5025809E-002  0.4000000E+02  0.7546771E-02  0.1348030E+00
         11   -1    0    0    0    0  0.00000000000E+00  0.00000000000E+00  0.20000000000E+02  0.20000000000E+02  0.00000000000E+00 0.  1.
        -11   -1    0    0    0    0 -0.00000000000E+00 -0.00000000000E+00 -0.20000000000E+02  0.20000000000E+02  0.00000000000E+00 0. -1.
          5    1    1    2  501    0 -0.63126341876E+01 -0.42248650374E+01 -0.17894445089E+02  0.20000000000E+02  0.47000000000E+01 0. -1.
         -5    1    1    2    0  501  0.63126341876E+01  0.42248650374E+01  0.17894445089E+02  0.20000000000E+02  0.47000000000E+01 0.  1.
</event>
<event>
 4    1  0.5025809E-002  0.4000000E+02  0.7546771E-02  0.1348030E+00
         11   -1    0    0    0    0  0.00000000000E+00  0.00000000000E+00  0.20000000000E+02  0.20000000000E+02  0.00000000000E+00 0.  1.
        -11   -1    0    0    0    0 -0.00000000000E+00 -0.00000000000E+00 -0.20000000000E+02  0.20000000000E+02  0.00000000000E+00 0. -1.
          5    1    1    2  501    0  0.35560449051E+01  0.17300690709E+02 -0.81210002855E+01  0.20000000000E+02  0.47000000000E+01 0. -1.
         -5    1    1    2    0  501 -0.35560449051E+01 -0.17300690709E+02  0.81210002855E+01  0.20000000000E+02  0.47000000000E+01 0.  1.
</event>
<event>
 4    1  0.5025809E-002  0.4000000E+02  0.7546771E-02  0.1348030E+00
         11   -1    0    0    0    0  0.00000000000E+00  0.00000000000E+00  0.20000000000E+02  0.20000000000E+02  0.00000000000E+00 0.  1.
        -11   -1    0    0    0    0 -0.00000000000E+00 -0.00000000000E+00 -0.20000000000E+02  0.20000000000E+02  0.00000000000E+00 0. -1.
          5    1    1    2  501    0 -0.16913141446E+02  0.93144017373E+00 -0.95387664634E+01  0.20000000000E+02  0.47000000000E+01 0. -1.
         -5    1    1    2    0  501  0.16913141446E+02 -0.93144017373E+00  0.95387664634E+01  0.20000000000E+02  0.47000000000E+01 0.  1.
</event>
<event>
 4    1  0.5025809E-002  0.4000000E+02  0.7546771E-02  0.1348030E+00
         11   -1    0    0    0    0  0.00000000000E+00  0.00000000000E+00  0.20000000000E+02  0.20000000000E+02  0.00000000000E+00 0.  1.
        -11   -1    0    0    0    0 -0.00000000000E+00 -0.00000000000E+00 -0.20000000000E+02  0.20000000000E+02  0.00000000000E+00 0. -1.
          5    1    1    2  501    0  0.15334552615E+02  0.42602243099E+01 -0.11162973839E+02  0.20000000000E+02  0.47000000000E+01 0. -1.
         -5    1    1    2    0  501 -0.15334552615E+02 -0.42602243099E+01  0.11162973839E+02  0.20000000000E+02  0.47000000000E+01 0.  1.
</event>
<event>
 4    1  0.5025809E-002  0.4000000E+02  0.7546771E-02  0.1348030E+00
         11   -1    0    0    0    0  0.00000000000E+00  0.00000000000E+00  0.20000000000E+02  0.20000000000E+02  0.00000000000E+00 0.  1.
        -11   -1    0    0    0    0 -0.00000000000E+00 -0.00000000000E+00 -0.20000000000E+02  0.20000000000E+02  0.00000000000E+00 0. -1.
          5    1    1    2  501    0 -0.16868473809E+02  0.52153878403E+01 -0.81341453778E+01  0.20000000000E+02  0.47000000000E+01 0. -1.
         -5    1    1    2    0  501  0.16868473809E+02 -0.52153878403E+01  0.81341453778E+01  0.20000000000E+02  0.47000000000E+01 0.  1.
</event>
<event>
 4    1  0.5025809E-002  0.4000000E+02  0.7546771E-02  0.1348030E+00
         11   -1    0    0    0    0  0.00000000000E+00  0.00000000000E+00  0.20000000000E+02  0.20000000000E+02  0.00000000000E+00 0. -1.
        -11   -1    0    0    0    0 -0.00000000000E+00 -0.00000000000E+00 -0.20000000000E+02  0.20000000000E+02  0.00000000000E+00 0.  1.
          5    1    1    2  501    0  0.11646780778E+01 -0.16699678003E+02 -0.98830298787E+01  0.20000000000E+02  0.47000000000E+01 0.  1.
         -5    1    1    2    0  501 -0.11646780778E+01  0.16699678003E+02  0.98830298787E+01  0.20000000000E+02  0.47000000000E+01 0. -1.
</event>
<event>
 4    1  0.5025809E-002  0.4000000E+02  0.7546771E-02  0.1348030E+00
         11   -1    0    0    0    0  0.00000000000E+00  0.00000000000E+00  0.20000000000E+02  0.20000000000E+02  0.00000000000E+00 0.  1.
        -11   -1    0    0    0    0 -0.00000000000E+00 -0.00000000000E+00 -0.20000000000E+02  0.20000000000E+02  0.00000000000E+00 0. -1.
          5    1    1    2  501    0  0.16916315074E+02  0.57857997920E+01 -0.76336626268E+01  0.20000000000E+02  0.47000000000E+01 0. -1.
         -5    1    1    2    0  501 -0.16916315074E+02 -0.57857997920E+01  0.76336626268E+01  0.20000000000E+02  0.47000000000E+01 0.  1.
</event>
<event>
 4    1  0.5025809E-002  0.4000000E+02  0.7546771E-02  0.1348030E+00
         11   -1    0    0    0    0  0.00000000000E+00  0.00000000000E+00  0.20000000000E+02  0.20000000000E+02  0.00000000000E+00 0. -1.
        -11   -1    0    0    0    0 -0.00000000000E+00 -0.00000000000E+00 -0.20000000000E+02  0.20000000000E+02  0.00000000000E+00 0.  1.
          5    1    1    2  501    0 -0.19648984760E+01  0.12168666973E+02 -0.15032388968E+02  0.20000000000E+02  0.47000000000E+01 0.  1.
         -5    1    1    2    0  501  0.19648984760E+01 -0.12168666973E+02  0.15032388968E+02  0.20000000000E+02  0.47000000000E+01 0. -1.
</event>
<event>
 4    1  0.5025809E-002  0.4000000E+02  0.7546771E-02  0.1348030E+00
         11   -1    0    0    0    0  0.00000000000E+00  0.00000000000E+00  0.20000000000E+02  0.20000000000E+02  0.00000000000E+00 0.  1.
        -11   -1    0    0    0    0 -0.00000000000E+00 -0.00000000000E+00 -0.20000000000E+02  0.20000000000E+02  0.00000000000E+00 0. -1.
          5    1    1    2  501    0 -0.16394496091E+02  0.89964315165E+01  0.53098698553E+01  0.20000000000E+02  0.47000000000E+01 0.  1.
         -5    1    1    2    0  501  0.16394496091E+02 -0.89964315165E+01 -0.53098698553E+01  0.20000000000E+02  0.47000000000E+01 0. -1.
</event>
<event>
 4    1  0.5025809E-002  0.4000000E+02  0.7546771E-02  0.1348030E+00
         11   -1    0    0    0    0  0.00000000000E+00  0.00000000000E+00  0.20000000000E+02  0.20000000000E+02  0.00000000000E+00 0.  1.
        -11   -1    0    0    0    0 -0.00000000000E+00 -0.00000000000E+00 -0.20000000000E+02  0.20000000000E+02  0.00000000000E+00 0. -1.
          5    1    1    2  501    0  0.16574664229E+02 -0.82260943489E+01  0.59600232770E+01  0.20000000000E+02  0.47000000000E+01 0. -1.
         -5    1    1    2    0  501 -0.16574664229E+02  0.82260943489E+01 -0.59600232770E+01  0.20000000000E+02  0.47000000000E+01 0.  1.
</event>
<event>
 4    1  0.5025809E-002  0.4000000E+02  0.7546771E-02  0.1348030E+00
         11   -1    0    0    0    0  0.00000000000E+00  0.00000000000E+00  0.20000000000E+02  0.20000000000E+02  0.00000000000E+00 0.  1.
        -11   -1    0    0    0    0 -0.00000000000E+00 -0.00000000000E+00 -0.20000000000E+02  0.20000000000E+02  0.00000000000E+00 0. -1.
          5    1    1    2  501    0 -0.13166215486E+02 -0.32961047573E+01 -0.13917487676E+02  0.20000000000E+02  0.47000000000E+01 0. -1.
         -5    1    1    2    0  501  0.13166215486E+02  0.32961047573E+01  0.13917487676E+02  0.20000000000E+02  0.47000000000E+01 0.  1.
</event>
<event>
 4    1  0.5025809E-002  0.4000000E+02  0.7546771E-02  0.1348030E+00
         11   -1    0    0    0    0  0.00000000000E+00  0.00000000000E+00  0.20000000000E+02  0.20000000000E+02  0.00000000000E+00 0.  1.
        -11   -1    0    0    0    0 -0.00000000000E+00 -0.00000000000E+00 -0.20000000000E+02  0.20000000000E+02  0.00000000000E+00 0. -1.
          5    1    1    2  501    0  0.24674073496E+01 -0.19105758107E+02  0.26061289565E+01  0.20000000000E+02  0.47000000000E+01 0.  1.
         -5    1    1    2    0  501 -0.24674073496E+01  0.19105758107E+02 -0.26061289565E+01  0.20000000000E+02  0.47000000000E+01 0. -1.
</event>
<event>
 4    1  0.5025809E-002  0.4000000E+02  0.7546771E-02  0.1348030E+00
         11   -1    0    0    0    0  0.00000000000E+00  0.00000000000E+00  0.20000000000E+02  0.20000000000E+02  0.00000000000E+00 0.  1.
        -11   -1    0    0    0    0 -0.00000000000E+00 -0.00000000000E+00 -0.20000000000E+02  0.20000000000E+02  0.00000000000E+00 0. -1.
          5    1    1    2  501    0 -0.99246529445E+01  0.15738742151E+02 -0.56305647519E+01  0.20000000000E+02  0.47000000000E+01 0. -1.
         -5    1    1    2    0  501  0.99246529445E+01 -0.15738742151E+02  0.56305647519E+01  0.20000000000E+02  0.47000000000E+01 0.  1.
</event>
<event>
 4    1  0.5025809E-002  0.4000000E+02  0.7546771E-02  0.1348030E+00
         11   -1    0    0    0    0  0.00000000000E+00  0.00000000000E+00  0.20000000000E+02  0.20000000000E+02  0.00000000000E+00 0. -1.
        -11   -1    0    0    0    0 -0.00000000000E+00 -0.00000000000E+00 -0.20000000000E+02  0.20000000000E+02  0.00000000000E+00 0.  1.
          5    1    1    2  501    0  0.24795325850E+01 -0.17042730148E+02 -0.90170542454E+01  0.20000000000E+02  0.47000000000E+01 0.  1.
         -5    1    1    2    0  501 -0.24795325850E+01  0.17042730148E+02  0.90170542454E+01  0.20000000000E+02  0.47000000000E+01 0. -1.
</event>
<event>
 4    1  0.5025809E-002  0.4000000E+02  0.7546771E-02  0.1348030E+00
         11   -1    0    0    0    0  0.00000000000E+00  0.00000000000E+00  0.20000000000E+02  0.20000000000E+02  0.00000000000E+00 0.  1.
        -11   -1    0    0    0    0 -0.00000000000E+00 -0.00000000000E+00 -0.20000000000E+02  0.20000000000E+02  0.00000000000E+00 0. -1.
          5    1    1    2  501    0  0.12871230778E+02  0.14458911067E+02  0.17836224443E+01  0.20000000000E+02  0.47000000000E+01 0. -1.
         -5    1    1    2    0  501 -0.12871230778E+02 -0.14458911067E+02 -0.17836224443E+01  0.20000000000E+02  0.47000000000E+01 0.  1.
</event>
<event>
 4    1  0.5025809E-002  0.4000000E+02  0.7546771E-02  0.1348030E+00
         11   -1    0    0    0    0  0.00000000000E+00  0.00000000000E+00  0.20000000000E+02  0.20000000000E+02  0.00000000000E+00 0.  1.
        -11   -1    0    0    0    0 -0.00000000000E+00 -0.00000000000E+00 -0.20000000000E+02  0.20000000000E+02  0.00000000000E+00 0. -1.
          5    1    1    2  501    0 -0.64473690124E+01 -0.52481896823E+01 -0.17572647435E+02  0.20000000000E+02  0.47000000000E+01 0. -1.
         -5    1    1    2    0  501  0.64473690124E+01  0.52481896823E+01  0.17572647435E+02  0.20000000000E+02  0.47000000000E+01 0.  1.
</event>
<event>
 4    1  0.5025809E-002  0.4000000E+02  0.7546771E-02  0.1348030E+00
         11   -1    0    0    0    0  0.00000000000E+00  0.00000000000E+00  0.20000000000E+02  0.20000000000E+02  0.00000000000E+00 0.  1.
        -11   -1    0    0    0    0 -0.00000000000E+00 -0.00000000000E+00 -0.20000000000E+02  0.20000000000E+02  0.00000000000E+00 0. -1.
          5    1    1    2  501    0 -0.14970623475E+02  0.60411134278E+00 -0.12386504037E+02  0.20000000000E+02  0.47000000000E+01 0. -1.
         -5    1    1    2    0  501  0.14970623475E+02 -0.60411134278E+00  0.12386504037E+02  0.20000000000E+02  0.47000000000E+01 0.  1.
</event>
<event>
 4    1  0.5025809E-002  0.4000000E+02  0.7546771E-02  0.1348030E+00
         11   -1    0    0    0    0  0.00000000000E+00  0.00000000000E+00  0.20000000000E+02  0.20000000000E+02  0.00000000000E+00 0. -1.
        -11   -1    0    0    0    0 -0.00000000000E+00 -0.00000000000E+00 -0.20000000000E+02  0.20000000000E+02  0.00000000000E+00 0.  1.
          5    1    1    2  501    0  0.17270683400E+02  0.66115417444E+01  0.59934139400E+01  0.20000000000E+02  0.47000000000E+01 0.  1.
         -5    1    1    2    0  501 -0.17270683400E+02 -0.66115417444E+01 -0.59934139400E+01  0.20000000000E+02  0.47000000000E+01 0. -1.
</event>
<event>
 4    1  0.5025809E-002  0.4000000E+02  0.7546771E-02  0.1348030E+00
         11   -1    0    0    0    0  0.00000000000E+00  0.00000000000E+00  0.20000000000E+02  0.20000000000E+02  0.00000000000E+00 0. -1.
        -11   -1    0    0    0    0 -0.00000000000E+00 -0.00000000000E+00 -0.20000000000E+02  0.20000000000E+02  0.00000000000E+00 0.  1.
          5    1    1    2  501    0  0.89001257307E+01  0.15992860948E+02 -0.65518059100E+01  0.20000000000E+02  0.47000000000E+01 0.  1.
         -5    1    1    2    0  501 -0.89001257307E+01 -0.15992860948E+02  0.65518059100E+01  0.20000000000E+02  0.47000000000E+01 0. -1.
</event>
<event>
 4    1  0.5025809E-002  0.4000000E+02  0.7546771E-02  0.1348030E+00
         11   -1    0    0    0    0  0.00000000000E+00  0.00000000000E+00  0.20000000000E+02  0.20000000000E+02  0.00000000000E+00 0.  1.
        -11   -1    0    0    0    0 -0.00000000000E+00 -0.00000000000E+00 -0.20000000000E+02  0.20000000000E+02  0.00000000000E+00 0. -1.
          5    1    1    2  501    0 -0.44449560188E+01  0.16430709518E+02 -0.93906416566E+01  0.20000000000E+02  0.47000000000E+01 0. -1.
         -5    1    1    2    0  501  0.44449560188E+01 -0.16430709518E+02  0.93906416566E+01  0.20000000000E+02  0.47000000000E+01 0.  1.
</event>
<event>
 4    1  0.5025809E-002  0.4000000E+02  0.7546771E-02  0.1348030E+00
         11   -1    0    0    0    0  0.00000000000E+00  0.00000000000E+00  0.20000000000E+02  0.20000000000E+02  0.00000000000E+00 0.  1.
        -11   -1    0    0    0    0 -0.00000000000E+00 -0.00000000000E+00 -0.20000000000E+02  0.20000000000E+02  0.00000000000E+00 0. -1.
          5    1    1    2  501    0 -0.17049044067E+02  0.92960964544E+01 -0.90702101721E+00  0.20000000000E+02  0.47000000000E+01 0. -1.
         -5    1    1    2    0  501  0.17049044067E+02 -0.92960964544E+01  0.90702101721E+00  0.20000000000E+02  0.47000000000E+01 0.  1.
</event>
<event>
 4    1  0.5025809E-002  0.4000000E+02  0.7546771E-02  0.1348030E+00
         11   -1    0    0    0    0  0.00000000000E+00  0.00000000000E+00  0.20000000000E+02  0.20000000000E+02  0.00000000000E+00 0.  1.
        -11   -1    0    0    0    0 -0.00000000000E+00 -0.00000000000E+00 -0.20000000000E+02  0.20000000000E+02  0.00000000000E+00 0. -1.
          5    1    1    2  501    0 -0.75967692587E+01  0.86451239247E+01 -0.15667192766E+02  0.20000000000E+02  0.47000000000E+01 0. -1.
         -5    1    1    2    0  501  0.75967692587E+01 -0.86451239247E+01  0.15667192766E+02  0.20000000000E+02  0.47000000000E+01 0.  1.
</event>
<event>
 4    1  0.5025809E-002  0.4000000E+02  0.7546771E-02  0.1348030E+00
         11   -1    0    0    0    0  0.00000000000E+00  0.00000000000E+00  0.20000000000E+02  0.20000000000E+02  0.00000000000E+00 0.  1.
        -11   -1    0    0    0    0 -0.00000000000E+00 -0.00000000000E+00 -0.20000000000E+02  0.20000000000E+02  0.00000000000E+00 0. -1.
          5    1    1    2  501    0 -0.83568987096E+01  0.98179922872E+01 -0.14549201745E+02  0.20000000000E+02  0.47000000000E+01 0. -1.
         -5    1    1    2    0  501  0.83568987096E+01 -0.98179922872E+01  0.14549201745E+02  0.20000000000E+02  0.47000000000E+01 0.  1.
</event>
<event>
 4    1  0.5025809E-002  0.4000000E+02  0.7546771E-02  0.1348030E+00
         11   -1    0    0    0    0  0.00000000000E+00  0.00000000000E+00  0.20000000000E+02  0.20000000000E+02  0.00000000000E+00 0.  1.
        -11   -1    0    0    0    0 -0.00000000000E+00 -0.00000000000E+00 -0.20000000000E+02  0.20000000000E+02  0.00000000000E+00 0. -1.
          5    1    1    2  501    0 -0.11918267457E+02  0.61955310274E+00 -0.15345391972E+02  0.20000000000E+02  0.47000000000E+01 0. -1.
         -5    1    1    2    0  501  0.11918267457E+02 -0.61955310274E+00  0.15345391972E+02  0.20000000000E+02  0.47000000000E+01 0.  1.
</event>
<event>
 4    1  0.5025809E-002  0.4000000E+02  0.7546771E-02  0.1348030E+00
         11   -1    0    0    0    0  0.00000000000E+00  0.00000000000E+00  0.20000000000E+02  0.20000000000E+02  0.00000000000E+00 0. -1.
        -11   -1    0    0    0    0 -0.00000000000E+00 -0.00000000000E+00 -0.20000000000E+02  0.20000000000E+02  0.00000000000E+00 0.  1.
          5    1    1    2  501    0 -0.85591188818E+00  0.15620348921E+02 -0.11540455555E+02  0.20000000000E+02  0.47000000000E+01 0.  1.
         -5    1    1    2    0  501  0.85591188818E+00 -0.15620348921E+02  0.11540455555E+02  0.20000000000E+02  0.47000000000E+01 0. -1.
</event>
<event>
 4    1  0.5025809E-002  0.4000000E+02  0.7546771E-02  0.1348030E+00
         11   -1    0    0    0    0  0.00000000000E+00  0.00000000000E+00  0.20000000000E+02  0.20000000000E+02  0.00000000000E+00 0. -1.
        -11   -1    0    0    0    0 -0.00000000000E+00 -0.00000000000E+00 -0.20000000000E+02  0.20000000000E+02  0.00000000000E+00 0.  1.
          5    1    1    2  501    0  0.10760842983E+02 -0.64977941848E+01 -0.14828787173E+02  0.20000000000E+02  0.47000000000E+01 0.  1.
         -5    1    1    2    0  501 -0.10760842983E+02  0.64977941848E+01  0.14828787173E+02  0.20000000000E+02  0.47000000000E+01 0. -1.
</event>
<event>
 4    1  0.5025809E-002  0.4000000E+02  0.7546771E-02  0.1348030E+00
         11   -1    0    0    0    0  0.00000000000E+00  0.00000000000E+00  0.20000000000E+02  0.20000000000E+02  0.00000000000E+00 0.  1.
        -11   -1    0    0    0    0 -0.00000000000E+00 -0.00000000000E+00 -0.20000000000E+02  0.20000000000E+02  0.00000000000E+00 0. -1.
          5    1    1    2  501    0 -0.15906026306E+02 -0.10221575482E+02  0.45197037311E+01  0.20000000000E+02  0.47000000000E+01 0.  1.
         -5    1    1    2    0  501  0.15906026306E+02  0.10221575482E+02 -0.45197037311E+01  0.20000000000E+02  0.47000000000E+01 0. -1.
</event>
<event>
 4    1  0.5025809E-002  0.4000000E+02  0.7546771E-02  0.1348030E+00
         11   -1    0    0    0    0  0.00000000000E+00  0.00000000000E+00  0.20000000000E+02  0.20000000000E+02  0.00000000000E+00 0.  1.
        -11   -1    0    0    0    0 -0.00000000000E+00 -0.00000000000E+00 -0.20000000000E+02  0.20000000000E+02  0.00000000000E+00 0. -1.
          5    1    1    2  501    0 -0.67745962503E+01 -0.17304931789E+02  0.57056271729E+01  0.20000000000E+02  0.47000000000E+01 0.  1.
         -5    1    1    2    0  501  0.67745962503E+01  0.17304931789E+02 -0.57056271729E+01  0.20000000000E+02  0.47000000000E+01 0. -1.
</event>
<event>
 4    1  0.5025809E-002  0.4000000E+02  0.7546771E-02  0.1348030E+00
         11   -1    0    0    0    0  0.00000000000E+00  0.00000000000E+00  0.20000000000E+02  0.20000000000E+02  0.00000000000E+00 0.  1.
        -11   -1    0    0    0    0 -0.00000000000E+00 -0.00000000000E+00 -0.20000000000E+02  0.20000000000E+02  0.00000000000E+00 0. -1.
          5    1    1    2  501    0  0.11437326778E+02 -0.11729904419E+02  0.10464554386E+02  0.20000000000E+02  0.47000000000E+01 0. -1.
         -5    1    1    2    0  501 -0.11437326778E+02  0.11729904419E+02 -0.10464554386E+02  0.20000000000E+02  0.47000000000E+01 0.  1.
</event>
<event>
 4    1  0.5025809E-002  0.4000000E+02  0.7546771E-02  0.1348030E+00
         11   -1    0    0    0    0  0.00000000000E+00  0.00000000000E+00  0.20000000000E+02  0.20000000000E+02  0.00000000000E+00 0.  1.
        -11   -1    0    0    0    0 -0.00000000000E+00 -0.00000000000E+00 -0.20000000000E+02  0.20000000000E+02  0.00000000000E+00 0. -1.
          5    1    1    2  501    0 -0.11662950648E+02 -0.94726166581E+01 -0.12335117179E+02  0.20000000000E+02  0.47000000000E+01 0. -1.
         -5    1    1    2    0  501  0.11662950648E+02  0.94726166581E+01  0.12335117179E+02  0.20000000000E+02  0.47000000000E+01 0.  1.
</event>
<event>
 4    1  0.5025809E-002  0.4000000E+02  0.7546771E-02  0.1348030E+00
         11   -1    0    0    0    0  0.00000000000E+00  0.00000000000E+00  0.20000000000E+02  0.20000000000E+02  0.00000000000E+00 0. -1.
        -11   -1    0    0    0    0 -0.00000000000E+00 -0.00000000000E+00 -0.20000000000E+02  0.20000000000E+02  0.00000000000E+00 0.  1.
          5    1    1    2  501    0 -0.29244797413E+01 -0.15862399784E+02 -0.10850884357E+02  0.20000000000E+02  0.47000000000E+01 0.  1.
         -5    1    1    2    0  501  0.29244797413E+01  0.15862399784E+02  0.10850884357E+02  0.20000000000E+02  0.47000000000E+01 0. -1.
</event>
<event>
 4    1  0.5025809E-002  0.4000000E+02  0.7546771E-02  0.1348030E+00
         11   -1    0    0    0    0  0.00000000000E+00  0.00000000000E+00  0.20000000000E+02  0.20000000000E+02  0.00000000000E+00 0.  1.
        -11   -1    0    0    0    0 -0.00000000000E+00 -0.00000000000E+00 -0.20000000000E+02  0.20000000000E+02  0.00000000000E+00 0. -1.
          5    1    1    2  501    0 -0.46126163136E+01  0.41459304774E+01 -0.18424034065E+02  0.20000000000E+02  0.47000000000E+01 0. -1.
         -5    1    1    2    0  501  0.46126163136E+01 -0.41459304774E+01  0.18424034065E+02  0.20000000000E+02  0.47000000000E+01 0.  1.
</event>
<event>
 4    1  0.5025809E-002  0.4000000E+02  0.7546771E-02  0.1348030E+00
         11   -1    0    0    0    0  0.00000000000E+00  0.00000000000E+00  0.20000000000E+02  0.20000000000E+02  0.00000000000E+00 0.  1.
        -11   -1    0    0    0    0 -0.00000000000E+00 -0.00000000000E+00 -0.20000000000E+02  0.20000000000E+02  0.00000000000E+00 0. -1.
          5    1    1    2  501    0  0.70724044445E+01 -0.16690035705E+02 -0.70238026418E+01  0.20000000000E+02  0.47000000000E+01 0. -1.
         -5    1    1    2    0  501 -0.70724044445E+01  0.16690035705E+02  0.70238026418E+01  0.20000000000E+02  0.47000000000E+01 0.  1.
</event>
<event>
 4    1  0.5025809E-002  0.4000000E+02  0.7546771E-02  0.1348030E+00
         11   -1    0    0    0    0  0.00000000000E+00  0.00000000000E+00  0.20000000000E+02  0.20000000000E+02  0.00000000000E+00 0.  1.
        -11   -1    0    0    0    0 -0.00000000000E+00 -0.00000000000E+00 -0.20000000000E+02  0.20000000000E+02  0.00000000000E+00 0. -1.
          5    1    1    2  501    0  0.15734726349E+02  0.56040418592E+01 -0.99460093279E+01  0.20000000000E+02  0.47000000000E+01 0. -1.
         -5    1    1    2    0  501 -0.15734726349E+02 -0.56040418592E+01  0.99460093279E+01  0.20000000000E+02  0.47000000000E+01 0.  1.
</event>
<event>
 4    1  0.5025809E-002  0.4000000E+02  0.7546771E-02  0.1348030E+00
         11   -1    0    0    0    0  0.00000000000E+00  0.00000000000E+00  0.20000000000E+02  0.20000000000E+02  0.00000000000E+00 0.  1.
        -11   -1    0    0    0    0 -0.00000000000E+00 -0.00000000000E+00 -0.20000000000E+02  0.20000000000E+02  0.00000000000E+00 0. -1.
          5    1    1    2  501    0 -0.11636032597E+02 -0.54573767532E+00  0.15563255309E+02  0.20000000000E+02  0.47000000000E+01 0.  1.
         -5    1    1    2    0  501  0.11636032597E+02  0.54573767532E+00 -0.15563255309E+02  0.20000000000E+02  0.47000000000E+01 0. -1.
</event>
<event>
 4    1  0.5025809E-002  0.4000000E+02  0.7546771E-02  0.1348030E+00
         11   -1    0    0    0    0  0.00000000000E+00  0.00000000000E+00  0.20000000000E+02  0.20000000000E+02  0.00000000000E+00 0.  1.
        -11   -1    0    0    0    0 -0.00000000000E+00 -0.00000000000E+00 -0.20000000000E+02  0.20000000000E+02  0.00000000000E+00 0. -1.
          5    1    1    2  501    0  0.89321365506E+01 -0.69642469883E+01 -0.15799563302E+02  0.20000000000E+02  0.47000000000E+01 0. -1.
         -5    1    1    2    0  501 -0.89321365506E+01  0.69642469883E+01  0.15799563302E+02  0.20000000000E+02  0.47000000000E+01 0.  1.
</event>
<event>
 4    1  0.5025809E-002  0.4000000E+02  0.7546771E-02  0.1348030E+00
         11   -1    0    0    0    0  0.00000000000E+00  0.00000000000E+00  0.20000000000E+02  0.20000000000E+02  0.00000000000E+00 0.  1.
        -11   -1    0    0    0    0 -0.00000000000E+00 -0.00000000000E+00 -0.20000000000E+02  0.20000000000E+02  0.00000000000E+00 0. -1.
          5    1    1    2  501    0  0.11626108238E+02  0.55839178807E+01  0.14545221495E+02  0.20000000000E+02  0.47000000000E+01 0.  1.
         -5    1    1    2    0  501 -0.11626108238E+02 -0.55839178807E+01 -0.14545221495E+02  0.20000000000E+02  0.47000000000E+01 0. -1.
</event>
<event>
 4    1  0.5025809E-002  0.4000000E+02  0.7546771E-02  0.1348030E+00
         11   -1    0    0    0    0  0.00000000000E+00  0.00000000000E+00  0.20000000000E+02  0.20000000000E+02  0.00000000000E+00 0.  1.
        -11   -1    0    0    0    0 -0.00000000000E+00 -0.00000000000E+00 -0.20000000000E+02  0.20000000000E+02  0.00000000000E+00 0. -1.
          5    1    1    2  501    0  0.22426299588E+01  0.14794145454E+02  0.12410232518E+02  0.20000000000E+02  0.47000000000E+01 0.  1.
         -5    1    1    2    0  501 -0.22426299588E+01 -0.14794145454E+02 -0.12410232518E+02  0.20000000000E+02  0.47000000000E+01 0. -1.
</event>
<event>
 4    1  0.5025809E-002  0.4000000E+02  0.7546771E-02  0.1348030E+00
         11   -1    0    0    0    0  0.00000000000E+00  0.00000000000E+00  0.20000000000E+02  0.20000000000E+02  0.00000000000E+00 0.  1.
        -11   -1    0    0    0    0 -0.00000000000E+00 -0.00000000000E+00 -0.20000000000E+02  0.20000000000E+02  0.00000000000E+00 0. -1.
          5    1    1    2  501    0  0.59766915171E+01 -0.10350165635E+02  0.15331771908E+02  0.20000000000E+02  0.47000000000E+01 0.  1.
         -5    1    1    2    0  501 -0.59766915171E+01  0.10350165635E+02 -0.15331771908E+02  0.20000000000E+02  0.47000000000E+01 0. -1.
</event>
<event>
 4    1  0.5025809E-002  0.4000000E+02  0.7546771E-02  0.1348030E+00
         11   -1    0    0    0    0  0.00000000000E+00  0.00000000000E+00  0.20000000000E+02  0.20000000000E+02  0.00000000000E+00 0. -1.
        -11   -1    0    0    0    0 -0.00000000000E+00 -0.00000000000E+00 -0.20000000000E+02  0.20000000000E+02  0.00000000000E+00 0.  1.
          5    1    1    2  501    0  0.18232744002E+02  0.50394530075E+01  0.44811783640E+01  0.20000000000E+02  0.47000000000E+01 0.  1.
         -5    1    1    2    0  501 -0.18232744002E+02 -0.50394530075E+01 -0.44811783640E+01  0.20000000000E+02  0.47000000000E+01 0. -1.
</event>
<event>
 4    1  0.5025809E-002  0.4000000E+02  0.7546771E-02  0.1348030E+00
         11   -1    0    0    0    0  0.00000000000E+00  0.00000000000E+00  0.20000000000E+02  0.20000000000E+02  0.00000000000E+00 0.  1.
        -11   -1    0    0    0    0 -0.00000000000E+00 -0.00000000000E+00 -0.20000000000E+02  0.20000000000E+02  0.00000000000E+00 0. -1.
          5    1    1    2  501    0  0.76468638359E+01  0.29410065753E+01 -0.17629122321E+02  0.20000000000E+02  0.47000000000E+01 0. -1.
         -5    1    1    2    0  501 -0.76468638359E+01 -0.29410065753E+01  0.17629122321E+02  0.20000000000E+02  0.47000000000E+01 0.  1.
</event>
<event>
 4    1  0.5025809E-002  0.4000000E+02  0.7546771E-02  0.1348030E+00
         11   -1    0    0    0    0  0.00000000000E+00  0.00000000000E+00  0.20000000000E+02  0.20000000000E+02  0.00000000000E+00 0. -1.
        -11   -1    0    0    0    0 -0.00000000000E+00 -0.00000000000E+00 -0.20000000000E+02  0.20000000000E+02  0.00000000000E+00 0.  1.
          5    1    1    2  501    0 -0.16289697652E+02  0.94849199490E+01 -0.47531088739E+01  0.20000000000E+02  0.47000000000E+01 0.  1.
         -5    1    1    2    0  501  0.16289697652E+02 -0.94849199490E+01  0.47531088739E+01  0.20000000000E+02  0.47000000000E+01 0. -1.
</event>
<event>
 4    1  0.5025809E-002  0.4000000E+02  0.7546771E-02  0.1348030E+00
         11   -1    0    0    0    0  0.00000000000E+00  0.00000000000E+00  0.20000000000E+02  0.20000000000E+02  0.00000000000E+00 0. -1.
        -11   -1    0    0    0    0 -0.00000000000E+00 -0.00000000000E+00 -0.20000000000E+02  0.20000000000E+02  0.00000000000E+00 0.  1.
          5    1    1    2  501    0  0.78548530833E-01 -0.19401861785E+02 -0.12130908422E+01  0.20000000000E+02  0.47000000000E+01 0. -1.
         -5    1    1    2    0  501 -0.78548530833E-01  0.19401861785E+02  0.12130908422E+01  0.20000000000E+02  0.47000000000E+01 0.  1.
</event>
<event>
 4    1  0.5025809E-002  0.4000000E+02  0.7546771E-02  0.1348030E+00
         11   -1    0    0    0    0  0.00000000000E+00  0.00000000000E+00  0.20000000000E+02  0.20000000000E+02  0.00000000000E+00 0.  1.
        -11   -1    0    0    0    0 -0.00000000000E+00 -0.00000000000E+00 -0.20000000000E+02  0.20000000000E+02  0.00000000000E+00 0. -1.
          5    1    1    2  501    0 -0.13934229016E+02 -0.13442913946E+01 -0.13488518909E+02  0.20000000000E+02  0.47000000000E+01 0. -1.
         -5    1    1    2    0  501  0.13934229016E+02  0.13442913946E+01  0.13488518909E+02  0.20000000000E+02  0.47000000000E+01 0.  1.
</event>
<event>
 4    1  0.5025809E-002  0.4000000E+02  0.7546771E-02  0.1348030E+00
         11   -1    0    0    0    0  0.00000000000E+00  0.00000000000E+00  0.20000000000E+02  0.20000000000E+02  0.00000000000E+00 0.  1.
        -11   -1    0    0    0    0 -0.00000000000E+00 -0.00000000000E+00 -0.20000000000E+02  0.20000000000E+02  0.00000000000E+00 0. -1.
          5    1    1    2  501    0  0.26173789939E+01 -0.18953893024E+02  0.34364613269E+01  0.20000000000E+02  0.47000000000E+01 0.  1.
         -5    1    1    2    0  501 -0.26173789939E+01  0.18953893024E+02 -0.34364613269E+01  0.20000000000E+02  0.47000000000E+01 0. -1.
</event>
<event>
 4    1  0.5025809E-002  0.4000000E+02  0.7546771E-02  0.1348030E+00
         11   -1    0    0    0    0  0.00000000000E+00  0.00000000000E+00  0.20000000000E+02  0.20000000000E+02  0.00000000000E+00 0. -1.
        -11   -1    0    0    0    0 -0.00000000000E+00 -0.00000000000E+00 -0.20000000000E+02  0.20000000000E+02  0.00000000000E+00 0.  1.
          5    1    1    2  501    0 -0.11586371999E+01  0.59730167624E+01 -0.18463223732E+02  0.20000000000E+02  0.47000000000E+01 0.  1.
         -5    1    1    2    0  501  0.11586371999E+01 -0.59730167624E+01  0.18463223732E+02  0.20000000000E+02  0.47000000000E+01 0. -1.
</event>
<event>
 4    1  0.5025809E-002  0.4000000E+02  0.7546771E-02  0.1348030E+00
         11   -1    0    0    0    0  0.00000000000E+00  0.00000000000E+00  0.20000000000E+02  0.20000000000E+02  0.00000000000E+00 0.  1.
        -11   -1    0    0    0    0 -0.00000000000E+00 -0.00000000000E+00 -0.20000000000E+02  0.20000000000E+02  0.00000000000E+00 0. -1.
          5    1    1    2  501    0  0.62503548985E+01 -0.68279650212E+01  0.17094500792E+02  0.20000000000E+02  0.47000000000E+01 0.  1.
         -5    1    1    2    0  501 -0.62503548985E+01  0.68279650212E+01 -0.17094500792E+02  0.20000000000E+02  0.47000000000E+01 0. -1.
</event>
<event>
 4    1  0.5025809E-002  0.4000000E+02  0.7546771E-02  0.1348030E+00
         11   -1    0    0    0    0  0.00000000000E+00  0.00000000000E+00  0.20000000000E+02  0.20000000000E+02  0.00000000000E+00 0.  1.
        -11   -1    0    0    0    0 -0.00000000000E+00 -0.00000000000E+00 -0.20000000000E+02  0.20000000000E+02  0.00000000000E+00 0. -1.
          5    1    1    2  501    0 -0.10995892056E+02 -0.12982783136E+02 -0.94046637339E+01  0.20000000000E+02  0.47000000000E+01 0. -1.
         -5    1    1    2    0  501  0.10995892056E+02  0.12982783136E+02  0.94046637339E+01  0.20000000000E+02  0.47000000000E+01 0.  1.
</event>
<event>
 4    1  0.5025809E-002  0.4000000E+02  0.7546771E-02  0.1348030E+00
         11   -1    0    0    0    0  0.00000000000E+00  0.00000000000E+00  0.20000000000E+02  0.20000000000E+02  0.00000000000E+00 0.  1.
        -11   -1    0    0    0    0 -0.00000000000E+00 -0.00000000000E+00 -0.20000000000E+02  0.20000000000E+02  0.00000000000E+00 0. -1.
          5    1    1    2  501    0 -0.12226055926E+02 -0.28439972441E+01  0.14844030321E+02  0.20000000000E+02  0.47000000000E+01 0.  1.
         -5    1    1    2    0  501  0.12226055926E+02  0.28439972441E+01 -0.14844030321E+02  0.20000000000E+02  0.47000000000E+01 0. -1.
</event>
<event>
 4    1  0.5025809E-002  0.4000000E+02  0.7546771E-02  0.1348030E+00
         11   -1    0    0    0    0  0.00000000000E+00  0.00000000000E+00  0.20000000000E+02  0.20000000000E+02  0.00000000000E+00 0.  1.
        -11   -1    0    0    0    0 -0.00000000000E+00 -0.00000000000E+00 -0.20000000000E+02  0.20000000000E+02  0.00000000000E+00 0. -1.
          5    1    1    2  501    0 -0.38346735571E+01  0.25487302816E+01 -0.18886748070E+02  0.20000000000E+02  0.47000000000E+01 0. -1.
         -5    1    1    2    0  501  0.38346735571E+01 -0.25487302816E+01  0.18886748070E+02  0.20000000000E+02  0.47000000000E+01 0.  1.
</event>
<event>
 4    1  0.5025809E-002  0.4000000E+02  0.7546771E-02  0.1348030E+00
         11   -1    0    0    0    0  0.00000000000E+00  0.00000000000E+00  0.20000000000E+02  0.20000000000E+02  0.00000000000E+00 0.  1.
        -11   -1    0    0    0    0 -0.00000000000E+00 -0.00000000000E+00 -0.20000000000E+02  0.20000000000E+02  0.00000000000E+00 0. -1.
          5    1    1    2  501    0  0.57481852204E+01 -0.33394237268E+01 -0.18267912192E+02  0.20000000000E+02  0.47000000000E+01 0. -1.
         -5    1    1    2    0  501 -0.57481852204E+01  0.33394237268E+01  0.18267912192E+02  0.20000000000E+02  0.47000000000E+01 0.  1.
</event>
<event>
 4    1  0.5025809E-002  0.4000000E+02  0.7546771E-02  0.1348030E+00
         11   -1    0    0    0    0  0.00000000000E+00  0.00000000000E+00  0.20000000000E+02  0.20000000000E+02  0.00000000000E+00 0.  1.
        -11   -1    0    0    0    0 -0.00000000000E+00 -0.00000000000E+00 -0.20000000000E+02  0.20000000000E+02  0.00000000000E+00 0. -1.
          5    1    1    2  501    0 -0.17523319965E+02 -0.83354347920E+01  0.11678117248E+01  0.20000000000E+02  0.47000000000E+01 0.  1.
         -5    1    1    2    0  501  0.17523319965E+02  0.83354347920E+01 -0.11678117248E+01  0.20000000000E+02  0.47000000000E+01 0. -1.
</event>
<event>
 4    1  0.5025809E-002  0.4000000E+02  0.7546771E-02  0.1348030E+00
         11   -1    0    0    0    0  0.00000000000E+00  0.00000000000E+00  0.20000000000E+02  0.20000000000E+02  0.00000000000E+00 0.  1.
        -11   -1    0    0    0    0 -0.00000000000E+00 -0.00000000000E+00 -0.20000000000E+02  0.20000000000E+02  0.00000000000E+00 0. -1.
          5    1    1    2  501    0  0.15238881325E-01 -0.19017718251E+02  0.40294119074E+01  0.20000000000E+02  0.47000000000E+01 0.  1.
         -5    1    1    2    0  501 -0.15238881325E-01  0.19017718251E+02 -0.40294119074E+01  0.20000000000E+02  0.47000000000E+01 0. -1.
</event>
<event>
 4    1  0.5025809E-002  0.4000000E+02  0.7546771E-02  0.1348030E+00
         11   -1    0    0    0    0  0.00000000000E+00  0.00000000000E+00  0.20000000000E+02  0.20000000000E+02  0.00000000000E+00 0.  1.
        -11   -1    0    0    0    0 -0.00000000000E+00 -0.00000000000E+00 -0.20000000000E+02  0.20000000000E+02  0.00000000000E+00 0. -1.
          5    1    1    2  501    0  0.46323522124E+01  0.24681428437E+01  0.18717894750E+02  0.20000000000E+02  0.47000000000E+01 0.  1.
         -5    1    1    2    0  501 -0.46323522124E+01 -0.24681428437E+01 -0.18717894750E+02  0.20000000000E+02  0.47000000000E+01 0. -1.
</event>
<event>
 4    1  0.5025809E-002  0.4000000E+02  0.7546771E-02  0.1348030E+00
         11   -1    0    0    0    0  0.00000000000E+00  0.00000000000E+00  0.20000000000E+02  0.20000000000E+02  0.00000000000E+00 0. -1.
        -11   -1    0    0    0    0 -0.00000000000E+00 -0.00000000000E+00 -0.20000000000E+02  0.20000000000E+02  0.00000000000E+00 0.  1.
          5    1    1    2  501    0 -0.15472768807E+02 -0.83419407424E+01  0.83015329969E+01  0.20000000000E+02  0.47000000000E+01 0.  1.
         -5    1    1    2    0  501  0.15472768807E+02  0.83419407424E+01 -0.83015329969E+01  0.20000000000E+02  0.47000000000E+01 0. -1.
</event>
<event>
 4    1  0.5025809E-002  0.4000000E+02  0.7546771E-02  0.1348030E+00
         11   -1    0    0    0    0  0.00000000000E+00  0.00000000000E+00  0.20000000000E+02  0.20000000000E+02  0.00000000000E+00 0.  1.
        -11   -1    0    0    0    0 -0.00000000000E+00 -0.00000000000E+00 -0.20000000000E+02  0.20000000000E+02  0.00000000000E+00 0. -1.
          5    1    1    2  501    0  0.39120399901E+01 -0.64852008813E+01 -0.17903857479E+02  0.20000000000E+02  0.47000000000E+01 0. -1.
         -5    1    1    2    0  501 -0.39120399901E+01  0.64852008813E+01  0.17903857479E+02  0.20000000000E+02  0.47000000000E+01 0.  1.
</event>
<event>
 4    1  0.5025809E-002  0.4000000E+02  0.7546771E-02  0.1348030E+00
         11   -1    0    0    0    0  0.00000000000E+00  0.00000000000E+00  0.20000000000E+02  0.20000000000E+02  0.00000000000E+00 0. -1.
        -11   -1    0    0    0    0 -0.00000000000E+00 -0.00000000000E+00 -0.20000000000E+02  0.20000000000E+02  0.00000000000E+00 0.  1.
          5    1    1    2  501    0  0.98226280943E+01 -0.34671002800E+01 -0.16413567344E+02  0.20000000000E+02  0.47000000000E+01 0.  1.
         -5    1    1    2    0  501 -0.98226280943E+01  0.34671002800E+01  0.16413567344E+02  0.20000000000E+02  0.47000000000E+01 0. -1.
</event>
<event>
 4    1  0.5025809E-002  0.4000000E+02  0.7546771E-02  0.1348030E+00
         11   -1    0    0    0    0  0.00000000000E+00  0.00000000000E+00  0.20000000000E+02  0.20000000000E+02  0.00000000000E+00 0.  1.
        -11   -1    0    0    0    0 -0.00000000000E+00 -0.00000000000E+00 -0.20000000000E+02  0.20000000000E+02  0.00000000000E+00 0. -1.
          5    1    1    2  501    0  0.10779966859E+02 -0.12688258523E+02  0.10035457646E+02  0.20000000000E+02  0.47000000000E+01 0. -1.
         -5    1    1    2    0  501 -0.10779966859E+02  0.12688258523E+02 -0.10035457646E+02  0.20000000000E+02  0.47000000000E+01 0.  1.
</event>
<event>
 4    1  0.5025809E-002  0.4000000E+02  0.7546771E-02  0.1348030E+00
         11   -1    0    0    0    0  0.00000000000E+00  0.00000000000E+00  0.20000000000E+02  0.20000000000E+02  0.00000000000E+00 0.  1.
        -11   -1    0    0    0    0 -0.00000000000E+00 -0.00000000000E+00 -0.20000000000E+02  0.20000000000E+02  0.00000000000E+00 0. -1.
          5    1    1    2  501    0 -0.12161571294E+02 -0.40576398645E+01 -0.14613067521E+02  0.20000000000E+02  0.47000000000E+01 0. -1.
         -5    1    1    2    0  501  0.12161571294E+02  0.40576398645E+01  0.14613067521E+02  0.20000000000E+02  0.47000000000E+01 0.  1.
</event>
<event>
 4    1  0.5025809E-002  0.4000000E+02  0.7546771E-02  0.1348030E+00
         11   -1    0    0    0    0  0.00000000000E+00  0.00000000000E+00  0.20000000000E+02  0.20000000000E+02  0.00000000000E+00 0.  1.
        -11   -1    0    0    0    0 -0.00000000000E+00 -0.00000000000E+00 -0.20000000000E+02  0.20000000000E+02  0.00000000000E+00 0. -1.
          5    1    1    2  501    0 -0.18387124043E+02 -0.18702898236E+01  0.60270793438E+01  0.20000000000E+02  0.47000000000E+01 0. -1.
         -5    1    1    2    0  501  0.18387124043E+02  0.18702898236E+01 -0.60270793438E+01  0.20000000000E+02  0.47000000000E+01 0.  1.
</event>
<event>
 4    1  0.5025809E-002  0.4000000E+02  0.7546771E-02  0.1348030E+00
         11   -1    0    0    0    0  0.00000000000E+00  0.00000000000E+00  0.20000000000E+02  0.20000000000E+02  0.00000000000E+00 0.  1.
        -11   -1    0    0    0    0 -0.00000000000E+00 -0.00000000000E+00 -0.20000000000E+02  0.20000000000E+02  0.00000000000E+00 0. -1.
          5    1    1    2  501    0  0.31391684538E+01  0.52309294921E+00 -0.19177643108E+02  0.20000000000E+02  0.47000000000E+01 0. -1.
         -5    1    1    2    0  501 -0.31391684538E+01 -0.52309294921E+00  0.19177643108E+02  0.20000000000E+02  0.47000000000E+01 0.  1.
</event>
<event>
 4    1  0.5025809E-002  0.4000000E+02  0.7546771E-02  0.1348030E+00
         11   -1    0    0    0    0  0.00000000000E+00  0.00000000000E+00  0.20000000000E+02  0.20000000000E+02  0.00000000000E+00 0.  1.
        -11   -1    0    0    0    0 -0.00000000000E+00 -0.00000000000E+00 -0.20000000000E+02  0.20000000000E+02  0.00000000000E+00 0. -1.
          5    1    1    2  501    0 -0.43563012383E+01 -0.80334453896E+01  0.17157983410E+02  0.20000000000E+02  0.47000000000E+01 0.  1.
         -5    1    1    2    0  501  0.43563012383E+01  0.80334453896E+01 -0.17157983410E+02  0.20000000000E+02  0.47000000000E+01 0. -1.
</event>
<event>
 4    1  0.5025809E-002  0.4000000E+02  0.7546771E-02  0.1348030E+00
         11   -1    0    0    0    0  0.00000000000E+00  0.00000000000E+00  0.20000000000E+02  0.20000000000E+02  0.00000000000E+00 0.  1.
        -11   -1    0    0    0    0 -0.00000000000E+00 -0.00000000000E+00 -0.20000000000E+02  0.20000000000E+02  0.00000000000E+00 0. -1.
          5    1    1    2  501    0 -0.17626352586E+02  0.16525755785E+01  0.80306094713E+01  0.20000000000E+02  0.47000000000E+01 0. -1.
         -5    1    1    2    0  501  0.17626352586E+02 -0.16525755785E+01 -0.80306094713E+01  0.20000000000E+02  0.47000000000E+01 0.  1.
</event>
<event>
 4    1  0.5025809E-002  0.4000000E+02  0.7546771E-02  0.1348030E+00
         11   -1    0    0    0    0  0.00000000000E+00  0.00000000000E+00  0.20000000000E+02  0.20000000000E+02  0.00000000000E+00 0.  1.
        -11   -1    0    0    0    0 -0.00000000000E+00 -0.00000000000E+00 -0.20000000000E+02  0.20000000000E+02  0.00000000000E+00 0. -1.
          5    1    1    2  501    0 -0.10377978392E+02 -0.13596834185E+02 -0.92376222397E+01  0.20000000000E+02  0.47000000000E+01 0. -1.
         -5    1    1    2    0  501  0.10377978392E+02  0.13596834185E+02  0.92376222397E+01  0.20000000000E+02  0.47000000000E+01 0.  1.
</event>
<event>
 4    1  0.5025809E-002  0.4000000E+02  0.7546771E-02  0.1348030E+00
         11   -1    0    0    0    0  0.00000000000E+00  0.00000000000E+00  0.20000000000E+02  0.20000000000E+02  0.00000000000E+00 0. -1.
        -11   -1    0    0    0    0 -0.00000000000E+00 -0.00000000000E+00 -0.20000000000E+02  0.20000000000E+02  0.00000000000E+00 0.  1.
          5    1    1    2  501    0 -0.20787830914E+01  0.33059147397E+01 -0.19043623305E+02  0.20000000000E+02  0.47000000000E+01 0.  1.
         -5    1    1    2    0  501  0.20787830914E+01 -0.33059147397E+01  0.19043623305E+02  0.20000000000E+02  0.47000000000E+01 0. -1.
</event>
<event>
 4    1  0.5025809E-002  0.4000000E+02  0.7546771E-02  0.1348030E+00
         11   -1    0    0    0    0  0.00000000000E+00  0.00000000000E+00  0.20000000000E+02  0.20000000000E+02  0.00000000000E+00 0.  1.
        -11   -1    0    0    0    0 -0.00000000000E+00 -0.00000000000E+00 -0.20000000000E+02  0.20000000000E+02  0.00000000000E+00 0. -1.
          5    1    1    2  501    0 -0.73719764784E+01  0.16902275495E+02 -0.61544330275E+01  0.20000000000E+02  0.47000000000E+01 0. -1.
         -5    1    1    2    0  501  0.73719764784E+01 -0.16902275495E+02  0.61544330275E+01  0.20000000000E+02  0.47000000000E+01 0.  1.
</event>
<event>
 4    1  0.5025809E-002  0.4000000E+02  0.7546771E-02  0.1348030E+00
         11   -1    0    0    0    0  0.00000000000E+00  0.00000000000E+00  0.20000000000E+02  0.20000000000E+02  0.00000000000E+00 0.  1.
        -11   -1    0    0    0    0 -0.00000000000E+00 -0.00000000000E+00 -0.20000000000E+02  0.20000000000E+02  0.00000000000E+00 0. -1.
          5    1    1    2  501    0  0.94049606204E+01 -0.12611765190E+02 -0.11419286078E+02  0.20000000000E+02  0.47000000000E+01 0. -1.
         -5    1    1    2    0  501 -0.94049606204E+01  0.12611765190E+02  0.11419286078E+02  0.20000000000E+02  0.47000000000E+01 0.  1.
</event>
<event>
 4    1  0.5025809E-002  0.4000000E+02  0.7546771E-02  0.1348030E+00
         11   -1    0    0    0    0  0.00000000000E+00  0.00000000000E+00  0.20000000000E+02  0.20000000000E+02  0.00000000000E+00 0.  1.
        -11   -1    0    0    0    0 -0.00000000000E+00 -0.00000000000E+00 -0.20000000000E+02  0.20000000000E+02  0.00000000000E+00 0. -1.
          5    1    1    2  501    0 -0.12254714654E+01 -0.18408166511E+02 -0.61276117203E+01  0.20000000000E+02  0.47000000000E+01 0. -1.
         -5    1    1    2    0  501  0.12254714654E+01  0.18408166511E+02  0.61276117203E+01  0.20000000000E+02  0.47000000000E+01 0.  1.
</event>
<event>
 4    1  0.5025809E-002  0.4000000E+02  0.7546771E-02  0.1348030E+00
         11   -1    0    0    0    0  0.00000000000E+00  0.00000000000E+00  0.20000000000E+02  0.20000000000E+02  0.00000000000E+00 0.  1.
        -11   -1    0    0    0    0 -0.00000000000E+00 -0.00000000000E+00 -0.20000000000E+02  0.20000000000E+02  0.00000000000E+00 0. -1.
          5    1    1    2  501    0 -0.70259262795E+01 -0.97248551904E+01 -0.15296194018E+02  0.20000000000E+02  0.47000000000E+01 0. -1.
         -5    1    1    2    0  501  0.70259262795E+01  0.97248551904E+01  0.15296194018E+02  0.20000000000E+02  0.47000000000E+01 0.  1.
</event>
<event>
 4    1  0.5025809E-002  0.4000000E+02  0.7546771E-02  0.1348030E+00
         11   -1    0    0    0    0  0.00000000000E+00  0.00000000000E+00  0.20000000000E+02  0.20000000000E+02  0.00000000000E+00 0.  1.
        -11   -1    0    0    0    0 -0.00000000000E+00 -0.00000000000E+00 -0.20000000000E+02  0.20000000000E+02  0.00000000000E+00 0. -1.
          5    1    1    2  501    0 -0.62664923365E+01  0.34795625132E+01 -0.18070244008E+02  0.20000000000E+02  0.47000000000E+01 0. -1.
         -5    1    1    2    0  501  0.62664923365E+01 -0.34795625132E+01  0.18070244008E+02  0.20000000000E+02  0.47000000000E+01 0.  1.
</event>
<event>
 4    1  0.5025809E-002  0.4000000E+02  0.7546771E-02  0.1348030E+00
         11   -1    0    0    0    0  0.00000000000E+00  0.00000000000E+00  0.20000000000E+02  0.20000000000E+02  0.00000000000E+00 0.  1.
        -11   -1    0    0    0    0 -0.00000000000E+00 -0.00000000000E+00 -0.20000000000E+02  0.20000000000E+02  0.00000000000E+00 0. -1.
          5    1    1    2  501    0 -0.14252044436E+02 -0.63763059976E+01 -0.11581534925E+02  0.20000000000E+02  0.47000000000E+01 0. -1.
         -5    1    1    2    0  501  0.14252044436E+02  0.63763059976E+01  0.11581534925E+02  0.20000000000E+02  0.47000000000E+01 0.  1.
</event>
<event>
 4    1  0.5025809E-002  0.4000000E+02  0.7546771E-02  0.1348030E+00
         11   -1    0    0    0    0  0.00000000000E+00  0.00000000000E+00  0.20000000000E+02  0.20000000000E+02  0.00000000000E+00 0.  1.
        -11   -1    0    0    0    0 -0.00000000000E+00 -0.00000000000E+00 -0.20000000000E+02  0.20000000000E+02  0.00000000000E+00 0. -1.
          5    1    1    2  501    0  0.16539102478E+02  0.10033004823E+02  0.19253320412E+01  0.20000000000E+02  0.47000000000E+01 0. -1.
         -5    1    1    2    0  501 -0.16539102478E+02 -0.10033004823E+02 -0.19253320412E+01  0.20000000000E+02  0.47000000000E+01 0.  1.
</event>
<event>
 4    1  0.5025809E-002  0.4000000E+02  0.7546771E-02  0.1348030E+00
         11   -1    0    0    0    0  0.00000000000E+00  0.00000000000E+00  0.20000000000E+02  0.20000000000E+02  0.00000000000E+00 0.  1.
        -11   -1    0    0    0    0 -0.00000000000E+00 -0.00000000000E+00 -0.20000000000E+02  0.20000000000E+02  0.00000000000E+00 0. -1.
          5    1    1    2  501    0 -0.14099839698E+02 -0.13279664159E+02  0.16598314105E+01  0.20000000000E+02  0.47000000000E+01 0. -1.
         -5    1    1    2    0  501  0.14099839698E+02  0.13279664159E+02 -0.16598314105E+01  0.20000000000E+02  0.47000000000E+01 0.  1.
</event>
<event>
 4    1  0.5025809E-002  0.4000000E+02  0.7546771E-02  0.1348030E+00
         11   -1    0    0    0    0  0.00000000000E+00  0.00000000000E+00  0.20000000000E+02  0.20000000000E+02  0.00000000000E+00 0.  1.
        -11   -1    0    0    0    0 -0.00000000000E+00 -0.00000000000E+00 -0.20000000000E+02  0.20000000000E+02  0.00000000000E+00 0. -1.
          5    1    1    2  501    0  0.11436959102E+02 -0.69316330351E+01 -0.14108806823E+02  0.20000000000E+02  0.47000000000E+01 0. -1.
         -5    1    1    2    0  501 -0.11436959102E+02  0.69316330351E+01  0.14108806823E+02  0.20000000000E+02  0.47000000000E+01 0.  1.
</event>
<event>
 4    1  0.5025809E-002  0.4000000E+02  0.7546771E-02  0.1348030E+00
         11   -1    0    0    0    0  0.00000000000E+00  0.00000000000E+00  0.20000000000E+02  0.20000000000E+02  0.00000000000E+00 0.  1.
        -11   -1    0    0    0    0 -0.00000000000E+00 -0.00000000000E+00 -0.20000000000E+02  0.20000000000E+02  0.00000000000E+00 0. -1.
          5    1    1    2  501    0  0.56689408904E+01 -0.10338728420E+02 -0.15455866324E+02  0.20000000000E+02  0.47000000000E+01 0. -1.
         -5    1    1    2    0  501 -0.56689408904E+01  0.10338728420E+02  0.15455866324E+02  0.20000000000E+02  0.47000000000E+01 0.  1.
</event>
<event>
 4    1  0.5025809E-002  0.4000000E+02  0.7546771E-02  0.1348030E+00
         11   -1    0    0    0    0  0.00000000000E+00  0.00000000000E+00  0.20000000000E+02  0.20000000000E+02  0.00000000000E+00 0.  1.
        -11   -1    0    0    0    0 -0.00000000000E+00 -0.00000000000E+00 -0.20000000000E+02  0.20000000000E+02  0.00000000000E+00 0. -1.
          5    1    1    2  501    0 -0.18974333549E+01 -0.52059004722E+01 -0.18633527496E+02  0.20000000000E+02  0.47000000000E+01 0. -1.
         -5    1    1    2    0  501  0.18974333549E+01  0.52059004722E+01  0.18633527496E+02  0.20000000000E+02  0.47000000000E+01 0.  1.
</event>
<event>
 4    1  0.5025809E-002  0.4000000E+02  0.7546771E-02  0.1348030E+00
         11   -1    0    0    0    0  0.00000000000E+00  0.00000000000E+00  0.20000000000E+02  0.20000000000E+02  0.00000000000E+00 0. -1.
        -11   -1    0    0    0    0 -0.00000000000E+00 -0.00000000000E+00 -0.20000000000E+02  0.20000000000E+02  0.00000000000E+00 0.  1.
          5    1    1    2  501    0  0.96634209171E+01  0.65815857636E+01 -0.15530969867E+02  0.20000000000E+02  0.47000000000E+01 0.  1.
         -5    1    1    2    0  501 -0.96634209171E+01 -0.65815857636E+01  0.15530969867E+02  0.20000000000E+02  0.47000000000E+01 0. -1.
</event>
<event>
 4    1  0.5025809E-002  0.4000000E+02  0.7546771E-02  0.1348030E+00
         11   -1    0    0    0    0  0.00000000000E+00  0.00000000000E+00  0.20000000000E+02  0.20000000000E+02  0.00000000000E+00 0.  1.
        -11   -1    0    0    0    0 -0.00000000000E+00 -0.00000000000E+00 -0.20000000000E+02  0.20000000000E+02  0.00000000000E+00 0. -1.
          5    1    1    2  501    0 -0.41028184867E+01 -0.17678092409E+02 -0.69686389795E+01  0.20000000000E+02  0.47000000000E+01 0. -1.
         -5    1    1    2    0  501  0.41028184867E+01  0.17678092409E+02  0.69686389795E+01  0.20000000000E+02  0.47000000000E+01 0.  1.
</event>
<event>
 4    1  0.5025809E-002  0.4000000E+02  0.7546771E-02  0.1348030E+00
         11   -1    0    0    0    0  0.00000000000E+00  0.00000000000E+00  0.20000000000E+02  0.20000000000E+02  0.00000000000E+00 0.  1.
        -11   -1    0    0    0    0 -0.00000000000E+00 -0.00000000000E+00 -0.20000000000E+02  0.20000000000E+02  0.00000000000E+00 0. -1.
          5    1    1    2  501    0 -0.75443517890E+01  0.14986543471E+02 -0.98181602595E+01  0.20000000000E+02  0.47000000000E+01 0. -1.
         -5    1    1    2    0  501  0.75443517890E+01 -0.14986543471E+02  0.98181602595E+01  0.20000000000E+02  0.47000000000E+01 0.  1.
</event>
<event>
 4    1  0.5025809E-002  0.4000000E+02  0.7546771E-02  0.1348030E+00
         11   -1    0    0    0    0  0.00000000000E+00  0.00000000000E+00  0.20000000000E+02  0.20000000000E+02  0.00000000000E+00 0. -1.
        -11   -1    0    0    0    0 -0.00000000000E+00 -0.00000000000E+00 -0.20000000000E+02  0.20000000000E+02  0.00000000000E+00 0.  1.
          5    1    1    2  501    0  0.99228060569E+01 -0.10086846323E+02 -0.13330545796E+02  0.20000000000E+02  0.47000000000E+01 0.  1.
         -5    1    1    2    0  501 -0.99228060569E+01  0.10086846323E+02  0.13330545796E+02  0.20000000000E+02  0.47000000000E+01 0. -1.
</event>
<event>
 4    1  0.5025809E-002  0.4000000E+02  0.7546771E-02  0.1348030E+00
         11   -1    0    0    0    0  0.00000000000E+00  0.00000000000E+00  0.20000000000E+02  0.20000000000E+02  0.00000000000E+00 0.  1.
        -11   -1    0    0    0    0 -0.00000000000E+00 -0.00000000000E+00 -0.20000000000E+02  0.20000000000E+02  0.00000000000E+00 0. -1.
          5    1    1    2  501    0 -0.84453960090E+01  0.15007583290E+02 -0.90198519967E+01  0.20000000000E+02  0.47000000000E+01 0. -1.
         -5    1    1    2    0  501  0.84453960090E+01 -0.15007583290E+02  0.90198519967E+01  0.20000000000E+02  0.47000000000E+01 0.  1.
</event>
<event>
 4    1  0.5025809E-002  0.4000000E+02  0.7546771E-02  0.1348030E+00
         11   -1    0    0    0    0  0.00000000000E+00  0.00000000000E+00  0.20000000000E+02  0.20000000000E+02  0.00000000000E+00 0.  1.
        -11   -1    0    0    0    0 -0.00000000000E+00 -0.00000000000E+00 -0.20000000000E+02  0.20000000000E+02  0.00000000000E+00 0. -1.
          5    1    1    2  501    0 -0.12272220152E+02 -0.11385227103E+02 -0.98832796364E+01  0.20000000000E+02  0.47000000000E+01 0.  1.
         -5    1    1    2    0  501  0.12272220152E+02  0.11385227103E+02  0.98832796364E+01  0.20000000000E+02  0.47000000000E+01 0. -1.
</event>
<event>
 4    1  0.5025809E-002  0.4000000E+02  0.7546771E-02  0.1348030E+00
         11   -1    0    0    0    0  0.00000000000E+00  0.00000000000E+00  0.20000000000E+02  0.20000000000E+02  0.00000000000E+00 0.  1.
        -11   -1    0    0    0    0 -0.00000000000E+00 -0.00000000000E+00 -0.20000000000E+02  0.20000000000E+02  0.00000000000E+00 0. -1.
          5    1    1    2  501    0  0.10584533709E+02 -0.24977385998E+01  0.16113315861E+02  0.20000000000E+02  0.47000000000E+01 0.  1.
         -5    1    1    2    0  501 -0.10584533709E+02  0.24977385998E+01 -0.16113315861E+02  0.20000000000E+02  0.47000000000E+01 0. -1.
</event>
<event>
 4    1  0.5025809E-002  0.4000000E+02  0.7546771E-02  0.1348030E+00
         11   -1    0    0    0    0  0.00000000000E+00  0.00000000000E+00  0.20000000000E+02  0.20000000000E+02  0.00000000000E+00 0.  1.
        -11   -1    0    0    0    0 -0.00000000000E+00 -0.00000000000E+00 -0.20000000000E+02  0.20000000000E+02  0.00000000000E+00 0. -1.
          5    1    1    2  501    0  0.78710752925E+01  0.10546748753E+02  0.14308118831E+02  0.20000000000E+02  0.47000000000E+01 0.  1.
         -5    1    1    2    0  501 -0.78710752925E+01 -0.10546748753E+02 -0.14308118831E+02  0.20000000000E+02  0.47000000000E+01 0. -1.
</event>
<event>
 4    1  0.5025809E-002  0.4000000E+02  0.7546771E-02  0.1348030E+00
         11   -1    0    0    0    0  0.00000000000E+00  0.00000000000E+00  0.20000000000E+02  0.20000000000E+02  0.00000000000E+00 0.  1.
        -11   -1    0    0    0    0 -0.00000000000E+00 -0.00000000000E+00 -0.20000000000E+02  0.20000000000E+02  0.00000000000E+00 0. -1.
          5    1    1    2  501    0  0.42201164363E+01 -0.12338476809E+02  0.14417441080E+02  0.20000000000E+02  0.47000000000E+01 0.  1.
         -5    1    1    2    0  501 -0.42201164363E+01  0.12338476809E+02 -0.14417441080E+02  0.20000000000E+02  0.47000000000E+01 0. -1.
</event>
<event>
 4    1  0.5025809E-002  0.4000000E+02  0.7546771E-02  0.1348030E+00
         11   -1    0    0    0    0  0.00000000000E+00  0.00000000000E+00  0.20000000000E+02  0.20000000000E+02  0.00000000000E+00 0.  1.
        -11   -1    0    0    0    0 -0.00000000000E+00 -0.00000000000E+00 -0.20000000000E+02  0.20000000000E+02  0.00000000000E+00 0. -1.
          5    1    1    2  501    0 -0.71520962980E-01 -0.16459469340E+02  0.10343633492E+02  0.20000000000E+02  0.47000000000E+01 0. -1.
         -5    1    1    2    0  501  0.71520962980E-01  0.16459469340E+02 -0.10343633492E+02  0.20000000000E+02  0.47000000000E+01 0.  1.
</event>
<event>
 4    1  0.5025809E-002  0.4000000E+02  0.7546771E-02  0.1348030E+00
         11   -1    0    0    0    0  0.00000000000E+00  0.00000000000E+00  0.20000000000E+02  0.20000000000E+02  0.00000000000E+00 0.  1.
        -11   -1    0    0    0    0 -0.00000000000E+00 -0.00000000000E+00 -0.20000000000E+02  0.20000000000E+02  0.00000000000E+00 0. -1.
          5    1    1    2  501    0 -0.10588936917E+02 -0.87577468040E+01  0.13750864914E+02  0.20000000000E+02  0.47000000000E+01 0.  1.
         -5    1    1    2    0  501  0.10588936917E+02  0.87577468040E+01 -0.13750864914E+02  0.20000000000E+02  0.47000000000E+01 0. -1.
</event>
<event>
 4    1  0.5025809E-002  0.4000000E+02  0.7546771E-02  0.1348030E+00
         11   -1    0    0    0    0  0.00000000000E+00  0.00000000000E+00  0.20000000000E+02  0.20000000000E+02  0.00000000000E+00 0. -1.
        -11   -1    0    0    0    0 -0.00000000000E+00 -0.00000000000E+00 -0.20000000000E+02  0.20000000000E+02  0.00000000000E+00 0.  1.
          5    1    1    2  501    0  0.12630174647E+02 -0.92169411746E+01 -0.11551479722E+02  0.20000000000E+02  0.47000000000E+01 0.  1.
         -5    1    1    2    0  501 -0.12630174647E+02  0.92169411746E+01  0.11551479722E+02  0.20000000000E+02  0.47000000000E+01 0. -1.
</event>
<event>
 4    1  0.5025809E-002  0.4000000E+02  0.7546771E-02  0.1348030E+00
         11   -1    0    0    0    0  0.00000000000E+00  0.00000000000E+00  0.20000000000E+02  0.20000000000E+02  0.00000000000E+00 0.  1.
        -11   -1    0    0    0    0 -0.00000000000E+00 -0.00000000000E+00 -0.20000000000E+02  0.20000000000E+02  0.00000000000E+00 0. -1.
          5    1    1    2  501    0  0.70746213192E+01 -0.54355427602E+01 -0.17271786477E+02  0.20000000000E+02  0.47000000000E+01 0. -1.
         -5    1    1    2    0  501 -0.70746213192E+01  0.54355427602E+01  0.17271786477E+02  0.20000000000E+02  0.47000000000E+01 0.  1.
</event>
<event>
 4    1  0.5025809E-002  0.4000000E+02  0.7546771E-02  0.1348030E+00
         11   -1    0    0    0    0  0.00000000000E+00  0.00000000000E+00  0.20000000000E+02  0.20000000000E+02  0.00000000000E+00 0.  1.
        -11   -1    0    0    0    0 -0.00000000000E+00 -0.00000000000E+00 -0.20000000000E+02  0.20000000000E+02  0.00000000000E+00 0. -1.
          5    1    1    2  501    0  0.11396530267E+02 -0.49080206595E+01 -0.14964639357E+02  0.20000000000E+02  0.47000000000E+01 0. -1.
         -5    1    1    2    0  501 -0.11396530267E+02  0.49080206595E+01  0.14964639357E+02  0.20000000000E+02  0.47000000000E+01 0.  1.
</event>
<event>
 4    1  0.5025809E-002  0.4000000E+02  0.7546771E-02  0.1348030E+00
         11   -1    0    0    0    0  0.00000000000E+00  0.00000000000E+00  0.20000000000E+02  0.20000000000E+02  0.00000000000E+00 0.  1.
        -11   -1    0    0    0    0 -0.00000000000E+00 -0.00000000000E+00 -0.20000000000E+02  0.20000000000E+02  0.00000000000E+00 0. -1.
          5    1    1    2  501    0 -0.76832288644E+01 -0.76570436101E+01 -0.16132193818E+02  0.20000000000E+02  0.47000000000E+01 0. -1.
         -5    1    1    2    0  501  0.76832288644E+01  0.76570436101E+01  0.16132193818E+02  0.20000000000E+02  0.47000000000E+01 0.  1.
</event>
<event>
 4    1  0.5025809E-002  0.4000000E+02  0.7546771E-02  0.1348030E+00
         11   -1    0    0    0    0  0.00000000000E+00  0.00000000000E+00  0.20000000000E+02  0.20000000000E+02  0.00000000000E+00 0.  1.
        -11   -1    0    0    0    0 -0.00000000000E+00 -0.00000000000E+00 -0.20000000000E+02  0.20000000000E+02  0.00000000000E+00 0. -1.
          5    1    1    2  501    0 -0.85636103269E+01 -0.17602005454E+01  0.17363072084E+02  0.20000000000E+02  0.47000000000E+01 0.  1.
         -5    1    1    2    0  501  0.85636103269E+01  0.17602005454E+01 -0.17363072084E+02  0.20000000000E+02  0.47000000000E+01 0. -1.
</event>
<event>
 4    1  0.5025809E-002  0.4000000E+02  0.7546771E-02  0.1348030E+00
         11   -1    0    0    0    0  0.00000000000E+00  0.00000000000E+00  0.20000000000E+02  0.20000000000E+02  0.00000000000E+00 0. -1.
        -11   -1    0    0    0    0 -0.00000000000E+00 -0.00000000000E+00 -0.20000000000E+02  0.20000000000E+02  0.00000000000E+00 0.  1.
          5    1    1    2  501    0 -0.23886078976E+01  0.47228639709E+01 -0.18705590293E+02  0.20000000000E+02  0.47000000000E+01 0.  1.
         -5    1    1    2    0  501  0.23886078976E+01 -0.47228639709E+01  0.18705590293E+02  0.20000000000E+02  0.47000000000E+01 0. -1.
</event>
<event>
 4    1  0.5025809E-002  0.4000000E+02  0.7546771E-02  0.1348030E+00
         11   -1    0    0    0    0  0.00000000000E+00  0.00000000000E+00  0.20000000000E+02  0.20000000000E+02  0.00000000000E+00 0.  1.
        -11   -1    0    0    0    0 -0.00000000000E+00 -0.00000000000E+00 -0.20000000000E+02  0.20000000000E+02  0.00000000000E+00 0. -1.
          5    1    1    2  501    0 -0.33997039594E+01 -0.88553966154E+01 -0.16968617026E+02  0.20000000000E+02  0.47000000000E+01 0. -1.
         -5    1    1    2    0  501  0.33997039594E+01  0.88553966154E+01  0.16968617026E+02  0.20000000000E+02  0.47000000000E+01 0.  1.
</event>
<event>
 4    1  0.5025809E-002  0.4000000E+02  0.7546771E-02  0.1348030E+00
         11   -1    0    0    0    0  0.00000000000E+00  0.00000000000E+00  0.20000000000E+02  0.20000000000E+02  0.00000000000E+00 0.  1.
        -11   -1    0    0    0    0 -0.00000000000E+00 -0.00000000000E+00 -0.20000000000E+02  0.20000000000E+02  0.00000000000E+00 0. -1.
          5    1    1    2  501    0  0.90480794072E+01 -0.47439468694E+01  0.16538960885E+02  0.20000000000E+02  0.47000000000E+01 0.  1.
         -5    1    1    2    0  501 -0.90480794072E+01  0.47439468694E+01 -0.16538960885E+02  0.20000000000E+02  0.47000000000E+01 0. -1.
</event>
<event>
 4    1  0.5025809E-002  0.4000000E+02  0.7546771E-02  0.1348030E+00
         11   -1    0    0    0    0  0.00000000000E+00  0.00000000000E+00  0.20000000000E+02  0.20000000000E+02  0.00000000000E+00 0.  1.
        -11   -1    0    0    0    0 -0.00000000000E+00 -0.00000000000E+00 -0.20000000000E+02  0.20000000000E+02  0.00000000000E+00 0. -1.
          5    1    1    2  501    0  0.26622558859E+01 -0.17816804894E+02  0.73064257320E+01  0.20000000000E+02  0.47000000000E+01 0.  1.
         -5    1    1    2    0  501 -0.26622558859E+01  0.17816804894E+02 -0.73064257320E+01  0.20000000000E+02  0.47000000000E+01 0. -1.
</event>
<event>
 4    1  0.5025809E-002  0.4000000E+02  0.7546771E-02  0.1348030E+00
         11   -1    0    0    0    0  0.00000000000E+00  0.00000000000E+00  0.20000000000E+02  0.20000000000E+02  0.00000000000E+00 0.  1.
        -11   -1    0    0    0    0 -0.00000000000E+00 -0.00000000000E+00 -0.20000000000E+02  0.20000000000E+02  0.00000000000E+00 0. -1.
          5    1    1    2  501    0 -0.10058518001E+02 -0.13644179786E+01  0.16579341941E+02  0.20000000000E+02  0.47000000000E+01 0.  1.
         -5    1    1    2    0  501  0.10058518001E+02  0.13644179786E+01 -0.16579341941E+02  0.20000000000E+02  0.47000000000E+01 0. -1.
</event>
<event>
 4    1  0.5025809E-002  0.4000000E+02  0.7546771E-02  0.1348030E+00
         11   -1    0    0    0    0  0.00000000000E+00  0.00000000000E+00  0.20000000000E+02  0.20000000000E+02  0.00000000000E+00 0.  1.
        -11   -1    0    0    0    0 -0.00000000000E+00 -0.00000000000E+00 -0.20000000000E+02  0.20000000000E+02  0.00000000000E+00 0. -1.
          5    1    1    2  501    0  0.14261837387E+01 -0.12876172116E+02  0.14494143355E+02  0.20000000000E+02  0.47000000000E+01 0.  1.
         -5    1    1    2    0  501 -0.14261837387E+01  0.12876172116E+02 -0.14494143355E+02  0.20000000000E+02  0.47000000000E+01 0. -1.
</event>
<event>
 4    1  0.5025809E-002  0.4000000E+02  0.7546771E-02  0.1348030E+00
         11   -1    0    0    0    0  0.00000000000E+00  0.00000000000E+00  0.20000000000E+02  0.20000000000E+02  0.00000000000E+00 0.  1.
        -11   -1    0    0    0    0 -0.00000000000E+00 -0.00000000000E+00 -0.20000000000E+02  0.20000000000E+02  0.00000000000E+00 0. -1.
          5    1    1    2  501    0  0.17963625209E+02  0.23739648970E+01 -0.70414813794E+01  0.20000000000E+02  0.47000000000E+01 0. -1.
         -5    1    1    2    0  501 -0.17963625209E+02 -0.23739648970E+01  0.70414813794E+01  0.20000000000E+02  0.47000000000E+01 0.  1.
</event>
<event>
 4    1  0.5025809E-002  0.4000000E+02  0.7546771E-02  0.1348030E+00
         11   -1    0    0    0    0  0.00000000000E+00  0.00000000000E+00  0.20000000000E+02  0.20000000000E+02  0.00000000000E+00 0.  1.
        -11   -1    0    0    0    0 -0.00000000000E+00 -0.00000000000E+00 -0.20000000000E+02  0.20000000000E+02  0.00000000000E+00 0. -1.
          5    1    1    2  501    0 -0.13200433029E+02 -0.13827826610E+02  0.35284244494E+01  0.20000000000E+02  0.47000000000E+01 0. -1.
         -5    1    1    2    0  501  0.13200433029E+02  0.13827826610E+02 -0.35284244494E+01  0.20000000000E+02  0.47000000000E+01 0.  1.
</event>
<event>
 4    1  0.5025809E-002  0.4000000E+02  0.7546771E-02  0.1348030E+00
         11   -1    0    0    0    0  0.00000000000E+00  0.00000000000E+00  0.20000000000E+02  0.20000000000E+02  0.00000000000E+00 0.  1.
        -11   -1    0    0    0    0 -0.00000000000E+00 -0.00000000000E+00 -0.20000000000E+02  0.20000000000E+02  0.00000000000E+00 0. -1.
          5    1    1    2  501    0 -0.52651534454E+01  0.10645862656E+02 -0.15390054175E+02  0.20000000000E+02  0.47000000000E+01 0. -1.
         -5    1    1    2    0  501  0.52651534454E+01 -0.10645862656E+02  0.15390054175E+02  0.20000000000E+02  0.47000000000E+01 0.  1.
</event>
<event>
 4    1  0.5025809E-002  0.4000000E+02  0.7546771E-02  0.1348030E+00
         11   -1    0    0    0    0  0.00000000000E+00  0.00000000000E+00  0.20000000000E+02  0.20000000000E+02  0.00000000000E+00 0.  1.
        -11   -1    0    0    0    0 -0.00000000000E+00 -0.00000000000E+00 -0.20000000000E+02  0.20000000000E+02  0.00000000000E+00 0. -1.
          5    1    1    2  501    0 -0.24713695268E+01 -0.46402046530E+01  0.18715523862E+02  0.20000000000E+02  0.47000000000E+01 0.  1.
         -5    1    1    2    0  501  0.24713695268E+01  0.46402046530E+01 -0.18715523862E+02  0.20000000000E+02  0.47000000000E+01 0. -1.
</event>
<event>
 4    1  0.5025809E-002  0.4000000E+02  0.7546771E-02  0.1348030E+00
         11   -1    0    0    0    0  0.00000000000E+00  0.00000000000E+00  0.20000000000E+02  0.20000000000E+02  0.00000000000E+00 0.  1.
        -11   -1    0    0    0    0 -0.00000000000E+00 -0.00000000000E+00 -0.20000000000E+02  0.20000000000E+02  0.00000000000E+00 0. -1.
          5    1    1    2  501    0  0.28061302790E+01  0.66207796341E+00  0.19224913150E+02  0.20000000000E+02  0.47000000000E+01 0.  1.
         -5    1    1    2    0  501 -0.28061302790E+01 -0.66207796341E+00 -0.19224913150E+02  0.20000000000E+02  0.47000000000E+01 0. -1.
</event>
<event>
 4    1  0.5025809E-002  0.4000000E+02  0.7546771E-02  0.1348030E+00
         11   -1    0    0    0    0  0.00000000000E+00  0.00000000000E+00  0.20000000000E+02  0.20000000000E+02  0.00000000000E+00 0. -1.
        -11   -1    0    0    0    0 -0.00000000000E+00 -0.00000000000E+00 -0.20000000000E+02  0.20000000000E+02  0.00000000000E+00 0.  1.
          5    1    1    2  501    0  0.27631807201E+01 -0.64932580830E+01  0.18113874013E+02  0.20000000000E+02  0.47000000000E+01 0. -1.
         -5    1    1    2    0  501 -0.27631807201E+01  0.64932580830E+01 -0.18113874013E+02  0.20000000000E+02  0.47000000000E+01 0.  1.
</event>
<event>
 4    1  0.5025809E-002  0.4000000E+02  0.7546771E-02  0.1348030E+00
         11   -1    0    0    0    0  0.00000000000E+00  0.00000000000E+00  0.20000000000E+02  0.20000000000E+02  0.00000000000E+00 0.  1.
        -11   -1    0    0    0    0 -0.00000000000E+00 -0.00000000000E+00 -0.20000000000E+02  0.20000000000E+02  0.00000000000E+00 0. -1.
          5    1    1    2  501    0  0.15485834126E+02 -0.11236621562E+02 -0.34405344484E+01  0.20000000000E+02  0.47000000000E+01 0. -1.
         -5    1    1    2    0  501 -0.15485834126E+02  0.11236621562E+02  0.34405344484E+01  0.20000000000E+02  0.47000000000E+01 0.  1.
</event>
<event>
 4    1  0.5025809E-002  0.4000000E+02  0.7546771E-02  0.1348030E+00
         11   -1    0    0    0    0  0.00000000000E+00  0.00000000000E+00  0.20000000000E+02  0.20000000000E+02  0.00000000000E+00 0.  1.
        -11   -1    0    0    0    0 -0.00000000000E+00 -0.00000000000E+00 -0.20000000000E+02  0.20000000000E+02  0.00000000000E+00 0. -1.
          5    1    1    2  501    0 -0.44653300598E+01  0.81855080873E+01  0.17057792495E+02  0.20000000000E+02  0.47000000000E+01 0.  1.
         -5    1    1    2    0  501  0.44653300598E+01 -0.81855080873E+01 -0.17057792495E+02  0.20000000000E+02  0.47000000000E+01 0. -1.
</event>
<event>
 4    1  0.5025809E-002  0.4000000E+02  0.7546771E-02  0.1348030E+00
         11   -1    0    0    0    0  0.00000000000E+00  0.00000000000E+00  0.20000000000E+02  0.20000000000E+02  0.00000000000E+00 0. -1.
        -11   -1    0    0    0    0 -0.00000000000E+00 -0.00000000000E+00 -0.20000000000E+02  0.20000000000E+02  0.00000000000E+00 0.  1.
          5    1    1    2  501    0  0.46809629477E+01 -0.94082312409E+01 -0.16354931085E+02  0.20000000000E+02  0.47000000000E+01 0.  1.
         -5    1    1    2    0  501 -0.46809629477E+01  0.94082312409E+01  0.16354931085E+02  0.20000000000E+02  0.47000000000E+01 0. -1.
</event>
<event>
 4    1  0.5025809E-002  0.4000000E+02  0.7546771E-02  0.1348030E+00
         11   -1    0    0    0    0  0.00000000000E+00  0.00000000000E+00  0.20000000000E+02  0.20000000000E+02  0.00000000000E+00 0. -1.
        -11   -1    0    0    0    0 -0.00000000000E+00 -0.00000000000E+00 -0.20000000000E+02  0.20000000000E+02  0.00000000000E+00 0.  1.
          5    1    1    2  501    0 -0.16531560138E+02  0.13835697292E+01 -0.10134261404E+02  0.20000000000E+02  0.47000000000E+01 0.  1.
         -5    1    1    2    0  501  0.16531560138E+02 -0.13835697292E+01  0.10134261404E+02  0.20000000000E+02  0.47000000000E+01 0. -1.
</event>
<event>
 4    1  0.5025809E-002  0.4000000E+02  0.7546771E-02  0.1348030E+00
         11   -1    0    0    0    0  0.00000000000E+00  0.00000000000E+00  0.20000000000E+02  0.20000000000E+02  0.00000000000E+00 0.  1.
        -11   -1    0    0    0    0 -0.00000000000E+00 -0.00000000000E+00 -0.20000000000E+02  0.20000000000E+02  0.00000000000E+00 0. -1.
          5    1    1    2  501    0  0.85669684037E+01  0.15607285222E+02  0.78057479068E+01  0.20000000000E+02  0.47000000000E+01 0.  1.
         -5    1    1    2    0  501 -0.85669684037E+01 -0.15607285222E+02 -0.78057479068E+01  0.20000000000E+02  0.47000000000E+01 0. -1.
</event>
<event>
 4    1  0.5025809E-002  0.4000000E+02  0.7546771E-02  0.1348030E+00
         11   -1    0    0    0    0  0.00000000000E+00  0.00000000000E+00  0.20000000000E+02  0.20000000000E+02  0.00000000000E+00 0.  1.
        -11   -1    0    0    0    0 -0.00000000000E+00 -0.00000000000E+00 -0.20000000000E+02  0.20000000000E+02  0.00000000000E+00 0. -1.
          5    1    1    2  501    0  0.14782857818E+02 -0.20053876587E+01 -0.12464170051E+02  0.20000000000E+02  0.47000000000E+01 0. -1.
         -5    1    1    2    0  501 -0.14782857818E+02  0.20053876587E+01  0.12464170051E+02  0.20000000000E+02  0.47000000000E+01 0.  1.
</event>
<event>
 4    1  0.5025809E-002  0.4000000E+02  0.7546771E-02  0.1348030E+00
         11   -1    0    0    0    0  0.00000000000E+00  0.00000000000E+00  0.20000000000E+02  0.20000000000E+02  0.00000000000E+00 0.  1.
        -11   -1    0    0    0    0 -0.00000000000E+00 -0.00000000000E+00 -0.20000000000E+02  0.20000000000E+02  0.00000000000E+00 0. -1.
          5    1    1    2  501    0  0.31234794054E+01 -0.12209825387E+02 -0.14801149970E+02  0.20000000000E+02  0.47000000000E+01 0. -1.
         -5    1    1    2    0  501 -0.31234794054E+01  0.12209825387E+02  0.14801149970E+02  0.20000000000E+02  0.47000000000E+01 0.  1.
</event>
<event>
 4    1  0.5025809E-002  0.4000000E+02  0.7546771E-02  0.1348030E+00
         11   -1    0    0    0    0  0.00000000000E+00  0.00000000000E+00  0.20000000000E+02  0.20000000000E+02  0.00000000000E+00 0.  1.
        -11   -1    0    0    0    0 -0.00000000000E+00 -0.00000000000E+00 -0.20000000000E+02  0.20000000000E+02  0.00000000000E+00 0. -1.
          5    1    1    2  501    0  0.67542461061E+01  0.18220447872E+02  0.55266526539E+00  0.20000000000E+02  0.47000000000E+01 0.  1.
         -5    1    1    2    0  501 -0.67542461061E+01 -0.18220447872E+02 -0.55266526539E+00  0.20000000000E+02  0.47000000000E+01 0. -1.
</event>
<event>
 4    1  0.5025809E-002  0.4000000E+02  0.7546771E-02  0.1348030E+00
         11   -1    0    0    0    0  0.00000000000E+00  0.00000000000E+00  0.20000000000E+02  0.20000000000E+02  0.00000000000E+00 0.  1.
        -11   -1    0    0    0    0 -0.00000000000E+00 -0.00000000000E+00 -0.20000000000E+02  0.20000000000E+02  0.00000000000E+00 0. -1.
          5    1    1    2  501    0 -0.24157391639E+01 -0.11425333205E+02 -0.15541427394E+02  0.20000000000E+02  0.47000000000E+01 0. -1.
         -5    1    1    2    0  501  0.24157391639E+01  0.11425333205E+02  0.15541427394E+02  0.20000000000E+02  0.47000000000E+01 0.  1.
</event>
<event>
 4    1  0.5025809E-002  0.4000000E+02  0.7546771E-02  0.1348030E+00
         11   -1    0    0    0    0  0.00000000000E+00  0.00000000000E+00  0.20000000000E+02  0.20000000000E+02  0.00000000000E+00 0. -1.
        -11   -1    0    0    0    0 -0.00000000000E+00 -0.00000000000E+00 -0.20000000000E+02  0.20000000000E+02  0.00000000000E+00 0.  1.
          5    1    1    2  501    0 -0.12384992145E+02  0.26700909976E+01 -0.14744238998E+02  0.20000000000E+02  0.47000000000E+01 0.  1.
         -5    1    1    2    0  501  0.12384992145E+02 -0.26700909976E+01  0.14744238998E+02  0.20000000000E+02  0.47000000000E+01 0. -1.
</event>
<event>
 4    1  0.5025809E-002  0.4000000E+02  0.7546771E-02  0.1348030E+00
         11   -1    0    0    0    0  0.00000000000E+00  0.00000000000E+00  0.20000000000E+02  0.20000000000E+02  0.00000000000E+00 0. -1.
        -11   -1    0    0    0    0 -0.00000000000E+00 -0.00000000000E+00 -0.20000000000E+02  0.20000000000E+02  0.00000000000E+00 0.  1.
          5    1    1    2  501    0  0.16832688666E+02  0.75520821252E+01 -0.61267159103E+01  0.20000000000E+02  0.47000000000E+01 0.  1.
         -5    1    1    2    0  501 -0.16832688666E+02 -0.75520821252E+01  0.61267159103E+01  0.20000000000E+02  0.47000000000E+01 0. -1.
</event>
<event>
 4    1  0.5025809E-002  0.4000000E+02  0.7546771E-02  0.1348030E+00
         11   -1    0    0    0    0  0.00000000000E+00  0.00000000000E+00  0.20000000000E+02  0.20000000000E+02  0.00000000000E+00 0.  1.
        -11   -1    0    0    0    0 -0.00000000000E+00 -0.00000000000E+00 -0.20000000000E+02  0.20000000000E+02  0.00000000000E+00 0. -1.
          5    1    1    2  501    0  0.13545647367E+02 -0.13455902268E+02  0.36556985075E+01  0.20000000000E+02  0.47000000000E+01 0. -1.
         -5    1    1    2    0  501 -0.13545647367E+02  0.13455902268E+02 -0.36556985075E+01  0.20000000000E+02  0.47000000000E+01 0.  1.
</event>
<event>
 4    1  0.5025809E-002  0.4000000E+02  0.7546771E-02  0.1348030E+00
         11   -1    0    0    0    0  0.00000000000E+00  0.00000000000E+00  0.20000000000E+02  0.20000000000E+02  0.00000000000E+00 0.  1.
        -11   -1    0    0    0    0 -0.00000000000E+00 -0.00000000000E+00 -0.20000000000E+02  0.20000000000E+02  0.00000000000E+00 0. -1.
          5    1    1    2  501    0 -0.72086363316E+01 -0.15287195543E+02 -0.96045413563E+01  0.20000000000E+02  0.47000000000E+01 0. -1.
         -5    1    1    2    0  501  0.72086363316E+01  0.15287195543E+02  0.96045413563E+01  0.20000000000E+02  0.47000000000E+01 0.  1.
</event>
<event>
 4    1  0.5025809E-002  0.4000000E+02  0.7546771E-02  0.1348030E+00
         11   -1    0    0    0    0  0.00000000000E+00  0.00000000000E+00  0.20000000000E+02  0.20000000000E+02  0.00000000000E+00 0.  1.
        -11   -1    0    0    0    0 -0.00000000000E+00 -0.00000000000E+00 -0.20000000000E+02  0.20000000000E+02  0.00000000000E+00 0. -1.
          5    1    1    2  501    0 -0.12567305654E+02 -0.68832736321E+01 -0.13137479694E+02  0.20000000000E+02  0.47000000000E+01 0. -1.
         -5    1    1    2    0  501  0.12567305654E+02  0.68832736321E+01  0.13137479694E+02  0.20000000000E+02  0.47000000000E+01 0.  1.
</event>
<event>
 4    1  0.5025809E-002  0.4000000E+02  0.7546771E-02  0.1348030E+00
         11   -1    0    0    0    0  0.00000000000E+00  0.00000000000E+00  0.20000000000E+02  0.20000000000E+02  0.00000000000E+00 0.  1.
        -11   -1    0    0    0    0 -0.00000000000E+00 -0.00000000000E+00 -0.20000000000E+02  0.20000000000E+02  0.00000000000E+00 0. -1.
          5    1    1    2  501    0  0.24080077201E+01  0.11810086397E+01 -0.19254005230E+02  0.20000000000E+02  0.47000000000E+01 0. -1.
         -5    1    1    2    0  501 -0.24080077201E+01 -0.11810086397E+01  0.19254005230E+02  0.20000000000E+02  0.47000000000E+01 0.  1.
</event>
<event>
 4    1  0.5025809E-002  0.4000000E+02  0.7546771E-02  0.1348030E+00
         11   -1    0    0    0    0  0.00000000000E+00  0.00000000000E+00  0.20000000000E+02  0.20000000000E+02  0.00000000000E+00 0.  1.
        -11   -1    0    0    0    0 -0.00000000000E+00 -0.00000000000E+00 -0.20000000000E+02  0.20000000000E+02  0.00000000000E+00 0. -1.
          5    1    1    2  501    0  0.66000082429E+01 -0.49749303558E+01 -0.17595452797E+02  0.20000000000E+02  0.47000000000E+01 0. -1.
         -5    1    1    2    0  501 -0.66000082429E+01  0.49749303558E+01  0.17595452797E+02  0.20000000000E+02  0.47000000000E+01 0.  1.
</event>
<event>
 4    1  0.5025809E-002  0.4000000E+02  0.7546771E-02  0.1348030E+00
         11   -1    0    0    0    0  0.00000000000E+00  0.00000000000E+00  0.20000000000E+02  0.20000000000E+02  0.00000000000E+00 0.  1.
        -11   -1    0    0    0    0 -0.00000000000E+00 -0.00000000000E+00 -0.20000000000E+02  0.20000000000E+02  0.00000000000E+00 0. -1.
          5    1    1    2  501    0  0.17350652579E+02  0.87364121528E+01 -0.73481819424E+00  0.20000000000E+02  0.47000000000E+01 0. -1.
         -5    1    1    2    0  501 -0.17350652579E+02 -0.87364121528E+01  0.73481819424E+00  0.20000000000E+02  0.47000000000E+01 0.  1.
</event>
<event>
 4    1  0.5025809E-002  0.4000000E+02  0.7546771E-02  0.1348030E+00
         11   -1    0    0    0    0  0.00000000000E+00  0.00000000000E+00  0.20000000000E+02  0.20000000000E+02  0.00000000000E+00 0.  1.
        -11   -1    0    0    0    0 -0.00000000000E+00 -0.00000000000E+00 -0.20000000000E+02  0.20000000000E+02  0.00000000000E+00 0. -1.
          5    1    1    2  501    0  0.29860119919E+01  0.17097126450E+02 -0.87568258822E+01  0.20000000000E+02  0.47000000000E+01 0. -1.
         -5    1    1    2    0  501 -0.29860119919E+01 -0.17097126450E+02  0.87568258822E+01  0.20000000000E+02  0.47000000000E+01 0.  1.
</event>
<event>
 4    1  0.5025809E-002  0.4000000E+02  0.7546771E-02  0.1348030E+00
         11   -1    0    0    0    0  0.00000000000E+00  0.00000000000E+00  0.20000000000E+02  0.20000000000E+02  0.00000000000E+00 0. -1.
        -11   -1    0    0    0    0 -0.00000000000E+00 -0.00000000000E+00 -0.20000000000E+02  0.20000000000E+02  0.00000000000E+00 0.  1.
          5    1    1    2  501    0 -0.11448763196E+01  0.19125340253E+02  0.32894708444E+01  0.20000000000E+02  0.47000000000E+01 0.  1.
         -5    1    1    2    0  501  0.11448763196E+01 -0.19125340253E+02 -0.32894708444E+01  0.20000000000E+02  0.47000000000E+01 0. -1.
</event>
<event>
 4    1  0.5025809E-002  0.4000000E+02  0.7546771E-02  0.1348030E+00
         11   -1    0    0    0    0  0.00000000000E+00  0.00000000000E+00  0.20000000000E+02  0.20000000000E+02  0.00000000000E+00 0.  1.
        -11   -1    0    0    0    0 -0.00000000000E+00 -0.00000000000E+00 -0.20000000000E+02  0.20000000000E+02  0.00000000000E+00 0. -1.
          5    1    1    2  501    0  0.14180573932E+02 -0.12752879632E+02 -0.37663489035E+01  0.20000000000E+02  0.47000000000E+01 0.  1.
         -5    1    1    2    0  501 -0.14180573932E+02  0.12752879632E+02  0.37663489035E+01  0.20000000000E+02  0.47000000000E+01 0. -1.
</event>
<event>
 4    1  0.5025809E-002  0.4000000E+02  0.7546771E-02  0.1348030E+00
         11   -1    0    0    0    0  0.00000000000E+00  0.00000000000E+00  0.20000000000E+02  0.20000000000E+02  0.00000000000E+00 0.  1.
        -11   -1    0    0    0    0 -0.00000000000E+00 -0.00000000000E+00 -0.20000000000E+02  0.20000000000E+02  0.00000000000E+00 0. -1.
          5    1    1    2  501    0  0.91892387304E+01 -0.15956544710E+02 -0.62335040277E+01  0.20000000000E+02  0.47000000000E+01 0. -1.
         -5    1    1    2    0  501 -0.91892387304E+01  0.15956544710E+02  0.62335040277E+01  0.20000000000E+02  0.47000000000E+01 0.  1.
</event>
<event>
 4    1  0.5025809E-002  0.4000000E+02  0.7546771E-02  0.1348030E+00
         11   -1    0    0    0    0  0.00000000000E+00  0.00000000000E+00  0.20000000000E+02  0.20000000000E+02  0.00000000000E+00 0. -1.
        -11   -1    0    0    0    0 -0.00000000000E+00 -0.00000000000E+00 -0.20000000000E+02  0.20000000000E+02  0.00000000000E+00 0.  1.
          5    1    1    2  501    0 -0.16542832179E+02 -0.10151933938E+02 -0.10876308165E+01  0.20000000000E+02  0.47000000000E+01 0. -1.
         -5    1    1    2    0  501  0.16542832179E+02  0.10151933938E+02  0.10876308165E+01  0.20000000000E+02  0.47000000000E+01 0.  1.
</event>
<event>
 4    1  0.5025809E-002  0.4000000E+02  0.7546771E-02  0.1348030E+00
         11   -1    0    0    0    0  0.00000000000E+00  0.00000000000E+00  0.20000000000E+02  0.20000000000E+02  0.00000000000E+00 0.  1.
        -11   -1    0    0    0    0 -0.00000000000E+00 -0.00000000000E+00 -0.20000000000E+02  0.20000000000E+02  0.00000000000E+00 0. -1.
          5    1    1    2  501    0  0.18974784121E+02  0.31349207047E+01 -0.28354611172E+01  0.20000000000E+02  0.47000000000E+01 0. -1.
         -5    1    1    2    0  501 -0.18974784121E+02 -0.31349207047E+01  0.28354611172E+01  0.20000000000E+02  0.47000000000E+01 0.  1.
</event>
<event>
 4    1  0.5025809E-002  0.4000000E+02  0.7546771E-02  0.1348030E+00
         11   -1    0    0    0    0  0.00000000000E+00  0.00000000000E+00  0.20000000000E+02  0.20000000000E+02  0.00000000000E+00 0. -1.
        -11   -1    0    0    0    0 -0.00000000000E+00 -0.00000000000E+00 -0.20000000000E+02  0.20000000000E+02  0.00000000000E+00 0.  1.
          5    1    1    2  501    0 -0.50789882818E+01  0.16268350206E+02  0.93517196066E+01  0.20000000000E+02  0.47000000000E+01 0. -1.
         -5    1    1    2    0  501  0.50789882818E+01 -0.16268350206E+02 -0.93517196066E+01  0.20000000000E+02  0.47000000000E+01 0.  1.
</event>
<event>
 4    1  0.5025809E-002  0.4000000E+02  0.7546771E-02  0.1348030E+00
         11   -1    0    0    0    0  0.00000000000E+00  0.00000000000E+00  0.20000000000E+02  0.20000000000E+02  0.00000000000E+00 0.  1.
        -11   -1    0    0    0    0 -0.00000000000E+00 -0.00000000000E+00 -0.20000000000E+02  0.20000000000E+02  0.00000000000E+00 0. -1.
          5    1    1    2  501    0  0.12368747333E+02 -0.25759672024E+01  0.14774589077E+02  0.20000000000E+02  0.47000000000E+01 0.  1.
         -5    1    1    2    0  501 -0.12368747333E+02  0.25759672024E+01 -0.14774589077E+02  0.20000000000E+02  0.47000000000E+01 0. -1.
</event>
<event>
 4    1  0.5025809E-002  0.4000000E+02  0.7546771E-02  0.1348030E+00
         11   -1    0    0    0    0  0.00000000000E+00  0.00000000000E+00  0.20000000000E+02  0.20000000000E+02  0.00000000000E+00 0.  1.
        -11   -1    0    0    0    0 -0.00000000000E+00 -0.00000000000E+00 -0.20000000000E+02  0.20000000000E+02  0.00000000000E+00 0. -1.
          5    1    1    2  501    0  0.76109973626E+01  0.16634956386E+02  0.65773053135E+01  0.20000000000E+02  0.47000000000E+01 0.  1.
         -5    1    1    2    0  501 -0.76109973626E+01 -0.16634956386E+02 -0.65773053135E+01  0.20000000000E+02  0.47000000000E+01 0. -1.
</event>
<event>
 4    1  0.5025809E-002  0.4000000E+02  0.7546771E-02  0.1348030E+00
         11   -1    0    0    0    0  0.00000000000E+00  0.00000000000E+00  0.20000000000E+02  0.20000000000E+02  0.00000000000E+00 0.  1.
        -11   -1    0    0    0    0 -0.00000000000E+00 -0.00000000000E+00 -0.20000000000E+02  0.20000000000E+02  0.00000000000E+00 0. -1.
          5    1    1    2  501    0 -0.14647171065E+02  0.54278378813E+01  0.11571903721E+02  0.20000000000E+02  0.47000000000E+01 0.  1.
         -5    1    1    2    0  501  0.14647171065E+02 -0.54278378813E+01 -0.11571903721E+02  0.20000000000E+02  0.47000000000E+01 0. -1.
</event>
<event>
 4    1  0.5025809E-002  0.4000000E+02  0.7546771E-02  0.1348030E+00
         11   -1    0    0    0    0  0.00000000000E+00  0.00000000000E+00  0.20000000000E+02  0.20000000000E+02  0.00000000000E+00 0.  1.
        -11   -1    0    0    0    0 -0.00000000000E+00 -0.00000000000E+00 -0.20000000000E+02  0.20000000000E+02  0.00000000000E+00 0. -1.
          5    1    1    2  501    0  0.14701954809E+02  0.12694023846E+02 -0.79011605731E+00  0.20000000000E+02  0.47000000000E+01 0.  1.
         -5    1    1    2    0  501 -0.14701954809E+02 -0.12694023846E+02  0.79011605731E+00  0.20000000000E+02  0.47000000000E+01 0.  1.
</event>
<event>
 4    1  0.5025809E-002  0.4000000E+02  0.7546771E-02  0.1348030E+00
         11   -1    0    0    0    0  0.00000000000E+00  0.00000000000E+00  0.20000000000E+02  0.20000000000E+02  0.00000000000E+00 0.  1.
        -11   -1    0    0    0    0 -0.00000000000E+00 -0.00000000000E+00 -0.20000000000E+02  0.20000000000E+02  0.00000000000E+00 0. -1.
          5    1    1    2  501    0 -0.16756567629E+02 -0.96652862154E+01  0.19260539099E+01  0.20000000000E+02  0.47000000000E+01 0.  1.
         -5    1    1    2    0  501  0.16756567629E+02  0.96652862154E+01 -0.19260539099E+01  0.20000000000E+02  0.47000000000E+01 0. -1.
</event>
<event>
 4    1  0.5025809E-002  0.4000000E+02  0.7546771E-02  0.1348030E+00
         11   -1    0    0    0    0  0.00000000000E+00  0.00000000000E+00  0.20000000000E+02  0.20000000000E+02  0.00000000000E+00 0.  1.
        -11   -1    0    0    0    0 -0.00000000000E+00 -0.00000000000E+00 -0.20000000000E+02  0.20000000000E+02  0.00000000000E+00 0. -1.
          5    1    1    2  501    0  0.18359246795E+02 -0.33118440621E+01 -0.54662369154E+01  0.20000000000E+02  0.47000000000E+01 0. -1.
         -5    1    1    2    0  501 -0.18359246795E+02  0.33118440621E+01  0.54662369154E+01  0.20000000000E+02  0.47000000000E+01 0.  1.
</event>
<event>
 4    1  0.5025809E-002  0.4000000E+02  0.7546771E-02  0.1348030E+00
         11   -1    0    0    0    0  0.00000000000E+00  0.00000000000E+00  0.20000000000E+02  0.20000000000E+02  0.00000000000E+00 0.  1.
        -11   -1    0    0    0    0 -0.00000000000E+00 -0.00000000000E+00 -0.20000000000E+02  0.20000000000E+02  0.00000000000E+00 0. -1.
          5    1    1    2  501    0 -0.76108470810E+01  0.78006017510E+01 -0.16097689866E+02  0.20000000000E+02  0.47000000000E+01 0. -1.
         -5    1    1    2    0  501  0.76108470810E+01 -0.78006017510E+01  0.16097689866E+02  0.20000000000E+02  0.47000000000E+01 0.  1.
</event>
<event>
 4    1  0.5025809E-002  0.4000000E+02  0.7546771E-02  0.1348030E+00
         11   -1    0    0    0    0  0.00000000000E+00  0.00000000000E+00  0.20000000000E+02  0.20000000000E+02  0.00000000000E+00 0. -1.
        -11   -1    0    0    0    0 -0.00000000000E+00 -0.00000000000E+00 -0.20000000000E+02  0.20000000000E+02  0.00000000000E+00 0.  1.
          5    1    1    2  501    0 -0.45462547837E+01  0.13738161996E+02 -0.12980927255E+02  0.20000000000E+02  0.47000000000E+01 0.  1.
         -5    1    1    2    0  501  0.45462547837E+01 -0.13738161996E+02  0.12980927255E+02  0.20000000000E+02  0.47000000000E+01 0. -1.
</event>
<event>
 4    1  0.5025809E-002  0.4000000E+02  0.7546771E-02  0.1348030E+00
         11   -1    0    0    0    0  0.00000000000E+00  0.00000000000E+00  0.20000000000E+02  0.20000000000E+02  0.00000000000E+00 0.  1.
        -11   -1    0    0    0    0 -0.00000000000E+00 -0.00000000000E+00 -0.20000000000E+02  0.20000000000E+02  0.00000000000E+00 0. -1.
          5    1    1    2  501    0  0.18872928334E+02  0.33791297280E+01 -0.32099935175E+01  0.20000000000E+02  0.47000000000E+01 0.  1.
         -5    1    1    2    0  501 -0.18872928334E+02 -0.33791297280E+01  0.32099935175E+01  0.20000000000E+02  0.47000000000E+01 0. -1.
</event>
<event>
 4    1  0.5025809E-002  0.4000000E+02  0.7546771E-02  0.1348030E+00
         11   -1    0    0    0    0  0.00000000000E+00  0.00000000000E+00  0.20000000000E+02  0.20000000000E+02  0.00000000000E+00 0.  1.
        -11   -1    0    0    0    0 -0.00000000000E+00 -0.00000000000E+00 -0.20000000000E+02  0.20000000000E+02  0.00000000000E+00 0. -1.
          5    1    1    2  501    0 -0.12639652183E+02 -0.78505493527E+01 -0.12510718107E+02  0.20000000000E+02  0.47000000000E+01 0. -1.
         -5    1    1    2    0  501  0.12639652183E+02  0.78505493527E+01  0.12510718107E+02  0.20000000000E+02  0.47000000000E+01 0.  1.
</event>
<event>
 4    1  0.5025809E-002  0.4000000E+02  0.7546771E-02  0.1348030E+00
         11   -1    0    0    0    0  0.00000000000E+00  0.00000000000E+00  0.20000000000E+02  0.20000000000E+02  0.00000000000E+00 0.  1.
        -11   -1    0    0    0    0 -0.00000000000E+00 -0.00000000000E+00 -0.20000000000E+02  0.20000000000E+02  0.00000000000E+00 0. -1.
          5    1    1    2  501    0 -0.10489248095E+02 -0.21774785110E+01 -0.16221721910E+02  0.20000000000E+02  0.47000000000E+01 0. -1.
         -5    1    1    2    0  501  0.10489248095E+02  0.21774785110E+01  0.16221721910E+02  0.20000000000E+02  0.47000000000E+01 0.  1.
</event>
<event>
 4    1  0.5025809E-002  0.4000000E+02  0.7546771E-02  0.1348030E+00
         11   -1    0    0    0    0  0.00000000000E+00  0.00000000000E+00  0.20000000000E+02  0.20000000000E+02  0.00000000000E+00 0. -1.
        -11   -1    0    0    0    0 -0.00000000000E+00 -0.00000000000E+00 -0.20000000000E+02  0.20000000000E+02  0.00000000000E+00 0.  1.
          5    1    1    2  501    0 -0.12894024073E+01 -0.15665124545E+02 -0.11439025939E+02  0.20000000000E+02  0.47000000000E+01 0.  1.
         -5    1    1    2    0  501  0.12894024073E+01  0.15665124545E+02  0.11439025939E+02  0.20000000000E+02  0.47000000000E+01 0. -1.
</event>
<event>
 4    1  0.5025809E-002  0.4000000E+02  0.7546771E-02  0.1348030E+00
         11   -1    0    0    0    0  0.00000000000E+00  0.00000000000E+00  0.20000000000E+02  0.20000000000E+02  0.00000000000E+00 0. -1.
        -11   -1    0    0    0    0 -0.00000000000E+00 -0.00000000000E+00 -0.20000000000E+02  0.20000000000E+02  0.00000000000E+00 0.  1.
          5    1    1    2  501    0 -0.34799804000E+01  0.13531877786E+01 -0.19077961612E+02  0.20000000000E+02  0.47000000000E+01 0.  1.
         -5    1    1    2    0  501  0.34799804000E+01 -0.13531877786E+01  0.19077961612E+02  0.20000000000E+02  0.47000000000E+01 0. -1.
</event>
<event>
 4    1  0.5025809E-002  0.4000000E+02  0.7546771E-02  0.1348030E+00
         11   -1    0    0    0    0  0.00000000000E+00  0.00000000000E+00  0.20000000000E+02  0.20000000000E+02  0.00000000000E+00 0. -1.
        -11   -1    0    0    0    0 -0.00000000000E+00 -0.00000000000E+00 -0.20000000000E+02  0.20000000000E+02  0.00000000000E+00 0.  1.
          5    1    1    2  501    0  0.15384922746E+02  0.11358164763E+01  0.11828950631E+02  0.20000000000E+02  0.47000000000E+01 0. -1.
         -5    1    1    2    0  501 -0.15384922746E+02 -0.11358164763E+01 -0.11828950631E+02  0.20000000000E+02  0.47000000000E+01 0.  1.
</event>
<event>
 4    1  0.5025809E-002  0.4000000E+02  0.7546771E-02  0.1348030E+00
         11   -1    0    0    0    0  0.00000000000E+00  0.00000000000E+00  0.20000000000E+02  0.20000000000E+02  0.00000000000E+00 0. -1.
        -11   -1    0    0    0    0 -0.00000000000E+00 -0.00000000000E+00 -0.20000000000E+02  0.20000000000E+02  0.00000000000E+00 0.  1.
          5    1    1    2  501    0 -0.60629373989E+01 -0.41575593452E+01  0.17996263234E+02  0.20000000000E+02  0.47000000000E+01 0. -1.
         -5    1    1    2    0  501  0.60629373989E+01  0.41575593452E+01 -0.17996263234E+02  0.20000000000E+02  0.47000000000E+01 0.  1.
</event>
<event>
 4    1  0.5025809E-002  0.4000000E+02  0.7546771E-02  0.1348030E+00
         11   -1    0    0    0    0  0.00000000000E+00  0.00000000000E+00  0.20000000000E+02  0.20000000000E+02  0.00000000000E+00 0. -1.
        -11   -1    0    0    0    0 -0.00000000000E+00 -0.00000000000E+00 -0.20000000000E+02  0.20000000000E+02  0.00000000000E+00 0.  1.
          5    1    1    2  501    0 -0.28065119283E+01  0.26562461245E+01 -0.19051977517E+02  0.20000000000E+02  0.47000000000E+01 0.  1.
         -5    1    1    2    0  501  0.28065119283E+01 -0.26562461245E+01  0.19051977517E+02  0.20000000000E+02  0.47000000000E+01 0. -1.
</event>
<event>
 4    1  0.5025809E-002  0.4000000E+02  0.7546771E-02  0.1348030E+00
         11   -1    0    0    0    0  0.00000000000E+00  0.00000000000E+00  0.20000000000E+02  0.20000000000E+02  0.00000000000E+00 0.  1.
        -11   -1    0    0    0    0 -0.00000000000E+00 -0.00000000000E+00 -0.20000000000E+02  0.20000000000E+02  0.00000000000E+00 0. -1.
          5    1    1    2  501    0  0.13076480440E+01 -0.13312760275E+02 -0.14105689294E+02  0.20000000000E+02  0.47000000000E+01 0. -1.
         -5    1    1    2    0  501 -0.13076480440E+01  0.13312760275E+02  0.14105689294E+02  0.20000000000E+02  0.47000000000E+01 0.  1.
</event>
<event>
 4    1  0.5025809E-002  0.4000000E+02  0.7546771E-02  0.1348030E+00
         11   -1    0    0    0    0  0.00000000000E+00  0.00000000000E+00  0.20000000000E+02  0.20000000000E+02  0.00000000000E+00 0.  1.
        -11   -1    0    0    0    0 -0.00000000000E+00 -0.00000000000E+00 -0.20000000000E+02  0.20000000000E+02  0.00000000000E+00 0. -1.
          5    1    1    2  501    0 -0.16931471477E+02 -0.50206859275E+01 -0.81257606679E+01  0.20000000000E+02  0.47000000000E+01 0. -1.
         -5    1    1    2    0  501  0.16931471477E+02  0.50206859275E+01  0.81257606679E+01  0.20000000000E+02  0.47000000000E+01 0.  1.
</event>
<event>
 4    1  0.5025809E-002  0.4000000E+02  0.7546771E-02  0.1348030E+00
         11   -1    0    0    0    0  0.00000000000E+00  0.00000000000E+00  0.20000000000E+02  0.20000000000E+02  0.00000000000E+00 0. -1.
        -11   -1    0    0    0    0 -0.00000000000E+00 -0.00000000000E+00 -0.20000000000E+02  0.20000000000E+02  0.00000000000E+00 0.  1.
          5    1    1    2  501    0 -0.69632621501E+01  0.12460998346E+02 -0.13196457876E+02  0.20000000000E+02  0.47000000000E+01 0.  1.
         -5    1    1    2    0  501  0.69632621501E+01 -0.12460998346E+02  0.13196457876E+02  0.20000000000E+02  0.47000000000E+01 0. -1.
</event>
<event>
 4    1  0.5025809E-002  0.4000000E+02  0.7546771E-02  0.1348030E+00
         11   -1    0    0    0    0  0.00000000000E+00  0.00000000000E+00  0.20000000000E+02  0.20000000000E+02  0.00000000000E+00 0. -1.
        -11   -1    0    0    0    0 -0.00000000000E+00 -0.00000000000E+00 -0.20000000000E+02  0.20000000000E+02  0.00000000000E+00 0.  1.
          5    1    1    2  501    0 -0.17757019058E+02 -0.73508234087E+01 -0.29263747885E+01  0.20000000000E+02  0.47000000000E+01 0.  1.
         -5    1    1    2    0  501  0.17757019058E+02  0.73508234087E+01  0.29263747885E+01  0.20000000000E+02  0.47000000000E+01 0. -1.
</event>
<event>
 4    1  0.5025809E-002  0.4000000E+02  0.7546771E-02  0.1348030E+00
         11   -1    0    0    0    0  0.00000000000E+00  0.00000000000E+00  0.20000000000E+02  0.20000000000E+02  0.00000000000E+00 0.  1.
        -11   -1    0    0    0    0 -0.00000000000E+00 -0.00000000000E+00 -0.20000000000E+02  0.20000000000E+02  0.00000000000E+00 0. -1.
          5    1    1    2  501    0 -0.92728609194E+01  0.61564344337E+01 -0.15938079101E+02  0.20000000000E+02  0.47000000000E+01 0. -1.
         -5    1    1    2    0  501  0.92728609194E+01 -0.61564344337E+01  0.15938079101E+02  0.20000000000E+02  0.47000000000E+01 0.  1.
</event>
<event>
 4    1  0.5025809E-002  0.4000000E+02  0.7546771E-02  0.1348030E+00
         11   -1    0    0    0    0  0.00000000000E+00  0.00000000000E+00  0.20000000000E+02  0.20000000000E+02  0.00000000000E+00 0.  1.
        -11   -1    0    0    0    0 -0.00000000000E+00 -0.00000000000E+00 -0.20000000000E+02  0.20000000000E+02  0.00000000000E+00 0. -1.
          5    1    1    2  501    0  0.83775855015E+00 -0.21838817989E+00 -0.19420619640E+02  0.20000000000E+02  0.47000000000E+01 0. -1.
         -5    1    1    2    0  501 -0.83775855015E+00  0.21838817989E+00  0.19420619640E+02  0.20000000000E+02  0.47000000000E+01 0.  1.
</event>
<event>
 4    1  0.5025809E-002  0.4000000E+02  0.7546771E-02  0.1348030E+00
         11   -1    0    0    0    0  0.00000000000E+00  0.00000000000E+00  0.20000000000E+02  0.20000000000E+02  0.00000000000E+00 0. -1.
        -11   -1    0    0    0    0 -0.00000000000E+00 -0.00000000000E+00 -0.20000000000E+02  0.20000000000E+02  0.00000000000E+00 0.  1.
          5    1    1    2  501    0  0.12410566854E+02 -0.14492598973E+02  0.37218819697E+01  0.20000000000E+02  0.47000000000E+01 0.  1.
         -5    1    1    2    0  501 -0.12410566854E+02  0.14492598973E+02 -0.37218819697E+01  0.20000000000E+02  0.47000000000E+01 0. -1.
</event>
<event>
 4    1  0.5025809E-002  0.4000000E+02  0.7546771E-02  0.1348030E+00
         11   -1    0    0    0    0  0.00000000000E+00  0.00000000000E+00  0.20000000000E+02  0.20000000000E+02  0.00000000000E+00 0. -1.
        -11   -1    0    0    0    0 -0.00000000000E+00 -0.00000000000E+00 -0.20000000000E+02  0.20000000000E+02  0.00000000000E+00 0.  1.
          5    1    1    2  501    0  0.70374662842E+00 -0.28526010411E+01 -0.19216591997E+02  0.20000000000E+02  0.47000000000E+01 0.  1.
         -5    1    1    2    0  501 -0.70374662842E+00  0.28526010411E+01  0.19216591997E+02  0.20000000000E+02  0.47000000000E+01 0. -1.
</event>
<event>
 4    1  0.5025809E-002  0.4000000E+02  0.7546771E-02  0.1348030E+00
         11   -1    0    0    0    0  0.00000000000E+00  0.00000000000E+00  0.20000000000E+02  0.20000000000E+02  0.00000000000E+00 0.  1.
        -11   -1    0    0    0    0 -0.00000000000E+00 -0.00000000000E+00 -0.20000000000E+02  0.20000000000E+02  0.00000000000E+00 0. -1.
          5    1    1    2  501    0 -0.10620868621E+02  0.16263933900E+02  0.76915788509E+00  0.20000000000E+02  0.47000000000E+01 0. -1.
         -5    1    1    2    0  501  0.10620868621E+02 -0.16263933900E+02 -0.76915788509E+00  0.20000000000E+02  0.47000000000E+01 0.  1.
</event>
<event>
 4    1  0.5025809E-002  0.4000000E+02  0.7546771E-02  0.1348030E+00
         11   -1    0    0    0    0  0.00000000000E+00  0.00000000000E+00  0.20000000000E+02  0.20000000000E+02  0.00000000000E+00 0. -1.
        -11   -1    0    0    0    0 -0.00000000000E+00 -0.00000000000E+00 -0.20000000000E+02  0.20000000000E+02  0.00000000000E+00 0.  1.
          5    1    1    2  501    0 -0.51682603338E+01 -0.14817252723E+02 -0.11473800890E+02  0.20000000000E+02  0.47000000000E+01 0.  1.
         -5    1    1    2    0  501  0.51682603338E+01  0.14817252723E+02  0.11473800890E+02  0.20000000000E+02  0.47000000000E+01 0. -1.
</event>
<event>
 4    1  0.5025809E-002  0.4000000E+02  0.7546771E-02  0.1348030E+00
         11   -1    0    0    0    0  0.00000000000E+00  0.00000000000E+00  0.20000000000E+02  0.20000000000E+02  0.00000000000E+00 0.  1.
        -11   -1    0    0    0    0 -0.00000000000E+00 -0.00000000000E+00 -0.20000000000E+02  0.20000000000E+02  0.00000000000E+00 0. -1.
          5    1    1    2  501    0 -0.57610428225E+01 -0.23638368628E+01  0.18415554862E+02  0.20000000000E+02  0.47000000000E+01 0.  1.
         -5    1    1    2    0  501  0.57610428225E+01  0.23638368628E+01 -0.18415554862E+02  0.20000000000E+02  0.47000000000E+01 0. -1.
</event>
<event>
 4    1  0.5025809E-002  0.4000000E+02  0.7546771E-02  0.1348030E+00
         11   -1    0    0    0    0  0.00000000000E+00  0.00000000000E+00  0.20000000000E+02  0.20000000000E+02  0.00000000000E+00 0.  1.
        -11   -1    0    0    0    0 -0.00000000000E+00 -0.00000000000E+00 -0.20000000000E+02  0.20000000000E+02  0.00000000000E+00 0. -1.
          5    1    1    2  501    0 -0.18550034935E+02  0.38105508054E+01 -0.43915722092E+01  0.20000000000E+02  0.47000000000E+01 0. -1.
         -5    1    1    2    0  501  0.18550034935E+02 -0.38105508054E+01  0.43915722092E+01  0.20000000000E+02  0.47000000000E+01 0.  1.
</event>
<event>
 4    1  0.5025809E-002  0.4000000E+02  0.7546771E-02  0.1348030E+00
         11   -1    0    0    0    0  0.00000000000E+00  0.00000000000E+00  0.20000000000E+02  0.20000000000E+02  0.00000000000E+00 0. -1.
        -11   -1    0    0    0    0 -0.00000000000E+00 -0.00000000000E+00 -0.20000000000E+02  0.20000000000E+02  0.00000000000E+00 0.  1.
          5    1    1    2  501    0  0.18623939295E+01 -0.11751523652E+02 -0.15373457019E+02  0.20000000000E+02  0.47000000000E+01 0.  1.
         -5    1    1    2    0  501 -0.18623939295E+01  0.11751523652E+02  0.15373457019E+02  0.20000000000E+02  0.47000000000E+01 0. -1.
</event>
<event>
 4    1  0.5025809E-002  0.4000000E+02  0.7546771E-02  0.1348030E+00
         11   -1    0    0    0    0  0.00000000000E+00  0.00000000000E+00  0.20000000000E+02  0.20000000000E+02  0.00000000000E+00 0.  1.
        -11   -1    0    0    0    0 -0.00000000000E+00 -0.00000000000E+00 -0.20000000000E+02  0.20000000000E+02  0.00000000000E+00 0. -1.
          5    1    1    2  501    0  0.16606134060E+02  0.51243548588E+00 -0.10093746650E+02  0.20000000000E+02  0.47000000000E+01 0. -1.
         -5    1    1    2    0  501 -0.16606134060E+02 -0.51243548588E+00  0.10093746650E+02  0.20000000000E+02  0.47000000000E+01 0.  1.
</event>
<event>
 4    1  0.5025809E-002  0.4000000E+02  0.7546771E-02  0.1348030E+00
         11   -1    0    0    0    0  0.00000000000E+00  0.00000000000E+00  0.20000000000E+02  0.20000000000E+02  0.00000000000E+00 0.  1.
        -11   -1    0    0    0    0 -0.00000000000E+00 -0.00000000000E+00 -0.20000000000E+02  0.20000000000E+02  0.00000000000E+00 0. -1.
          5    1    1    2  501    0  0.73462186623E+01  0.53092673390E+01 -0.17197521673E+02  0.20000000000E+02  0.47000000000E+01 0. -1.
         -5    1    1    2    0  501 -0.73462186623E+01 -0.53092673390E+01  0.17197521673E+02  0.20000000000E+02  0.47000000000E+01 0.  1.
</event>
<event>
 4    1  0.5025809E-002  0.4000000E+02  0.7546771E-02  0.1348030E+00
         11   -1    0    0    0    0  0.00000000000E+00  0.00000000000E+00  0.20000000000E+02  0.20000000000E+02  0.00000000000E+00 0.  1.
        -11   -1    0    0    0    0 -0.00000000000E+00 -0.00000000000E+00 -0.20000000000E+02  0.20000000000E+02  0.00000000000E+00 0. -1.
          5    1    1    2  501    0  0.87992256292E+01 -0.79479104953E+01 -0.15405010454E+02  0.20000000000E+02  0.47000000000E+01 0. -1.
         -5    1    1    2    0  501 -0.87992256292E+01  0.79479104953E+01  0.15405010454E+02  0.20000000000E+02  0.47000000000E+01 0.  1.
</event>
<event>
 4    1  0.5025809E-002  0.4000000E+02  0.7546771E-02  0.1348030E+00
         11   -1    0    0    0    0  0.00000000000E+00  0.00000000000E+00  0.20000000000E+02  0.20000000000E+02  0.00000000000E+00 0.  1.
        -11   -1    0    0    0    0 -0.00000000000E+00 -0.00000000000E+00 -0.20000000000E+02  0.20000000000E+02  0.00000000000E+00 0. -1.
          5    1    1    2  501    0 -0.12387949631E+02  0.27767133833E+01 -0.14722043565E+02  0.20000000000E+02  0.47000000000E+01 0. -1.
         -5    1    1    2    0  501  0.12387949631E+02 -0.27767133833E+01  0.14722043565E+02  0.20000000000E+02  0.47000000000E+01 0.  1.
</event>
<event>
 4    1  0.5025809E-002  0.4000000E+02  0.7546771E-02  0.1348030E+00
         11   -1    0    0    0    0  0.00000000000E+00  0.00000000000E+00  0.20000000000E+02  0.20000000000E+02  0.00000000000E+00 0. -1.
        -11   -1    0    0    0    0 -0.00000000000E+00 -0.00000000000E+00 -0.20000000000E+02  0.20000000000E+02  0.00000000000E+00 0.  1.
          5    1    1    2  501    0 -0.15652578635E+02 -0.10393081944E+02  0.49890509907E+01  0.20000000000E+02  0.47000000000E+01 0.  1.
         -5    1    1    2    0  501  0.15652578635E+02  0.10393081944E+02 -0.49890509907E+01  0.20000000000E+02  0.47000000000E+01 0. -1.
</event>
<event>
 4    1  0.5025809E-002  0.4000000E+02  0.7546771E-02  0.1348030E+00
         11   -1    0    0    0    0  0.00000000000E+00  0.00000000000E+00  0.20000000000E+02  0.20000000000E+02  0.00000000000E+00 0. -1.
        -11   -1    0    0    0    0 -0.00000000000E+00 -0.00000000000E+00 -0.20000000000E+02  0.20000000000E+02  0.00000000000E+00 0.  1.
          5    1    1    2  501    0 -0.16205838847E+01  0.19365600065E+02  0.50719030186E+00  0.20000000000E+02  0.47000000000E+01 0.  1.
         -5    1    1    2    0  501  0.16205838847E+01 -0.19365600065E+02 -0.50719030186E+00  0.20000000000E+02  0.47000000000E+01 0. -1.
</event>
<event>
 4    1  0.5025809E-002  0.4000000E+02  0.7546771E-02  0.1348030E+00
         11   -1    0    0    0    0  0.00000000000E+00  0.00000000000E+00  0.20000000000E+02  0.20000000000E+02  0.00000000000E+00 0.  1.
        -11   -1    0    0    0    0 -0.00000000000E+00 -0.00000000000E+00 -0.20000000000E+02  0.20000000000E+02  0.00000000000E+00 0. -1.
          5    1    1    2  501    0 -0.18479355635E+02  0.60264070912E+01  0.32531966955E+00  0.20000000000E+02  0.47000000000E+01 0. -1.
         -5    1    1    2    0  501  0.18479355635E+02 -0.60264070912E+01 -0.32531966955E+00  0.20000000000E+02  0.47000000000E+01 0.  1.
</event>
<event>
 4    1  0.5025809E-002  0.4000000E+02  0.7546771E-02  0.1348030E+00
         11   -1    0    0    0    0  0.00000000000E+00  0.00000000000E+00  0.20000000000E+02  0.20000000000E+02  0.00000000000E+00 0.  1.
        -11   -1    0    0    0    0 -0.00000000000E+00 -0.00000000000E+00 -0.20000000000E+02  0.20000000000E+02  0.00000000000E+00 0. -1.
          5    1    1    2  501    0  0.10106268412E+02  0.11533346867E+02 -0.11948022800E+02  0.20000000000E+02  0.47000000000E+01 0. -1.
         -5    1    1    2    0  501 -0.10106268412E+02 -0.11533346867E+02  0.11948022800E+02  0.20000000000E+02  0.47000000000E+01 0.  1.
</event>
<event>
 4    1  0.5025809E-002  0.4000000E+02  0.7546771E-02  0.1348030E+00
         11   -1    0    0    0    0  0.00000000000E+00  0.00000000000E+00  0.20000000000E+02  0.20000000000E+02  0.00000000000E+00 0. -1.
        -11   -1    0    0    0    0 -0.00000000000E+00 -0.00000000000E+00 -0.20000000000E+02  0.20000000000E+02  0.00000000000E+00 0.  1.
          5    1    1    2  501    0 -0.78333048930E+01 -0.16277504298E+02  0.71827702384E+01  0.20000000000E+02  0.47000000000E+01 0.  1.
         -5    1    1    2    0  501  0.78333048930E+01  0.16277504298E+02 -0.71827702384E+01  0.20000000000E+02  0.47000000000E+01 0. -1.
</event>
<event>
 4    1  0.5025809E-002  0.4000000E+02  0.7546771E-02  0.1348030E+00
         11   -1    0    0    0    0  0.00000000000E+00  0.00000000000E+00  0.20000000000E+02  0.20000000000E+02  0.00000000000E+00 0.  1.
        -11   -1    0    0    0    0 -0.00000000000E+00 -0.00000000000E+00 -0.20000000000E+02  0.20000000000E+02  0.00000000000E+00 0. -1.
          5    1    1    2  501    0  0.12854368187E+02  0.39596627050E+01  0.14035536675E+02  0.20000000000E+02  0.47000000000E+01 0. -1.
         -5    1    1    2    0  501 -0.12854368187E+02 -0.39596627050E+01 -0.14035536675E+02  0.20000000000E+02  0.47000000000E+01 0.  1.
</event>
<event>
 4    1  0.5025809E-002  0.4000000E+02  0.7546771E-02  0.1348030E+00
         11   -1    0    0    0    0  0.00000000000E+00  0.00000000000E+00  0.20000000000E+02  0.20000000000E+02  0.00000000000E+00 0.  1.
        -11   -1    0    0    0    0 -0.00000000000E+00 -0.00000000000E+00 -0.20000000000E+02  0.20000000000E+02  0.00000000000E+00 0. -1.
          5    1    1    2  501    0  0.28225819086E+00  0.10882747777E+02 -0.16105779433E+02  0.20000000000E+02  0.47000000000E+01 0. -1.
         -5    1    1    2    0  501 -0.28225819086E+00 -0.10882747777E+02  0.16105779433E+02  0.20000000000E+02  0.47000000000E+01 0.  1.
</event>
<event>
 4    1  0.5025809E-002  0.4000000E+02  0.7546771E-02  0.1348030E+00
         11   -1    0    0    0    0  0.00000000000E+00  0.00000000000E+00  0.20000000000E+02  0.20000000000E+02  0.00000000000E+00 0. -1.
        -11   -1    0    0    0    0 -0.00000000000E+00 -0.00000000000E+00 -0.20000000000E+02  0.20000000000E+02  0.00000000000E+00 0.  1.
          5    1    1    2  501    0 -0.90557651356E+01 -0.35714898717E+01 -0.16826989568E+02  0.20000000000E+02  0.47000000000E+01 0.  1.
         -5    1    1    2    0  501  0.90557651356E+01  0.35714898717E+01  0.16826989568E+02  0.20000000000E+02  0.47000000000E+01 0. -1.
</event>
<event>
 4    1  0.5025809E-002  0.4000000E+02  0.7546771E-02  0.1348030E+00
         11   -1    0    0    0    0  0.00000000000E+00  0.00000000000E+00  0.20000000000E+02  0.20000000000E+02  0.00000000000E+00 0. -1.
        -11   -1    0    0    0    0 -0.00000000000E+00 -0.00000000000E+00 -0.20000000000E+02  0.20000000000E+02  0.00000000000E+00 0.  1.
          5    1    1    2  501    0 -0.35609237515E+01  0.16296822225E+02 -0.99821544466E+01  0.20000000000E+02  0.47000000000E+01 0.  1.
         -5    1    1    2    0  501  0.35609237515E+01 -0.16296822225E+02  0.99821544466E+01  0.20000000000E+02  0.47000000000E+01 0. -1.
</event>
<event>
 4    1  0.5025809E-002  0.4000000E+02  0.7546771E-02  0.1348030E+00
         11   -1    0    0    0    0  0.00000000000E+00  0.00000000000E+00  0.20000000000E+02  0.20000000000E+02  0.00000000000E+00 0. -1.
        -11   -1    0    0    0    0 -0.00000000000E+00 -0.00000000000E+00 -0.20000000000E+02  0.20000000000E+02  0.00000000000E+00 0.  1.
          5    1    1    2  501    0 -0.15888793637E+02  0.73922886479E+01 -0.84148859354E+01  0.20000000000E+02  0.47000000000E+01 0.  1.
         -5    1    1    2    0  501  0.15888793637E+02 -0.73922886479E+01  0.84148859354E+01  0.20000000000E+02  0.47000000000E+01 0. -1.
</event>
<event>
 4    1  0.5025809E-002  0.4000000E+02  0.7546771E-02  0.1348030E+00
         11   -1    0    0    0    0  0.00000000000E+00  0.00000000000E+00  0.20000000000E+02  0.20000000000E+02  0.00000000000E+00 0. -1.
        -11   -1    0    0    0    0 -0.00000000000E+00 -0.00000000000E+00 -0.20000000000E+02  0.20000000000E+02  0.00000000000E+00 0.  1.
          5    1    1    2  501    0  0.22027298749E+01  0.17297491334E+02  0.85938800693E+01  0.20000000000E+02  0.47000000000E+01 0. -1.
         -5    1    1    2    0  501 -0.22027298749E+01 -0.17297491334E+02 -0.85938800693E+01  0.20000000000E+02  0.47000000000E+01 0.  1.
</event>
<event>
 4    1  0.5025809E-002  0.4000000E+02  0.7546771E-02  0.1348030E+00
         11   -1    0    0    0    0  0.00000000000E+00  0.00000000000E+00  0.20000000000E+02  0.20000000000E+02  0.00000000000E+00 0. -1.
        -11   -1    0    0    0    0 -0.00000000000E+00 -0.00000000000E+00 -0.20000000000E+02  0.20000000000E+02  0.00000000000E+00 0.  1.
          5    1    1    2  501    0 -0.10274707875E+01  0.58080269715E+01 -0.18523528996E+02  0.20000000000E+02  0.47000000000E+01 0.  1.
         -5    1    1    2    0  501  0.10274707875E+01 -0.58080269715E+01  0.18523528996E+02  0.20000000000E+02  0.47000000000E+01 0. -1.
</event>
<event>
 4    1  0.5025809E-002  0.4000000E+02  0.7546771E-02  0.1348030E+00
         11   -1    0    0    0    0  0.00000000000E+00  0.00000000000E+00  0.20000000000E+02  0.20000000000E+02  0.00000000000E+00 0.  1.
        -11   -1    0    0    0    0 -0.00000000000E+00 -0.00000000000E+00 -0.20000000000E+02  0.20000000000E+02  0.00000000000E+00 0. -1.
          5    1    1    2  501    0 -0.14169889568E+02 -0.79775352338E+00 -0.13284871807E+02  0.20000000000E+02  0.47000000000E+01 0. -1.
         -5    1    1    2    0  501  0.14169889568E+02  0.79775352338E+00  0.13284871807E+02  0.20000000000E+02  0.47000000000E+01 0.  1.
</event>
<event>
 4    1  0.5025809E-002  0.4000000E+02  0.7546771E-02  0.1348030E+00
         11   -1    0    0    0    0  0.00000000000E+00  0.00000000000E+00  0.20000000000E+02  0.20000000000E+02  0.00000000000E+00 0.  1.
        -11   -1    0    0    0    0 -0.00000000000E+00 -0.00000000000E+00 -0.20000000000E+02  0.20000000000E+02  0.00000000000E+00 0. -1.
          5    1    1    2  501    0 -0.57478240645E+01 -0.71863018319E+00  0.18556834029E+02  0.20000000000E+02  0.47000000000E+01 0.  1.
         -5    1    1    2    0  501  0.57478240645E+01  0.71863018319E+00 -0.18556834029E+02  0.20000000000E+02  0.47000000000E+01 0. -1.
</event>
<event>
 4    1  0.5025809E-002  0.4000000E+02  0.7546771E-02  0.1348030E+00
         11   -1    0    0    0    0  0.00000000000E+00  0.00000000000E+00  0.20000000000E+02  0.20000000000E+02  0.00000000000E+00 0.  1.
        -11   -1    0    0    0    0 -0.00000000000E+00 -0.00000000000E+00 -0.20000000000E+02  0.20000000000E+02  0.00000000000E+00 0. -1.
          5    1    1    2  501    0  0.68449555975E+01  0.12954216379E+02 -0.12776731228E+02  0.20000000000E+02  0.47000000000E+01 0. -1.
         -5    1    1    2    0  501 -0.68449555975E+01 -0.12954216379E+02  0.12776731228E+02  0.20000000000E+02  0.47000000000E+01 0.  1.
</event>
<event>
 4    1  0.5025809E-002  0.4000000E+02  0.7546771E-02  0.1348030E+00
         11   -1    0    0    0    0  0.00000000000E+00  0.00000000000E+00  0.20000000000E+02  0.20000000000E+02  0.00000000000E+00 0.  1.
        -11   -1    0    0    0    0 -0.00000000000E+00 -0.00000000000E+00 -0.20000000000E+02  0.20000000000E+02  0.00000000000E+00 0. -1.
          5    1    1    2  501    0  0.25102876982E+01 -0.12178221442E+02  0.14943205084E+02  0.20000000000E+02  0.47000000000E+01 0.  1.
         -5    1    1    2    0  501 -0.25102876982E+01  0.12178221442E+02 -0.14943205084E+02  0.20000000000E+02  0.47000000000E+01 0. -1.
</event>
<event>
 4    1  0.5025809E-002  0.4000000E+02  0.7546771E-02  0.1348030E+00
         11   -1    0    0    0    0  0.00000000000E+00  0.00000000000E+00  0.20000000000E+02  0.20000000000E+02  0.00000000000E+00 0.  1.
        -11   -1    0    0    0    0 -0.00000000000E+00 -0.00000000000E+00 -0.20000000000E+02  0.20000000000E+02  0.00000000000E+00 0. -1.
          5    1    1    2  501    0 -0.15781600133E+02  0.83463282451E+01 -0.76934973891E+01  0.20000000000E+02  0.47000000000E+01 0. -1.
         -5    1    1    2    0  501  0.15781600133E+02 -0.83463282451E+01  0.76934973891E+01  0.20000000000E+02  0.47000000000E+01 0.  1.
</event>
<event>
 4    1  0.5025809E-002  0.4000000E+02  0.7546771E-02  0.1348030E+00
         11   -1    0    0    0    0  0.00000000000E+00  0.00000000000E+00  0.20000000000E+02  0.20000000000E+02  0.00000000000E+00 0. -1.
        -11   -1    0    0    0    0 -0.00000000000E+00 -0.00000000000E+00 -0.20000000000E+02  0.20000000000E+02  0.00000000000E+00 0.  1.
          5    1    1    2  501    0  0.80309086773E+01 -0.58348445521E+01 -0.16714338003E+02  0.20000000000E+02  0.47000000000E+01 0.  1.
         -5    1    1    2    0  501 -0.80309086773E+01  0.58348445521E+01  0.16714338003E+02  0.20000000000E+02  0.47000000000E+01 0. -1.
</event>
<event>
 4    1  0.5025809E-002  0.4000000E+02  0.7546771E-02  0.1348030E+00
         11   -1    0    0    0    0  0.00000000000E+00  0.00000000000E+00  0.20000000000E+02  0.20000000000E+02  0.00000000000E+00 0.  1.
        -11   -1    0    0    0    0 -0.00000000000E+00 -0.00000000000E+00 -0.20000000000E+02  0.20000000000E+02  0.00000000000E+00 0. -1.
          5    1    1    2  501    0  0.12735492257E+02  0.61039880619E+01 -0.13358838524E+02  0.20000000000E+02  0.47000000000E+01 0. -1.
         -5    1    1    2    0  501 -0.12735492257E+02 -0.61039880619E+01  0.13358838524E+02  0.20000000000E+02  0.47000000000E+01 0.  1.
</event>
<event>
 4    1  0.5025809E-002  0.4000000E+02  0.7546771E-02  0.1348030E+00
         11   -1    0    0    0    0  0.00000000000E+00  0.00000000000E+00  0.20000000000E+02  0.20000000000E+02  0.00000000000E+00 0. -1.
        -11   -1    0    0    0    0 -0.00000000000E+00 -0.00000000000E+00 -0.20000000000E+02  0.20000000000E+02  0.00000000000E+00 0.  1.
          5    1    1    2  501    0  0.16632732148E+02 -0.97191805571E+00 -0.10015867240E+02  0.20000000000E+02  0.47000000000E+01 0.  1.
         -5    1    1    2    0  501 -0.16632732148E+02  0.97191805571E+00  0.10015867240E+02  0.20000000000E+02  0.47000000000E+01 0. -1.
</event>
<event>
 4    1  0.5025809E-002  0.4000000E+02  0.7546771E-02  0.1348030E+00
         11   -1    0    0    0    0  0.00000000000E+00  0.00000000000E+00  0.20000000000E+02  0.20000000000E+02  0.00000000000E+00 0.  1.
        -11   -1    0    0    0    0 -0.00000000000E+00 -0.00000000000E+00 -0.20000000000E+02  0.20000000000E+02  0.00000000000E+00 0. -1.
          5    1    1    2  501    0  0.42081399583E+01  0.40254284349E+01 -0.18547169164E+02  0.20000000000E+02  0.47000000000E+01 0. -1.
         -5    1    1    2    0  501 -0.42081399583E+01 -0.40254284349E+01  0.18547169164E+02  0.20000000000E+02  0.47000000000E+01 0.  1.
</event>
<event>
 4    1  0.5025809E-002  0.4000000E+02  0.7546771E-02  0.1348030E+00
         11   -1    0    0    0    0  0.00000000000E+00  0.00000000000E+00  0.20000000000E+02  0.20000000000E+02  0.00000000000E+00 0.  1.
        -11   -1    0    0    0    0 -0.00000000000E+00 -0.00000000000E+00 -0.20000000000E+02  0.20000000000E+02  0.00000000000E+00 0. -1.
          5    1    1    2  501    0 -0.12482344057E+02 -0.13091678328E+02  0.71210283953E+01  0.20000000000E+02  0.47000000000E+01 0. -1.
         -5    1    1    2    0  501  0.12482344057E+02  0.13091678328E+02 -0.71210283953E+01  0.20000000000E+02  0.47000000000E+01 0.  1.
</event>
<event>
 4    1  0.5025809E-002  0.4000000E+02  0.7546771E-02  0.1348030E+00
         11   -1    0    0    0    0  0.00000000000E+00  0.00000000000E+00  0.20000000000E+02  0.20000000000E+02  0.00000000000E+00 0.  1.
        -11   -1    0    0    0    0 -0.00000000000E+00 -0.00000000000E+00 -0.20000000000E+02  0.20000000000E+02  0.00000000000E+00 0. -1.
          5    1    1    2  501    0 -0.21564171942E+01 -0.10701236497E+02  0.16085502862E+02  0.20000000000E+02  0.47000000000E+01 0.  1.
         -5    1    1    2    0  501  0.21564171942E+01  0.10701236497E+02 -0.16085502862E+02  0.20000000000E+02  0.47000000000E+01 0. -1.
</event>
<event>
 4    1  0.5025809E-002  0.4000000E+02  0.7546771E-02  0.1348030E+00
         11   -1    0    0    0    0  0.00000000000E+00  0.00000000000E+00  0.20000000000E+02  0.20000000000E+02  0.00000000000E+00 0.  1.
        -11   -1    0    0    0    0 -0.00000000000E+00 -0.00000000000E+00 -0.20000000000E+02  0.20000000000E+02  0.00000000000E+00 0. -1.
          5    1    1    2  501    0 -0.15201437540E+02 -0.30795919897E+00  0.12113276099E+02  0.20000000000E+02  0.47000000000E+01 0.  1.
         -5    1    1    2    0  501  0.15201437540E+02  0.30795919897E+00 -0.12113276099E+02  0.20000000000E+02  0.47000000000E+01 0. -1.
</event>
<event>
 4    1  0.5025809E-002  0.4000000E+02  0.7546771E-02  0.1348030E+00
         11   -1    0    0    0    0  0.00000000000E+00  0.00000000000E+00  0.20000000000E+02  0.20000000000E+02  0.00000000000E+00 0.  1.
        -11   -1    0    0    0    0 -0.00000000000E+00 -0.00000000000E+00 -0.20000000000E+02  0.20000000000E+02  0.00000000000E+00 0. -1.
          5    1    1    2  501    0  0.15077760057E+02  0.39026853713E+01 -0.11633580642E+02  0.20000000000E+02  0.47000000000E+01 0.  1.
         -5    1    1    2    0  501 -0.15077760057E+02 -0.39026853713E+01  0.11633580642E+02  0.20000000000E+02  0.47000000000E+01 0. -1.
</event>
<event>
 4    1  0.5025809E-002  0.4000000E+02  0.7546771E-02  0.1348030E+00
         11   -1    0    0    0    0  0.00000000000E+00  0.00000000000E+00  0.20000000000E+02  0.20000000000E+02  0.00000000000E+00 0.  1.
        -11   -1    0    0    0    0 -0.00000000000E+00 -0.00000000000E+00 -0.20000000000E+02  0.20000000000E+02  0.00000000000E+00 0. -1.
          5    1    1    2  501    0 -0.11879944570E+02  0.12913327329E+02  0.83679683503E+01  0.20000000000E+02  0.47000000000E+01 0. -1.
         -5    1    1    2    0  501  0.11879944570E+02 -0.12913327329E+02 -0.83679683503E+01  0.20000000000E+02  0.47000000000E+01 0.  1.
</event>
<event>
 4    1  0.5025809E-002  0.4000000E+02  0.7546771E-02  0.1348030E+00
         11   -1    0    0    0    0  0.00000000000E+00  0.00000000000E+00  0.20000000000E+02  0.20000000000E+02  0.00000000000E+00 0.  1.
        -11   -1    0    0    0    0 -0.00000000000E+00 -0.00000000000E+00 -0.20000000000E+02  0.20000000000E+02  0.00000000000E+00 0. -1.
          5    1    1    2  501    0 -0.15783984917E+02  0.50755074301E+01  0.10149632725E+02  0.20000000000E+02  0.47000000000E+01 0.  1.
         -5    1    1    2    0  501  0.15783984917E+02 -0.50755074301E+01 -0.10149632725E+02  0.20000000000E+02  0.47000000000E+01 0. -1.
</event>
<event>
 4    1  0.5025809E-002  0.4000000E+02  0.7546771E-02  0.1348030E+00
         11   -1    0    0    0    0  0.00000000000E+00  0.00000000000E+00  0.20000000000E+02  0.20000000000E+02  0.00000000000E+00 0.  1.
        -11   -1    0    0    0    0 -0.00000000000E+00 -0.00000000000E+00 -0.20000000000E+02  0.20000000000E+02  0.00000000000E+00 0. -1.
          5    1    1    2  501    0 -0.41772907327E+01 -0.28328941753E+01  0.18773250990E+02  0.20000000000E+02  0.47000000000E+01 0.  1.
         -5    1    1    2    0  501  0.41772907327E+01  0.28328941753E+01 -0.18773250990E+02  0.20000000000E+02  0.47000000000E+01 0. -1.
</event>
<event>
 4    1  0.5025809E-002  0.4000000E+02  0.7546771E-02  0.1348030E+00
         11   -1    0    0    0    0  0.00000000000E+00  0.00000000000E+00  0.20000000000E+02  0.20000000000E+02  0.00000000000E+00 0.  1.
        -11   -1    0    0    0    0 -0.00000000000E+00 -0.00000000000E+00 -0.20000000000E+02  0.20000000000E+02  0.00000000000E+00 0. -1.
          5    1    1    2  501    0 -0.11896121707E+02 -0.96978565481E+00  0.15344438866E+02  0.20000000000E+02  0.47000000000E+01 0.  1.
         -5    1    1    2    0  501  0.11896121707E+02  0.96978565481E+00 -0.15344438866E+02  0.20000000000E+02  0.47000000000E+01 0. -1.
</event>
<event>
 4    1  0.5025809E-002  0.4000000E+02  0.7546771E-02  0.1348030E+00
         11   -1    0    0    0    0  0.00000000000E+00  0.00000000000E+00  0.20000000000E+02  0.20000000000E+02  0.00000000000E+00 0. -1.
        -11   -1    0    0    0    0 -0.00000000000E+00 -0.00000000000E+00 -0.20000000000E+02  0.20000000000E+02  0.00000000000E+00 0.  1.
          5    1    1    2  501    0 -0.11769860570E+02 -0.71023793683E+01 -0.13745420673E+02  0.20000000000E+02  0.47000000000E+01 0.  1.
         -5    1    1    2    0  501  0.11769860570E+02  0.71023793683E+01  0.13745420673E+02  0.20000000000E+02  0.47000000000E+01 0. -1.
</event>
<event>
 4    1  0.5025809E-002  0.4000000E+02  0.7546771E-02  0.1348030E+00
         11   -1    0    0    0    0  0.00000000000E+00  0.00000000000E+00  0.20000000000E+02  0.20000000000E+02  0.00000000000E+00 0.  1.
        -11   -1    0    0    0    0 -0.00000000000E+00 -0.00000000000E+00 -0.20000000000E+02  0.20000000000E+02  0.00000000000E+00 0. -1.
          5    1    1    2  501    0 -0.89759833279E+01 -0.12174524522E+02  0.12211579585E+02  0.20000000000E+02  0.47000000000E+01 0.  1.
         -5    1    1    2    0  501  0.89759833279E+01  0.12174524522E+02 -0.12211579585E+02  0.20000000000E+02  0.47000000000E+01 0. -1.
</event>
<event>
 4    1  0.5025809E-002  0.4000000E+02  0.7546771E-02  0.1348030E+00
         11   -1    0    0    0    0  0.00000000000E+00  0.00000000000E+00  0.20000000000E+02  0.20000000000E+02  0.00000000000E+00 0.  1.
        -11   -1    0    0    0    0 -0.00000000000E+00 -0.00000000000E+00 -0.20000000000E+02  0.20000000000E+02  0.00000000000E+00 0. -1.
          5    1    1    2  501    0  0.50938168058E+01 -0.18099799429E+02 -0.49356145496E+01  0.20000000000E+02  0.47000000000E+01 0. -1.
         -5    1    1    2    0  501 -0.50938168058E+01  0.18099799429E+02  0.49356145496E+01  0.20000000000E+02  0.47000000000E+01 0.  1.
</event>
<event>
 4    1  0.5025809E-002  0.4000000E+02  0.7546771E-02  0.1348030E+00
         11   -1    0    0    0    0  0.00000000000E+00  0.00000000000E+00  0.20000000000E+02  0.20000000000E+02  0.00000000000E+00 0. -1.
        -11   -1    0    0    0    0 -0.00000000000E+00 -0.00000000000E+00 -0.20000000000E+02  0.20000000000E+02  0.00000000000E+00 0.  1.
          5    1    1    2  501    0  0.49143155244E+01 -0.13837705822E+01 -0.18757523341E+02  0.20000000000E+02  0.47000000000E+01 0.  1.
         -5    1    1    2    0  501 -0.49143155244E+01  0.13837705822E+01  0.18757523341E+02  0.20000000000E+02  0.47000000000E+01 0. -1.
</event>
<event>
 4    1  0.5025809E-002  0.4000000E+02  0.7546771E-02  0.1348030E+00
         11   -1    0    0    0    0  0.00000000000E+00  0.00000000000E+00  0.20000000000E+02  0.20000000000E+02  0.00000000000E+00 0.  1.
        -11   -1    0    0    0    0 -0.00000000000E+00 -0.00000000000E+00 -0.20000000000E+02  0.20000000000E+02  0.00000000000E+00 0. -1.
          5    1    1    2  501    0  0.73358747277E+01  0.61368231362E+01 -0.16924371296E+02  0.20000000000E+02  0.47000000000E+01 0. -1.
         -5    1    1    2    0  501 -0.73358747277E+01 -0.61368231362E+01  0.16924371296E+02  0.20000000000E+02  0.47000000000E+01 0.  1.
</event>
<event>
 4    1  0.5025809E-002  0.4000000E+02  0.7546771E-02  0.1348030E+00
         11   -1    0    0    0    0  0.00000000000E+00  0.00000000000E+00  0.20000000000E+02  0.20000000000E+02  0.00000000000E+00 0. -1.
        -11   -1    0    0    0    0 -0.00000000000E+00 -0.00000000000E+00 -0.20000000000E+02  0.20000000000E+02  0.00000000000E+00 0.  1.
          5    1    1    2  501    0 -0.16828493079E+02 -0.20207455558E+01 -0.95198953823E+01  0.20000000000E+02  0.47000000000E+01 0.  1.
         -5    1    1    2    0  501  0.16828493079E+02  0.20207455558E+01  0.95198953823E+01  0.20000000000E+02  0.47000000000E+01 0. -1.
</event>
<event>
 4    1  0.5025809E-002  0.4000000E+02  0.7546771E-02  0.1348030E+00
         11   -1    0    0    0    0  0.00000000000E+00  0.00000000000E+00  0.20000000000E+02  0.20000000000E+02  0.00000000000E+00 0.  1.
        -11   -1    0    0    0    0 -0.00000000000E+00 -0.00000000000E+00 -0.20000000000E+02  0.20000000000E+02  0.00000000000E+00 0. -1.
          5    1    1    2  501    0 -0.63399056286E+01 -0.13198937416E+02 -0.12786854489E+02  0.20000000000E+02  0.47000000000E+01 0. -1.
         -5    1    1    2    0  501  0.63399056286E+01  0.13198937416E+02  0.12786854489E+02  0.20000000000E+02  0.47000000000E+01 0.  1.
</event>
<event>
 4    1  0.5025809E-002  0.4000000E+02  0.7546771E-02  0.1348030E+00
         11   -1    0    0    0    0  0.00000000000E+00  0.00000000000E+00  0.20000000000E+02  0.20000000000E+02  0.00000000000E+00 0. -1.
        -11   -1    0    0    0    0 -0.00000000000E+00 -0.00000000000E+00 -0.20000000000E+02  0.20000000000E+02  0.00000000000E+00 0.  1.
          5    1    1    2  501    0  0.37092404386E+01  0.14569043515E+02 -0.12324548934E+02  0.20000000000E+02  0.47000000000E+01 0.  1.
         -5    1    1    2    0  501 -0.37092404386E+01 -0.14569043515E+02  0.12324548934E+02  0.20000000000E+02  0.47000000000E+01 0. -1.
</event>
<event>
 4    1  0.5025809E-002  0.4000000E+02  0.7546771E-02  0.1348030E+00
         11   -1    0    0    0    0  0.00000000000E+00  0.00000000000E+00  0.20000000000E+02  0.20000000000E+02  0.00000000000E+00 0.  1.
        -11   -1    0    0    0    0 -0.00000000000E+00 -0.00000000000E+00 -0.20000000000E+02  0.20000000000E+02  0.00000000000E+00 0. -1.
          5    1    1    2  501    0 -0.14215074043E+02  0.11809412738E+02  0.60315371778E+01  0.20000000000E+02  0.47000000000E+01 0. -1.
         -5    1    1    2    0  501  0.14215074043E+02 -0.11809412738E+02 -0.60315371778E+01  0.20000000000E+02  0.47000000000E+01 0.  1.
</event>
<event>
 4    1  0.5025809E-002  0.4000000E+02  0.7546771E-02  0.1348030E+00
         11   -1    0    0    0    0  0.00000000000E+00  0.00000000000E+00  0.20000000000E+02  0.20000000000E+02  0.00000000000E+00 0. -1.
        -11   -1    0    0    0    0 -0.00000000000E+00 -0.00000000000E+00 -0.20000000000E+02  0.20000000000E+02  0.00000000000E+00 0.  1.
          5    1    1    2  501    0 -0.17968092111E+01 -0.12603169841E+02 -0.14691548136E+02  0.20000000000E+02  0.47000000000E+01 0.  1.
         -5    1    1    2    0  501  0.17968092111E+01  0.12603169841E+02  0.14691548136E+02  0.20000000000E+02  0.47000000000E+01 0. -1.
</event>
<event>
 4    1  0.5025809E-002  0.4000000E+02  0.7546771E-02  0.1348030E+00
         11   -1    0    0    0    0  0.00000000000E+00  0.00000000000E+00  0.20000000000E+02  0.20000000000E+02  0.00000000000E+00 0.  1.
        -11   -1    0    0    0    0 -0.00000000000E+00 -0.00000000000E+00 -0.20000000000E+02  0.20000000000E+02  0.00000000000E+00 0. -1.
          5    1    1    2  501    0  0.16844121377E+02 -0.96909775666E+01  0.52012387007E+00  0.20000000000E+02  0.47000000000E+01 0.  1.
         -5    1    1    2    0  501 -0.16844121377E+02  0.96909775666E+01 -0.52012387007E+00  0.20000000000E+02  0.47000000000E+01 0. -1.
</event>
<event>
 4    1  0.5025809E-002  0.4000000E+02  0.7546771E-02  0.1348030E+00
         11   -1    0    0    0    0  0.00000000000E+00  0.00000000000E+00  0.20000000000E+02  0.20000000000E+02  0.00000000000E+00 0.  1.
        -11   -1    0    0    0    0 -0.00000000000E+00 -0.00000000000E+00 -0.20000000000E+02  0.20000000000E+02  0.00000000000E+00 0. -1.
          5    1    1    2  501    0 -0.84596475921E+01  0.16784955642E+02 -0.49608090771E+01  0.20000000000E+02  0.47000000000E+01 0. -1.
         -5    1    1    2    0  501  0.84596475921E+01 -0.16784955642E+02  0.49608090771E+01  0.20000000000E+02  0.47000000000E+01 0.  1.
</event>
<event>
 4    1  0.5025809E-002  0.4000000E+02  0.7546771E-02  0.1348030E+00
         11   -1    0    0    0    0  0.00000000000E+00  0.00000000000E+00  0.20000000000E+02  0.20000000000E+02  0.00000000000E+00 0.  1.
        -11   -1    0    0    0    0 -0.00000000000E+00 -0.00000000000E+00 -0.20000000000E+02  0.20000000000E+02  0.00000000000E+00 0. -1.
          5    1    1    2  501    0  0.10729979132E+02  0.12677521592E+02 -0.10102375667E+02  0.20000000000E+02  0.47000000000E+01 0. -1.
         -5    1    1    2    0  501 -0.10729979132E+02 -0.12677521592E+02  0.10102375667E+02  0.20000000000E+02  0.47000000000E+01 0.  1.
</event>
<event>
 4    1  0.5025809E-002  0.4000000E+02  0.7546771E-02  0.1348030E+00
         11   -1    0    0    0    0  0.00000000000E+00  0.00000000000E+00  0.20000000000E+02  0.20000000000E+02  0.00000000000E+00 0.  1.
        -11   -1    0    0    0    0 -0.00000000000E+00 -0.00000000000E+00 -0.20000000000E+02  0.20000000000E+02  0.00000000000E+00 0. -1.
          5    1    1    2  501    0  0.13648566896E+02  0.26385818871E+01  0.13589131956E+02  0.20000000000E+02  0.47000000000E+01 0.  1.
         -5    1    1    2    0  501 -0.13648566896E+02 -0.26385818871E+01 -0.13589131956E+02  0.20000000000E+02  0.47000000000E+01 0. -1.
</event>
<event>
 4    1  0.5025809E-002  0.4000000E+02  0.7546771E-02  0.1348030E+00
         11   -1    0    0    0    0  0.00000000000E+00  0.00000000000E+00  0.20000000000E+02  0.20000000000E+02  0.00000000000E+00 0. -1.
        -11   -1    0    0    0    0 -0.00000000000E+00 -0.00000000000E+00 -0.20000000000E+02  0.20000000000E+02  0.00000000000E+00 0.  1.
          5    1    1    2  501    0 -0.96103555219E+01  0.16550306457E+02 -0.34115132880E+01  0.20000000000E+02  0.47000000000E+01 0.  1.
         -5    1    1    2    0  501  0.96103555219E+01 -0.16550306457E+02  0.34115132880E+01  0.20000000000E+02  0.47000000000E+01 0. -1.
</event>
<event>
 4    1  0.5025809E-002  0.4000000E+02  0.7546771E-02  0.1348030E+00
         11   -1    0    0    0    0  0.00000000000E+00  0.00000000000E+00  0.20000000000E+02  0.20000000000E+02  0.00000000000E+00 0. -1.
        -11   -1    0    0    0    0 -0.00000000000E+00 -0.00000000000E+00 -0.20000000000E+02  0.20000000000E+02  0.00000000000E+00 0.  1.
          5    1    1    2  501    0 -0.16977464436E+01  0.16287567121E+02 -0.10475820459E+02  0.20000000000E+02  0.47000000000E+01 0.  1.
         -5    1    1    2    0  501  0.16977464436E+01 -0.16287567121E+02  0.10475820459E+02  0.20000000000E+02  0.47000000000E+01 0. -1.
</event>
<event>
 4    1  0.5025809E-002  0.4000000E+02  0.7546771E-02  0.1348030E+00
         11   -1    0    0    0    0  0.00000000000E+00  0.00000000000E+00  0.20000000000E+02  0.20000000000E+02  0.00000000000E+00 0.  1.
        -11   -1    0    0    0    0 -0.00000000000E+00 -0.00000000000E+00 -0.20000000000E+02  0.20000000000E+02  0.00000000000E+00 0. -1.
          5    1    1    2  501    0 -0.65066739403E+01  0.17076477771E+02 -0.66307692732E+01  0.20000000000E+02  0.47000000000E+01 0. -1.
         -5    1    1    2    0  501  0.65066739403E+01 -0.17076477771E+02  0.66307692732E+01  0.20000000000E+02  0.47000000000E+01 0. -1.
</event>
<event>
 4    1  0.5025809E-002  0.4000000E+02  0.7546771E-02  0.1348030E+00
         11   -1    0    0    0    0  0.00000000000E+00  0.00000000000E+00  0.20000000000E+02  0.20000000000E+02  0.00000000000E+00 0.  1.
        -11   -1    0    0    0    0 -0.00000000000E+00 -0.00000000000E+00 -0.20000000000E+02  0.20000000000E+02  0.00000000000E+00 0. -1.
          5    1    1    2  501    0  0.80593019440E+01  0.14952211370E+02 -0.94545770562E+01  0.20000000000E+02  0.47000000000E+01 0. -1.
         -5    1    1    2    0  501 -0.80593019440E+01 -0.14952211370E+02  0.94545770562E+01  0.20000000000E+02  0.47000000000E+01 0.  1.
</event>
<event>
 4    1  0.5025809E-002  0.4000000E+02  0.7546771E-02  0.1348030E+00
         11   -1    0    0    0    0  0.00000000000E+00  0.00000000000E+00  0.20000000000E+02  0.20000000000E+02  0.00000000000E+00 0.  1.
        -11   -1    0    0    0    0 -0.00000000000E+00 -0.00000000000E+00 -0.20000000000E+02  0.20000000000E+02  0.00000000000E+00 0. -1.
          5    1    1    2  501    0  0.11849590536E+02 -0.47050540520E+01 -0.14675137836E+02  0.20000000000E+02  0.47000000000E+01 0. -1.
         -5    1    1    2    0  501 -0.11849590536E+02  0.47050540520E+01  0.14675137836E+02  0.20000000000E+02  0.47000000000E+01 0.  1.
</event>
<event>
 4    1  0.5025809E-002  0.4000000E+02  0.7546771E-02  0.1348030E+00
         11   -1    0    0    0    0  0.00000000000E+00  0.00000000000E+00  0.20000000000E+02  0.20000000000E+02  0.00000000000E+00 0. -1.
        -11   -1    0    0    0    0 -0.00000000000E+00 -0.00000000000E+00 -0.20000000000E+02  0.20000000000E+02  0.00000000000E+00 0.  1.
          5    1    1    2  501    0 -0.12253851277E+02  0.97832884026E+01 -0.11490883209E+02  0.20000000000E+02  0.47000000000E+01 0.  1.
         -5    1    1    2    0  501  0.12253851277E+02 -0.97832884026E+01  0.11490883209E+02  0.20000000000E+02  0.47000000000E+01 0. -1.
</event>
<event>
 4    1  0.5025809E-002  0.4000000E+02  0.7546771E-02  0.1348030E+00
         11   -1    0    0    0    0  0.00000000000E+00  0.00000000000E+00  0.20000000000E+02  0.20000000000E+02  0.00000000000E+00 0.  1.
        -11   -1    0    0    0    0 -0.00000000000E+00 -0.00000000000E+00 -0.20000000000E+02  0.20000000000E+02  0.00000000000E+00 0. -1.
          5    1    1    2  501    0  0.31814665563E+01 -0.44876676408E+01  0.18645350887E+02  0.20000000000E+02  0.47000000000E+01 0.  1.
         -5    1    1    2    0  501 -0.31814665563E+01  0.44876676408E+01 -0.18645350887E+02  0.20000000000E+02  0.47000000000E+01 0. -1.
</event>
<event>
 4    1  0.5025809E-002  0.4000000E+02  0.7546771E-02  0.1348030E+00
         11   -1    0    0    0    0  0.00000000000E+00  0.00000000000E+00  0.20000000000E+02  0.20000000000E+02  0.00000000000E+00 0. -1.
        -11   -1    0    0    0    0 -0.00000000000E+00 -0.00000000000E+00 -0.20000000000E+02  0.20000000000E+02  0.00000000000E+00 0.  1.
          5    1    1    2  501    0  0.64753934834E+01 -0.16984274449E+02 -0.68930182564E+01  0.20000000000E+02  0.47000000000E+01 0. -1.
         -5    1    1    2    0  501 -0.64753934834E+01  0.16984274449E+02  0.68930182564E+01  0.20000000000E+02  0.47000000000E+01 0.  1.
</event>
<event>
 4    1  0.5025809E-002  0.4000000E+02  0.7546771E-02  0.1348030E+00
         11   -1    0    0    0    0  0.00000000000E+00  0.00000000000E+00  0.20000000000E+02  0.20000000000E+02  0.00000000000E+00 0. -1.
        -11   -1    0    0    0    0 -0.00000000000E+00 -0.00000000000E+00 -0.20000000000E+02  0.20000000000E+02  0.00000000000E+00 0.  1.
          5    1    1    2  501    0  0.17648380032E+02  0.31300463898E+01 -0.75264528059E+01  0.20000000000E+02  0.47000000000E+01 0.  1.
         -5    1    1    2    0  501 -0.17648380032E+02 -0.31300463898E+01  0.75264528059E+01  0.20000000000E+02  0.47000000000E+01 0. -1.
</event>
<event>
 4    1  0.5025809E-002  0.4000000E+02  0.7546771E-02  0.1348030E+00
         11   -1    0    0    0    0  0.00000000000E+00  0.00000000000E+00  0.20000000000E+02  0.20000000000E+02  0.00000000000E+00 0.  1.
        -11   -1    0    0    0    0 -0.00000000000E+00 -0.00000000000E+00 -0.20000000000E+02  0.20000000000E+02  0.00000000000E+00 0. -1.
          5    1    1    2  501    0  0.10729080672E+01 -0.19190225152E+02 -0.29144685452E+01  0.20000000000E+02  0.47000000000E+01 0.  1.
         -5    1    1    2    0  501 -0.10729080672E+01  0.19190225152E+02  0.29144685452E+01  0.20000000000E+02  0.47000000000E+01 0. -1.
</event>
<event>
 4    1  0.5025809E-002  0.4000000E+02  0.7546771E-02  0.1348030E+00
         11   -1    0    0    0    0  0.00000000000E+00  0.00000000000E+00  0.20000000000E+02  0.20000000000E+02  0.00000000000E+00 0.  1.
        -11   -1    0    0    0    0 -0.00000000000E+00 -0.00000000000E+00 -0.20000000000E+02  0.20000000000E+02  0.00000000000E+00 0. -1.
          5    1    1    2  501    0  0.40157123898E+01 -0.12447891766E+02 -0.14381726065E+02  0.20000000000E+02  0.47000000000E+01 0. -1.
         -5    1    1    2    0  501 -0.40157123898E+01  0.12447891766E+02  0.14381726065E+02  0.20000000000E+02  0.47000000000E+01 0.  1.
</event>
<event>
 4    1  0.5025809E-002  0.4000000E+02  0.7546771E-02  0.1348030E+00
         11   -1    0    0    0    0  0.00000000000E+00  0.00000000000E+00  0.20000000000E+02  0.20000000000E+02  0.00000000000E+00 0.  1.
        -11   -1    0    0    0    0 -0.00000000000E+00 -0.00000000000E+00 -0.20000000000E+02  0.20000000000E+02  0.00000000000E+00 0. -1.
          5    1    1    2  501    0 -0.80655761894E+01  0.15214560668E+02 -0.90207330306E+01  0.20000000000E+02  0.47000000000E+01 0. -1.
         -5    1    1    2    0  501  0.80655761894E+01 -0.15214560668E+02  0.90207330306E+01  0.20000000000E+02  0.47000000000E+01 0.  1.
</event>
<event>
 4    1  0.5025809E-002  0.4000000E+02  0.7546771E-02  0.1348030E+00
         11   -1    0    0    0    0  0.00000000000E+00  0.00000000000E+00  0.20000000000E+02  0.20000000000E+02  0.00000000000E+00 0.  1.
        -11   -1    0    0    0    0 -0.00000000000E+00 -0.00000000000E+00 -0.20000000000E+02  0.20000000000E+02  0.00000000000E+00 0. -1.
          5    1    1    2  501    0 -0.80947730698E+01  0.14831687470E+02  0.96127881354E+01  0.20000000000E+02  0.47000000000E+01 0.  1.
         -5    1    1    2    0  501  0.80947730698E+01 -0.14831687470E+02 -0.96127881354E+01  0.20000000000E+02  0.47000000000E+01 0. -1.
</event>
<event>
 4    1  0.5025809E-002  0.4000000E+02  0.7546771E-02  0.1348030E+00
         11   -1    0    0    0    0  0.00000000000E+00  0.00000000000E+00  0.20000000000E+02  0.20000000000E+02  0.00000000000E+00 0.  1.
        -11   -1    0    0    0    0 -0.00000000000E+00 -0.00000000000E+00 -0.20000000000E+02  0.20000000000E+02  0.00000000000E+00 0. -1.
          5    1    1    2  501    0  0.97879360134E+01 -0.91985480009E+01 -0.14053221100E+02  0.20000000000E+02  0.47000000000E+01 0. -1.
         -5    1    1    2    0  501 -0.97879360134E+01  0.91985480009E+01  0.14053221100E+02  0.20000000000E+02  0.47000000000E+01 0.  1.
</event>
<event>
 4    1  0.5025809E-002  0.4000000E+02  0.7546771E-02  0.1348030E+00
         11   -1    0    0    0    0  0.00000000000E+00  0.00000000000E+00  0.20000000000E+02  0.20000000000E+02  0.00000000000E+00 0.  1.
        -11   -1    0    0    0    0 -0.00000000000E+00 -0.00000000000E+00 -0.20000000000E+02  0.20000000000E+02  0.00000000000E+00 0. -1.
          5    1    1    2  501    0  0.14774514176E+02 -0.17394356461E+01 -0.12513916033E+02  0.20000000000E+02  0.47000000000E+01 0.  1.
         -5    1    1    2    0  501 -0.14774514176E+02  0.17394356461E+01  0.12513916033E+02  0.20000000000E+02  0.47000000000E+01 0.  1.
</event>
<event>
 4    1  0.5025809E-002  0.4000000E+02  0.7546771E-02  0.1348030E+00
         11   -1    0    0    0    0  0.00000000000E+00  0.00000000000E+00  0.20000000000E+02  0.20000000000E+02  0.00000000000E+00 0.  1.
        -11   -1    0    0    0    0 -0.00000000000E+00 -0.00000000000E+00 -0.20000000000E+02  0.20000000000E+02  0.00000000000E+00 0. -1.
          5    1    1    2  501    0 -0.14794992288E+02  0.32975747765E+01  0.12171450357E+02  0.20000000000E+02  0.47000000000E+01 0.  1.
         -5    1    1    2    0  501  0.14794992288E+02 -0.32975747765E+01 -0.12171450357E+02  0.20000000000E+02  0.47000000000E+01 0. -1.
</event>
<event>
 4    1  0.5025809E-002  0.4000000E+02  0.7546771E-02  0.1348030E+00
         11   -1    0    0    0    0  0.00000000000E+00  0.00000000000E+00  0.20000000000E+02  0.20000000000E+02  0.00000000000E+00 0.  1.
        -11   -1    0    0    0    0 -0.00000000000E+00 -0.00000000000E+00 -0.20000000000E+02  0.20000000000E+02  0.00000000000E+00 0. -1.
          5    1    1    2  501    0 -0.18284428622E+02  0.54767814445E+01  0.36870767509E+01  0.20000000000E+02  0.47000000000E+01 0.  1.
         -5    1    1    2    0  501  0.18284428622E+02 -0.54767814445E+01 -0.36870767509E+01  0.20000000000E+02  0.47000000000E+01 0. -1.
</event>
<event>
 4    1  0.5025809E-002  0.4000000E+02  0.7546771E-02  0.1348030E+00
         11   -1    0    0    0    0  0.00000000000E+00  0.00000000000E+00  0.20000000000E+02  0.20000000000E+02  0.00000000000E+00 0. -1.
        -11   -1    0    0    0    0 -0.00000000000E+00 -0.00000000000E+00 -0.20000000000E+02  0.20000000000E+02  0.00000000000E+00 0.  1.
          5    1    1    2  501    0 -0.48885598326E+01  0.18632078909E+02 -0.26187054620E+01  0.20000000000E+02  0.47000000000E+01 0.  1.
         -5    1    1    2    0  501  0.48885598326E+01 -0.18632078909E+02  0.26187054620E+01  0.20000000000E+02  0.47000000000E+01 0. -1.
</event>
<event>
 4    1  0.5025809E-002  0.4000000E+02  0.7546771E-02  0.1348030E+00
         11   -1    0    0    0    0  0.00000000000E+00  0.00000000000E+00  0.20000000000E+02  0.20000000000E+02  0.00000000000E+00 0.  1.
        -11   -1    0    0    0    0 -0.00000000000E+00 -0.00000000000E+00 -0.20000000000E+02  0.20000000000E+02  0.00000000000E+00 0. -1.
          5    1    1    2  501    0  0.80957651198E+01 -0.11347902415E+02 -0.13549675195E+02  0.20000000000E+02  0.47000000000E+01 0. -1.
         -5    1    1    2    0  501 -0.80957651198E+01  0.11347902415E+02  0.13549675195E+02  0.20000000000E+02  0.47000000000E+01 0.  1.
</event>
<event>
 4    1  0.5025809E-002  0.4000000E+02  0.7546771E-02  0.1348030E+00
         11   -1    0    0    0    0  0.00000000000E+00  0.00000000000E+00  0.20000000000E+02  0.20000000000E+02  0.00000000000E+00 0. -1.
        -11   -1    0    0    0    0 -0.00000000000E+00 -0.00000000000E+00 -0.20000000000E+02  0.20000000000E+02  0.00000000000E+00 0.  1.
          5    1    1    2  501    0  0.11309143194E+02 -0.18143630949E+01 -0.15707366640E+02  0.20000000000E+02  0.47000000000E+01 0.  1.
         -5    1    1    2    0  501 -0.11309143194E+02  0.18143630949E+01  0.15707366640E+02  0.20000000000E+02  0.47000000000E+01 0. -1.
</event>
<event>
 4    1  0.5025809E-002  0.4000000E+02  0.7546771E-02  0.1348030E+00
         11   -1    0    0    0    0  0.00000000000E+00  0.00000000000E+00  0.20000000000E+02  0.20000000000E+02  0.00000000000E+00 0. -1.
        -11   -1    0    0    0    0 -0.00000000000E+00 -0.00000000000E+00 -0.20000000000E+02  0.20000000000E+02  0.00000000000E+00 0.  1.
          5    1    1    2  501    0  0.18188355587E+02  0.16900534002E+01 -0.66511232533E+01  0.20000000000E+02  0.47000000000E+01 0.  1.
         -5    1    1    2    0  501 -0.18188355587E+02 -0.16900534002E+01  0.66511232533E+01  0.20000000000E+02  0.47000000000E+01 0. -1.
</event>
<event>
 4    1  0.5025809E-002  0.4000000E+02  0.7546771E-02  0.1348030E+00
         11   -1    0    0    0    0  0.00000000000E+00  0.00000000000E+00  0.20000000000E+02  0.20000000000E+02  0.00000000000E+00 0.  1.
        -11   -1    0    0    0    0 -0.00000000000E+00 -0.00000000000E+00 -0.20000000000E+02  0.20000000000E+02  0.00000000000E+00 0. -1.
          5    1    1    2  501    0 -0.82453966457E+01 -0.98002745299E+01 -0.14624570192E+02  0.20000000000E+02  0.47000000000E+01 0. -1.
         -5    1    1    2    0  501  0.82453966457E+01  0.98002745299E+01  0.14624570192E+02  0.20000000000E+02  0.47000000000E+01 0.  1.
</event>
<event>
 4    1  0.5025809E-002  0.4000000E+02  0.7546771E-02  0.1348030E+00
         11   -1    0    0    0    0  0.00000000000E+00  0.00000000000E+00  0.20000000000E+02  0.20000000000E+02  0.00000000000E+00 0.  1.
        -11   -1    0    0    0    0 -0.00000000000E+00 -0.00000000000E+00 -0.20000000000E+02  0.20000000000E+02  0.00000000000E+00 0. -1.
          5    1    1    2  501    0 -0.37255752968E+01 -0.73159689078E+01 -0.17621199949E+02  0.20000000000E+02  0.47000000000E+01 0. -1.
         -5    1    1    2    0  501  0.37255752968E+01  0.73159689078E+01  0.17621199949E+02  0.20000000000E+02  0.47000000000E+01 0.  1.
</event>
<event>
 4    1  0.5025809E-002  0.4000000E+02  0.7546771E-02  0.1348030E+00
         11   -1    0    0    0    0  0.00000000000E+00  0.00000000000E+00  0.20000000000E+02  0.20000000000E+02  0.00000000000E+00 0.  1.
        -11   -1    0    0    0    0 -0.00000000000E+00 -0.00000000000E+00 -0.20000000000E+02  0.20000000000E+02  0.00000000000E+00 0. -1.
          5    1    1    2  501    0  0.98480839224E+01  0.74647180414E+01  0.15006772725E+02  0.20000000000E+02  0.47000000000E+01 0.  1.
         -5    1    1    2    0  501 -0.98480839224E+01 -0.74647180414E+01 -0.15006772725E+02  0.20000000000E+02  0.47000000000E+01 0. -1.
</event>
<event>
 4    1  0.5025809E-002  0.4000000E+02  0.7546771E-02  0.1348030E+00
         11   -1    0    0    0    0  0.00000000000E+00  0.00000000000E+00  0.20000000000E+02  0.20000000000E+02  0.00000000000E+00 0.  1.
        -11   -1    0    0    0    0 -0.00000000000E+00 -0.00000000000E+00 -0.20000000000E+02  0.20000000000E+02  0.00000000000E+00 0. -1.
          5    1    1    2  501    0 -0.44496754406E+01  0.68341233906E+00  0.18911460442E+02  0.20000000000E+02  0.47000000000E+01 0.  1.
         -5    1    1    2    0  501  0.44496754406E+01 -0.68341233906E+00 -0.18911460442E+02  0.20000000000E+02  0.47000000000E+01 0. -1.
</event>
<event>
 4    1  0.5025809E-002  0.4000000E+02  0.7546771E-02  0.1348030E+00
         11   -1    0    0    0    0  0.00000000000E+00  0.00000000000E+00  0.20000000000E+02  0.20000000000E+02  0.00000000000E+00 0.  1.
        -11   -1    0    0    0    0 -0.00000000000E+00 -0.00000000000E+00 -0.20000000000E+02  0.20000000000E+02  0.00000000000E+00 0. -1.
          5    1    1    2  501    0 -0.48823170856E+01 -0.18032715616E+02 -0.53753276541E+01  0.20000000000E+02  0.47000000000E+01 0. -1.
         -5    1    1    2    0  501  0.48823170856E+01  0.18032715616E+02  0.53753276541E+01  0.20000000000E+02  0.47000000000E+01 0.  1.
</event>
<event>
 4    1  0.5025809E-002  0.4000000E+02  0.7546771E-02  0.1348030E+00
         11   -1    0    0    0    0  0.00000000000E+00  0.00000000000E+00  0.20000000000E+02  0.20000000000E+02  0.00000000000E+00 0.  1.
        -11   -1    0    0    0    0 -0.00000000000E+00 -0.00000000000E+00 -0.20000000000E+02  0.20000000000E+02  0.00000000000E+00 0. -1.
          5    1    1    2  501    0 -0.30194531332E+01 -0.78388203008E+01 -0.17531280588E+02  0.20000000000E+02  0.47000000000E+01 0. -1.
         -5    1    1    2    0  501  0.30194531332E+01  0.78388203008E+01  0.17531280588E+02  0.20000000000E+02  0.47000000000E+01 0.  1.
</event>
<event>
 4    1  0.5025809E-002  0.4000000E+02  0.7546771E-02  0.1348030E+00
         11   -1    0    0    0    0  0.00000000000E+00  0.00000000000E+00  0.20000000000E+02  0.20000000000E+02  0.00000000000E+00 0. -1.
        -11   -1    0    0    0    0 -0.00000000000E+00 -0.00000000000E+00 -0.20000000000E+02  0.20000000000E+02  0.00000000000E+00 0.  1.
          5    1    1    2  501    0  0.13060626600E+02  0.13852784615E+02 -0.39281536651E+01  0.20000000000E+02  0.47000000000E+01 0.  1.
         -5    1    1    2    0  501 -0.13060626600E+02 -0.13852784615E+02  0.39281536651E+01  0.20000000000E+02  0.47000000000E+01 0. -1.
</event>
<event>
 4    1  0.5025809E-002  0.4000000E+02  0.7546771E-02  0.1348030E+00
         11   -1    0    0    0    0  0.00000000000E+00  0.00000000000E+00  0.20000000000E+02  0.20000000000E+02  0.00000000000E+00 0. -1.
        -11   -1    0    0    0    0 -0.00000000000E+00 -0.00000000000E+00 -0.20000000000E+02  0.20000000000E+02  0.00000000000E+00 0.  1.
          5    1    1    2  501    0 -0.21214339697E+01 -0.62768650189E+01 -0.18275953695E+02  0.20000000000E+02  0.47000000000E+01 0.  1.
         -5    1    1    2    0  501  0.21214339697E+01  0.62768650189E+01  0.18275953695E+02  0.20000000000E+02  0.47000000000E+01 0. -1.
</event>
<event>
 4    1  0.5025809E-002  0.4000000E+02  0.7546771E-02  0.1348030E+00
         11   -1    0    0    0    0  0.00000000000E+00  0.00000000000E+00  0.20000000000E+02  0.20000000000E+02  0.00000000000E+00 0. -1.
        -11   -1    0    0    0    0 -0.00000000000E+00 -0.00000000000E+00 -0.20000000000E+02  0.20000000000E+02  0.00000000000E+00 0.  1.
          5    1    1    2  501    0  0.74525299625E+01  0.16250790752E+02 -0.76342384750E+01  0.20000000000E+02  0.47000000000E+01 0. -1.
         -5    1    1    2    0  501 -0.74525299625E+01 -0.16250790752E+02  0.76342384750E+01  0.20000000000E+02  0.47000000000E+01 0.  1.
</event>
<event>
 4    1  0.5025809E-002  0.4000000E+02  0.7546771E-02  0.1348030E+00
         11   -1    0    0    0    0  0.00000000000E+00  0.00000000000E+00  0.20000000000E+02  0.20000000000E+02  0.00000000000E+00 0.  1.
        -11   -1    0    0    0    0 -0.00000000000E+00 -0.00000000000E+00 -0.20000000000E+02  0.20000000000E+02  0.00000000000E+00 0. -1.
          5    1    1    2  501    0 -0.83545363447E+01 -0.17553096534E+02  0.22902483314E-01  0.20000000000E+02  0.47000000000E+01 0. -1.
         -5    1    1    2    0  501  0.83545363447E+01  0.17553096534E+02 -0.22902483314E-01  0.20000000000E+02  0.47000000000E+01 0.  1.
</event>
<event>
 4    1  0.5025809E-002  0.4000000E+02  0.7546771E-02  0.1348030E+00
         11   -1    0    0    0    0  0.00000000000E+00  0.00000000000E+00  0.20000000000E+02  0.20000000000E+02  0.00000000000E+00 0.  1.
        -11   -1    0    0    0    0 -0.00000000000E+00 -0.00000000000E+00 -0.20000000000E+02  0.20000000000E+02  0.00000000000E+00 0. -1.
          5    1    1    2  501    0 -0.47269500471E+01 -0.11552560306E+00 -0.18856102383E+02  0.20000000000E+02  0.47000000000E+01 0. -1.
         -5    1    1    2    0  501  0.47269500471E+01  0.11552560306E+00  0.18856102383E+02  0.20000000000E+02  0.47000000000E+01 0.  1.
</event>
<event>
 4    1  0.5025809E-002  0.4000000E+02  0.7546771E-02  0.1348030E+00
         11   -1    0    0    0    0  0.00000000000E+00  0.00000000000E+00  0.20000000000E+02  0.20000000000E+02  0.00000000000E+00 0. -1.
        -11   -1    0    0    0    0 -0.00000000000E+00 -0.00000000000E+00 -0.20000000000E+02  0.20000000000E+02  0.00000000000E+00 0.  1.
          5    1    1    2  501    0 -0.87423759677E+01 -0.16528309705E+02  0.53193834927E+01  0.20000000000E+02  0.47000000000E+01 0. -1.
         -5    1    1    2    0  501  0.87423759677E+01  0.16528309705E+02 -0.53193834927E+01  0.20000000000E+02  0.47000000000E+01 0.  1.
</event>
<event>
 4    1  0.5025809E-002  0.4000000E+02  0.7546771E-02  0.1348030E+00
         11   -1    0    0    0    0  0.00000000000E+00  0.00000000000E+00  0.20000000000E+02  0.20000000000E+02  0.00000000000E+00 0.  1.
        -11   -1    0    0    0    0 -0.00000000000E+00 -0.00000000000E+00 -0.20000000000E+02  0.20000000000E+02  0.00000000000E+00 0. -1.
          5    1    1    2  501    0 -0.83364298435E+01  0.13194349803E+02  0.11589783033E+02  0.20000000000E+02  0.47000000000E+01 0.  1.
         -5    1    1    2    0  501  0.83364298435E+01 -0.13194349803E+02 -0.11589783033E+02  0.20000000000E+02  0.47000000000E+01 0. -1.
</event>
<event>
 4    1  0.5025809E-002  0.4000000E+02  0.7546771E-02  0.1348030E+00
         11   -1    0    0    0    0  0.00000000000E+00  0.00000000000E+00  0.20000000000E+02  0.20000000000E+02  0.00000000000E+00 0.  1.
        -11   -1    0    0    0    0 -0.00000000000E+00 -0.00000000000E+00 -0.20000000000E+02  0.20000000000E+02  0.00000000000E+00 0. -1.
          5    1    1    2  501    0 -0.14810013938E+02 -0.12552307286E+02 -0.10065132639E+01  0.20000000000E+02  0.47000000000E+01 0. -1.
         -5    1    1    2    0  501  0.14810013938E+02  0.12552307286E+02  0.10065132639E+01  0.20000000000E+02  0.47000000000E+01 0.  1.
</event>
<event>
 4    1  0.5025809E-002  0.4000000E+02  0.7546771E-02  0.1348030E+00
         11   -1    0    0    0    0  0.00000000000E+00  0.00000000000E+00  0.20000000000E+02  0.20000000000E+02  0.00000000000E+00 0.  1.
        -11   -1    0    0    0    0 -0.00000000000E+00 -0.00000000000E+00 -0.20000000000E+02  0.20000000000E+02  0.00000000000E+00 0. -1.
          5    1    1    2  501    0 -0.10778086151E+02  0.47129541784E+01  0.15476786548E+02  0.20000000000E+02  0.47000000000E+01 0.  1.
         -5    1    1    2    0  501  0.10778086151E+02 -0.47129541784E+01 -0.15476786548E+02  0.20000000000E+02  0.47000000000E+01 0. -1.
</event>
<event>
 4    1  0.5025809E-002  0.4000000E+02  0.7546771E-02  0.1348030E+00
         11   -1    0    0    0    0  0.00000000000E+00  0.00000000000E+00  0.20000000000E+02  0.20000000000E+02  0.00000000000E+00 0. -1.
        -11   -1    0    0    0    0 -0.00000000000E+00 -0.00000000000E+00 -0.20000000000E+02  0.20000000000E+02  0.00000000000E+00 0.  1.
          5    1    1    2  501    0  0.13200354538E+02  0.13793826220E+02 -0.36593712973E+01  0.20000000000E+02  0.47000000000E+01 0.  1.
         -5    1    1    2    0  501 -0.13200354538E+02 -0.13793826220E+02  0.36593712973E+01  0.20000000000E+02  0.47000000000E+01 0. -1.
</event>
<event>
 4    1  0.5025809E-002  0.4000000E+02  0.7546771E-02  0.1348030E+00
         11   -1    0    0    0    0  0.00000000000E+00  0.00000000000E+00  0.20000000000E+02  0.20000000000E+02  0.00000000000E+00 0.  1.
        -11   -1    0    0    0    0 -0.00000000000E+00 -0.00000000000E+00 -0.20000000000E+02  0.20000000000E+02  0.00000000000E+00 0. -1.
          5    1    1    2  501    0  0.21090061713E+01  0.91606002915E+01 -0.17016036415E+02  0.20000000000E+02  0.47000000000E+01 0. -1.
         -5    1    1    2    0  501 -0.21090061713E+01 -0.91606002915E+01  0.17016036415E+02  0.20000000000E+02  0.47000000000E+01 0.  1.
</event>
<event>
 4    1  0.5025809E-002  0.4000000E+02  0.7546771E-02  0.1348030E+00
         11   -1    0    0    0    0  0.00000000000E+00  0.00000000000E+00  0.20000000000E+02  0.20000000000E+02  0.00000000000E+00 0.  1.
        -11   -1    0    0    0    0 -0.00000000000E+00 -0.00000000000E+00 -0.20000000000E+02  0.20000000000E+02  0.00000000000E+00 0. -1.
          5    1    1    2  501    0 -0.17169247125E+02  0.65811075118E+00 -0.90936155286E+01  0.20000000000E+02  0.47000000000E+01 0. -1.
         -5    1    1    2    0  501  0.17169247125E+02 -0.65811075118E+00  0.90936155286E+01  0.20000000000E+02  0.47000000000E+01 0.  1.
</event>
<event>
 4    1  0.5025809E-002  0.4000000E+02  0.7546771E-02  0.1348030E+00
         11   -1    0    0    0    0  0.00000000000E+00  0.00000000000E+00  0.20000000000E+02  0.20000000000E+02  0.00000000000E+00 0. -1.
        -11   -1    0    0    0    0 -0.00000000000E+00 -0.00000000000E+00 -0.20000000000E+02  0.20000000000E+02  0.00000000000E+00 0.  1.
          5    1    1    2  501    0  0.37959792286E+01  0.11660622957E+02 -0.15084111308E+02  0.20000000000E+02  0.47000000000E+01 0.  1.
         -5    1    1    2    0  501 -0.37959792286E+01 -0.11660622957E+02  0.15084111308E+02  0.20000000000E+02  0.47000000000E+01 0. -1.
</event>
<event>
 4    1  0.5025809E-002  0.4000000E+02  0.7546771E-02  0.1348030E+00
         11   -1    0    0    0    0  0.00000000000E+00  0.00000000000E+00  0.20000000000E+02  0.20000000000E+02  0.00000000000E+00 0.  1.
        -11   -1    0    0    0    0 -0.00000000000E+00 -0.00000000000E+00 -0.20000000000E+02  0.20000000000E+02  0.00000000000E+00 0. -1.
          5    1    1    2  501    0  0.11329558455E+02  0.39396531267E+01 -0.15298046884E+02  0.20000000000E+02  0.47000000000E+01 0. -1.
         -5    1    1    2    0  501 -0.11329558455E+02 -0.39396531267E+01  0.15298046884E+02  0.20000000000E+02  0.47000000000E+01 0.  1.
</event>
<event>
 4    1  0.5025809E-002  0.4000000E+02  0.7546771E-02  0.1348030E+00
         11   -1    0    0    0    0  0.00000000000E+00  0.00000000000E+00  0.20000000000E+02  0.20000000000E+02  0.00000000000E+00 0.  1.
        -11   -1    0    0    0    0 -0.00000000000E+00 -0.00000000000E+00 -0.20000000000E+02  0.20000000000E+02  0.00000000000E+00 0. -1.
          5    1    1    2  501    0  0.17969909522E+02  0.11299172825E+01 -0.73290953540E+01  0.20000000000E+02  0.47000000000E+01 0. -1.
         -5    1    1    2    0  501 -0.17969909522E+02 -0.11299172825E+01  0.73290953540E+01  0.20000000000E+02  0.47000000000E+01 0.  1.
</event>
<event>
 4    1  0.5025809E-002  0.4000000E+02  0.7546771E-02  0.1348030E+00
         11   -1    0    0    0    0  0.00000000000E+00  0.00000000000E+00  0.20000000000E+02  0.20000000000E+02  0.00000000000E+00 0.  1.
        -11   -1    0    0    0    0 -0.00000000000E+00 -0.00000000000E+00 -0.20000000000E+02  0.20000000000E+02  0.00000000000E+00 0. -1.
          5    1    1    2  501    0  0.16818570051E+02 -0.90531700534E+00 -0.97070130612E+01  0.20000000000E+02  0.47000000000E+01 0. -1.
         -5    1    1    2    0  501 -0.16818570051E+02  0.90531700534E+00  0.97070130612E+01  0.20000000000E+02  0.47000000000E+01 0.  1.
</event>
<event>
 4    1  0.5025809E-002  0.4000000E+02  0.7546771E-02  0.1348030E+00
         11   -1    0    0    0    0  0.00000000000E+00  0.00000000000E+00  0.20000000000E+02  0.20000000000E+02  0.00000000000E+00 0.  1.
        -11   -1    0    0    0    0 -0.00000000000E+00 -0.00000000000E+00 -0.20000000000E+02  0.20000000000E+02  0.00000000000E+00 0. -1.
          5    1    1    2  501    0 -0.13286869044E+02  0.84570105364E+01 -0.11395090338E+02  0.20000000000E+02  0.47000000000E+01 0. -1.
         -5    1    1    2    0  501  0.13286869044E+02 -0.84570105364E+01  0.11395090338E+02  0.20000000000E+02  0.47000000000E+01 0.  1.
</event>
<event>
 4    1  0.5025809E-002  0.4000000E+02  0.7546771E-02  0.1348030E+00
         11   -1    0    0    0    0  0.00000000000E+00  0.00000000000E+00  0.20000000000E+02  0.20000000000E+02  0.00000000000E+00 0.  1.
        -11   -1    0    0    0    0 -0.00000000000E+00 -0.00000000000E+00 -0.20000000000E+02  0.20000000000E+02  0.00000000000E+00 0. -1.
          5    1    1    2  501    0  0.78140623794E+01 -0.11778254706E+02 -0.13346278328E+02  0.20000000000E+02  0.47000000000E+01 0. -1.
         -5    1    1    2    0  501 -0.78140623794E+01  0.11778254706E+02  0.13346278328E+02  0.20000000000E+02  0.47000000000E+01 0.  1.
</event>
<event>
 4    1  0.5025809E-002  0.4000000E+02  0.7546771E-02  0.1348030E+00
         11   -1    0    0    0    0  0.00000000000E+00  0.00000000000E+00  0.20000000000E+02  0.20000000000E+02  0.00000000000E+00 0. -1.
        -11   -1    0    0    0    0 -0.00000000000E+00 -0.00000000000E+00 -0.20000000000E+02  0.20000000000E+02  0.00000000000E+00 0.  1.
          5    1    1    2  501    0 -0.10008479555E+02 -0.15795798612E+02 -0.53134812703E+01  0.20000000000E+02  0.47000000000E+01 0.  1.
         -5    1    1    2    0  501  0.10008479555E+02  0.15795798612E+02  0.53134812703E+01  0.20000000000E+02  0.47000000000E+01 0. -1.
</event>
<event>
 4    1  0.5025809E-002  0.4000000E+02  0.7546771E-02  0.1348030E+00
         11   -1    0    0    0    0  0.00000000000E+00  0.00000000000E+00  0.20000000000E+02  0.20000000000E+02  0.00000000000E+00 0. -1.
        -11   -1    0    0    0    0 -0.00000000000E+00 -0.00000000000E+00 -0.20000000000E+02  0.20000000000E+02  0.00000000000E+00 0.  1.
          5    1    1    2  501    0 -0.86895620335E-01  0.15083448058E+02  0.12263443393E+02  0.20000000000E+02  0.47000000000E+01 0. -1.
         -5    1    1    2    0  501  0.86895620335E-01 -0.15083448058E+02 -0.12263443393E+02  0.20000000000E+02  0.47000000000E+01 0.  1.
</event>
<event>
 4    1  0.5025809E-002  0.4000000E+02  0.7546771E-02  0.1348030E+00
         11   -1    0    0    0    0  0.00000000000E+00  0.00000000000E+00  0.20000000000E+02  0.20000000000E+02  0.00000000000E+00 0.  1.
        -11   -1    0    0    0    0 -0.00000000000E+00 -0.00000000000E+00 -0.20000000000E+02  0.20000000000E+02  0.00000000000E+00 0. -1.
          5    1    1    2  501    0 -0.16395404918E+02  0.57066960907E+00 -0.10429527015E+02  0.20000000000E+02  0.47000000000E+01 0. -1.
         -5    1    1    2    0  501  0.16395404918E+02 -0.57066960907E+00  0.10429527015E+02  0.20000000000E+02  0.47000000000E+01 0.  1.
</event>
<event>
 4    1  0.5025809E-002  0.4000000E+02  0.7546771E-02  0.1348030E+00
         11   -1    0    0    0    0  0.00000000000E+00  0.00000000000E+00  0.20000000000E+02  0.20000000000E+02  0.00000000000E+00 0.  1.
        -11   -1    0    0    0    0 -0.00000000000E+00 -0.00000000000E+00 -0.20000000000E+02  0.20000000000E+02  0.00000000000E+00 0. -1.
          5    1    1    2  501    0 -0.18994387589E+02  0.26613034248E+01 -0.31687070212E+01  0.20000000000E+02  0.47000000000E+01 0. -1.
         -5    1    1    2    0  501  0.18994387589E+02 -0.26613034248E+01  0.31687070212E+01  0.20000000000E+02  0.47000000000E+01 0.  1.
</event>
<event>
 4    1  0.5025809E-002  0.4000000E+02  0.7546771E-02  0.1348030E+00
         11   -1    0    0    0    0  0.00000000000E+00  0.00000000000E+00  0.20000000000E+02  0.20000000000E+02  0.00000000000E+00 0.  1.
        -11   -1    0    0    0    0 -0.00000000000E+00 -0.00000000000E+00 -0.20000000000E+02  0.20000000000E+02  0.00000000000E+00 0. -1.
          5    1    1    2  501    0 -0.68740164200E+00 -0.18162367992E+02  0.68968012816E+01  0.20000000000E+02  0.47000000000E+01 0.  1.
         -5    1    1    2    0  501  0.68740164200E+00  0.18162367992E+02 -0.68968012816E+01  0.20000000000E+02  0.47000000000E+01 0. -1.
</event>
<event>
 4    1  0.5025809E-002  0.4000000E+02  0.7546771E-02  0.1348030E+00
         11   -1    0    0    0    0  0.00000000000E+00  0.00000000000E+00  0.20000000000E+02  0.20000000000E+02  0.00000000000E+00 0. -1.
        -11   -1    0    0    0    0 -0.00000000000E+00 -0.00000000000E+00 -0.20000000000E+02  0.20000000000E+02  0.00000000000E+00 0.  1.
          5    1    1    2  501    0 -0.41558793712E+01 -0.67020743496E+01 -0.17768535845E+02  0.20000000000E+02  0.47000000000E+01 0.  1.
         -5    1    1    2    0  501  0.41558793712E+01  0.67020743496E+01  0.17768535845E+02  0.20000000000E+02  0.47000000000E+01 0. -1.
</event>
<event>
 4    1  0.5025809E-002  0.4000000E+02  0.7546771E-02  0.1348030E+00
         11   -1    0    0    0    0  0.00000000000E+00  0.00000000000E+00  0.20000000000E+02  0.20000000000E+02  0.00000000000E+00 0.  1.
        -11   -1    0    0    0    0 -0.00000000000E+00 -0.00000000000E+00 -0.20000000000E+02  0.20000000000E+02  0.00000000000E+00 0. -1.
          5    1    1    2  501    0  0.50739818117E+00  0.10998619284E+02  0.16021327065E+02  0.20000000000E+02  0.47000000000E+01 0.  1.
         -5    1    1    2    0  501 -0.50739818117E+00 -0.10998619284E+02 -0.16021327065E+02  0.20000000000E+02  0.47000000000E+01 0. -1.
</event>
<event>
 4    1  0.5025809E-002  0.4000000E+02  0.7546771E-02  0.1348030E+00
         11   -1    0    0    0    0  0.00000000000E+00  0.00000000000E+00  0.20000000000E+02  0.20000000000E+02  0.00000000000E+00 0.  1.
        -11   -1    0    0    0    0 -0.00000000000E+00 -0.00000000000E+00 -0.20000000000E+02  0.20000000000E+02  0.00000000000E+00 0. -1.
          5    1    1    2  501    0 -0.50757218406E+01 -0.59382482921E+01 -0.17801243075E+02  0.20000000000E+02  0.47000000000E+01 0. -1.
         -5    1    1    2    0  501  0.50757218406E+01  0.59382482921E+01  0.17801243075E+02  0.20000000000E+02  0.47000000000E+01 0.  1.
</event>
<event>
 4    1  0.5025809E-002  0.4000000E+02  0.7546771E-02  0.1348030E+00
         11   -1    0    0    0    0  0.00000000000E+00  0.00000000000E+00  0.20000000000E+02  0.20000000000E+02  0.00000000000E+00 0.  1.
        -11   -1    0    0    0    0 -0.00000000000E+00 -0.00000000000E+00 -0.20000000000E+02  0.20000000000E+02  0.00000000000E+00 0. -1.
          5    1    1    2  501    0 -0.29258012497E+01  0.13764932781E+02  0.13411797515E+02  0.20000000000E+02  0.47000000000E+01 0.  1.
         -5    1    1    2    0  501  0.29258012497E+01 -0.13764932781E+02 -0.13411797515E+02  0.20000000000E+02  0.47000000000E+01 0. -1.
</event>
<event>
 4    1  0.5025809E-002  0.4000000E+02  0.7546771E-02  0.1348030E+00
         11   -1    0    0    0    0  0.00000000000E+00  0.00000000000E+00  0.20000000000E+02  0.20000000000E+02  0.00000000000E+00 0.  1.
        -11   -1    0    0    0    0 -0.00000000000E+00 -0.00000000000E+00 -0.20000000000E+02  0.20000000000E+02  0.00000000000E+00 0. -1.
          5    1    1    2  501    0  0.96650135831E+01 -0.93319250379E+01 -0.14050362541E+02  0.20000000000E+02  0.47000000000E+01 0. -1.
         -5    1    1    2    0  501 -0.96650135831E+01  0.93319250379E+01  0.14050362541E+02  0.20000000000E+02  0.47000000000E+01 0.  1.
</event>
<event>
 4    1  0.5025809E-002  0.4000000E+02  0.7546771E-02  0.1348030E+00
         11   -1    0    0    0    0  0.00000000000E+00  0.00000000000E+00  0.20000000000E+02  0.20000000000E+02  0.00000000000E+00 0.  1.
        -11   -1    0    0    0    0 -0.00000000000E+00 -0.00000000000E+00 -0.20000000000E+02  0.20000000000E+02  0.00000000000E+00 0. -1.
          5    1    1    2  501    0  0.75370755081E+01  0.25736963479E+01 -0.17733543918E+02  0.20000000000E+02  0.47000000000E+01 0. -1.
         -5    1    1    2    0  501 -0.75370755081E+01 -0.25736963479E+01  0.17733543918E+02  0.20000000000E+02  0.47000000000E+01 0.  1.
</event>
<event>
 4    1  0.5025809E-002  0.4000000E+02  0.7546771E-02  0.1348030E+00
         11   -1    0    0    0    0  0.00000000000E+00  0.00000000000E+00  0.20000000000E+02  0.20000000000E+02  0.00000000000E+00 0. -1.
        -11   -1    0    0    0    0 -0.00000000000E+00 -0.00000000000E+00 -0.20000000000E+02  0.20000000000E+02  0.00000000000E+00 0.  1.
          5    1    1    2  501    0  0.80216821343E+01  0.17231507202E+02 -0.40789429132E+01  0.20000000000E+02  0.47000000000E+01 0. -1.
         -5    1    1    2    0  501 -0.80216821343E+01 -0.17231507202E+02  0.40789429132E+01  0.20000000000E+02  0.47000000000E+01 0. -1.
</event>
<event>
 4    1  0.5025809E-002  0.4000000E+02  0.7546771E-02  0.1348030E+00
         11   -1    0    0    0    0  0.00000000000E+00  0.00000000000E+00  0.20000000000E+02  0.20000000000E+02  0.00000000000E+00 0.  1.
        -11   -1    0    0    0    0 -0.00000000000E+00 -0.00000000000E+00 -0.20000000000E+02  0.20000000000E+02  0.00000000000E+00 0. -1.
          5    1    1    2  501    0 -0.96891445342E+01  0.42228553134E+01 -0.16315574498E+02  0.20000000000E+02  0.47000000000E+01 0. -1.
         -5    1    1    2    0  501  0.96891445342E+01 -0.42228553134E+01  0.16315574498E+02  0.20000000000E+02  0.47000000000E+01 0.  1.
</event>
<event>
 4    1  0.5025809E-002  0.4000000E+02  0.7546771E-02  0.1348030E+00
         11   -1    0    0    0    0  0.00000000000E+00  0.00000000000E+00  0.20000000000E+02  0.20000000000E+02  0.00000000000E+00 0. -1.
        -11   -1    0    0    0    0 -0.00000000000E+00 -0.00000000000E+00 -0.20000000000E+02  0.20000000000E+02  0.00000000000E+00 0.  1.
          5    1    1    2  501    0 -0.75632941657E+01  0.11459935378E+02 -0.13761412082E+02  0.20000000000E+02  0.47000000000E+01 0.  1.
         -5    1    1    2    0  501  0.75632941657E+01 -0.11459935378E+02  0.13761412082E+02  0.20000000000E+02  0.47000000000E+01 0. -1.
</event>
<event>
 4    1  0.5025809E-002  0.4000000E+02  0.7546771E-02  0.1348030E+00
         11   -1    0    0    0    0  0.00000000000E+00  0.00000000000E+00  0.20000000000E+02  0.20000000000E+02  0.00000000000E+00 0.  1.
        -11   -1    0    0    0    0 -0.00000000000E+00 -0.00000000000E+00 -0.20000000000E+02  0.20000000000E+02  0.00000000000E+00 0. -1.
          5    1    1    2  501    0  0.10009987137E+01  0.16886134772E+01 -0.19340542549E+02  0.20000000000E+02  0.47000000000E+01 0. -1.
         -5    1    1    2    0  501 -0.10009987137E+01 -0.16886134772E+01  0.19340542549E+02  0.20000000000E+02  0.47000000000E+01 0.  1.
</event>
<event>
 4    1  0.5025809E-002  0.4000000E+02  0.7546771E-02  0.1348030E+00
         11   -1    0    0    0    0  0.00000000000E+00  0.00000000000E+00  0.20000000000E+02  0.20000000000E+02  0.00000000000E+00 0. -1.
        -11   -1    0    0    0    0 -0.00000000000E+00 -0.00000000000E+00 -0.20000000000E+02  0.20000000000E+02  0.00000000000E+00 0.  1.
          5    1    1    2  501    0 -0.12063934313E+02  0.26532693143E+01 -0.15011050957E+02  0.20000000000E+02  0.47000000000E+01 0.  1.
         -5    1    1    2    0  501  0.12063934313E+02 -0.26532693143E+01  0.15011050957E+02  0.20000000000E+02  0.47000000000E+01 0. -1.
</event>
<event>
 4    1  0.5025809E-002  0.4000000E+02  0.7546771E-02  0.1348030E+00
         11   -1    0    0    0    0  0.00000000000E+00  0.00000000000E+00  0.20000000000E+02  0.20000000000E+02  0.00000000000E+00 0.  1.
        -11   -1    0    0    0    0 -0.00000000000E+00 -0.00000000000E+00 -0.20000000000E+02  0.20000000000E+02  0.00000000000E+00 0. -1.
          5    1    1    2  501    0  0.16378609252E+02  0.41116239021E+01  0.96304573031E+01  0.20000000000E+02  0.47000000000E+01 0.  1.
         -5    1    1    2    0  501 -0.16378609252E+02 -0.41116239021E+01 -0.96304573031E+01  0.20000000000E+02  0.47000000000E+01 0. -1.
</event>
<event>
 4    1  0.5025809E-002  0.4000000E+02  0.7546771E-02  0.1348030E+00
         11   -1    0    0    0    0  0.00000000000E+00  0.00000000000E+00  0.20000000000E+02  0.20000000000E+02  0.00000000000E+00 0.  1.
        -11   -1    0    0    0    0 -0.00000000000E+00 -0.00000000000E+00 -0.20000000000E+02  0.20000000000E+02  0.00000000000E+00 0. -1.
          5    1    1    2  501    0  0.11638046285E+02 -0.42679753850E+01  0.14974987973E+02  0.20000000000E+02  0.47000000000E+01 0.  1.
         -5    1    1    2    0  501 -0.11638046285E+02  0.42679753850E+01 -0.14974987973E+02  0.20000000000E+02  0.47000000000E+01 0. -1.
</event>
<event>
 4    1  0.5025809E-002  0.4000000E+02  0.7546771E-02  0.1348030E+00
         11   -1    0    0    0    0  0.00000000000E+00  0.00000000000E+00  0.20000000000E+02  0.20000000000E+02  0.00000000000E+00 0. -1.
        -11   -1    0    0    0    0 -0.00000000000E+00 -0.00000000000E+00 -0.20000000000E+02  0.20000000000E+02  0.00000000000E+00 0.  1.
          5    1    1    2  501    0  0.12311186337E+02 -0.13568860821E+01 -0.14983442567E+02  0.20000000000E+02  0.47000000000E+01 0.  1.
         -5    1    1    2    0  501 -0.12311186337E+02  0.13568860821E+01  0.14983442567E+02  0.20000000000E+02  0.47000000000E+01 0. -1.
</event>
<event>
 4    1  0.5025809E-002  0.4000000E+02  0.7546771E-02  0.1348030E+00
         11   -1    0    0    0    0  0.00000000000E+00  0.00000000000E+00  0.20000000000E+02  0.20000000000E+02  0.00000000000E+00 0.  1.
        -11   -1    0    0    0    0 -0.00000000000E+00 -0.00000000000E+00 -0.20000000000E+02  0.20000000000E+02  0.00000000000E+00 0. -1.
          5    1    1    2  501    0  0.49243114959E+01  0.97931804125E+01 -0.16054743028E+02  0.20000000000E+02  0.47000000000E+01 0. -1.
         -5    1    1    2    0  501 -0.49243114959E+01 -0.97931804125E+01  0.16054743028E+02  0.20000000000E+02  0.47000000000E+01 0.  1.
</event>
<event>
 4    1  0.5025809E-002  0.4000000E+02  0.7546771E-02  0.1348030E+00
         11   -1    0    0    0    0  0.00000000000E+00  0.00000000000E+00  0.20000000000E+02  0.20000000000E+02  0.00000000000E+00 0. -1.
        -11   -1    0    0    0    0 -0.00000000000E+00 -0.00000000000E+00 -0.20000000000E+02  0.20000000000E+02  0.00000000000E+00 0.  1.
          5    1    1    2  501    0 -0.64429000186E+01  0.53499649901E+01 -0.17543571870E+02  0.20000000000E+02  0.47000000000E+01 0.  1.
         -5    1    1    2    0  501  0.64429000186E+01 -0.53499649901E+01  0.17543571870E+02  0.20000000000E+02  0.47000000000E+01 0. -1.
</event>
<event>
 4    1  0.5025809E-002  0.4000000E+02  0.7546771E-02  0.1348030E+00
         11   -1    0    0    0    0  0.00000000000E+00  0.00000000000E+00  0.20000000000E+02  0.20000000000E+02  0.00000000000E+00 0. -1.
        -11   -1    0    0    0    0 -0.00000000000E+00 -0.00000000000E+00 -0.20000000000E+02  0.20000000000E+02  0.00000000000E+00 0.  1.
          5    1    1    2  501    0 -0.42654473346E+01 -0.14966335039E+02 -0.11650097619E+02  0.20000000000E+02  0.47000000000E+01 0.  1.
         -5    1    1    2    0  501  0.42654473346E+01  0.14966335039E+02  0.11650097619E+02  0.20000000000E+02  0.47000000000E+01 0. -1.
</event>
<event>
 4    1  0.5025809E-002  0.4000000E+02  0.7546771E-02  0.1348030E+00
         11   -1    0    0    0    0  0.00000000000E+00  0.00000000000E+00  0.20000000000E+02  0.20000000000E+02  0.00000000000E+00 0.  1.
        -11   -1    0    0    0    0 -0.00000000000E+00 -0.00000000000E+00 -0.20000000000E+02  0.20000000000E+02  0.00000000000E+00 0. -1.
          5    1    1    2  501    0  0.11623027666E+01  0.18536248117E+02  0.57416511596E+01  0.20000000000E+02  0.47000000000E+01 0.  1.
         -5    1    1    2    0  501 -0.11623027666E+01 -0.18536248117E+02 -0.57416511596E+01  0.20000000000E+02  0.47000000000E+01 0. -1.
</event>
<event>
 4    1  0.5025809E-002  0.4000000E+02  0.7546771E-02  0.1348030E+00
         11   -1    0    0    0    0  0.00000000000E+00  0.00000000000E+00  0.20000000000E+02  0.20000000000E+02  0.00000000000E+00 0.  1.
        -11   -1    0    0    0    0 -0.00000000000E+00 -0.00000000000E+00 -0.20000000000E+02  0.20000000000E+02  0.00000000000E+00 0. -1.
          5    1    1    2  501    0  0.26605554256E+01 -0.17549185425E+02 -0.79282744490E+01  0.20000000000E+02  0.47000000000E+01 0. -1.
         -5    1    1    2    0  501 -0.26605554256E+01  0.17549185425E+02  0.79282744490E+01  0.20000000000E+02  0.47000000000E+01 0.  1.
</event>
<event>
 4    1  0.5025809E-002  0.4000000E+02  0.7546771E-02  0.1348030E+00
         11   -1    0    0    0    0  0.00000000000E+00  0.00000000000E+00  0.20000000000E+02  0.20000000000E+02  0.00000000000E+00 0. -1.
        -11   -1    0    0    0    0 -0.00000000000E+00 -0.00000000000E+00 -0.20000000000E+02  0.20000000000E+02  0.00000000000E+00 0.  1.
          5    1    1    2  501    0 -0.93522507003E+01  0.18952338012E+01 -0.16936749856E+02  0.20000000000E+02  0.47000000000E+01 0.  1.
         -5    1    1    2    0  501  0.93522507003E+01 -0.18952338012E+01  0.16936749856E+02  0.20000000000E+02  0.47000000000E+01 0. -1.
</event>
<event>
 4    1  0.5025809E-002  0.4000000E+02  0.7546771E-02  0.1348030E+00
         11   -1    0    0    0    0  0.00000000000E+00  0.00000000000E+00  0.20000000000E+02  0.20000000000E+02  0.00000000000E+00 0.  1.
        -11   -1    0    0    0    0 -0.00000000000E+00 -0.00000000000E+00 -0.20000000000E+02  0.20000000000E+02  0.00000000000E+00 0. -1.
          5    1    1    2  501    0  0.16357917089E+01  0.18040629213E+02 -0.70547773247E+01  0.20000000000E+02  0.47000000000E+01 0. -1.
         -5    1    1    2    0  501 -0.16357917089E+01 -0.18040629213E+02  0.70547773247E+01  0.20000000000E+02  0.47000000000E+01 0.  1.
</event>
<event>
 4    1  0.5025809E-002  0.4000000E+02  0.7546771E-02  0.1348030E+00
         11   -1    0    0    0    0  0.00000000000E+00  0.00000000000E+00  0.20000000000E+02  0.20000000000E+02  0.00000000000E+00 0.  1.
        -11   -1    0    0    0    0 -0.00000000000E+00 -0.00000000000E+00 -0.20000000000E+02  0.20000000000E+02  0.00000000000E+00 0. -1.
          5    1    1    2  501    0 -0.12550620573E+00 -0.14232171039E+02  0.13241584335E+02  0.20000000000E+02  0.47000000000E+01 0.  1.
         -5    1    1    2    0  501  0.12550620573E+00  0.14232171039E+02 -0.13241584335E+02  0.20000000000E+02  0.47000000000E+01 0. -1.
</event>
<event>
 4    1  0.5025809E-002  0.4000000E+02  0.7546771E-02  0.1348030E+00
         11   -1    0    0    0    0  0.00000000000E+00  0.00000000000E+00  0.20000000000E+02  0.20000000000E+02  0.00000000000E+00 0. -1.
        -11   -1    0    0    0    0 -0.00000000000E+00 -0.00000000000E+00 -0.20000000000E+02  0.20000000000E+02  0.00000000000E+00 0.  1.
          5    1    1    2  501    0  0.26715019398E+01  0.18462948834E+01  0.19166749140E+02  0.20000000000E+02  0.47000000000E+01 0. -1.
         -5    1    1    2    0  501 -0.26715019398E+01 -0.18462948834E+01 -0.19166749140E+02  0.20000000000E+02  0.47000000000E+01 0.  1.
</event>
<event>
 4    1  0.5025809E-002  0.4000000E+02  0.7546771E-02  0.1348030E+00
         11   -1    0    0    0    0  0.00000000000E+00  0.00000000000E+00  0.20000000000E+02  0.20000000000E+02  0.00000000000E+00 0. -1.
        -11   -1    0    0    0    0 -0.00000000000E+00 -0.00000000000E+00 -0.20000000000E+02  0.20000000000E+02  0.00000000000E+00 0.  1.
          5    1    1    2  501    0 -0.80540316114E+01  0.17085945051E+02 -0.45948946159E+01  0.20000000000E+02  0.47000000000E+01 0.  1.
         -5    1    1    2    0  501  0.80540316114E+01 -0.17085945051E+02  0.45948946159E+01  0.20000000000E+02  0.47000000000E+01 0. -1.
</event>
<event>
 4    1  0.5025809E-002  0.4000000E+02  0.7546771E-02  0.1348030E+00
         11   -1    0    0    0    0  0.00000000000E+00  0.00000000000E+00  0.20000000000E+02  0.20000000000E+02  0.00000000000E+00 0. -1.
        -11   -1    0    0    0    0 -0.00000000000E+00 -0.00000000000E+00 -0.20000000000E+02  0.20000000000E+02  0.00000000000E+00 0.  1.
          5    1    1    2  501    0 -0.15031282304E+02  0.10489966456E+01 -0.12282921409E+02  0.20000000000E+02  0.47000000000E+01 0.  1.
         -5    1    1    2    0  501  0.15031282304E+02 -0.10489966456E+01  0.12282921409E+02  0.20000000000E+02  0.47000000000E+01 0. -1.
</event>
<event>
 4    1  0.5025809E-002  0.4000000E+02  0.7546771E-02  0.1348030E+00
         11   -1    0    0    0    0  0.00000000000E+00  0.00000000000E+00  0.20000000000E+02  0.20000000000E+02  0.00000000000E+00 0. -1.
        -11   -1    0    0    0    0 -0.00000000000E+00 -0.00000000000E+00 -0.20000000000E+02  0.20000000000E+02  0.00000000000E+00 0.  1.
          5    1    1    2  501    0  0.37724013307E+01 -0.13496193753E+02 -0.13473371604E+02  0.20000000000E+02  0.47000000000E+01 0.  1.
         -5    1    1    2    0  501 -0.37724013307E+01  0.13496193753E+02  0.13473371604E+02  0.20000000000E+02  0.47000000000E+01 0. -1.
</event>
<event>
 4    1  0.5025809E-002  0.4000000E+02  0.7546771E-02  0.1348030E+00
         11   -1    0    0    0    0  0.00000000000E+00  0.00000000000E+00  0.20000000000E+02  0.20000000000E+02  0.00000000000E+00 0. -1.
        -11   -1    0    0    0    0 -0.00000000000E+00 -0.00000000000E+00 -0.20000000000E+02  0.20000000000E+02  0.00000000000E+00 0.  1.
          5    1    1    2  501    0  0.28096279614E+01  0.74000078603E+01 -0.17755446330E+02  0.20000000000E+02  0.47000000000E+01 0.  1.
         -5    1    1    2    0  501 -0.28096279614E+01 -0.74000078603E+01  0.17755446330E+02  0.20000000000E+02  0.47000000000E+01 0. -1.
</event>
<event>
 4    1  0.5025809E-002  0.4000000E+02  0.7546771E-02  0.1348030E+00
         11   -1    0    0    0    0  0.00000000000E+00  0.00000000000E+00  0.20000000000E+02  0.20000000000E+02  0.00000000000E+00 0.  1.
        -11   -1    0    0    0    0 -0.00000000000E+00 -0.00000000000E+00 -0.20000000000E+02  0.20000000000E+02  0.00000000000E+00 0. -1.
          5    1    1    2  501    0 -0.19246481809E+02  0.83399756169E-01  0.27342242906E+01  0.20000000000E+02  0.47000000000E+01 0.  1.
         -5    1    1    2    0  501  0.19246481809E+02 -0.83399756169E-01 -0.27342242906E+01  0.20000000000E+02  0.47000000000E+01 0. -1.
</event>
<event>
 4    1  0.5025809E-002  0.4000000E+02  0.7546771E-02  0.1348030E+00
         11   -1    0    0    0    0  0.00000000000E+00  0.00000000000E+00  0.20000000000E+02  0.20000000000E+02  0.00000000000E+00 0. -1.
        -11   -1    0    0    0    0 -0.00000000000E+00 -0.00000000000E+00 -0.20000000000E+02  0.20000000000E+02  0.00000000000E+00 0.  1.
          5    1    1    2  501    0 -0.12403538042E+01  0.17014568897E+02 -0.93207278519E+01  0.20000000000E+02  0.47000000000E+01 0.  1.
         -5    1    1    2    0  501  0.12403538042E+01 -0.17014568897E+02  0.93207278519E+01  0.20000000000E+02  0.47000000000E+01 0. -1.
</event>
<event>
 4    1  0.5025809E-002  0.4000000E+02  0.7546771E-02  0.1348030E+00
         11   -1    0    0    0    0  0.00000000000E+00  0.00000000000E+00  0.20000000000E+02  0.20000000000E+02  0.00000000000E+00 0. -1.
        -11   -1    0    0    0    0 -0.00000000000E+00 -0.00000000000E+00 -0.20000000000E+02  0.20000000000E+02  0.00000000000E+00 0.  1.
          5    1    1    2  501    0  0.42259230604E+01  0.24838559647E+01 -0.18811752546E+02  0.20000000000E+02  0.47000000000E+01 0.  1.
         -5    1    1    2    0  501 -0.42259230604E+01 -0.24838559647E+01  0.18811752546E+02  0.20000000000E+02  0.47000000000E+01 0. -1.
</event>
<event>
 4    1  0.5025809E-002  0.4000000E+02  0.7546771E-02  0.1348030E+00
         11   -1    0    0    0    0  0.00000000000E+00  0.00000000000E+00  0.20000000000E+02  0.20000000000E+02  0.00000000000E+00 0.  1.
        -11   -1    0    0    0    0 -0.00000000000E+00 -0.00000000000E+00 -0.20000000000E+02  0.20000000000E+02  0.00000000000E+00 0. -1.
          5    1    1    2  501    0 -0.12704307665E+02 -0.90913191160E+01 -0.11569722705E+02  0.20000000000E+02  0.47000000000E+01 0. -1.
         -5    1    1    2    0  501  0.12704307665E+02  0.90913191160E+01  0.11569722705E+02  0.20000000000E+02  0.47000000000E+01 0.  1.
</event>
<event>
 4    1  0.5025809E-002  0.4000000E+02  0.7546771E-02  0.1348030E+00
         11   -1    0    0    0    0  0.00000000000E+00  0.00000000000E+00  0.20000000000E+02  0.20000000000E+02  0.00000000000E+00 0.  1.
        -11   -1    0    0    0    0 -0.00000000000E+00 -0.00000000000E+00 -0.20000000000E+02  0.20000000000E+02  0.00000000000E+00 0. -1.
          5    1    1    2  501    0 -0.78317236048E+01 -0.85370244867E+00 -0.17772036954E+02  0.20000000000E+02  0.47000000000E+01 0. -1.
         -5    1    1    2    0  501  0.78317236048E+01  0.85370244867E+00  0.17772036954E+02  0.20000000000E+02  0.47000000000E+01 0.  1.
</event>
<event>
 4    1  0.5025809E-002  0.4000000E+02  0.7546771E-02  0.1348030E+00
         11   -1    0    0    0    0  0.00000000000E+00  0.00000000000E+00  0.20000000000E+02  0.20000000000E+02  0.00000000000E+00 0.  1.
        -11   -1    0    0    0    0 -0.00000000000E+00 -0.00000000000E+00 -0.20000000000E+02  0.20000000000E+02  0.00000000000E+00 0. -1.
          5    1    1    2  501    0  0.16862040654E+02 -0.60526693923E+01  0.75463089137E+01  0.20000000000E+02  0.47000000000E+01 0.  1.
         -5    1    1    2    0  501 -0.16862040654E+02  0.60526693923E+01 -0.75463089137E+01  0.20000000000E+02  0.47000000000E+01 0. -1.
</event>
<event>
 4    1  0.5025809E-002  0.4000000E+02  0.7546771E-02  0.1348030E+00
         11   -1    0    0    0    0  0.00000000000E+00  0.00000000000E+00  0.20000000000E+02  0.20000000000E+02  0.00000000000E+00 0.  1.
        -11   -1    0    0    0    0 -0.00000000000E+00 -0.00000000000E+00 -0.20000000000E+02  0.20000000000E+02  0.00000000000E+00 0. -1.
          5    1    1    2  501    0  0.34094605808E+01  0.12643679317E+02 -0.14367426766E+02  0.20000000000E+02  0.47000000000E+01 0. -1.
         -5    1    1    2    0  501 -0.34094605808E+01 -0.12643679317E+02  0.14367426766E+02  0.20000000000E+02  0.47000000000E+01 0.  1.
</event>
<event>
 4    1  0.5025809E-002  0.4000000E+02  0.7546771E-02  0.1348030E+00
         11   -1    0    0    0    0  0.00000000000E+00  0.00000000000E+00  0.20000000000E+02  0.20000000000E+02  0.00000000000E+00 0. -1.
        -11   -1    0    0    0    0 -0.00000000000E+00 -0.00000000000E+00 -0.20000000000E+02  0.20000000000E+02  0.00000000000E+00 0.  1.
          5    1    1    2  501    0 -0.16576922101E+02  0.70625113757E+01  0.72963406392E+01  0.20000000000E+02  0.47000000000E+01 0.  1.
         -5    1    1    2    0  501  0.16576922101E+02 -0.70625113757E+01 -0.72963406392E+01  0.20000000000E+02  0.47000000000E+01 0. -1.
</event>
<event>
 4    1  0.5025809E-002  0.4000000E+02  0.7546771E-02  0.1348030E+00
         11   -1    0    0    0    0  0.00000000000E+00  0.00000000000E+00  0.20000000000E+02  0.20000000000E+02  0.00000000000E+00 0. -1.
        -11   -1    0    0    0    0 -0.00000000000E+00 -0.00000000000E+00 -0.20000000000E+02  0.20000000000E+02  0.00000000000E+00 0.  1.
          5    1    1    2  501    0 -0.17232435787E+02 -0.49550583528E+01 -0.75100301974E+01  0.20000000000E+02  0.47000000000E+01 0.  1.
         -5    1    1    2    0  501  0.17232435787E+02  0.49550583528E+01  0.75100301974E+01  0.20000000000E+02  0.47000000000E+01 0. -1.
</event>
<event>
 4    1  0.5025809E-002  0.4000000E+02  0.7546771E-02  0.1348030E+00
         11   -1    0    0    0    0  0.00000000000E+00  0.00000000000E+00  0.20000000000E+02  0.20000000000E+02  0.00000000000E+00 0.  1.
        -11   -1    0    0    0    0 -0.00000000000E+00 -0.00000000000E+00 -0.20000000000E+02  0.20000000000E+02  0.00000000000E+00 0. -1.
          5    1    1    2  501    0  0.18548538377E+02 -0.32242860892E+01  0.48441411305E+01  0.20000000000E+02  0.47000000000E+01 0.  1.
         -5    1    1    2    0  501 -0.18548538377E+02  0.32242860892E+01 -0.48441411305E+01  0.20000000000E+02  0.47000000000E+01 0. -1.
</event>
<event>
 4    1  0.5025809E-002  0.4000000E+02  0.7546771E-02  0.1348030E+00
         11   -1    0    0    0    0  0.00000000000E+00  0.00000000000E+00  0.20000000000E+02  0.20000000000E+02  0.00000000000E+00 0. -1.
        -11   -1    0    0    0    0 -0.00000000000E+00 -0.00000000000E+00 -0.20000000000E+02  0.20000000000E+02  0.00000000000E+00 0.  1.
          5    1    1    2  501    0 -0.11686269766E+02 -0.15523208724E+02  0.60917145802E+00  0.20000000000E+02  0.47000000000E+01 0.  1.
         -5    1    1    2    0  501  0.11686269766E+02  0.15523208724E+02 -0.60917145802E+00  0.20000000000E+02  0.47000000000E+01 0. -1.
</event>
<event>
 4    1  0.5025809E-002  0.4000000E+02  0.7546771E-02  0.1348030E+00
         11   -1    0    0    0    0  0.00000000000E+00  0.00000000000E+00  0.20000000000E+02  0.20000000000E+02  0.00000000000E+00 0.  1.
        -11   -1    0    0    0    0 -0.00000000000E+00 -0.00000000000E+00 -0.20000000000E+02  0.20000000000E+02  0.00000000000E+00 0. -1.
          5    1    1    2  501    0 -0.14283345050E+02  0.12284720503E+02 -0.47939228550E+01  0.20000000000E+02  0.47000000000E+01 0. -1.
         -5    1    1    2    0  501  0.14283345050E+02 -0.12284720503E+02  0.47939228550E+01  0.20000000000E+02  0.47000000000E+01 0.  1.
</event>
<event>
 4    1  0.5025809E-002  0.4000000E+02  0.7546771E-02  0.1348030E+00
         11   -1    0    0    0    0  0.00000000000E+00  0.00000000000E+00  0.20000000000E+02  0.20000000000E+02  0.00000000000E+00 0.  1.
        -11   -1    0    0    0    0 -0.00000000000E+00 -0.00000000000E+00 -0.20000000000E+02  0.20000000000E+02  0.00000000000E+00 0. -1.
          5    1    1    2  501    0  0.65344613251E+01 -0.36279206632E+01 -0.17945723916E+02  0.20000000000E+02  0.47000000000E+01 0. -1.
         -5    1    1    2    0  501 -0.65344613251E+01  0.36279206632E+01  0.17945723916E+02  0.20000000000E+02  0.47000000000E+01 0.  1.
</event>
<event>
 4    1  0.5025809E-002  0.4000000E+02  0.7546771E-02  0.1348030E+00
         11   -1    0    0    0    0  0.00000000000E+00  0.00000000000E+00  0.20000000000E+02  0.20000000000E+02  0.00000000000E+00 0.  1.
        -11   -1    0    0    0    0 -0.00000000000E+00 -0.00000000000E+00 -0.20000000000E+02  0.20000000000E+02  0.00000000000E+00 0. -1.
          5    1    1    2  501    0  0.21972554688E+01  0.11382171161E+02  0.15605391635E+02  0.20000000000E+02  0.47000000000E+01 0.  1.
         -5    1    1    2    0  501 -0.21972554688E+01 -0.11382171161E+02 -0.15605391635E+02  0.20000000000E+02  0.47000000000E+01 0. -1.
</event>
<event>
 4    1  0.5025809E-002  0.4000000E+02  0.7546771E-02  0.1348030E+00
         11   -1    0    0    0    0  0.00000000000E+00  0.00000000000E+00  0.20000000000E+02  0.20000000000E+02  0.00000000000E+00 0. -1.
        -11   -1    0    0    0    0 -0.00000000000E+00 -0.00000000000E+00 -0.20000000000E+02  0.20000000000E+02  0.00000000000E+00 0.  1.
          5    1    1    2  501    0  0.13383428191E+02 -0.94860831230E+01 -0.10431111007E+02  0.20000000000E+02  0.47000000000E+01 0.  1.
         -5    1    1    2    0  501 -0.13383428191E+02  0.94860831230E+01  0.10431111007E+02  0.20000000000E+02  0.47000000000E+01 0. -1.
</event>
<event>
 4    1  0.5025809E-002  0.4000000E+02  0.7546771E-02  0.1348030E+00
         11   -1    0    0    0    0  0.00000000000E+00  0.00000000000E+00  0.20000000000E+02  0.20000000000E+02  0.00000000000E+00 0. -1.
        -11   -1    0    0    0    0 -0.00000000000E+00 -0.00000000000E+00 -0.20000000000E+02  0.20000000000E+02  0.00000000000E+00 0.  1.
          5    1    1    2  501    0 -0.74461469158E+01  0.14145847968E+02 -0.11061640086E+02  0.20000000000E+02  0.47000000000E+01 0.  1.
         -5    1    1    2    0  501  0.74461469158E+01 -0.14145847968E+02  0.11061640086E+02  0.20000000000E+02  0.47000000000E+01 0. -1.
</event>
<event>
 4    1  0.5025809E-002  0.4000000E+02  0.7546771E-02  0.1348030E+00
         11   -1    0    0    0    0  0.00000000000E+00  0.00000000000E+00  0.20000000000E+02  0.20000000000E+02  0.00000000000E+00 0. -1.
        -11   -1    0    0    0    0 -0.00000000000E+00 -0.00000000000E+00 -0.20000000000E+02  0.20000000000E+02  0.00000000000E+00 0.  1.
          5    1    1    2  501    0  0.75447219372E+01 -0.13826715783E+02 -0.11393379725E+02  0.20000000000E+02  0.47000000000E+01 0.  1.
         -5    1    1    2    0  501 -0.75447219372E+01  0.13826715783E+02  0.11393379725E+02  0.20000000000E+02  0.47000000000E+01 0. -1.
</event>
<event>
 4    1  0.5025809E-002  0.4000000E+02  0.7546771E-02  0.1348030E+00
         11   -1    0    0    0    0  0.00000000000E+00  0.00000000000E+00  0.20000000000E+02  0.20000000000E+02  0.00000000000E+00 0.  1.
        -11   -1    0    0    0    0 -0.00000000000E+00 -0.00000000000E+00 -0.20000000000E+02  0.20000000000E+02  0.00000000000E+00 0. -1.
          5    1    1    2  501    0  0.12669074197E+02 -0.10127717083E+02 -0.10716058309E+02  0.20000000000E+02  0.47000000000E+01 0. -1.
         -5    1    1    2    0  501 -0.12669074197E+02  0.10127717083E+02  0.10716058309E+02  0.20000000000E+02  0.47000000000E+01 0.  1.
</event>
<event>
 4    1  0.5025809E-002  0.4000000E+02  0.7546771E-02  0.1348030E+00
         11   -1    0    0    0    0  0.00000000000E+00  0.00000000000E+00  0.20000000000E+02  0.20000000000E+02  0.00000000000E+00 0.  1.
        -11   -1    0    0    0    0 -0.00000000000E+00 -0.00000000000E+00 -0.20000000000E+02  0.20000000000E+02  0.00000000000E+00 0. -1.
          5    1    1    2  501    0  0.52926754779E+01  0.14561884120E+02 -0.11740916367E+02  0.20000000000E+02  0.47000000000E+01 0. -1.
         -5    1    1    2    0  501 -0.52926754779E+01 -0.14561884120E+02  0.11740916367E+02  0.20000000000E+02  0.47000000000E+01 0.  1.
</event>
<event>
 4    1  0.5025809E-002  0.4000000E+02  0.7546771E-02  0.1348030E+00
         11   -1    0    0    0    0  0.00000000000E+00  0.00000000000E+00  0.20000000000E+02  0.20000000000E+02  0.00000000000E+00 0.  1.
        -11   -1    0    0    0    0 -0.00000000000E+00 -0.00000000000E+00 -0.20000000000E+02  0.20000000000E+02  0.00000000000E+00 0. -1.
          5    1    1    2  501    0 -0.89305445432E+01  0.12921187079E+02  0.11454182582E+02  0.20000000000E+02  0.47000000000E+01 0.  1.
         -5    1    1    2    0  501  0.89305445432E+01 -0.12921187079E+02 -0.11454182582E+02  0.20000000000E+02  0.47000000000E+01 0. -1.
</event>
<event>
 4    1  0.5025809E-002  0.4000000E+02  0.7546771E-02  0.1348030E+00
         11   -1    0    0    0    0  0.00000000000E+00  0.00000000000E+00  0.20000000000E+02  0.20000000000E+02  0.00000000000E+00 0. -1.
        -11   -1    0    0    0    0 -0.00000000000E+00 -0.00000000000E+00 -0.20000000000E+02  0.20000000000E+02  0.00000000000E+00 0.  1.
          5    1    1    2  501    0 -0.41414500286E+01 -0.18925611760E+02 -0.16061167953E+01  0.20000000000E+02  0.47000000000E+01 0. -1.
         -5    1    1    2    0  501  0.41414500286E+01  0.18925611760E+02  0.16061167953E+01  0.20000000000E+02  0.47000000000E+01 0.  1.
</event>
<event>
 4    1  0.5025809E-002  0.4000000E+02  0.7546771E-02  0.1348030E+00
         11   -1    0    0    0    0  0.00000000000E+00  0.00000000000E+00  0.20000000000E+02  0.20000000000E+02  0.00000000000E+00 0.  1.
        -11   -1    0    0    0    0 -0.00000000000E+00 -0.00000000000E+00 -0.20000000000E+02  0.20000000000E+02  0.00000000000E+00 0. -1.
          5    1    1    2  501    0 -0.39745494970E+01  0.11413215401E+02 -0.15226669712E+02  0.20000000000E+02  0.47000000000E+01 0. -1.
         -5    1    1    2    0  501  0.39745494970E+01 -0.11413215401E+02  0.15226669712E+02  0.20000000000E+02  0.47000000000E+01 0.  1.
</event>
<event>
 4    1  0.5025809E-002  0.4000000E+02  0.7546771E-02  0.1348030E+00
         11   -1    0    0    0    0  0.00000000000E+00  0.00000000000E+00  0.20000000000E+02  0.20000000000E+02  0.00000000000E+00 0.  1.
        -11   -1    0    0    0    0 -0.00000000000E+00 -0.00000000000E+00 -0.20000000000E+02  0.20000000000E+02  0.00000000000E+00 0. -1.
          5    1    1    2  501    0  0.33092556273E+00 -0.15556850011E+02 -0.11652678062E+02  0.20000000000E+02  0.47000000000E+01 0. -1.
         -5    1    1    2    0  501 -0.33092556273E+00  0.15556850011E+02  0.11652678062E+02  0.20000000000E+02  0.47000000000E+01 0.  1.
</event>
<event>
 4    1  0.5025809E-002  0.4000000E+02  0.7546771E-02  0.1348030E+00
         11   -1    0    0    0    0  0.00000000000E+00  0.00000000000E+00  0.20000000000E+02  0.20000000000E+02  0.00000000000E+00 0.  1.
        -11   -1    0    0    0    0 -0.00000000000E+00 -0.00000000000E+00 -0.20000000000E+02  0.20000000000E+02  0.00000000000E+00 0. -1.
          5    1    1    2  501    0  0.15460593892E+02  0.10311855653E+02 -0.57048811995E+01  0.20000000000E+02  0.47000000000E+01 0. -1.
         -5    1    1    2    0  501 -0.15460593892E+02 -0.10311855653E+02  0.57048811995E+01  0.20000000000E+02  0.47000000000E+01 0.  1.
</event>
<event>
 4    1  0.5025809E-002  0.4000000E+02  0.7546771E-02  0.1348030E+00
         11   -1    0    0    0    0  0.00000000000E+00  0.00000000000E+00  0.20000000000E+02  0.20000000000E+02  0.00000000000E+00 0.  1.
        -11   -1    0    0    0    0 -0.00000000000E+00 -0.00000000000E+00 -0.20000000000E+02  0.20000000000E+02  0.00000000000E+00 0. -1.
          5    1    1    2  501    0  0.10348493726E+01 -0.10390297438E+02  0.16397585369E+02  0.20000000000E+02  0.47000000000E+01 0.  1.
         -5    1    1    2    0  501 -0.10348493726E+01  0.10390297438E+02 -0.16397585369E+02  0.20000000000E+02  0.47000000000E+01 0. -1.
</event>
<event>
 4    1  0.5025809E-002  0.4000000E+02  0.7546771E-02  0.1348030E+00
         11   -1    0    0    0    0  0.00000000000E+00  0.00000000000E+00  0.20000000000E+02  0.20000000000E+02  0.00000000000E+00 0. -1.
        -11   -1    0    0    0    0 -0.00000000000E+00 -0.00000000000E+00 -0.20000000000E+02  0.20000000000E+02  0.00000000000E+00 0.  1.
          5    1    1    2  501    0 -0.23767671189E+01  0.12385365359E+02 -0.14794042821E+02  0.20000000000E+02  0.47000000000E+01 0.  1.
         -5    1    1    2    0  501  0.23767671189E+01 -0.12385365359E+02  0.14794042821E+02  0.20000000000E+02  0.47000000000E+01 0. -1.
</event>
<event>
 4    1  0.5025809E-002  0.4000000E+02  0.7546771E-02  0.1348030E+00
         11   -1    0    0    0    0  0.00000000000E+00  0.00000000000E+00  0.20000000000E+02  0.20000000000E+02  0.00000000000E+00 0.  1.
        -11   -1    0    0    0    0 -0.00000000000E+00 -0.00000000000E+00 -0.20000000000E+02  0.20000000000E+02  0.00000000000E+00 0. -1.
          5    1    1    2  501    0 -0.75876954050E+00 -0.49592870139E+01 -0.18781366859E+02  0.20000000000E+02  0.47000000000E+01 0. -1.
         -5    1    1    2    0  501  0.75876954050E+00  0.49592870139E+01  0.18781366859E+02  0.20000000000E+02  0.47000000000E+01 0.  1.
</event>
<event>
 4    1  0.5025809E-002  0.4000000E+02  0.7546771E-02  0.1348030E+00
         11   -1    0    0    0    0  0.00000000000E+00  0.00000000000E+00  0.20000000000E+02  0.20000000000E+02  0.00000000000E+00 0. -1.
        -11   -1    0    0    0    0 -0.00000000000E+00 -0.00000000000E+00 -0.20000000000E+02  0.20000000000E+02  0.00000000000E+00 0.  1.
          5    1    1    2  501    0 -0.12038904962E+01  0.23227459883E+01  0.19263060472E+02  0.20000000000E+02  0.47000000000E+01 0. -1.
         -5    1    1    2    0  501  0.12038904962E+01 -0.23227459883E+01 -0.19263060472E+02  0.20000000000E+02  0.47000000000E+01 0.  1.
</event>
<event>
 4    1  0.5025809E-002  0.4000000E+02  0.7546771E-02  0.1348030E+00
         11   -1    0    0    0    0  0.00000000000E+00  0.00000000000E+00  0.20000000000E+02  0.20000000000E+02  0.00000000000E+00 0.  1.
        -11   -1    0    0    0    0 -0.00000000000E+00 -0.00000000000E+00 -0.20000000000E+02  0.20000000000E+02  0.00000000000E+00 0. -1.
          5    1    1    2  501    0 -0.55267585139E+01 -0.92020380836E+01 -0.16207635097E+02  0.20000000000E+02  0.47000000000E+01 0. -1.
         -5    1    1    2    0  501  0.55267585139E+01  0.92020380836E+01  0.16207635097E+02  0.20000000000E+02  0.47000000000E+01 0.  1.
</event>
<event>
 4    1  0.5025809E-002  0.4000000E+02  0.7546771E-02  0.1348030E+00
         11   -1    0    0    0    0  0.00000000000E+00  0.00000000000E+00  0.20000000000E+02  0.20000000000E+02  0.00000000000E+00 0.  1.
        -11   -1    0    0    0    0 -0.00000000000E+00 -0.00000000000E+00 -0.20000000000E+02  0.20000000000E+02  0.00000000000E+00 0. -1.
          5    1    1    2  501    0 -0.13459936977E+02 -0.11532664103E+02 -0.79835928791E+01  0.20000000000E+02  0.47000000000E+01 0. -1.
         -5    1    1    2    0  501  0.13459936977E+02  0.11532664103E+02  0.79835928791E+01  0.20000000000E+02  0.47000000000E+01 0.  1.
</event>
<event>
 4    1  0.5025809E-002  0.4000000E+02  0.7546771E-02  0.1348030E+00
         11   -1    0    0    0    0  0.00000000000E+00  0.00000000000E+00  0.20000000000E+02  0.20000000000E+02  0.00000000000E+00 0. -1.
        -11   -1    0    0    0    0 -0.00000000000E+00 -0.00000000000E+00 -0.20000000000E+02  0.20000000000E+02  0.00000000000E+00 0.  1.
          5    1    1    2  501    0  0.45315695480E+01 -0.13712334375E+02  0.13013330220E+02  0.20000000000E+02  0.47000000000E+01 0. -1.
         -5    1    1    2    0  501 -0.45315695480E+01  0.13712334375E+02 -0.13013330220E+02  0.20000000000E+02  0.47000000000E+01 0.  1.
</event>
<event>
 4    1  0.5025809E-002  0.4000000E+02  0.7546771E-02  0.1348030E+00
         11   -1    0    0    0    0  0.00000000000E+00  0.00000000000E+00  0.20000000000E+02  0.20000000000E+02  0.00000000000E+00 0.  1.
        -11   -1    0    0    0    0 -0.00000000000E+00 -0.00000000000E+00 -0.20000000000E+02  0.20000000000E+02  0.00000000000E+00 0. -1.
          5    1    1    2  501    0  0.67428533427E+01  0.10122013675E+02 -0.15165380575E+02  0.20000000000E+02  0.47000000000E+01 0. -1.
         -5    1    1    2    0  501 -0.67428533427E+01 -0.10122013675E+02  0.15165380575E+02  0.20000000000E+02  0.47000000000E+01 0.  1.
</event>
<event>
 4    1  0.5025809E-002  0.4000000E+02  0.7546771E-02  0.1348030E+00
         11   -1    0    0    0    0  0.00000000000E+00  0.00000000000E+00  0.20000000000E+02  0.20000000000E+02  0.00000000000E+00 0.  1.
        -11   -1    0    0    0    0 -0.00000000000E+00 -0.00000000000E+00 -0.20000000000E+02  0.20000000000E+02  0.00000000000E+00 0. -1.
          5    1    1    2  501    0 -0.97541419792E+00  0.24969368513E+01 -0.19254191063E+02  0.20000000000E+02  0.47000000000E+01 0. -1.
         -5    1    1    2    0  501  0.97541419792E+00 -0.24969368513E+01  0.19254191063E+02  0.20000000000E+02  0.47000000000E+01 0.  1.
</event>
<event>
 4    1  0.5025809E-002  0.4000000E+02  0.7546771E-02  0.1348030E+00
         11   -1    0    0    0    0  0.00000000000E+00  0.00000000000E+00  0.20000000000E+02  0.20000000000E+02  0.00000000000E+00 0. -1.
        -11   -1    0    0    0    0 -0.00000000000E+00 -0.00000000000E+00 -0.20000000000E+02  0.20000000000E+02  0.00000000000E+00 0.  1.
          5    1    1    2  501    0  0.90942158632E+01 -0.12568191331E+02 -0.11715195453E+02  0.20000000000E+02  0.47000000000E+01 0.  1.
         -5    1    1    2    0  501 -0.90942158632E+01  0.12568191331E+02  0.11715195453E+02  0.20000000000E+02  0.47000000000E+01 0. -1.
</event>
<event>
 4    1  0.5025809E-002  0.4000000E+02  0.7546771E-02  0.1348030E+00
         11   -1    0    0    0    0  0.00000000000E+00  0.00000000000E+00  0.20000000000E+02  0.20000000000E+02  0.00000000000E+00 0.  1.
        -11   -1    0    0    0    0 -0.00000000000E+00 -0.00000000000E+00 -0.20000000000E+02  0.20000000000E+02  0.00000000000E+00 0. -1.
          5    1    1    2  501    0 -0.65138617164E+01  0.12127355763E+02  0.13726137394E+02  0.20000000000E+02  0.47000000000E+01 0.  1.
         -5    1    1    2    0  501  0.65138617164E+01 -0.12127355763E+02 -0.13726137394E+02  0.20000000000E+02  0.47000000000E+01 0. -1.
</event>
<event>
 4    1  0.5025809E-002  0.4000000E+02  0.7546771E-02  0.1348030E+00
         11   -1    0    0    0    0  0.00000000000E+00  0.00000000000E+00  0.20000000000E+02  0.20000000000E+02  0.00000000000E+00 0. -1.
        -11   -1    0    0    0    0 -0.00000000000E+00 -0.00000000000E+00 -0.20000000000E+02  0.20000000000E+02  0.00000000000E+00 0.  1.
          5    1    1    2  501    0 -0.60876203155E+00  0.14228213577E+02  0.13232435422E+02  0.20000000000E+02  0.47000000000E+01 0.  1.
         -5    1    1    2    0  501  0.60876203155E+00 -0.14228213577E+02 -0.13232435422E+02  0.20000000000E+02  0.47000000000E+01 0. -1.
</event>
<event>
 4    1  0.5025809E-002  0.4000000E+02  0.7546771E-02  0.1348030E+00
         11   -1    0    0    0    0  0.00000000000E+00  0.00000000000E+00  0.20000000000E+02  0.20000000000E+02  0.00000000000E+00 0.  1.
        -11   -1    0    0    0    0 -0.00000000000E+00 -0.00000000000E+00 -0.20000000000E+02  0.20000000000E+02  0.00000000000E+00 0. -1.
          5    1    1    2  501    0  0.27834258471E+01  0.18484636261E+02  0.53367370995E+01  0.20000000000E+02  0.47000000000E+01 0.  1.
         -5    1    1    2    0  501 -0.27834258471E+01 -0.18484636261E+02 -0.53367370995E+01  0.20000000000E+02  0.47000000000E+01 0. -1.
</event>
<event>
 4    1  0.5025809E-002  0.4000000E+02  0.7546771E-02  0.1348030E+00
         11   -1    0    0    0    0  0.00000000000E+00  0.00000000000E+00  0.20000000000E+02  0.20000000000E+02  0.00000000000E+00 0.  1.
        -11   -1    0    0    0    0 -0.00000000000E+00 -0.00000000000E+00 -0.20000000000E+02  0.20000000000E+02  0.00000000000E+00 0. -1.
          5    1    1    2  501    0  0.10141537342E+02  0.63544730009E+01 -0.15319265427E+02  0.20000000000E+02  0.47000000000E+01 0. -1.
         -5    1    1    2    0  501 -0.10141537342E+02 -0.63544730009E+01  0.15319265427E+02  0.20000000000E+02  0.47000000000E+01 0.  1.
</event>
<event>
 4    1  0.5025809E-002  0.4000000E+02  0.7546771E-02  0.1348030E+00
         11   -1    0    0    0    0  0.00000000000E+00  0.00000000000E+00  0.20000000000E+02  0.20000000000E+02  0.00000000000E+00 0. -1.
        -11   -1    0    0    0    0 -0.00000000000E+00 -0.00000000000E+00 -0.20000000000E+02  0.20000000000E+02  0.00000000000E+00 0.  1.
          5    1    1    2  501    0  0.10265835394E+02 -0.14165568198E+02 -0.84769865690E+01  0.20000000000E+02  0.47000000000E+01 0.  1.
         -5    1    1    2    0  501 -0.10265835394E+02  0.14165568198E+02  0.84769865690E+01  0.20000000000E+02  0.47000000000E+01 0. -1.
</event>
<event>
 4    1  0.5025809E-002  0.4000000E+02  0.7546771E-02  0.1348030E+00
         11   -1    0    0    0    0  0.00000000000E+00  0.00000000000E+00  0.20000000000E+02  0.20000000000E+02  0.00000000000E+00 0.  1.
        -11   -1    0    0    0    0 -0.00000000000E+00 -0.00000000000E+00 -0.20000000000E+02  0.20000000000E+02  0.00000000000E+00 0. -1.
          5    1    1    2  501    0 -0.14843337165E+02 -0.99451269864E+01  0.76602735609E+01  0.20000000000E+02  0.47000000000E+01 0. -1.
         -5    1    1    2    0  501  0.14843337165E+02  0.99451269864E+01 -0.76602735609E+01  0.20000000000E+02  0.47000000000E+01 0.  1.
</event>
<event>
 4    1  0.5025809E-002  0.4000000E+02  0.7546771E-02  0.1348030E+00
         11   -1    0    0    0    0  0.00000000000E+00  0.00000000000E+00  0.20000000000E+02  0.20000000000E+02  0.00000000000E+00 0.  1.
        -11   -1    0    0    0    0 -0.00000000000E+00 -0.00000000000E+00 -0.20000000000E+02  0.20000000000E+02  0.00000000000E+00 0. -1.
          5    1    1    2  501    0  0.17747710466E+02 -0.37904931173E+01 -0.69685676546E+01  0.20000000000E+02  0.47000000000E+01 0. -1.
         -5    1    1    2    0  501 -0.17747710466E+02  0.37904931173E+01  0.69685676546E+01  0.20000000000E+02  0.47000000000E+01 0.  1.
</event>
<event>
 4    1  0.5025809E-002  0.4000000E+02  0.7546771E-02  0.1348030E+00
         11   -1    0    0    0    0  0.00000000000E+00  0.00000000000E+00  0.20000000000E+02  0.20000000000E+02  0.00000000000E+00 0.  1.
        -11   -1    0    0    0    0 -0.00000000000E+00 -0.00000000000E+00 -0.20000000000E+02  0.20000000000E+02  0.00000000000E+00 0. -1.
          5    1    1    2  501    0 -0.82016349516E+01 -0.11686222342E+02  0.13193763356E+02  0.20000000000E+02  0.47000000000E+01 0.  1.
         -5    1    1    2    0  501  0.82016349516E+01  0.11686222342E+02 -0.13193763356E+02  0.20000000000E+02  0.47000000000E+01 0. -1.
</event>
<event>
 4    1  0.5025809E-002  0.4000000E+02  0.7546771E-02  0.1348030E+00
         11   -1    0    0    0    0  0.00000000000E+00  0.00000000000E+00  0.20000000000E+02  0.20000000000E+02  0.00000000000E+00 0.  1.
        -11   -1    0    0    0    0 -0.00000000000E+00 -0.00000000000E+00 -0.20000000000E+02  0.20000000000E+02  0.00000000000E+00 0. -1.
          5    1    1    2  501    0  0.13687650123E+02 -0.72933571383E+01  0.11720289065E+02  0.20000000000E+02  0.47000000000E+01 0. -1.
         -5    1    1    2    0  501 -0.13687650123E+02  0.72933571383E+01 -0.11720289065E+02  0.20000000000E+02  0.47000000000E+01 0.  1.
</event>
<event>
 4    1  0.5025809E-002  0.4000000E+02  0.7546771E-02  0.1348030E+00
         11   -1    0    0    0    0  0.00000000000E+00  0.00000000000E+00  0.20000000000E+02  0.20000000000E+02  0.00000000000E+00 0.  1.
        -11   -1    0    0    0    0 -0.00000000000E+00 -0.00000000000E+00 -0.20000000000E+02  0.20000000000E+02  0.00000000000E+00 0. -1.
          5    1    1    2  501    0 -0.12606898651E+02  0.12778601060E+02 -0.74621351745E+01  0.20000000000E+02  0.47000000000E+01 0. -1.
         -5    1    1    2    0  501  0.12606898651E+02 -0.12778601060E+02  0.74621351745E+01  0.20000000000E+02  0.47000000000E+01 0.  1.
</event>
<event>
 4    1  0.5025809E-002  0.4000000E+02  0.7546771E-02  0.1348030E+00
         11   -1    0    0    0    0  0.00000000000E+00  0.00000000000E+00  0.20000000000E+02  0.20000000000E+02  0.00000000000E+00 0. -1.
        -11   -1    0    0    0    0 -0.00000000000E+00 -0.00000000000E+00 -0.20000000000E+02  0.20000000000E+02  0.00000000000E+00 0.  1.
          5    1    1    2  501    0  0.82627525729E+00 -0.66635202942E+01 -0.18243485590E+02  0.20000000000E+02  0.47000000000E+01 0.  1.
         -5    1    1    2    0  501 -0.82627525729E+00  0.66635202942E+01  0.18243485590E+02  0.20000000000E+02  0.47000000000E+01 0. -1.
</event>
<event>
 4    1  0.5025809E-002  0.4000000E+02  0.7546771E-02  0.1348030E+00
         11   -1    0    0    0    0  0.00000000000E+00  0.00000000000E+00  0.20000000000E+02  0.20000000000E+02  0.00000000000E+00 0.  1.
        -11   -1    0    0    0    0 -0.00000000000E+00 -0.00000000000E+00 -0.20000000000E+02  0.20000000000E+02  0.00000000000E+00 0. -1.
          5    1    1    2  501    0  0.11193492186E+02  0.13020823431E+02 -0.91144879100E+01  0.20000000000E+02  0.47000000000E+01 0. -1.
         -5    1    1    2    0  501 -0.11193492186E+02 -0.13020823431E+02  0.91144879100E+01  0.20000000000E+02  0.47000000000E+01 0.  1.
</event>
<event>
 4    1  0.5025809E-002  0.4000000E+02  0.7546771E-02  0.1348030E+00
         11   -1    0    0    0    0  0.00000000000E+00  0.00000000000E+00  0.20000000000E+02  0.20000000000E+02  0.00000000000E+00 0. -1.
        -11   -1    0    0    0    0 -0.00000000000E+00 -0.00000000000E+00 -0.20000000000E+02  0.20000000000E+02  0.00000000000E+00 0.  1.
          5    1    1    2  501    0 -0.21494424655E+01 -0.19190944022E+02 -0.22355233488E+01  0.20000000000E+02  0.47000000000E+01 0.  1.
         -5    1    1    2    0  501  0.21494424655E+01  0.19190944022E+02  0.22355233488E+01  0.20000000000E+02  0.47000000000E+01 0. -1.
</event>
<event>
 4    1  0.5025809E-002  0.4000000E+02  0.7546771E-02  0.1348030E+00
         11   -1    0    0    0    0  0.00000000000E+00  0.00000000000E+00  0.20000000000E+02  0.20000000000E+02  0.00000000000E+00 0.  1.
        -11   -1    0    0    0    0 -0.00000000000E+00 -0.00000000000E+00 -0.20000000000E+02  0.20000000000E+02  0.00000000000E+00 0. -1.
          5    1    1    2  501    0 -0.51140622366E+01 -0.16002135977E+02 -0.97820249237E+01  0.20000000000E+02  0.47000000000E+01 0. -1.
         -5    1    1    2    0  501  0.51140622366E+01  0.16002135977E+02  0.97820249237E+01  0.20000000000E+02  0.47000000000E+01 0.  1.
</event>
<event>
 4    1  0.5025809E-002  0.4000000E+02  0.7546771E-02  0.1348030E+00
         11   -1    0    0    0    0  0.00000000000E+00  0.00000000000E+00  0.20000000000E+02  0.20000000000E+02  0.00000000000E+00 0.  1.
        -11   -1    0    0    0    0 -0.00000000000E+00 -0.00000000000E+00 -0.20000000000E+02  0.20000000000E+02  0.00000000000E+00 0. -1.
          5    1    1    2  501    0 -0.11265989094E+00  0.51006841140E+01 -0.18758473534E+02  0.20000000000E+02  0.47000000000E+01 0. -1.
         -5    1    1    2    0  501  0.11265989094E+00 -0.51006841140E+01  0.18758473534E+02  0.20000000000E+02  0.47000000000E+01 0.  1.
</event>
<event>
 4    1  0.5025809E-002  0.4000000E+02  0.7546771E-02  0.1348030E+00
         11   -1    0    0    0    0  0.00000000000E+00  0.00000000000E+00  0.20000000000E+02  0.20000000000E+02  0.00000000000E+00 0.  1.
        -11   -1    0    0    0    0 -0.00000000000E+00 -0.00000000000E+00 -0.20000000000E+02  0.20000000000E+02  0.00000000000E+00 0. -1.
          5    1    1    2  501    0 -0.80625412988E+01  0.23062962148E+01 -0.17538142022E+02  0.20000000000E+02  0.47000000000E+01 0. -1.
         -5    1    1    2    0  501  0.80625412988E+01 -0.23062962148E+01  0.17538142022E+02  0.20000000000E+02  0.47000000000E+01 0.  1.
</event>
<event>
 4    1  0.5025809E-002  0.4000000E+02  0.7546771E-02  0.1348030E+00
         11   -1    0    0    0    0  0.00000000000E+00  0.00000000000E+00  0.20000000000E+02  0.20000000000E+02  0.00000000000E+00 0.  1.
        -11   -1    0    0    0    0 -0.00000000000E+00 -0.00000000000E+00 -0.20000000000E+02  0.20000000000E+02  0.00000000000E+00 0. -1.
          5    1    1    2  501    0 -0.11107544564E+02 -0.68213009148E+00 -0.15939484066E+02  0.20000000000E+02  0.47000000000E+01 0. -1.
         -5    1    1    2    0  501  0.11107544564E+02  0.68213009148E+00  0.15939484066E+02  0.20000000000E+02  0.47000000000E+01 0.  1.
</event>
<event>
 4    1  0.5025809E-002  0.4000000E+02  0.7546771E-02  0.1348030E+00
         11   -1    0    0    0    0  0.00000000000E+00  0.00000000000E+00  0.20000000000E+02  0.20000000000E+02  0.00000000000E+00 0.  1.
        -11   -1    0    0    0    0 -0.00000000000E+00 -0.00000000000E+00 -0.20000000000E+02  0.20000000000E+02  0.00000000000E+00 0. -1.
          5    1    1    2  501    0  0.19193486809E+02 -0.55520615298E+00  0.30350964138E+01  0.20000000000E+02  0.47000000000E+01 0. -1.
         -5    1    1    2    0  501 -0.19193486809E+02  0.55520615298E+00 -0.30350964138E+01  0.20000000000E+02  0.47000000000E+01 0.  1.
</event>
<event>
 4    1  0.5025809E-002  0.4000000E+02  0.7546771E-02  0.1348030E+00
         11   -1    0    0    0    0  0.00000000000E+00  0.00000000000E+00  0.20000000000E+02  0.20000000000E+02  0.00000000000E+00 0.  1.
        -11   -1    0    0    0    0 -0.00000000000E+00 -0.00000000000E+00 -0.20000000000E+02  0.20000000000E+02  0.00000000000E+00 0. -1.
          5    1    1    2  501    0  0.17156831391E+02 -0.34419296678E+01 -0.84679546988E+01  0.20000000000E+02  0.47000000000E+01 0. -1.
         -5    1    1    2    0  501 -0.17156831391E+02  0.34419296678E+01  0.84679546988E+01  0.20000000000E+02  0.47000000000E+01 0.  1.
</event>
<event>
 4    1  0.5025809E-002  0.4000000E+02  0.7546771E-02  0.1348030E+00
         11   -1    0    0    0    0  0.00000000000E+00  0.00000000000E+00  0.20000000000E+02  0.20000000000E+02  0.00000000000E+00 0. -1.
        -11   -1    0    0    0    0 -0.00000000000E+00 -0.00000000000E+00 -0.20000000000E+02  0.20000000000E+02  0.00000000000E+00 0.  1.
          5    1    1    2  501    0 -0.99616311504E+01 -0.16172523596E+02  0.41382829014E+01  0.20000000000E+02  0.47000000000E+01 0.  1.
         -5    1    1    2    0  501  0.99616311504E+01  0.16172523596E+02 -0.41382829014E+01  0.20000000000E+02  0.47000000000E+01 0. -1.
</event>
<event>
 4    1  0.5025809E-002  0.4000000E+02  0.7546771E-02  0.1348030E+00
         11   -1    0    0    0    0  0.00000000000E+00  0.00000000000E+00  0.20000000000E+02  0.20000000000E+02  0.00000000000E+00 0. -1.
        -11   -1    0    0    0    0 -0.00000000000E+00 -0.00000000000E+00 -0.20000000000E+02  0.20000000000E+02  0.00000000000E+00 0.  1.
          5    1    1    2  501    0  0.96000029857E-01 -0.28844015391E+01 -0.19224489896E+02  0.20000000000E+02  0.47000000000E+01 0.  1.
         -5    1    1    2    0  501 -0.96000029857E-01  0.28844015391E+01  0.19224489896E+02  0.20000000000E+02  0.47000000000E+01 0. -1.
</event>
<event>
 4    1  0.5025809E-002  0.4000000E+02  0.7546771E-02  0.1348030E+00
         11   -1    0    0    0    0  0.00000000000E+00  0.00000000000E+00  0.20000000000E+02  0.20000000000E+02  0.00000000000E+00 0. -1.
        -11   -1    0    0    0    0 -0.00000000000E+00 -0.00000000000E+00 -0.20000000000E+02  0.20000000000E+02  0.00000000000E+00 0.  1.
          5    1    1    2  501    0 -0.22547693722E+01  0.39072662947E+01 -0.18909238091E+02  0.20000000000E+02  0.47000000000E+01 0.  1.
         -5    1    1    2    0  501  0.22547693722E+01 -0.39072662947E+01  0.18909238091E+02  0.20000000000E+02  0.47000000000E+01 0. -1.
</event>
<event>
 4    1  0.5025809E-002  0.4000000E+02  0.7546771E-02  0.1348030E+00
         11   -1    0    0    0    0  0.00000000000E+00  0.00000000000E+00  0.20000000000E+02  0.20000000000E+02  0.00000000000E+00 0.  1.
        -11   -1    0    0    0    0 -0.00000000000E+00 -0.00000000000E+00 -0.20000000000E+02  0.20000000000E+02  0.00000000000E+00 0. -1.
          5    1    1    2  501    0 -0.18276427666E+02 -0.39605024243E+01 -0.53100482389E+01  0.20000000000E+02  0.47000000000E+01 0. -1.
         -5    1    1    2    0  501  0.18276427666E+02  0.39605024243E+01  0.53100482389E+01  0.20000000000E+02  0.47000000000E+01 0.  1.
</event>
<event>
 4    1  0.5025809E-002  0.4000000E+02  0.7546771E-02  0.1348030E+00
         11   -1    0    0    0    0  0.00000000000E+00  0.00000000000E+00  0.20000000000E+02  0.20000000000E+02  0.00000000000E+00 0.  1.
        -11   -1    0    0    0    0 -0.00000000000E+00 -0.00000000000E+00 -0.20000000000E+02  0.20000000000E+02  0.00000000000E+00 0. -1.
          5    1    1    2  501    0  0.36557058024E+01  0.19092784414E+02  0.10676335594E+00  0.20000000000E+02  0.47000000000E+01 0. -1.
         -5    1    1    2    0  501 -0.36557058024E+01 -0.19092784414E+02 -0.10676335594E+00  0.20000000000E+02  0.47000000000E+01 0.  1.
</event>
<event>
 4    1  0.5025809E-002  0.4000000E+02  0.7546771E-02  0.1348030E+00
         11   -1    0    0    0    0  0.00000000000E+00  0.00000000000E+00  0.20000000000E+02  0.20000000000E+02  0.00000000000E+00 0.  1.
        -11   -1    0    0    0    0 -0.00000000000E+00 -0.00000000000E+00 -0.20000000000E+02  0.20000000000E+02  0.00000000000E+00 0. -1.
          5    1    1    2  501    0 -0.12260901747E+02  0.11468621684E+02  0.98005614645E+01  0.20000000000E+02  0.47000000000E+01 0.  1.
         -5    1    1    2    0  501  0.12260901747E+02 -0.11468621684E+02 -0.98005614645E+01  0.20000000000E+02  0.47000000000E+01 0. -1.
</event>
<event>
 4    1  0.5025809E-002  0.4000000E+02  0.7546771E-02  0.1348030E+00
         11   -1    0    0    0    0  0.00000000000E+00  0.00000000000E+00  0.20000000000E+02  0.20000000000E+02  0.00000000000E+00 0.  1.
        -11   -1    0    0    0    0 -0.00000000000E+00 -0.00000000000E+00 -0.20000000000E+02  0.20000000000E+02  0.00000000000E+00 0. -1.
          5    1    1    2  501    0 -0.10206605648E+02 -0.16310050557E+02  0.27780302334E+01  0.20000000000E+02  0.47000000000E+01 0. -1.
         -5    1    1    2    0  501  0.10206605648E+02  0.16310050557E+02 -0.27780302334E+01  0.20000000000E+02  0.47000000000E+01 0.  1.
</event>
<event>
 4    1  0.5025809E-002  0.4000000E+02  0.7546771E-02  0.1348030E+00
         11   -1    0    0    0    0  0.00000000000E+00  0.00000000000E+00  0.20000000000E+02  0.20000000000E+02  0.00000000000E+00 0. -1.
        -11   -1    0    0    0    0 -0.00000000000E+00 -0.00000000000E+00 -0.20000000000E+02  0.20000000000E+02  0.00000000000E+00 0.  1.
          5    1    1    2  501    0 -0.14313189014E+02 -0.74994535132E+01 -0.10807442678E+02  0.20000000000E+02  0.47000000000E+01 0.  1.
         -5    1    1    2    0  501  0.14313189014E+02  0.74994535132E+01  0.10807442678E+02  0.20000000000E+02  0.47000000000E+01 0. -1.
</event>
<event>
 4    1  0.5025809E-002  0.4000000E+02  0.7546771E-02  0.1348030E+00
         11   -1    0    0    0    0  0.00000000000E+00  0.00000000000E+00  0.20000000000E+02  0.20000000000E+02  0.00000000000E+00 0.  1.
        -11   -1    0    0    0    0 -0.00000000000E+00 -0.00000000000E+00 -0.20000000000E+02  0.20000000000E+02  0.00000000000E+00 0. -1.
          5    1    1    2  501    0  0.98246353095E+01  0.15548919383E+02 -0.62942550833E+01  0.20000000000E+02  0.47000000000E+01 0. -1.
         -5    1    1    2    0  501 -0.98246353095E+01 -0.15548919383E+02  0.62942550833E+01  0.20000000000E+02  0.47000000000E+01 0.  1.
</event>
<event>
 4    1  0.5025809E-002  0.4000000E+02  0.7546771E-02  0.1348030E+00
         11   -1    0    0    0    0  0.00000000000E+00  0.00000000000E+00  0.20000000000E+02  0.20000000000E+02  0.00000000000E+00 0.  1.
        -11   -1    0    0    0    0 -0.00000000000E+00 -0.00000000000E+00 -0.20000000000E+02  0.20000000000E+02  0.00000000000E+00 0. -1.
          5    1    1    2  501    0  0.40971963935E+01 -0.14265095271E+02 -0.12555080191E+02  0.20000000000E+02  0.47000000000E+01 0. -1.
         -5    1    1    2    0  501 -0.40971963935E+01  0.14265095271E+02  0.12555080191E+02  0.20000000000E+02  0.47000000000E+01 0.  1.
</event>
<event>
 4    1  0.5025809E-002  0.4000000E+02  0.7546771E-02  0.1348030E+00
         11   -1    0    0    0    0  0.00000000000E+00  0.00000000000E+00  0.20000000000E+02  0.20000000000E+02  0.00000000000E+00 0. -1.
        -11   -1    0    0    0    0 -0.00000000000E+00 -0.00000000000E+00 -0.20000000000E+02  0.20000000000E+02  0.00000000000E+00 0.  1.
          5    1    1    2  501    0  0.31511683579E+01  0.23834192407E+00 -0.19181327668E+02  0.20000000000E+02  0.47000000000E+01 0.  1.
         -5    1    1    2    0  501 -0.31511683579E+01 -0.23834192407E+00  0.19181327668E+02  0.20000000000E+02  0.47000000000E+01 0. -1.
</event>
<event>
 4    1  0.5025809E-002  0.4000000E+02  0.7546771E-02  0.1348030E+00
         11   -1    0    0    0    0  0.00000000000E+00  0.00000000000E+00  0.20000000000E+02  0.20000000000E+02  0.00000000000E+00 0.  1.
        -11   -1    0    0    0    0 -0.00000000000E+00 -0.00000000000E+00 -0.20000000000E+02  0.20000000000E+02  0.00000000000E+00 0. -1.
          5    1    1    2  501    0 -0.14623829651E+02  0.12625154820E+02 -0.21584883811E+01  0.20000000000E+02  0.47000000000E+01 0. -1.
         -5    1    1    2    0  501  0.14623829651E+02 -0.12625154820E+02  0.21584883811E+01  0.20000000000E+02  0.47000000000E+01 0.  1.
</event>
<event>
 4    1  0.5025809E-002  0.4000000E+02  0.7546771E-02  0.1348030E+00
         11   -1    0    0    0    0  0.00000000000E+00  0.00000000000E+00  0.20000000000E+02  0.20000000000E+02  0.00000000000E+00 0. -1.
        -11   -1    0    0    0    0 -0.00000000000E+00 -0.00000000000E+00 -0.20000000000E+02  0.20000000000E+02  0.00000000000E+00 0.  1.
          5    1    1    2  501    0 -0.21587940908E+01  0.49887736117E+00 -0.19313226801E+02  0.20000000000E+02  0.47000000000E+01 0.  1.
         -5    1    1    2    0  501  0.21587940908E+01 -0.49887736117E+00  0.19313226801E+02  0.20000000000E+02  0.47000000000E+01 0. -1.
</event>
<event>
 4    1  0.5025809E-002  0.4000000E+02  0.7546771E-02  0.1348030E+00
         11   -1    0    0    0    0  0.00000000000E+00  0.00000000000E+00  0.20000000000E+02  0.20000000000E+02  0.00000000000E+00 0.  1.
        -11   -1    0    0    0    0 -0.00000000000E+00 -0.00000000000E+00 -0.20000000000E+02  0.20000000000E+02  0.00000000000E+00 0. -1.
          5    1    1    2  501    0  0.72050029512E+01  0.49604565115E+01 -0.17360639495E+02  0.20000000000E+02  0.47000000000E+01 0. -1.
         -5    1    1    2    0  501 -0.72050029512E+01 -0.49604565115E+01  0.17360639495E+02  0.20000000000E+02  0.47000000000E+01 0.  1.
</event>
<event>
 4    1  0.5025809E-002  0.4000000E+02  0.7546771E-02  0.1348030E+00
         11   -1    0    0    0    0  0.00000000000E+00  0.00000000000E+00  0.20000000000E+02  0.20000000000E+02  0.00000000000E+00 0.  1.
        -11   -1    0    0    0    0 -0.00000000000E+00 -0.00000000000E+00 -0.20000000000E+02  0.20000000000E+02  0.00000000000E+00 0. -1.
          5    1    1    2  501    0 -0.17035284108E+02  0.93563358815E+01 -0.40996855983E+00  0.20000000000E+02  0.47000000000E+01 0. -1.
         -5    1    1    2    0  501  0.17035284108E+02 -0.93563358815E+01  0.40996855983E+00  0.20000000000E+02  0.47000000000E+01 0.  1.
</event>
<event>
 4    1  0.5025809E-002  0.4000000E+02  0.7546771E-02  0.1348030E+00
         11   -1    0    0    0    0  0.00000000000E+00  0.00000000000E+00  0.20000000000E+02  0.20000000000E+02  0.00000000000E+00 0.  1.
        -11   -1    0    0    0    0 -0.00000000000E+00 -0.00000000000E+00 -0.20000000000E+02  0.20000000000E+02  0.00000000000E+00 0. -1.
          5    1    1    2  501    0  0.10263129670E+02  0.14099042346E+02 -0.85904117661E+01  0.20000000000E+02  0.47000000000E+01 0. -1.
         -5    1    1    2    0  501 -0.10263129670E+02 -0.14099042346E+02  0.85904117661E+01  0.20000000000E+02  0.47000000000E+01 0.  1.
</event>
<event>
 4    1  0.5025809E-002  0.4000000E+02  0.7546771E-02  0.1348030E+00
         11   -1    0    0    0    0  0.00000000000E+00  0.00000000000E+00  0.20000000000E+02  0.20000000000E+02  0.00000000000E+00 0.  1.
        -11   -1    0    0    0    0 -0.00000000000E+00 -0.00000000000E+00 -0.20000000000E+02  0.20000000000E+02  0.00000000000E+00 0. -1.
          5    1    1    2  501    0 -0.40515668863E+01  0.42951953518E+01  0.18521503790E+02  0.20000000000E+02  0.47000000000E+01 0.  1.
         -5    1    1    2    0  501  0.40515668863E+01 -0.42951953518E+01 -0.18521503790E+02  0.20000000000E+02  0.47000000000E+01 0. -1.
</event>
<event>
 4    1  0.5025809E-002  0.4000000E+02  0.7546771E-02  0.1348030E+00
         11   -1    0    0    0    0  0.00000000000E+00  0.00000000000E+00  0.20000000000E+02  0.20000000000E+02  0.00000000000E+00 0.  1.
        -11   -1    0    0    0    0 -0.00000000000E+00 -0.00000000000E+00 -0.20000000000E+02  0.20000000000E+02  0.00000000000E+00 0. -1.
          5    1    1    2  501    0  0.42590094920E+01 -0.10109931917E+02 -0.16048679534E+02  0.20000000000E+02  0.47000000000E+01 0. -1.
         -5    1    1    2    0  501 -0.42590094920E+01  0.10109931917E+02  0.16048679534E+02  0.20000000000E+02  0.47000000000E+01 0.  1.
</event>
<event>
 4    1  0.5025809E-002  0.4000000E+02  0.7546771E-02  0.1348030E+00
         11   -1    0    0    0    0  0.00000000000E+00  0.00000000000E+00  0.20000000000E+02  0.20000000000E+02  0.00000000000E+00 0. -1.
        -11   -1    0    0    0    0 -0.00000000000E+00 -0.00000000000E+00 -0.20000000000E+02  0.20000000000E+02  0.00000000000E+00 0.  1.
          5    1    1    2  501    0 -0.60539083688E+01  0.94976059801E+01 -0.15844736480E+02  0.20000000000E+02  0.47000000000E+01 0.  1.
         -5    1    1    2    0  501  0.60539083688E+01 -0.94976059801E+01  0.15844736480E+02  0.20000000000E+02  0.47000000000E+01 0. -1.
</event>
<event>
 4    1  0.5025809E-002  0.4000000E+02  0.7546771E-02  0.1348030E+00
         11   -1    0    0    0    0  0.00000000000E+00  0.00000000000E+00  0.20000000000E+02  0.20000000000E+02  0.00000000000E+00 0.  1.
        -11   -1    0    0    0    0 -0.00000000000E+00 -0.00000000000E+00 -0.20000000000E+02  0.20000000000E+02  0.00000000000E+00 0. -1.
          5    1    1    2  501    0  0.65413801515E+00 -0.95748383288E+01 -0.16905755660E+02  0.20000000000E+02  0.47000000000E+01 0. -1.
         -5    1    1    2    0  501 -0.65413801515E+00  0.95748383288E+01  0.16905755660E+02  0.20000000000E+02  0.47000000000E+01 0.  1.
</event>
<event>
 4    1  0.5025809E-002  0.4000000E+02  0.7546771E-02  0.1348030E+00
         11   -1    0    0    0    0  0.00000000000E+00  0.00000000000E+00  0.20000000000E+02  0.20000000000E+02  0.00000000000E+00 0.  1.
        -11   -1    0    0    0    0 -0.00000000000E+00 -0.00000000000E+00 -0.20000000000E+02  0.20000000000E+02  0.00000000000E+00 0. -1.
          5    1    1    2  501    0  0.17388039624E+02  0.24690244013E+01 -0.83348663182E+01  0.20000000000E+02  0.47000000000E+01 0. -1.
         -5    1    1    2    0  501 -0.17388039624E+02 -0.24690244013E+01  0.83348663182E+01  0.20000000000E+02  0.47000000000E+01 0.  1.
</event>
<event>
 4    1  0.5025809E-002  0.4000000E+02  0.7546771E-02  0.1348030E+00
         11   -1    0    0    0    0  0.00000000000E+00  0.00000000000E+00  0.20000000000E+02  0.20000000000E+02  0.00000000000E+00 0.  1.
        -11   -1    0    0    0    0 -0.00000000000E+00 -0.00000000000E+00 -0.20000000000E+02  0.20000000000E+02  0.00000000000E+00 0. -1.
          5    1    1    2  501    0  0.16665335164E+02 -0.31750890694E+01 -0.94918603691E+01  0.20000000000E+02  0.47000000000E+01 0. -1.
         -5    1    1    2    0  501 -0.16665335164E+02  0.31750890694E+01  0.94918603691E+01  0.20000000000E+02  0.47000000000E+01 0.  1.
</event>
<event>
 4    1  0.5025809E-002  0.4000000E+02  0.7546771E-02  0.1348030E+00
         11   -1    0    0    0    0  0.00000000000E+00  0.00000000000E+00  0.20000000000E+02  0.20000000000E+02  0.00000000000E+00 0.  1.
        -11   -1    0    0    0    0 -0.00000000000E+00 -0.00000000000E+00 -0.20000000000E+02  0.20000000000E+02  0.00000000000E+00 0. -1.
          5    1    1    2  501    0 -0.50090209592E+01  0.93050215318E+01 -0.16316748552E+02  0.20000000000E+02  0.47000000000E+01 0. -1.
         -5    1    1    2    0  501  0.50090209592E+01 -0.93050215318E+01  0.16316748552E+02  0.20000000000E+02  0.47000000000E+01 0.  1.
</event>
<event>
 4    1  0.5025809E-002  0.4000000E+02  0.7546771E-02  0.1348030E+00
         11   -1    0    0    0    0  0.00000000000E+00  0.00000000000E+00  0.20000000000E+02  0.20000000000E+02  0.00000000000E+00 0. -1.
        -11   -1    0    0    0    0 -0.00000000000E+00 -0.00000000000E+00 -0.20000000000E+02  0.20000000000E+02  0.00000000000E+00 0.  1.
          5    1    1    2  501    0 -0.17686482112E+02  0.19591877848E+01 -0.78268725386E+01  0.20000000000E+02  0.47000000000E+01 0.  1.
         -5    1    1    2    0  501  0.17686482112E+02 -0.19591877848E+01  0.78268725386E+01  0.20000000000E+02  0.47000000000E+01 0. -1.
</event>
<event>
 4    1  0.5025809E-002  0.4000000E+02  0.7546771E-02  0.1348030E+00
         11   -1    0    0    0    0  0.00000000000E+00  0.00000000000E+00  0.20000000000E+02  0.20000000000E+02  0.00000000000E+00 0.  1.
        -11   -1    0    0    0    0 -0.00000000000E+00 -0.00000000000E+00 -0.20000000000E+02  0.20000000000E+02  0.00000000000E+00 0. -1.
          5    1    1    2  501    0 -0.42704161004E+01  0.40709687666E+01  0.18522979232E+02  0.20000000000E+02  0.47000000000E+01 0.  1.
         -5    1    1    2    0  501  0.42704161004E+01 -0.40709687666E+01 -0.18522979232E+02  0.20000000000E+02  0.47000000000E+01 0. -1.
</event>
<event>
 4    1  0.5025809E-002  0.4000000E+02  0.7546771E-02  0.1348030E+00
         11   -1    0    0    0    0  0.00000000000E+00  0.00000000000E+00  0.20000000000E+02  0.20000000000E+02  0.00000000000E+00 0.  1.
        -11   -1    0    0    0    0 -0.00000000000E+00 -0.00000000000E+00 -0.20000000000E+02  0.20000000000E+02  0.00000000000E+00 0. -1.
          5    1    1    2  501    0 -0.84750654051E+01  0.13320065303E+02 -0.11342800655E+02  0.20000000000E+02  0.47000000000E+01 0. -1.
         -5    1    1    2    0  501  0.84750654051E+01 -0.13320065303E+02  0.11342800655E+02  0.20000000000E+02  0.47000000000E+01 0.  1.
</event>
<event>
 4    1  0.5025809E-002  0.4000000E+02  0.7546771E-02  0.1348030E+00
         11   -1    0    0    0    0  0.00000000000E+00  0.00000000000E+00  0.20000000000E+02  0.20000000000E+02  0.00000000000E+00 0.  1.
        -11   -1    0    0    0    0 -0.00000000000E+00 -0.00000000000E+00 -0.20000000000E+02  0.20000000000E+02  0.00000000000E+00 0. -1.
          5    1    1    2  501    0  0.72436775505E+01  0.69722356508E+01 -0.16638120855E+02  0.20000000000E+02  0.47000000000E+01 0. -1.
         -5    1    1    2    0  501 -0.72436775505E+01 -0.69722356508E+01  0.16638120855E+02  0.20000000000E+02  0.47000000000E+01 0.  1.
</event>
<event>
 4    1  0.5025809E-002  0.4000000E+02  0.7546771E-02  0.1348030E+00
         11   -1    0    0    0    0  0.00000000000E+00  0.00000000000E+00  0.20000000000E+02  0.20000000000E+02  0.00000000000E+00 0. -1.
        -11   -1    0    0    0    0 -0.00000000000E+00 -0.00000000000E+00 -0.20000000000E+02  0.20000000000E+02  0.00000000000E+00 0.  1.
          5    1    1    2  501    0 -0.21396292156E+01 -0.12132223950E+01  0.19283673878E+02  0.20000000000E+02  0.47000000000E+01 0. -1.
         -5    1    1    2    0  501  0.21396292156E+01  0.12132223950E+01 -0.19283673878E+02  0.20000000000E+02  0.47000000000E+01 0.  1.
</event>
<event>
 4    1  0.5025809E-002  0.4000000E+02  0.7546771E-02  0.1348030E+00
         11   -1    0    0    0    0  0.00000000000E+00  0.00000000000E+00  0.20000000000E+02  0.20000000000E+02  0.00000000000E+00 0.  1.
        -11   -1    0    0    0    0 -0.00000000000E+00 -0.00000000000E+00 -0.20000000000E+02  0.20000000000E+02  0.00000000000E+00 0. -1.
          5    1    1    2  501    0 -0.98400784735E+01  0.16361618243E+02 -0.36579098000E+01  0.20000000000E+02  0.47000000000E+01 0.  1.
         -5    1    1    2    0  501  0.98400784735E+01 -0.16361618243E+02  0.36579098000E+01  0.20000000000E+02  0.47000000000E+01 0. -1.
</event>
<event>
 4    1  0.5025809E-002  0.4000000E+02  0.7546771E-02  0.1348030E+00
         11   -1    0    0    0    0  0.00000000000E+00  0.00000000000E+00  0.20000000000E+02  0.20000000000E+02  0.00000000000E+00 0.  1.
        -11   -1    0    0    0    0 -0.00000000000E+00 -0.00000000000E+00 -0.20000000000E+02  0.20000000000E+02  0.00000000000E+00 0. -1.
          5    1    1    2  501    0  0.10985817159E+02 -0.12737270416E+02  0.97459614046E+01  0.20000000000E+02  0.47000000000E+01 0.  1.
         -5    1    1    2    0  501 -0.10985817159E+02  0.12737270416E+02 -0.97459614046E+01  0.20000000000E+02  0.47000000000E+01 0. -1.
</event>
<event>
 4    1  0.5025809E-002  0.4000000E+02  0.7546771E-02  0.1348030E+00
         11   -1    0    0    0    0  0.00000000000E+00  0.00000000000E+00  0.20000000000E+02  0.20000000000E+02  0.00000000000E+00 0.  1.
        -11   -1    0    0    0    0 -0.00000000000E+00 -0.00000000000E+00 -0.20000000000E+02  0.20000000000E+02  0.00000000000E+00 0. -1.
          5    1    1    2  501    0  0.94583145126E+01  0.16455429207E+02 -0.42034671641E+01  0.20000000000E+02  0.47000000000E+01 0. -1.
         -5    1    1    2    0  501 -0.94583145126E+01 -0.16455429207E+02  0.42034671641E+01  0.20000000000E+02  0.47000000000E+01 0.  1.
</event>
<event>
 4    1  0.5025809E-002  0.4000000E+02  0.7546771E-02  0.1348030E+00
         11   -1    0    0    0    0  0.00000000000E+00  0.00000000000E+00  0.20000000000E+02  0.20000000000E+02  0.00000000000E+00 0.  1.
        -11   -1    0    0    0    0 -0.00000000000E+00 -0.00000000000E+00 -0.20000000000E+02  0.20000000000E+02  0.00000000000E+00 0. -1.
          5    1    1    2  501    0  0.16668532722E+02  0.89238514693E+01 -0.45204968578E+01  0.20000000000E+02  0.47000000000E+01 0. -1.
         -5    1    1    2    0  501 -0.16668532722E+02 -0.89238514693E+01  0.45204968578E+01  0.20000000000E+02  0.47000000000E+01 0.  1.
</event>
<event>
 4    1  0.5025809E-002  0.4000000E+02  0.7546771E-02  0.1348030E+00
         11   -1    0    0    0    0  0.00000000000E+00  0.00000000000E+00  0.20000000000E+02  0.20000000000E+02  0.00000000000E+00 0.  1.
        -11   -1    0    0    0    0 -0.00000000000E+00 -0.00000000000E+00 -0.20000000000E+02  0.20000000000E+02  0.00000000000E+00 0. -1.
          5    1    1    2  501    0  0.15656604358E+02  0.28653252784E+01 -0.11161122302E+02  0.20000000000E+02  0.47000000000E+01 0. -1.
         -5    1    1    2    0  501 -0.15656604358E+02 -0.28653252784E+01  0.11161122302E+02  0.20000000000E+02  0.47000000000E+01 0.  1.
</event>
<event>
 4    1  0.5025809E-002  0.4000000E+02  0.7546771E-02  0.1348030E+00
         11   -1    0    0    0    0  0.00000000000E+00  0.00000000000E+00  0.20000000000E+02  0.20000000000E+02  0.00000000000E+00 0. -1.
        -11   -1    0    0    0    0 -0.00000000000E+00 -0.00000000000E+00 -0.20000000000E+02  0.20000000000E+02  0.00000000000E+00 0.  1.
          5    1    1    2  501    0 -0.18604543437E+02 -0.33921574540E+01 -0.45026915636E+01  0.20000000000E+02  0.47000000000E+01 0.  1.
         -5    1    1    2    0  501  0.18604543437E+02  0.33921574540E+01  0.45026915636E+01  0.20000000000E+02  0.47000000000E+01 0. -1.
</event>
<event>
 4    1  0.5025809E-002  0.4000000E+02  0.7546771E-02  0.1348030E+00
         11   -1    0    0    0    0  0.00000000000E+00  0.00000000000E+00  0.20000000000E+02  0.20000000000E+02  0.00000000000E+00 0.  1.
        -11   -1    0    0    0    0 -0.00000000000E+00 -0.00000000000E+00 -0.20000000000E+02  0.20000000000E+02  0.00000000000E+00 0. -1.
          5    1    1    2  501    0 -0.10175612607E+02  0.86581130808E+01 -0.14121047622E+02  0.20000000000E+02  0.47000000000E+01 0. -1.
         -5    1    1    2    0  501  0.10175612607E+02 -0.86581130808E+01  0.14121047622E+02  0.20000000000E+02  0.47000000000E+01 0.  1.
</event>
<event>
 4    1  0.5025809E-002  0.4000000E+02  0.7546771E-02  0.1348030E+00
         11   -1    0    0    0    0  0.00000000000E+00  0.00000000000E+00  0.20000000000E+02  0.20000000000E+02  0.00000000000E+00 0.  1.
        -11   -1    0    0    0    0 -0.00000000000E+00 -0.00000000000E+00 -0.20000000000E+02  0.20000000000E+02  0.00000000000E+00 0. -1.
          5    1    1    2  501    0  0.50933928986E+01  0.59548323630E+01 -0.17790652611E+02  0.20000000000E+02  0.47000000000E+01 0. -1.
         -5    1    1    2    0  501 -0.50933928986E+01 -0.59548323630E+01  0.17790652611E+02  0.20000000000E+02  0.47000000000E+01 0.  1.
</event>
<event>
 4    1  0.5025809E-002  0.4000000E+02  0.7546771E-02  0.1348030E+00
         11   -1    0    0    0    0  0.00000000000E+00  0.00000000000E+00  0.20000000000E+02  0.20000000000E+02  0.00000000000E+00 0.  1.
        -11   -1    0    0    0    0 -0.00000000000E+00 -0.00000000000E+00 -0.20000000000E+02  0.20000000000E+02  0.00000000000E+00 0. -1.
          5    1    1    2  501    0  0.81194548568E+01  0.15214598802E+02 -0.89722035269E+01  0.20000000000E+02  0.47000000000E+01 0. -1.
         -5    1    1    2    0  501 -0.81194548568E+01 -0.15214598802E+02  0.89722035269E+01  0.20000000000E+02  0.47000000000E+01 0.  1.
</event>
<event>
 4    1  0.5025809E-002  0.4000000E+02  0.7546771E-02  0.1348030E+00
         11   -1    0    0    0    0  0.00000000000E+00  0.00000000000E+00  0.20000000000E+02  0.20000000000E+02  0.00000000000E+00 0.  1.
        -11   -1    0    0    0    0 -0.00000000000E+00 -0.00000000000E+00 -0.20000000000E+02  0.20000000000E+02  0.00000000000E+00 0. -1.
          5    1    1    2  501    0 -0.81835022911E+01  0.76329086671E+01 -0.15895879829E+02  0.20000000000E+02  0.47000000000E+01 0. -1.
         -5    1    1    2    0  501  0.81835022911E+01 -0.76329086671E+01  0.15895879829E+02  0.20000000000E+02  0.47000000000E+01 0.  1.
</event>
<event>
 4    1  0.5025809E-002  0.4000000E+02  0.7546771E-02  0.1348030E+00
         11   -1    0    0    0    0  0.00000000000E+00  0.00000000000E+00  0.20000000000E+02  0.20000000000E+02  0.00000000000E+00 0. -1.
        -11   -1    0    0    0    0 -0.00000000000E+00 -0.00000000000E+00 -0.20000000000E+02  0.20000000000E+02  0.00000000000E+00 0.  1.
          5    1    1    2  501    0  0.70075370129E+01 -0.40835977944E+01  0.17667163158E+02  0.20000000000E+02  0.47000000000E+01 0. -1.
         -5    1    1    2    0  501 -0.70075370129E+01  0.40835977944E+01 -0.17667163158E+02  0.20000000000E+02  0.47000000000E+01 0.  1.
</event>
<event>
 4    1  0.5025809E-002  0.4000000E+02  0.7546771E-02  0.1348030E+00
         11   -1    0    0    0    0  0.00000000000E+00  0.00000000000E+00  0.20000000000E+02  0.20000000000E+02  0.00000000000E+00 0.  1.
        -11   -1    0    0    0    0 -0.00000000000E+00 -0.00000000000E+00 -0.20000000000E+02  0.20000000000E+02  0.00000000000E+00 0. -1.
          5    1    1    2  501    0  0.45769779614E+01  0.99843385684E+01 -0.16039771074E+02  0.20000000000E+02  0.47000000000E+01 0. -1.
         -5    1    1    2    0  501 -0.45769779614E+01 -0.99843385684E+01  0.16039771074E+02  0.20000000000E+02  0.47000000000E+01 0.  1.
</event>
<event>
 4    1  0.5025809E-002  0.4000000E+02  0.7546771E-02  0.1348030E+00
         11   -1    0    0    0    0  0.00000000000E+00  0.00000000000E+00  0.20000000000E+02  0.20000000000E+02  0.00000000000E+00 0. -1.
        -11   -1    0    0    0    0 -0.00000000000E+00 -0.00000000000E+00 -0.20000000000E+02  0.20000000000E+02  0.00000000000E+00 0.  1.
          5    1    1    2  501    0  0.92365072070E+01  0.16662766388E+02 -0.38664131856E+01  0.20000000000E+02  0.47000000000E+01 0. -1.
         -5    1    1    2    0  501 -0.92365072070E+01 -0.16662766388E+02  0.38664131856E+01  0.20000000000E+02  0.47000000000E+01 0.  1.
</event>
<event>
 4    1  0.5025809E-002  0.4000000E+02  0.7546771E-02  0.1348030E+00
         11   -1    0    0    0    0  0.00000000000E+00  0.00000000000E+00  0.20000000000E+02  0.20000000000E+02  0.00000000000E+00 0.  1.
        -11   -1    0    0    0    0 -0.00000000000E+00 -0.00000000000E+00 -0.20000000000E+02  0.20000000000E+02  0.00000000000E+00 0. -1.
          5    1    1    2  501    0  0.10915945020E+02  0.23899828604E+01  0.15907235028E+02  0.20000000000E+02  0.47000000000E+01 0.  1.
         -5    1    1    2    0  501 -0.10915945020E+02 -0.23899828604E+01 -0.15907235028E+02  0.20000000000E+02  0.47000000000E+01 0. -1.
</event>
<event>
 4    1  0.5025809E-002  0.4000000E+02  0.7546771E-02  0.1348030E+00
         11   -1    0    0    0    0  0.00000000000E+00  0.00000000000E+00  0.20000000000E+02  0.20000000000E+02  0.00000000000E+00 0.  1.
        -11   -1    0    0    0    0 -0.00000000000E+00 -0.00000000000E+00 -0.20000000000E+02  0.20000000000E+02  0.00000000000E+00 0. -1.
          5    1    1    2  501    0  0.12568161357E+02 -0.96562722534E+01 -0.11256452650E+02  0.20000000000E+02  0.47000000000E+01 0. -1.
         -5    1    1    2    0  501 -0.12568161357E+02  0.96562722534E+01  0.11256452650E+02  0.20000000000E+02  0.47000000000E+01 0.  1.
</event>
<event>
 4    1  0.5025809E-002  0.4000000E+02  0.7546771E-02  0.1348030E+00
         11   -1    0    0    0    0  0.00000000000E+00  0.00000000000E+00  0.20000000000E+02  0.20000000000E+02  0.00000000000E+00 0.  1.
        -11   -1    0    0    0    0 -0.00000000000E+00 -0.00000000000E+00 -0.20000000000E+02  0.20000000000E+02  0.00000000000E+00 0. -1.
          5    1    1    2  501    0 -0.19407827275E+01 -0.13476573057E+02 -0.13875350123E+02  0.20000000000E+02  0.47000000000E+01 0. -1.
         -5    1    1    2    0  501  0.19407827275E+01  0.13476573057E+02  0.13875350123E+02  0.20000000000E+02  0.47000000000E+01 0.  1.
</event>
<event>
 4    1  0.5025809E-002  0.4000000E+02  0.7546771E-02  0.1348030E+00
         11   -1    0    0    0    0  0.00000000000E+00  0.00000000000E+00  0.20000000000E+02  0.20000000000E+02  0.00000000000E+00 0.  1.
        -11   -1    0    0    0    0 -0.00000000000E+00 -0.00000000000E+00 -0.20000000000E+02  0.20000000000E+02  0.00000000000E+00 0. -1.
          5    1    1    2  501    0  0.55111243174E+01  0.11073912350E+02 -0.14996865473E+02  0.20000000000E+02  0.47000000000E+01 0. -1.
         -5    1    1    2    0  501 -0.55111243174E+01 -0.11073912350E+02  0.14996865473E+02  0.20000000000E+02  0.47000000000E+01 0.  1.
</event>
<event>
 4    1  0.5025809E-002  0.4000000E+02  0.7546771E-02  0.1348030E+00
         11   -1    0    0    0    0  0.00000000000E+00  0.00000000000E+00  0.20000000000E+02  0.20000000000E+02  0.00000000000E+00 0.  1.
        -11   -1    0    0    0    0 -0.00000000000E+00 -0.00000000000E+00 -0.20000000000E+02  0.20000000000E+02  0.00000000000E+00 0. -1.
          5    1    1    2  501    0 -0.22829434314E+00  0.80429795468E+01 -0.17696563556E+02  0.20000000000E+02  0.47000000000E+01 0. -1.
         -5    1    1    2    0  501  0.22829434314E+00 -0.80429795468E+01  0.17696563556E+02  0.20000000000E+02  0.47000000000E+01 0.  1.
</event>
<event>
 4    1  0.5025809E-002  0.4000000E+02  0.7546771E-02  0.1348030E+00
         11   -1    0    0    0    0  0.00000000000E+00  0.00000000000E+00  0.20000000000E+02  0.20000000000E+02  0.00000000000E+00 0. -1.
        -11   -1    0    0    0    0 -0.00000000000E+00 -0.00000000000E+00 -0.20000000000E+02  0.20000000000E+02  0.00000000000E+00 0.  1.
          5    1    1    2  501    0 -0.21357718865E+01 -0.10769872438E+02 -0.16042391534E+02  0.20000000000E+02  0.47000000000E+01 0.  1.
         -5    1    1    2    0  501  0.21357718865E+01  0.10769872438E+02  0.16042391534E+02  0.20000000000E+02  0.47000000000E+01 0. -1.
</event>
<event>
 4    1  0.5025809E-002  0.4000000E+02  0.7546771E-02  0.1348030E+00
         11   -1    0    0    0    0  0.00000000000E+00  0.00000000000E+00  0.20000000000E+02  0.20000000000E+02  0.00000000000E+00 0.  1.
        -11   -1    0    0    0    0 -0.00000000000E+00 -0.00000000000E+00 -0.20000000000E+02  0.20000000000E+02  0.00000000000E+00 0. -1.
          5    1    1    2  501    0 -0.14894559300E+02 -0.11294084975E+02 -0.53390774339E+01  0.20000000000E+02  0.47000000000E+01 0.  1.
         -5    1    1    2    0  501  0.14894559300E+02  0.11294084975E+02  0.53390774339E+01  0.20000000000E+02  0.47000000000E+01 0.  1.
</event>
<event>
 4    1  0.5025809E-002  0.4000000E+02  0.7546771E-02  0.1348030E+00
         11   -1    0    0    0    0  0.00000000000E+00  0.00000000000E+00  0.20000000000E+02  0.20000000000E+02  0.00000000000E+00 0.  1.
        -11   -1    0    0    0    0 -0.00000000000E+00 -0.00000000000E+00 -0.20000000000E+02  0.20000000000E+02  0.00000000000E+00 0. -1.
          5    1    1    2  501    0 -0.37021275853E+01  0.18219893094E+00 -0.19083266358E+02  0.20000000000E+02  0.47000000000E+01 0. -1.
         -5    1    1    2    0  501  0.37021275853E+01 -0.18219893094E+00  0.19083266358E+02  0.20000000000E+02  0.47000000000E+01 0.  1.
</event>
<event>
 4    1  0.5025809E-002  0.4000000E+02  0.7546771E-02  0.1348030E+00
         11   -1    0    0    0    0  0.00000000000E+00  0.00000000000E+00  0.20000000000E+02  0.20000000000E+02  0.00000000000E+00 0.  1.
        -11   -1    0    0    0    0 -0.00000000000E+00 -0.00000000000E+00 -0.20000000000E+02  0.20000000000E+02  0.00000000000E+00 0. -1.
          5    1    1    2  501    0  0.61480227086E+01  0.17932714585E+02 -0.43045980534E+01  0.20000000000E+02  0.47000000000E+01 0. -1.
         -5    1    1    2    0  501 -0.61480227086E+01 -0.17932714585E+02  0.43045980534E+01  0.20000000000E+02  0.47000000000E+01 0.  1.
</event>
<event>
 4    1  0.5025809E-002  0.4000000E+02  0.7546771E-02  0.1348030E+00
         11   -1    0    0    0    0  0.00000000000E+00  0.00000000000E+00  0.20000000000E+02  0.20000000000E+02  0.00000000000E+00 0.  1.
        -11   -1    0    0    0    0 -0.00000000000E+00 -0.00000000000E+00 -0.20000000000E+02  0.20000000000E+02  0.00000000000E+00 0. -1.
          5    1    1    2  501    0 -0.22393320641E+00  0.51183158251E+01 -0.18752671731E+02  0.20000000000E+02  0.47000000000E+01 0. -1.
         -5    1    1    2    0  501  0.22393320641E+00 -0.51183158251E+01  0.18752671731E+02  0.20000000000E+02  0.47000000000E+01 0.  1.
</event>
<event>
 4    1  0.5025809E-002  0.4000000E+02  0.7546771E-02  0.1348030E+00
         11   -1    0    0    0    0  0.00000000000E+00  0.00000000000E+00  0.20000000000E+02  0.20000000000E+02  0.00000000000E+00 0. -1.
        -11   -1    0    0    0    0 -0.00000000000E+00 -0.00000000000E+00 -0.20000000000E+02  0.20000000000E+02  0.00000000000E+00 0.  1.
          5    1    1    2  501    0  0.73392805892E+00  0.78962354048E+01 -0.17748825765E+02  0.20000000000E+02  0.47000000000E+01 0.  1.
         -5    1    1    2    0  501 -0.73392805892E+00 -0.78962354048E+01  0.17748825765E+02  0.20000000000E+02  0.47000000000E+01 0. -1.
</event>
<event>
 4    1  0.5025809E-002  0.4000000E+02  0.7546771E-02  0.1348030E+00
         11   -1    0    0    0    0  0.00000000000E+00  0.00000000000E+00  0.20000000000E+02  0.20000000000E+02  0.00000000000E+00 0.  1.
        -11   -1    0    0    0    0 -0.00000000000E+00 -0.00000000000E+00 -0.20000000000E+02  0.20000000000E+02  0.00000000000E+00 0. -1.
          5    1    1    2  501    0 -0.19424618720E+02 -0.58199490160E+00  0.50543991610E+00  0.20000000000E+02  0.47000000000E+01 0. -1.
         -5    1    1    2    0  501  0.19424618720E+02  0.58199490160E+00 -0.50543991610E+00  0.20000000000E+02  0.47000000000E+01 0.  1.
</event>
<event>
 4    1  0.5025809E-002  0.4000000E+02  0.7546771E-02  0.1348030E+00
         11   -1    0    0    0    0  0.00000000000E+00  0.00000000000E+00  0.20000000000E+02  0.20000000000E+02  0.00000000000E+00 0.  1.
        -11   -1    0    0    0    0 -0.00000000000E+00 -0.00000000000E+00 -0.20000000000E+02  0.20000000000E+02  0.00000000000E+00 0. -1.
          5    1    1    2  501    0  0.37589653496E+01 -0.15163530155E+02 -0.11569249446E+02  0.20000000000E+02  0.47000000000E+01 0. -1.
         -5    1    1    2    0  501 -0.37589653496E+01  0.15163530155E+02  0.11569249446E+02  0.20000000000E+02  0.47000000000E+01 0.  1.
</event>
<event>
 4    1  0.5025809E-002  0.4000000E+02  0.7546771E-02  0.1348030E+00
         11   -1    0    0    0    0  0.00000000000E+00  0.00000000000E+00  0.20000000000E+02  0.20000000000E+02  0.00000000000E+00 0.  1.
        -11   -1    0    0    0    0 -0.00000000000E+00 -0.00000000000E+00 -0.20000000000E+02  0.20000000000E+02  0.00000000000E+00 0. -1.
          5    1    1    2  501    0 -0.11232348314E+02 -0.68200414348E+01 -0.14325899141E+02  0.20000000000E+02  0.47000000000E+01 0. -1.
         -5    1    1    2    0  501  0.11232348314E+02  0.68200414348E+01  0.14325899141E+02  0.20000000000E+02  0.47000000000E+01 0.  1.
</event>
<event>
 4    1  0.5025809E-002  0.4000000E+02  0.7546771E-02  0.1348030E+00
         11   -1    0    0    0    0  0.00000000000E+00  0.00000000000E+00  0.20000000000E+02  0.20000000000E+02  0.00000000000E+00 0.  1.
        -11   -1    0    0    0    0 -0.00000000000E+00 -0.00000000000E+00 -0.20000000000E+02  0.20000000000E+02  0.00000000000E+00 0. -1.
          5    1    1    2  501    0  0.68844956303E+01  0.17027203929E+02  0.63708748431E+01  0.20000000000E+02  0.47000000000E+01 0.  1.
         -5    1    1    2    0  501 -0.68844956303E+01 -0.17027203929E+02 -0.63708748431E+01  0.20000000000E+02  0.47000000000E+01 0. -1.
</event>
<event>
 4    1  0.5025809E-002  0.4000000E+02  0.7546771E-02  0.1348030E+00
         11   -1    0    0    0    0  0.00000000000E+00  0.00000000000E+00  0.20000000000E+02  0.20000000000E+02  0.00000000000E+00 0. -1.
        -11   -1    0    0    0    0 -0.00000000000E+00 -0.00000000000E+00 -0.20000000000E+02  0.20000000000E+02  0.00000000000E+00 0.  1.
          5    1    1    2  501    0  0.82019389407E+00 -0.31400577192E+00 -0.19420058763E+02  0.20000000000E+02  0.47000000000E+01 0.  1.
         -5    1    1    2    0  501 -0.82019389407E+00  0.31400577192E+00  0.19420058763E+02  0.20000000000E+02  0.47000000000E+01 0. -1.
</event>
<event>
 4    1  0.5025809E-002  0.4000000E+02  0.7546771E-02  0.1348030E+00
         11   -1    0    0    0    0  0.00000000000E+00  0.00000000000E+00  0.20000000000E+02  0.20000000000E+02  0.00000000000E+00 0.  1.
        -11   -1    0    0    0    0 -0.00000000000E+00 -0.00000000000E+00 -0.20000000000E+02  0.20000000000E+02  0.00000000000E+00 0. -1.
          5    1    1    2  501    0 -0.81863133481E+01  0.77516042614E+01 -0.15836884326E+02  0.20000000000E+02  0.47000000000E+01 0. -1.
         -5    1    1    2    0  501  0.81863133481E+01 -0.77516042614E+01  0.15836884326E+02  0.20000000000E+02  0.47000000000E+01 0.  1.
</event>
<event>
 4    1  0.5025809E-002  0.4000000E+02  0.7546771E-02  0.1348030E+00
         11   -1    0    0    0    0  0.00000000000E+00  0.00000000000E+00  0.20000000000E+02  0.20000000000E+02  0.00000000000E+00 0.  1.
        -11   -1    0    0    0    0 -0.00000000000E+00 -0.00000000000E+00 -0.20000000000E+02  0.20000000000E+02  0.00000000000E+00 0. -1.
          5    1    1    2  501    0  0.38085638932E+01  0.18524544600E+02 -0.44995653623E+01  0.20000000000E+02  0.47000000000E+01 0. -1.
         -5    1    1    2    0  501 -0.38085638932E+01 -0.18524544600E+02  0.44995653623E+01  0.20000000000E+02  0.47000000000E+01 0.  1.
</event>
<event>
 4    1  0.5025809E-002  0.4000000E+02  0.7546771E-02  0.1348030E+00
         11   -1    0    0    0    0  0.00000000000E+00  0.00000000000E+00  0.20000000000E+02  0.20000000000E+02  0.00000000000E+00 0. -1.
        -11   -1    0    0    0    0 -0.00000000000E+00 -0.00000000000E+00 -0.20000000000E+02  0.20000000000E+02  0.00000000000E+00 0.  1.
          5    1    1    2  501    0  0.34289500674E+01  0.15450266518E+02 -0.11289001991E+02  0.20000000000E+02  0.47000000000E+01 0.  1.
         -5    1    1    2    0  501 -0.34289500674E+01 -0.15450266518E+02  0.11289001991E+02  0.20000000000E+02  0.47000000000E+01 0. -1.
</event>
<event>
 4    1  0.5025809E-002  0.4000000E+02  0.7546771E-02  0.1348030E+00
         11   -1    0    0    0    0  0.00000000000E+00  0.00000000000E+00  0.20000000000E+02  0.20000000000E+02  0.00000000000E+00 0.  1.
        -11   -1    0    0    0    0 -0.00000000000E+00 -0.00000000000E+00 -0.20000000000E+02  0.20000000000E+02  0.00000000000E+00 0. -1.
          5    1    1    2  501    0  0.10028417651E+02  0.12940402289E+02 -0.10482691830E+02  0.20000000000E+02  0.47000000000E+01 0. -1.
         -5    1    1    2    0  501 -0.10028417651E+02 -0.12940402289E+02  0.10482691830E+02  0.20000000000E+02  0.47000000000E+01 0.  1.
</event>
<event>
 4    1  0.5025809E-002  0.4000000E+02  0.7546771E-02  0.1348030E+00
         11   -1    0    0    0    0  0.00000000000E+00  0.00000000000E+00  0.20000000000E+02  0.20000000000E+02  0.00000000000E+00 0.  1.
        -11   -1    0    0    0    0 -0.00000000000E+00 -0.00000000000E+00 -0.20000000000E+02  0.20000000000E+02  0.00000000000E+00 0. -1.
          5    1    1    2  501    0  0.16302360552E+02 -0.49952258596E+01 -0.93375992116E+01  0.20000000000E+02  0.47000000000E+01 0.  1.
         -5    1    1    2    0  501 -0.16302360552E+02  0.49952258596E+01  0.93375992116E+01  0.20000000000E+02  0.47000000000E+01 0. -1.
</event>
<event>
 4    1  0.5025809E-002  0.4000000E+02  0.7546771E-02  0.1348030E+00
         11   -1    0    0    0    0  0.00000000000E+00  0.00000000000E+00  0.20000000000E+02  0.20000000000E+02  0.00000000000E+00 0. -1.
        -11   -1    0    0    0    0 -0.00000000000E+00 -0.00000000000E+00 -0.20000000000E+02  0.20000000000E+02  0.00000000000E+00 0.  1.
          5    1    1    2  501    0 -0.18796102797E+02  0.27764469169E+01 -0.41119170892E+01  0.20000000000E+02  0.47000000000E+01 0.  1.
         -5    1    1    2    0  501  0.18796102797E+02 -0.27764469169E+01  0.41119170892E+01  0.20000000000E+02  0.47000000000E+01 0. -1.
</event>
<event>
 4    1  0.5025809E-002  0.4000000E+02  0.7546771E-02  0.1348030E+00
         11   -1    0    0    0    0  0.00000000000E+00  0.00000000000E+00  0.20000000000E+02  0.20000000000E+02  0.00000000000E+00 0.  1.
        -11   -1    0    0    0    0 -0.00000000000E+00 -0.00000000000E+00 -0.20000000000E+02  0.20000000000E+02  0.00000000000E+00 0. -1.
          5    1    1    2  501    0 -0.12603110442E+02  0.14792601881E+02  0.50053649824E+00  0.20000000000E+02  0.47000000000E+01 0.  1.
         -5    1    1    2    0  501  0.12603110442E+02 -0.14792601881E+02 -0.50053649824E+00  0.20000000000E+02  0.47000000000E+01 0. -1.
</event>
<event>
 4    1  0.5025809E-002  0.4000000E+02  0.7546771E-02  0.1348030E+00
         11   -1    0    0    0    0  0.00000000000E+00  0.00000000000E+00  0.20000000000E+02  0.20000000000E+02  0.00000000000E+00 0.  1.
        -11   -1    0    0    0    0 -0.00000000000E+00 -0.00000000000E+00 -0.20000000000E+02  0.20000000000E+02  0.00000000000E+00 0. -1.
          5    1    1    2  501    0  0.10125604626E+02 -0.14782897871E+02 -0.75397653480E+01  0.20000000000E+02  0.47000000000E+01 0. -1.
         -5    1    1    2    0  501 -0.10125604626E+02  0.14782897871E+02  0.75397653480E+01  0.20000000000E+02  0.47000000000E+01 0.  1.
</event>
<event>
 4    1  0.5025809E-002  0.4000000E+02  0.7546771E-02  0.1348030E+00
         11   -1    0    0    0    0  0.00000000000E+00  0.00000000000E+00  0.20000000000E+02  0.20000000000E+02  0.00000000000E+00 0.  1.
        -11   -1    0    0    0    0 -0.00000000000E+00 -0.00000000000E+00 -0.20000000000E+02  0.20000000000E+02  0.00000000000E+00 0. -1.
          5    1    1    2  501    0 -0.42499644886E+01  0.64305324415E+01 -0.17846457754E+02  0.20000000000E+02  0.47000000000E+01 0. -1.
         -5    1    1    2    0  501  0.42499644886E+01 -0.64305324415E+01  0.17846457754E+02  0.20000000000E+02  0.47000000000E+01 0.  1.
</event>
<event>
 4    1  0.5025809E-002  0.4000000E+02  0.7546771E-02  0.1348030E+00
         11   -1    0    0    0    0  0.00000000000E+00  0.00000000000E+00  0.20000000000E+02  0.20000000000E+02  0.00000000000E+00 0.  1.
        -11   -1    0    0    0    0 -0.00000000000E+00 -0.00000000000E+00 -0.20000000000E+02  0.20000000000E+02  0.00000000000E+00 0. -1.
          5    1    1    2  501    0 -0.13682474921E+02  0.90388990746E+01 -0.10440219517E+02  0.20000000000E+02  0.47000000000E+01 0. -1.
         -5    1    1    2    0  501  0.13682474921E+02 -0.90388990746E+01  0.10440219517E+02  0.20000000000E+02  0.47000000000E+01 0.  1.
</event>
<event>
 4    1  0.5025809E-002  0.4000000E+02  0.7546771E-02  0.1348030E+00
         11   -1    0    0    0    0  0.00000000000E+00  0.00000000000E+00  0.20000000000E+02  0.20000000000E+02  0.00000000000E+00 0.  1.
        -11   -1    0    0    0    0 -0.00000000000E+00 -0.00000000000E+00 -0.20000000000E+02  0.20000000000E+02  0.00000000000E+00 0. -1.
          5    1    1    2  501    0  0.16309188995E+02  0.35192437252E+00  0.10573386570E+02  0.20000000000E+02  0.47000000000E+01 0.  1.
         -5    1    1    2    0  501 -0.16309188995E+02 -0.35192437252E+00 -0.10573386570E+02  0.20000000000E+02  0.47000000000E+01 0. -1.
</event>
<event>
 4    1  0.5025809E-002  0.4000000E+02  0.7546771E-02  0.1348030E+00
         11   -1    0    0    0    0  0.00000000000E+00  0.00000000000E+00  0.20000000000E+02  0.20000000000E+02  0.00000000000E+00 0. -1.
        -11   -1    0    0    0    0 -0.00000000000E+00 -0.00000000000E+00 -0.20000000000E+02  0.20000000000E+02  0.00000000000E+00 0.  1.
          5    1    1    2  501    0 -0.10278508396E+02 -0.14556515953E+02 -0.77698203628E+01  0.20000000000E+02  0.47000000000E+01 0.  1.
         -5    1    1    2    0  501  0.10278508396E+02  0.14556515953E+02  0.77698203628E+01  0.20000000000E+02  0.47000000000E+01 0. -1.
</event>
<event>
 4    1  0.5025809E-002  0.4000000E+02  0.7546771E-02  0.1348030E+00
         11   -1    0    0    0    0  0.00000000000E+00  0.00000000000E+00  0.20000000000E+02  0.20000000000E+02  0.00000000000E+00 0.  1.
        -11   -1    0    0    0    0 -0.00000000000E+00 -0.00000000000E+00 -0.20000000000E+02  0.20000000000E+02  0.00000000000E+00 0. -1.
          5    1    1    2  501    0  0.18413724342E+02 -0.53523109977E+01 -0.31933560442E+01  0.20000000000E+02  0.47000000000E+01 0. -1.
         -5    1    1    2    0  501 -0.18413724342E+02  0.53523109977E+01  0.31933560442E+01  0.20000000000E+02  0.47000000000E+01 0.  1.
</event>
<event>
 4    1  0.5025809E-002  0.4000000E+02  0.7546771E-02  0.1348030E+00
         11   -1    0    0    0    0  0.00000000000E+00  0.00000000000E+00  0.20000000000E+02  0.20000000000E+02  0.00000000000E+00 0. -1.
        -11   -1    0    0    0    0 -0.00000000000E+00 -0.00000000000E+00 -0.20000000000E+02  0.20000000000E+02  0.00000000000E+00 0.  1.
          5    1    1    2  501    0  0.14905676362E+02  0.62644285783E+01 -0.10792948938E+02  0.20000000000E+02  0.47000000000E+01 0.  1.
         -5    1    1    2    0  501 -0.14905676362E+02 -0.62644285783E+01  0.10792948938E+02  0.20000000000E+02  0.47000000000E+01 0. -1.
</event>
<event>
 4    1  0.5025809E-002  0.4000000E+02  0.7546771E-02  0.1348030E+00
         11   -1    0    0    0    0  0.00000000000E+00  0.00000000000E+00  0.20000000000E+02  0.20000000000E+02  0.00000000000E+00 0.  1.
        -11   -1    0    0    0    0 -0.00000000000E+00 -0.00000000000E+00 -0.20000000000E+02  0.20000000000E+02  0.00000000000E+00 0. -1.
          5    1    1    2  501    0 -0.23826249430E+01  0.15469590684E+02  0.11529304509E+02  0.20000000000E+02  0.47000000000E+01 0.  1.
         -5    1    1    2    0  501  0.23826249430E+01 -0.15469590684E+02 -0.11529304509E+02  0.20000000000E+02  0.47000000000E+01 0. -1.
</event>
<event>
 4    1  0.5025809E-002  0.4000000E+02  0.7546771E-02  0.1348030E+00
         11   -1    0    0    0    0  0.00000000000E+00  0.00000000000E+00  0.20000000000E+02  0.20000000000E+02  0.00000000000E+00 0. -1.
        -11   -1    0    0    0    0 -0.00000000000E+00 -0.00000000000E+00 -0.20000000000E+02  0.20000000000E+02  0.00000000000E+00 0.  1.
          5    1    1    2  501    0  0.19176666835E+02  0.17864413210E+01  0.26408476854E+01  0.20000000000E+02  0.47000000000E+01 0.  1.
         -5    1    1    2    0  501 -0.19176666835E+02 -0.17864413210E+01 -0.26408476854E+01  0.20000000000E+02  0.47000000000E+01 0. -1.
</event>
<event>
 4    1  0.5025809E-002  0.4000000E+02  0.7546771E-02  0.1348030E+00
         11   -1    0    0    0    0  0.00000000000E+00  0.00000000000E+00  0.20000000000E+02  0.20000000000E+02  0.00000000000E+00 0.  1.
        -11   -1    0    0    0    0 -0.00000000000E+00 -0.00000000000E+00 -0.20000000000E+02  0.20000000000E+02  0.00000000000E+00 0. -1.
          5    1    1    2  501    0 -0.42062782242E+01 -0.18979370643E+02 -0.26711282552E-01  0.20000000000E+02  0.47000000000E+01 0. -1.
         -5    1    1    2    0  501  0.42062782242E+01  0.18979370643E+02  0.26711282552E-01  0.20000000000E+02  0.47000000000E+01 0.  1.
</event>
<event>
 4    1  0.5025809E-002  0.4000000E+02  0.7546771E-02  0.1348030E+00
         11   -1    0    0    0    0  0.00000000000E+00  0.00000000000E+00  0.20000000000E+02  0.20000000000E+02  0.00000000000E+00 0.  1.
        -11   -1    0    0    0    0 -0.00000000000E+00 -0.00000000000E+00 -0.20000000000E+02  0.20000000000E+02  0.00000000000E+00 0. -1.
          5    1    1    2  501    0  0.14586453171E+02 -0.57961745199E+01 -0.11469513714E+02  0.20000000000E+02  0.47000000000E+01 0. -1.
         -5    1    1    2    0  501 -0.14586453171E+02  0.57961745199E+01  0.11469513714E+02  0.20000000000E+02  0.47000000000E+01 0.  1.
</event>
<event>
 4    1  0.5025809E-002  0.4000000E+02  0.7546771E-02  0.1348030E+00
         11   -1    0    0    0    0  0.00000000000E+00  0.00000000000E+00  0.20000000000E+02  0.20000000000E+02  0.00000000000E+00 0. -1.
        -11   -1    0    0    0    0 -0.00000000000E+00 -0.00000000000E+00 -0.20000000000E+02  0.20000000000E+02  0.00000000000E+00 0.  1.
          5    1    1    2  501    0  0.12459986308E+02  0.93088875377E+01  0.11662047591E+02  0.20000000000E+02  0.47000000000E+01 0. -1.
         -5    1    1    2    0  501 -0.12459986308E+02 -0.93088875377E+01 -0.11662047591E+02  0.20000000000E+02  0.47000000000E+01 0.  1.
</event>
<event>
 4    1  0.5025809E-002  0.4000000E+02  0.7546771E-02  0.1348030E+00
         11   -1    0    0    0    0  0.00000000000E+00  0.00000000000E+00  0.20000000000E+02  0.20000000000E+02  0.00000000000E+00 0. -1.
        -11   -1    0    0    0    0 -0.00000000000E+00 -0.00000000000E+00 -0.20000000000E+02  0.20000000000E+02  0.00000000000E+00 0.  1.
          5    1    1    2  501    0  0.99503643777E+01  0.70835862713E+01  0.15123592638E+02  0.20000000000E+02  0.47000000000E+01 0. -1.
         -5    1    1    2    0  501 -0.99503643777E+01 -0.70835862713E+01 -0.15123592638E+02  0.20000000000E+02  0.47000000000E+01 0.  1.
</event>
<event>
 4    1  0.5025809E-002  0.4000000E+02  0.7546771E-02  0.1348030E+00
         11   -1    0    0    0    0  0.00000000000E+00  0.00000000000E+00  0.20000000000E+02  0.20000000000E+02  0.00000000000E+00 0.  1.
        -11   -1    0    0    0    0 -0.00000000000E+00 -0.00000000000E+00 -0.20000000000E+02  0.20000000000E+02  0.00000000000E+00 0. -1.
          5    1    1    2  501    0  0.43769153840E+01 -0.81469069604E+01 -0.17099137952E+02  0.20000000000E+02  0.47000000000E+01 0. -1.
         -5    1    1    2    0  501 -0.43769153840E+01  0.81469069604E+01  0.17099137952E+02  0.20000000000E+02  0.47000000000E+01 0.  1.
</event>
<event>
 4    1  0.5025809E-002  0.4000000E+02  0.7546771E-02  0.1348030E+00
         11   -1    0    0    0    0  0.00000000000E+00  0.00000000000E+00  0.20000000000E+02  0.20000000000E+02  0.00000000000E+00 0. -1.
        -11   -1    0    0    0    0 -0.00000000000E+00 -0.00000000000E+00 -0.20000000000E+02  0.20000000000E+02  0.00000000000E+00 0.  1.
          5    1    1    2  501    0  0.97486247247E+00  0.10059827303E+02 -0.16606008484E+02  0.20000000000E+02  0.47000000000E+01 0.  1.
         -5    1    1    2    0  501 -0.97486247247E+00 -0.10059827303E+02  0.16606008484E+02  0.20000000000E+02  0.47000000000E+01 0. -1.
</event>
<event>
 4    1  0.5025809E-002  0.4000000E+02  0.7546771E-02  0.1348030E+00
         11   -1    0    0    0    0  0.00000000000E+00  0.00000000000E+00  0.20000000000E+02  0.20000000000E+02  0.00000000000E+00 0.  1.
        -11   -1    0    0    0    0 -0.00000000000E+00 -0.00000000000E+00 -0.20000000000E+02  0.20000000000E+02  0.00000000000E+00 0. -1.
          5    1    1    2  501    0  0.15030033596E+02  0.69100079233E+01 -0.10210772772E+02  0.20000000000E+02  0.47000000000E+01 0.  1.
         -5    1    1    2    0  501 -0.15030033596E+02 -0.69100079233E+01  0.10210772772E+02  0.20000000000E+02  0.47000000000E+01 0. -1.
</event>
<event>
 4    1  0.5025809E-002  0.4000000E+02  0.7546771E-02  0.1348030E+00
         11   -1    0    0    0    0  0.00000000000E+00  0.00000000000E+00  0.20000000000E+02  0.20000000000E+02  0.00000000000E+00 0.  1.
        -11   -1    0    0    0    0 -0.00000000000E+00 -0.00000000000E+00 -0.20000000000E+02  0.20000000000E+02  0.00000000000E+00 0. -1.
          5    1    1    2  501    0  0.23230028616E+01  0.17507144619E+02 -0.81248719991E+01  0.20000000000E+02  0.47000000000E+01 0. -1.
         -5    1    1    2    0  501 -0.23230028616E+01 -0.17507144619E+02  0.81248719991E+01  0.20000000000E+02  0.47000000000E+01 0.  1.
</event>
<event>
 4    1  0.5025809E-002  0.4000000E+02  0.7546771E-02  0.1348030E+00
         11   -1    0    0    0    0  0.00000000000E+00  0.00000000000E+00  0.20000000000E+02  0.20000000000E+02  0.00000000000E+00 0.  1.
        -11   -1    0    0    0    0 -0.00000000000E+00 -0.00000000000E+00 -0.20000000000E+02  0.20000000000E+02  0.00000000000E+00 0. -1.
          5    1    1    2  501    0  0.15428733939E+02  0.29271181443E+01 -0.11458453142E+02  0.20000000000E+02  0.47000000000E+01 0. -1.
         -5    1    1    2    0  501 -0.15428733939E+02 -0.29271181443E+01  0.11458453142E+02  0.20000000000E+02  0.47000000000E+01 0.  1.
</event>
<event>
 4    1  0.5025809E-002  0.4000000E+02  0.7546771E-02  0.1348030E+00
         11   -1    0    0    0    0  0.00000000000E+00  0.00000000000E+00  0.20000000000E+02  0.20000000000E+02  0.00000000000E+00 0.  1.
        -11   -1    0    0    0    0 -0.00000000000E+00 -0.00000000000E+00 -0.20000000000E+02  0.20000000000E+02  0.00000000000E+00 0. -1.
          5    1    1    2  501    0 -0.11455206472E+02 -0.15691458027E+02  0.68292727857E+00  0.20000000000E+02  0.47000000000E+01 0.  1.
         -5    1    1    2    0  501  0.11455206472E+02  0.15691458027E+02 -0.68292727857E+00  0.20000000000E+02  0.47000000000E+01 0. -1.
</event>
<event>
 4    1  0.5025809E-002  0.4000000E+02  0.7546771E-02  0.1348030E+00
         11   -1    0    0    0    0  0.00000000000E+00  0.00000000000E+00  0.20000000000E+02  0.20000000000E+02  0.00000000000E+00 0. -1.
        -11   -1    0    0    0    0 -0.00000000000E+00 -0.00000000000E+00 -0.20000000000E+02  0.20000000000E+02  0.00000000000E+00 0.  1.
          5    1    1    2  501    0  0.77874330829E+01  0.47336352821E+01 -0.17171446736E+02  0.20000000000E+02  0.47000000000E+01 0.  1.
         -5    1    1    2    0  501 -0.77874330829E+01 -0.47336352821E+01  0.17171446736E+02  0.20000000000E+02  0.47000000000E+01 0. -1.
</event>
<event>
 4    1  0.5025809E-002  0.4000000E+02  0.7546771E-02  0.1348030E+00
         11   -1    0    0    0    0  0.00000000000E+00  0.00000000000E+00  0.20000000000E+02  0.20000000000E+02  0.00000000000E+00 0.  1.
        -11   -1    0    0    0    0 -0.00000000000E+00 -0.00000000000E+00 -0.20000000000E+02  0.20000000000E+02  0.00000000000E+00 0. -1.
          5    1    1    2  501    0 -0.89714669058E+01 -0.63498207966E+01 -0.16034417901E+02  0.20000000000E+02  0.47000000000E+01 0. -1.
         -5    1    1    2    0  501  0.89714669058E+01  0.63498207966E+01  0.16034417901E+02  0.20000000000E+02  0.47000000000E+01 0.  1.
</event>
<event>
 4    1  0.5025809E-002  0.4000000E+02  0.7546771E-02  0.1348030E+00
         11   -1    0    0    0    0  0.00000000000E+00  0.00000000000E+00  0.20000000000E+02  0.20000000000E+02  0.00000000000E+00 0.  1.
        -11   -1    0    0    0    0 -0.00000000000E+00 -0.00000000000E+00 -0.20000000000E+02  0.20000000000E+02  0.00000000000E+00 0. -1.
          5    1    1    2  501    0  0.14101764340E+01  0.28905051778E+01 -0.19172020818E+02  0.20000000000E+02  0.47000000000E+01 0. -1.
         -5    1    1    2    0  501 -0.14101764340E+01 -0.28905051778E+01  0.19172020818E+02  0.20000000000E+02  0.47000000000E+01 0.  1.
</event>
<event>
 4    1  0.5025809E-002  0.4000000E+02  0.7546771E-02  0.1348030E+00
         11   -1    0    0    0    0  0.00000000000E+00  0.00000000000E+00  0.20000000000E+02  0.20000000000E+02  0.00000000000E+00 0.  1.
        -11   -1    0    0    0    0 -0.00000000000E+00 -0.00000000000E+00 -0.20000000000E+02  0.20000000000E+02  0.00000000000E+00 0. -1.
          5    1    1    2  501    0 -0.12905870256E+02 -0.12163575661E+02 -0.79621567472E+01  0.20000000000E+02  0.47000000000E+01 0. -1.
         -5    1    1    2    0  501  0.12905870256E+02  0.12163575661E+02  0.79621567472E+01  0.20000000000E+02  0.47000000000E+01 0.  1.
</event>
<event>
 4    1  0.5025809E-002  0.4000000E+02  0.7546771E-02  0.1348030E+00
         11   -1    0    0    0    0  0.00000000000E+00  0.00000000000E+00  0.20000000000E+02  0.20000000000E+02  0.00000000000E+00 0. -1.
        -11   -1    0    0    0    0 -0.00000000000E+00 -0.00000000000E+00 -0.20000000000E+02  0.20000000000E+02  0.00000000000E+00 0.  1.
          5    1    1    2  501    0 -0.60546713367E+01 -0.45227197478E+01 -0.17910777791E+02  0.20000000000E+02  0.47000000000E+01 0.  1.
         -5    1    1    2    0  501  0.60546713367E+01  0.45227197478E+01  0.17910777791E+02  0.20000000000E+02  0.47000000000E+01 0. -1.
</event>
<event>
 4    1  0.5025809E-002  0.4000000E+02  0.7546771E-02  0.1348030E+00
         11   -1    0    0    0    0  0.00000000000E+00  0.00000000000E+00  0.20000000000E+02  0.20000000000E+02  0.00000000000E+00 0.  1.
        -11   -1    0    0    0    0 -0.00000000000E+00 -0.00000000000E+00 -0.20000000000E+02  0.20000000000E+02  0.00000000000E+00 0. -1.
          5    1    1    2  501    0 -0.17227609215E+01  0.18564432383E+02 -0.55049019168E+01  0.20000000000E+02  0.47000000000E+01 0. -1.
         -5    1    1    2    0  501  0.17227609215E+01 -0.18564432383E+02  0.55049019168E+01  0.20000000000E+02  0.47000000000E+01 0.  1.
</event>
<event>
 4    1  0.5025809E-002  0.4000000E+02  0.7546771E-02  0.1348030E+00
         11   -1    0    0    0    0  0.00000000000E+00  0.00000000000E+00  0.20000000000E+02  0.20000000000E+02  0.00000000000E+00 0.  1.
        -11   -1    0    0    0    0 -0.00000000000E+00 -0.00000000000E+00 -0.20000000000E+02  0.20000000000E+02  0.00000000000E+00 0. -1.
          5    1    1    2  501    0  0.52104172272E+01 -0.12199325670E+02 -0.14210489278E+02  0.20000000000E+02  0.47000000000E+01 0. -1.
         -5    1    1    2    0  501 -0.52104172272E+01  0.12199325670E+02  0.14210489278E+02  0.20000000000E+02  0.47000000000E+01 0.  1.
</event>
<event>
 4    1  0.5025809E-002  0.4000000E+02  0.7546771E-02  0.1348030E+00
         11   -1    0    0    0    0  0.00000000000E+00  0.00000000000E+00  0.20000000000E+02  0.20000000000E+02  0.00000000000E+00 0.  1.
        -11   -1    0    0    0    0 -0.00000000000E+00 -0.00000000000E+00 -0.20000000000E+02  0.20000000000E+02  0.00000000000E+00 0. -1.
          5    1    1    2  501    0  0.68483238787E+01  0.47355066335E+01 -0.17566600040E+02  0.20000000000E+02  0.47000000000E+01 0. -1.
         -5    1    1    2    0  501 -0.68483238787E+01 -0.47355066335E+01  0.17566600040E+02  0.20000000000E+02  0.47000000000E+01 0.  1.
</event>
<event>
 4    1  0.5025809E-002  0.4000000E+02  0.7546771E-02  0.1348030E+00
         11   -1    0    0    0    0  0.00000000000E+00  0.00000000000E+00  0.20000000000E+02  0.20000000000E+02  0.00000000000E+00 0.  1.
        -11   -1    0    0    0    0 -0.00000000000E+00 -0.00000000000E+00 -0.20000000000E+02  0.20000000000E+02  0.00000000000E+00 0. -1.
          5    1    1    2  501    0  0.35044308896E+01  0.14285524220E+02 -0.12710340747E+02  0.20000000000E+02  0.47000000000E+01 0. -1.
         -5    1    1    2    0  501 -0.35044308896E+01 -0.14285524220E+02  0.12710340747E+02  0.20000000000E+02  0.47000000000E+01 0.  1.
</event>
<event>
 4    1  0.5025809E-002  0.4000000E+02  0.7546771E-02  0.1348030E+00
         11   -1    0    0    0    0  0.00000000000E+00  0.00000000000E+00  0.20000000000E+02  0.20000000000E+02  0.00000000000E+00 0. -1.
        -11   -1    0    0    0    0 -0.00000000000E+00 -0.00000000000E+00 -0.20000000000E+02  0.20000000000E+02  0.00000000000E+00 0.  1.
          5    1    1    2  501    0 -0.86568361201E+01  0.34488665052E+01 -0.17060905844E+02  0.20000000000E+02  0.47000000000E+01 0.  1.
         -5    1    1    2    0  501  0.86568361201E+01 -0.34488665052E+01  0.17060905844E+02  0.20000000000E+02  0.47000000000E+01 0. -1.
</event>
<event>
 4    1  0.5025809E-002  0.4000000E+02  0.7546771E-02  0.1348030E+00
         11   -1    0    0    0    0  0.00000000000E+00  0.00000000000E+00  0.20000000000E+02  0.20000000000E+02  0.00000000000E+00 0. -1.
        -11   -1    0    0    0    0 -0.00000000000E+00 -0.00000000000E+00 -0.20000000000E+02  0.20000000000E+02  0.00000000000E+00 0.  1.
          5    1    1    2  501    0  0.74029783046E+01 -0.97157125368E+01 -0.15123188887E+02  0.20000000000E+02  0.47000000000E+01 0.  1.
         -5    1    1    2    0  501 -0.74029783046E+01  0.97157125368E+01  0.15123188887E+02  0.20000000000E+02  0.47000000000E+01 0. -1.
</event>
<event>
 4    1  0.5025809E-002  0.4000000E+02  0.7546771E-02  0.1348030E+00
         11   -1    0    0    0    0  0.00000000000E+00  0.00000000000E+00  0.20000000000E+02  0.20000000000E+02  0.00000000000E+00 0.  1.
        -11   -1    0    0    0    0 -0.00000000000E+00 -0.00000000000E+00 -0.20000000000E+02  0.20000000000E+02  0.00000000000E+00 0. -1.
          5    1    1    2  501    0 -0.16214733081E+02 -0.17977048829E+00  0.10721945424E+02  0.20000000000E+02  0.47000000000E+01 0.  1.
         -5    1    1    2    0  501  0.16214733081E+02  0.17977048829E+00 -0.10721945424E+02  0.20000000000E+02  0.47000000000E+01 0. -1.
</event>
<event>
 4    1  0.5025809E-002  0.4000000E+02  0.7546771E-02  0.1348030E+00
         11   -1    0    0    0    0  0.00000000000E+00  0.00000000000E+00  0.20000000000E+02  0.20000000000E+02  0.00000000000E+00 0. -1.
        -11   -1    0    0    0    0 -0.00000000000E+00 -0.00000000000E+00 -0.20000000000E+02  0.20000000000E+02  0.00000000000E+00 0.  1.
          5    1    1    2  501    0 -0.47900859338E+01 -0.10256289646E+02 -0.15804227265E+02  0.20000000000E+02  0.47000000000E+01 0.  1.
         -5    1    1    2    0  501  0.47900859338E+01  0.10256289646E+02  0.15804227265E+02  0.20000000000E+02  0.47000000000E+01 0. -1.
</event>
<event>
 4    1  0.5025809E-002  0.4000000E+02  0.7546771E-02  0.1348030E+00
         11   -1    0    0    0    0  0.00000000000E+00  0.00000000000E+00  0.20000000000E+02  0.20000000000E+02  0.00000000000E+00 0.  1.
        -11   -1    0    0    0    0 -0.00000000000E+00 -0.00000000000E+00 -0.20000000000E+02  0.20000000000E+02  0.00000000000E+00 0. -1.
          5    1    1    2  501    0 -0.18646761640E+02  0.37266552525E+01  0.40398417005E+01  0.20000000000E+02  0.47000000000E+01 0. -1.
         -5    1    1    2    0  501  0.18646761640E+02 -0.37266552525E+01 -0.40398417005E+01  0.20000000000E+02  0.47000000000E+01 0.  1.
</event>
<event>
 4    1  0.5025809E-002  0.4000000E+02  0.7546771E-02  0.1348030E+00
         11   -1    0    0    0    0  0.00000000000E+00  0.00000000000E+00  0.20000000000E+02  0.20000000000E+02  0.00000000000E+00 0.  1.
        -11   -1    0    0    0    0 -0.00000000000E+00 -0.00000000000E+00 -0.20000000000E+02  0.20000000000E+02  0.00000000000E+00 0. -1.
          5    1    1    2  501    0  0.88534067385E+01 -0.11253146486E+02 -0.13148911867E+02  0.20000000000E+02  0.47000000000E+01 0. -1.
         -5    1    1    2    0  501 -0.88534067385E+01  0.11253146486E+02  0.13148911867E+02  0.20000000000E+02  0.47000000000E+01 0.  1.
</event>
<event>
 4    1  0.5025809E-002  0.4000000E+02  0.7546771E-02  0.1348030E+00
         11   -1    0    0    0    0  0.00000000000E+00  0.00000000000E+00  0.20000000000E+02  0.20000000000E+02  0.00000000000E+00 0.  1.
        -11   -1    0    0    0    0 -0.00000000000E+00 -0.00000000000E+00 -0.20000000000E+02  0.20000000000E+02  0.00000000000E+00 0. -1.
          5    1    1    2  501    0 -0.11115948511E+02  0.19435384808E+01 -0.15829350804E+02  0.20000000000E+02  0.47000000000E+01 0. -1.
         -5    1    1    2    0  501  0.11115948511E+02 -0.19435384808E+01  0.15829350804E+02  0.20000000000E+02  0.47000000000E+01 0.  1.
</event>
<event>
 4    1  0.5025809E-002  0.4000000E+02  0.7546771E-02  0.1348030E+00
         11   -1    0    0    0    0  0.00000000000E+00  0.00000000000E+00  0.20000000000E+02  0.20000000000E+02  0.00000000000E+00 0. -1.
        -11   -1    0    0    0    0 -0.00000000000E+00 -0.00000000000E+00 -0.20000000000E+02  0.20000000000E+02  0.00000000000E+00 0.  1.
          5    1    1    2  501    0  0.12508797297E+02  0.25605568713E+01 -0.14658906463E+02  0.20000000000E+02  0.47000000000E+01 0.  1.
         -5    1    1    2    0  501 -0.12508797297E+02 -0.25605568713E+01  0.14658906463E+02  0.20000000000E+02  0.47000000000E+01 0. -1.
</event>
<event>
 4    1  0.5025809E-002  0.4000000E+02  0.7546771E-02  0.1348030E+00
         11   -1    0    0    0    0  0.00000000000E+00  0.00000000000E+00  0.20000000000E+02  0.20000000000E+02  0.00000000000E+00 0. -1.
        -11   -1    0    0    0    0 -0.00000000000E+00 -0.00000000000E+00 -0.20000000000E+02  0.20000000000E+02  0.00000000000E+00 0.  1.
          5    1    1    2  501    0 -0.92290743554E+01 -0.75877582509E+01 -0.15334931081E+02  0.20000000000E+02  0.47000000000E+01 0.  1.
         -5    1    1    2    0  501  0.92290743554E+01  0.75877582509E+01  0.15334931081E+02  0.20000000000E+02  0.47000000000E+01 0. -1.
</event>
<event>
 4    1  0.5025809E-002  0.4000000E+02  0.7546771E-02  0.1348030E+00
         11   -1    0    0    0    0  0.00000000000E+00  0.00000000000E+00  0.20000000000E+02  0.20000000000E+02  0.00000000000E+00 0. -1.
        -11   -1    0    0    0    0 -0.00000000000E+00 -0.00000000000E+00 -0.20000000000E+02  0.20000000000E+02  0.00000000000E+00 0.  1.
          5    1    1    2  501    0 -0.21074025783E+01 -0.89410847096E+01 -0.17132596376E+02  0.20000000000E+02  0.47000000000E+01 0.  1.
         -5    1    1    2    0  501  0.21074025783E+01  0.89410847096E+01  0.17132596376E+02  0.20000000000E+02  0.47000000000E+01 0. -1.
</event>
<event>
 4    1  0.5025809E-002  0.4000000E+02  0.7546771E-02  0.1348030E+00
         11   -1    0    0    0    0  0.00000000000E+00  0.00000000000E+00  0.20000000000E+02  0.20000000000E+02  0.00000000000E+00 0.  1.
        -11   -1    0    0    0    0 -0.00000000000E+00 -0.00000000000E+00 -0.20000000000E+02  0.20000000000E+02  0.00000000000E+00 0. -1.
          5    1    1    2  501    0  0.69175643316E+01  0.86843691333E+01 -0.15957413214E+02  0.20000000000E+02  0.47000000000E+01 0. -1.
         -5    1    1    2    0  501 -0.69175643316E+01 -0.86843691333E+01  0.15957413214E+02  0.20000000000E+02  0.47000000000E+01 0.  1.
</event>
<event>
 4    1  0.5025809E-002  0.4000000E+02  0.7546771E-02  0.1348030E+00
         11   -1    0    0    0    0  0.00000000000E+00  0.00000000000E+00  0.20000000000E+02  0.20000000000E+02  0.00000000000E+00 0. -1.
        -11   -1    0    0    0    0 -0.00000000000E+00 -0.00000000000E+00 -0.20000000000E+02  0.20000000000E+02  0.00000000000E+00 0.  1.
          5    1    1    2  501    0  0.60277386055E+01  0.15094926428E+02 -0.10663937520E+02  0.20000000000E+02  0.47000000000E+01 0.  1.
         -5    1    1    2    0  501 -0.60277386055E+01 -0.15094926428E+02  0.10663937520E+02  0.20000000000E+02  0.47000000000E+01 0. -1.
</event>
<event>
 4    1  0.5025809E-002  0.4000000E+02  0.7546771E-02  0.1348030E+00
         11   -1    0    0    0    0  0.00000000000E+00  0.00000000000E+00  0.20000000000E+02  0.20000000000E+02  0.00000000000E+00 0. -1.
        -11   -1    0    0    0    0 -0.00000000000E+00 -0.00000000000E+00 -0.20000000000E+02  0.20000000000E+02  0.00000000000E+00 0.  1.
          5    1    1    2  501    0 -0.28765818317E+01  0.18942014530E+02 -0.32917111829E+01  0.20000000000E+02  0.47000000000E+01 0.  1.
         -5    1    1    2    0  501  0.28765818317E+01 -0.18942014530E+02  0.32917111829E+01  0.20000000000E+02  0.47000000000E+01 0. -1.
</event>
<event>
 4    1  0.5025809E-002  0.4000000E+02  0.7546771E-02  0.1348030E+00
         11   -1    0    0    0    0  0.00000000000E+00  0.00000000000E+00  0.20000000000E+02  0.20000000000E+02  0.00000000000E+00 0.  1.
        -11   -1    0    0    0    0 -0.00000000000E+00 -0.00000000000E+00 -0.20000000000E+02  0.20000000000E+02  0.00000000000E+00 0. -1.
          5    1    1    2  501    0 -0.18653098740E+01 -0.58074517518E+01 -0.18458172261E+02  0.20000000000E+02  0.47000000000E+01 0. -1.
         -5    1    1    2    0  501  0.18653098740E+01  0.58074517518E+01  0.18458172261E+02  0.20000000000E+02  0.47000000000E+01 0.  1.
</event>
<event>
 4    1  0.5025809E-002  0.4000000E+02  0.7546771E-02  0.1348030E+00
         11   -1    0    0    0    0  0.00000000000E+00  0.00000000000E+00  0.20000000000E+02  0.20000000000E+02  0.00000000000E+00 0.  1.
        -11   -1    0    0    0    0 -0.00000000000E+00 -0.00000000000E+00 -0.20000000000E+02  0.20000000000E+02  0.00000000000E+00 0. -1.
          5    1    1    2  501    0  0.17147647461E+01  0.19077821424E+02 -0.33175761600E+01  0.20000000000E+02  0.47000000000E+01 0. -1.
         -5    1    1    2    0  501 -0.17147647461E+01 -0.19077821424E+02  0.33175761600E+01  0.20000000000E+02  0.47000000000E+01 0.  1.
</event>
<event>
 4    1  0.5025809E-002  0.4000000E+02  0.7546771E-02  0.1348030E+00
         11   -1    0    0    0    0  0.00000000000E+00  0.00000000000E+00  0.20000000000E+02  0.20000000000E+02  0.00000000000E+00 0.  1.
        -11   -1    0    0    0    0 -0.00000000000E+00 -0.00000000000E+00 -0.20000000000E+02  0.20000000000E+02  0.00000000000E+00 0. -1.
          5    1    1    2  501    0 -0.11097608386E+02  0.12324235265E+02 -0.10142303153E+02  0.20000000000E+02  0.47000000000E+01 0. -1.
         -5    1    1    2    0  501  0.11097608386E+02 -0.12324235265E+02  0.10142303153E+02  0.20000000000E+02  0.47000000000E+01 0.  1.
</event>
<event>
 4    1  0.5025809E-002  0.4000000E+02  0.7546771E-02  0.1348030E+00
         11   -1    0    0    0    0  0.00000000000E+00  0.00000000000E+00  0.20000000000E+02  0.20000000000E+02  0.00000000000E+00 0.  1.
        -11   -1    0    0    0    0 -0.00000000000E+00 -0.00000000000E+00 -0.20000000000E+02  0.20000000000E+02  0.00000000000E+00 0. -1.
          5    1    1    2  501    0  0.66443232206E+01 -0.91619661912E+01  0.15805737707E+02  0.20000000000E+02  0.47000000000E+01 0.  1.
         -5    1    1    2    0  501 -0.66443232206E+01  0.91619661912E+01 -0.15805737707E+02  0.20000000000E+02  0.47000000000E+01 0. -1.
</event>
<event>
 4    1  0.5025809E-002  0.4000000E+02  0.7546771E-02  0.1348030E+00
         11   -1    0    0    0    0  0.00000000000E+00  0.00000000000E+00  0.20000000000E+02  0.20000000000E+02  0.00000000000E+00 0.  1.
        -11   -1    0    0    0    0 -0.00000000000E+00 -0.00000000000E+00 -0.20000000000E+02  0.20000000000E+02  0.00000000000E+00 0. -1.
          5    1    1    2  501    0 -0.73014625935E+01 -0.32102990062E+01 -0.17728300096E+02  0.20000000000E+02  0.47000000000E+01 0. -1.
         -5    1    1    2    0  501  0.73014625935E+01  0.32102990062E+01  0.17728300096E+02  0.20000000000E+02  0.47000000000E+01 0.  1.
</event>
<event>
 4    1  0.5025809E-002  0.4000000E+02  0.7546771E-02  0.1348030E+00
         11   -1    0    0    0    0  0.00000000000E+00  0.00000000000E+00  0.20000000000E+02  0.20000000000E+02  0.00000000000E+00 0.  1.
        -11   -1    0    0    0    0 -0.00000000000E+00 -0.00000000000E+00 -0.20000000000E+02  0.20000000000E+02  0.00000000000E+00 0. -1.
          5    1    1    2  501    0  0.13649051973E+01 -0.12966885012E+02 -0.14418978011E+02  0.20000000000E+02  0.47000000000E+01 0. -1.
         -5    1    1    2    0  501 -0.13649051973E+01  0.12966885012E+02  0.14418978011E+02  0.20000000000E+02  0.47000000000E+01 0.  1.
</event>
<event>
 4    1  0.5025809E-002  0.4000000E+02  0.7546771E-02  0.1348030E+00
         11   -1    0    0    0    0  0.00000000000E+00  0.00000000000E+00  0.20000000000E+02  0.20000000000E+02  0.00000000000E+00 0.  1.
        -11   -1    0    0    0    0 -0.00000000000E+00 -0.00000000000E+00 -0.20000000000E+02  0.20000000000E+02  0.00000000000E+00 0. -1.
          5    1    1    2  501    0 -0.18832148478E+01 -0.82696306851E+01  0.17492189976E+02  0.20000000000E+02  0.47000000000E+01 0.  1.
         -5    1    1    2    0  501  0.18832148478E+01  0.82696306851E+01 -0.17492189976E+02  0.20000000000E+02  0.47000000000E+01 0. -1.
</event>
<event>
 4    1  0.5025809E-002  0.4000000E+02  0.7546771E-02  0.1348030E+00
         11   -1    0    0    0    0  0.00000000000E+00  0.00000000000E+00  0.20000000000E+02  0.20000000000E+02  0.00000000000E+00 0. -1.
        -11   -1    0    0    0    0 -0.00000000000E+00 -0.00000000000E+00 -0.20000000000E+02  0.20000000000E+02  0.00000000000E+00 0.  1.
          5    1    1    2  501    0  0.16749233702E+02 -0.26567692615E+01 -0.95034071518E+01  0.20000000000E+02  0.47000000000E+01 0.  1.
         -5    1    1    2    0  501 -0.16749233702E+02  0.26567692615E+01  0.95034071518E+01  0.20000000000E+02  0.47000000000E+01 0. -1.
</event>
<event>
 4    1  0.5025809E-002  0.4000000E+02  0.7546771E-02  0.1348030E+00
         11   -1    0    0    0    0  0.00000000000E+00  0.00000000000E+00  0.20000000000E+02  0.20000000000E+02  0.00000000000E+00 0.  1.
        -11   -1    0    0    0    0 -0.00000000000E+00 -0.00000000000E+00 -0.20000000000E+02  0.20000000000E+02  0.00000000000E+00 0. -1.
          5    1    1    2  501    0  0.16447671719E+02 -0.22637287678E+01 -0.10112350226E+02  0.20000000000E+02  0.47000000000E+01 0. -1.
         -5    1    1    2    0  501 -0.16447671719E+02  0.22637287678E+01  0.10112350226E+02  0.20000000000E+02  0.47000000000E+01 0.  1.
</event>
<event>
 4    1  0.5025809E-002  0.4000000E+02  0.7546771E-02  0.1348030E+00
         11   -1    0    0    0    0  0.00000000000E+00  0.00000000000E+00  0.20000000000E+02  0.20000000000E+02  0.00000000000E+00 0.  1.
        -11   -1    0    0    0    0 -0.00000000000E+00 -0.00000000000E+00 -0.20000000000E+02  0.20000000000E+02  0.00000000000E+00 0. -1.
          5    1    1    2  501    0  0.10272845519E+01  0.86183339963E+01  0.17394798233E+02  0.20000000000E+02  0.47000000000E+01 0.  1.
         -5    1    1    2    0  501 -0.10272845519E+01 -0.86183339963E+01 -0.17394798233E+02  0.20000000000E+02  0.47000000000E+01 0. -1.
</event>
<event>
 4    1  0.5025809E-002  0.4000000E+02  0.7546771E-02  0.1348030E+00
         11   -1    0    0    0    0  0.00000000000E+00  0.00000000000E+00  0.20000000000E+02  0.20000000000E+02  0.00000000000E+00 0.  1.
        -11   -1    0    0    0    0 -0.00000000000E+00 -0.00000000000E+00 -0.20000000000E+02  0.20000000000E+02  0.00000000000E+00 0. -1.
          5    1    1    2  501    0 -0.55108240081E+01  0.18302065690E+02  0.35461542873E+01  0.20000000000E+02  0.47000000000E+01 0.  1.
         -5    1    1    2    0  501  0.55108240081E+01 -0.18302065690E+02 -0.35461542873E+01  0.20000000000E+02  0.47000000000E+01 0. -1.
</event>
<event>
 4    1  0.5025809E-002  0.4000000E+02  0.7546771E-02  0.1348030E+00
         11   -1    0    0    0    0  0.00000000000E+00  0.00000000000E+00  0.20000000000E+02  0.20000000000E+02  0.00000000000E+00 0.  1.
        -11   -1    0    0    0    0 -0.00000000000E+00 -0.00000000000E+00 -0.20000000000E+02  0.20000000000E+02  0.00000000000E+00 0. -1.
          5    1    1    2  501    0 -0.72645139407E+01  0.42202897028E+01 -0.17530715674E+02  0.20000000000E+02  0.47000000000E+01 0. -1.
         -5    1    1    2    0  501  0.72645139407E+01 -0.42202897028E+01  0.17530715674E+02  0.20000000000E+02  0.47000000000E+01 0.  1.
</event>
<event>
 4    1  0.5025809E-002  0.4000000E+02  0.7546771E-02  0.1348030E+00
         11   -1    0    0    0    0  0.00000000000E+00  0.00000000000E+00  0.20000000000E+02  0.20000000000E+02  0.00000000000E+00 0.  1.
        -11   -1    0    0    0    0 -0.00000000000E+00 -0.00000000000E+00 -0.20000000000E+02  0.20000000000E+02  0.00000000000E+00 0. -1.
          5    1    1    2  501    0 -0.96533047652E+01 -0.15257408135E+02 -0.72066083634E+01  0.20000000000E+02  0.47000000000E+01 0. -1.
         -5    1    1    2    0  501  0.96533047652E+01  0.15257408135E+02  0.72066083634E+01  0.20000000000E+02  0.47000000000E+01 0.  1.
</event>
<event>
 4    1  0.5025809E-002  0.4000000E+02  0.7546771E-02  0.1348030E+00
         11   -1    0    0    0    0  0.00000000000E+00  0.00000000000E+00  0.20000000000E+02  0.20000000000E+02  0.00000000000E+00 0. -1.
        -11   -1    0    0    0    0 -0.00000000000E+00 -0.00000000000E+00 -0.20000000000E+02  0.20000000000E+02  0.00000000000E+00 0.  1.
          5    1    1    2  501    0  0.10838543753E+02  0.13925401899E+02 -0.81559273700E+01  0.20000000000E+02  0.47000000000E+01 0.  1.
         -5    1    1    2    0  501 -0.10838543753E+02 -0.13925401899E+02  0.81559273700E+01  0.20000000000E+02  0.47000000000E+01 0. -1.
</event>
<event>
 4    1  0.5025809E-002  0.4000000E+02  0.7546771E-02  0.1348030E+00
         11   -1    0    0    0    0  0.00000000000E+00  0.00000000000E+00  0.20000000000E+02  0.20000000000E+02  0.00000000000E+00 0.  1.
        -11   -1    0    0    0    0 -0.00000000000E+00 -0.00000000000E+00 -0.20000000000E+02  0.20000000000E+02  0.00000000000E+00 0. -1.
          5    1    1    2  501    0  0.15063910688E+02 -0.10146210347E+02 -0.69313065424E+01  0.20000000000E+02  0.47000000000E+01 0. -1.
         -5    1    1    2    0  501 -0.15063910688E+02  0.10146210347E+02  0.69313065424E+01  0.20000000000E+02  0.47000000000E+01 0.  1.
</event>
<event>
 4    1  0.5025809E-002  0.4000000E+02  0.7546771E-02  0.1348030E+00
         11   -1    0    0    0    0  0.00000000000E+00  0.00000000000E+00  0.20000000000E+02  0.20000000000E+02  0.00000000000E+00 0. -1.
        -11   -1    0    0    0    0 -0.00000000000E+00 -0.00000000000E+00 -0.20000000000E+02  0.20000000000E+02  0.00000000000E+00 0.  1.
          5    1    1    2  501    0 -0.12111325944E+02  0.90737001180E+01  0.12202202672E+02  0.20000000000E+02  0.47000000000E+01 0.  1.
         -5    1    1    2    0  501  0.12111325944E+02 -0.90737001180E+01 -0.12202202672E+02  0.20000000000E+02  0.47000000000E+01 0. -1.
</event>
<event>
 4    1  0.5025809E-002  0.4000000E+02  0.7546771E-02  0.1348030E+00
         11   -1    0    0    0    0  0.00000000000E+00  0.00000000000E+00  0.20000000000E+02  0.20000000000E+02  0.00000000000E+00 0.  1.
        -11   -1    0    0    0    0 -0.00000000000E+00 -0.00000000000E+00 -0.20000000000E+02  0.20000000000E+02  0.00000000000E+00 0. -1.
          5    1    1    2  501    0  0.15819378775E+02 -0.36625051828E+01  0.10688466258E+02  0.20000000000E+02  0.47000000000E+01 0.  1.
         -5    1    1    2    0  501 -0.15819378775E+02  0.36625051828E+01 -0.10688466258E+02  0.20000000000E+02  0.47000000000E+01 0. -1.
</event>
<event>
 4    1  0.5025809E-002  0.4000000E+02  0.7546771E-02  0.1348030E+00
         11   -1    0    0    0    0  0.00000000000E+00  0.00000000000E+00  0.20000000000E+02  0.20000000000E+02  0.00000000000E+00 0. -1.
        -11   -1    0    0    0    0 -0.00000000000E+00 -0.00000000000E+00 -0.20000000000E+02  0.20000000000E+02  0.00000000000E+00 0.  1.
          5    1    1    2  501    0 -0.14219596587E+02 -0.19272709464E+01 -0.13114827471E+02  0.20000000000E+02  0.47000000000E+01 0.  1.
         -5    1    1    2    0  501  0.14219596587E+02  0.19272709464E+01  0.13114827471E+02  0.20000000000E+02  0.47000000000E+01 0. -1.
</event>
<event>
 4    1  0.5025809E-002  0.4000000E+02  0.7546771E-02  0.1348030E+00
         11   -1    0    0    0    0  0.00000000000E+00  0.00000000000E+00  0.20000000000E+02  0.20000000000E+02  0.00000000000E+00 0.  1.
        -11   -1    0    0    0    0 -0.00000000000E+00 -0.00000000000E+00 -0.20000000000E+02  0.20000000000E+02  0.00000000000E+00 0. -1.
          5    1    1    2  501    0  0.83922591956E+01 -0.38496572665E+01 -0.17107312019E+02  0.20000000000E+02  0.47000000000E+01 0. -1.
         -5    1    1    2    0  501 -0.83922591956E+01  0.38496572665E+01  0.17107312019E+02  0.20000000000E+02  0.47000000000E+01 0.  1.
</event>
<event>
 4    1  0.5025809E-002  0.4000000E+02  0.7546771E-02  0.1348030E+00
         11   -1    0    0    0    0  0.00000000000E+00  0.00000000000E+00  0.20000000000E+02  0.20000000000E+02  0.00000000000E+00 0.  1.
        -11   -1    0    0    0    0 -0.00000000000E+00 -0.00000000000E+00 -0.20000000000E+02  0.20000000000E+02  0.00000000000E+00 0. -1.
          5    1    1    2  501    0 -0.11979324160E+02 -0.99192850348E+01 -0.11662485887E+02  0.20000000000E+02  0.47000000000E+01 0. -1.
         -5    1    1    2    0  501  0.11979324160E+02  0.99192850348E+01  0.11662485887E+02  0.20000000000E+02  0.47000000000E+01 0.  1.
</event>
<event>
 4    1  0.5025809E-002  0.4000000E+02  0.7546771E-02  0.1348030E+00
         11   -1    0    0    0    0  0.00000000000E+00  0.00000000000E+00  0.20000000000E+02  0.20000000000E+02  0.00000000000E+00 0. -1.
        -11   -1    0    0    0    0 -0.00000000000E+00 -0.00000000000E+00 -0.20000000000E+02  0.20000000000E+02  0.00000000000E+00 0.  1.
          5    1    1    2  501    0  0.82050410334E+01 -0.15663072744E+02 -0.80780847893E+01  0.20000000000E+02  0.47000000000E+01 0.  1.
         -5    1    1    2    0  501 -0.82050410334E+01  0.15663072744E+02  0.80780847893E+01  0.20000000000E+02  0.47000000000E+01 0. -1.
</event>
<event>
 4    1  0.5025809E-002  0.4000000E+02  0.7546771E-02  0.1348030E+00
         11   -1    0    0    0    0  0.00000000000E+00  0.00000000000E+00  0.20000000000E+02  0.20000000000E+02  0.00000000000E+00 0.  1.
        -11   -1    0    0    0    0 -0.00000000000E+00 -0.00000000000E+00 -0.20000000000E+02  0.20000000000E+02  0.00000000000E+00 0. -1.
          5    1    1    2  501    0 -0.84958100936E+01 -0.10595685716E+02 -0.13909085342E+02  0.20000000000E+02  0.47000000000E+01 0. -1.
         -5    1    1    2    0  501  0.84958100936E+01  0.10595685716E+02  0.13909085342E+02  0.20000000000E+02  0.47000000000E+01 0.  1.
</event>
<event>
 4    1  0.5025809E-002  0.4000000E+02  0.7546771E-02  0.1348030E+00
         11   -1    0    0    0    0  0.00000000000E+00  0.00000000000E+00  0.20000000000E+02  0.20000000000E+02  0.00000000000E+00 0. -1.
        -11   -1    0    0    0    0 -0.00000000000E+00 -0.00000000000E+00 -0.20000000000E+02  0.20000000000E+02  0.00000000000E+00 0.  1.
          5    1    1    2  501    0  0.93207684642E+01  0.10264702018E+02 -0.13626047399E+02  0.20000000000E+02  0.47000000000E+01 0.  1.
         -5    1    1    2    0  501 -0.93207684642E+01 -0.10264702018E+02  0.13626047399E+02  0.20000000000E+02  0.47000000000E+01 0. -1.
</event>
<event>
 4    1  0.5025809E-002  0.4000000E+02  0.7546771E-02  0.1348030E+00
         11   -1    0    0    0    0  0.00000000000E+00  0.00000000000E+00  0.20000000000E+02  0.20000000000E+02  0.00000000000E+00 0.  1.
        -11   -1    0    0    0    0 -0.00000000000E+00 -0.00000000000E+00 -0.20000000000E+02  0.20000000000E+02  0.00000000000E+00 0. -1.
          5    1    1    2  501    0 -0.14612270392E+02 -0.45025085131E+01 -0.12004956105E+02  0.20000000000E+02  0.47000000000E+01 0. -1.
         -5    1    1    2    0  501  0.14612270392E+02  0.45025085131E+01  0.12004956105E+02  0.20000000000E+02  0.47000000000E+01 0.  1.
</event>
<event>
 4    1  0.5025809E-002  0.4000000E+02  0.7546771E-02  0.1348030E+00
         11   -1    0    0    0    0  0.00000000000E+00  0.00000000000E+00  0.20000000000E+02  0.20000000000E+02  0.00000000000E+00 0.  1.
        -11   -1    0    0    0    0 -0.00000000000E+00 -0.00000000000E+00 -0.20000000000E+02  0.20000000000E+02  0.00000000000E+00 0. -1.
          5    1    1    2  501    0 -0.17641100390E+00 -0.48381134615E+01 -0.18827414514E+02  0.20000000000E+02  0.47000000000E+01 0. -1.
         -5    1    1    2    0  501  0.17641100390E+00  0.48381134615E+01  0.18827414514E+02  0.20000000000E+02  0.47000000000E+01 0.  1.
</event>
<event>
 4    1  0.5025809E-002  0.4000000E+02  0.7546771E-02  0.1348030E+00
         11   -1    0    0    0    0  0.00000000000E+00  0.00000000000E+00  0.20000000000E+02  0.20000000000E+02  0.00000000000E+00 0.  1.
        -11   -1    0    0    0    0 -0.00000000000E+00 -0.00000000000E+00 -0.20000000000E+02  0.20000000000E+02  0.00000000000E+00 0. -1.
          5    1    1    2  501    0 -0.89314293423E+01  0.14052765418E+02  0.10032913536E+02  0.20000000000E+02  0.47000000000E+01 0.  1.
         -5    1    1    2    0  501  0.89314293423E+01 -0.14052765418E+02 -0.10032913536E+02  0.20000000000E+02  0.47000000000E+01 0. -1.
</event>
<event>
 4    1  0.5025809E-002  0.4000000E+02  0.7546771E-02  0.1348030E+00
         11   -1    0    0    0    0  0.00000000000E+00  0.00000000000E+00  0.20000000000E+02  0.20000000000E+02  0.00000000000E+00 0. -1.
        -11   -1    0    0    0    0 -0.00000000000E+00 -0.00000000000E+00 -0.20000000000E+02  0.20000000000E+02  0.00000000000E+00 0.  1.
          5    1    1    2  501    0 -0.32368305680E+01  0.74042606991E+01 -0.17680776323E+02  0.20000000000E+02  0.47000000000E+01 0.  1.
         -5    1    1    2    0  501  0.32368305680E+01 -0.74042606991E+01  0.17680776323E+02  0.20000000000E+02  0.47000000000E+01 0. -1.
</event>
<event>
 4    1  0.5025809E-002  0.4000000E+02  0.7546771E-02  0.1348030E+00
         11   -1    0    0    0    0  0.00000000000E+00  0.00000000000E+00  0.20000000000E+02  0.20000000000E+02  0.00000000000E+00 0.  1.
        -11   -1    0    0    0    0 -0.00000000000E+00 -0.00000000000E+00 -0.20000000000E+02  0.20000000000E+02  0.00000000000E+00 0. -1.
          5    1    1    2  501    0  0.13196503473E+02  0.14236569733E+02  0.10403741254E+01  0.20000000000E+02  0.47000000000E+01 0. -1.
         -5    1    1    2    0  501 -0.13196503473E+02 -0.14236569733E+02 -0.10403741254E+01  0.20000000000E+02  0.47000000000E+01 0.  1.
</event>
<event>
 4    1  0.5025809E-002  0.4000000E+02  0.7546771E-02  0.1348030E+00
         11   -1    0    0    0    0  0.00000000000E+00  0.00000000000E+00  0.20000000000E+02  0.20000000000E+02  0.00000000000E+00 0. -1.
        -11   -1    0    0    0    0 -0.00000000000E+00 -0.00000000000E+00 -0.20000000000E+02  0.20000000000E+02  0.00000000000E+00 0.  1.
          5    1    1    2  501    0 -0.34094789691E+01  0.11364265818E+02 -0.15399315425E+02  0.20000000000E+02  0.47000000000E+01 0.  1.
         -5    1    1    2    0  501  0.34094789691E+01 -0.11364265818E+02  0.15399315425E+02  0.20000000000E+02  0.47000000000E+01 0. -1.
</event>
<event>
 4    1  0.5025809E-002  0.4000000E+02  0.7546771E-02  0.1348030E+00
         11   -1    0    0    0    0  0.00000000000E+00  0.00000000000E+00  0.20000000000E+02  0.20000000000E+02  0.00000000000E+00 0.  1.
        -11   -1    0    0    0    0 -0.00000000000E+00 -0.00000000000E+00 -0.20000000000E+02  0.20000000000E+02  0.00000000000E+00 0. -1.
          5    1    1    2  501    0  0.38012390581E+01 -0.15302046858E+02 -0.11371365071E+02  0.20000000000E+02  0.47000000000E+01 0. -1.
         -5    1    1    2    0  501 -0.38012390581E+01  0.15302046858E+02  0.11371365071E+02  0.20000000000E+02  0.47000000000E+01 0.  1.
</event>
<event>
 4    1  0.5025809E-002  0.4000000E+02  0.7546771E-02  0.1348030E+00
         11   -1    0    0    0    0  0.00000000000E+00  0.00000000000E+00  0.20000000000E+02  0.20000000000E+02  0.00000000000E+00 0. -1.
        -11   -1    0    0    0    0 -0.00000000000E+00 -0.00000000000E+00 -0.20000000000E+02  0.20000000000E+02  0.00000000000E+00 0.  1.
          5    1    1    2  501    0  0.23405333249E+01 -0.84803819564E+01 -0.17335369209E+02  0.20000000000E+02  0.47000000000E+01 0.  1.
         -5    1    1    2    0  501 -0.23405333249E+01  0.84803819564E+01  0.17335369209E+02  0.20000000000E+02  0.47000000000E+01 0. -1.
</event>
<event>
 4    1  0.5025809E-002  0.4000000E+02  0.7546771E-02  0.1348030E+00
         11   -1    0    0    0    0  0.00000000000E+00  0.00000000000E+00  0.20000000000E+02  0.20000000000E+02  0.00000000000E+00 0. -1.
        -11   -1    0    0    0    0 -0.00000000000E+00 -0.00000000000E+00 -0.20000000000E+02  0.20000000000E+02  0.00000000000E+00 0.  1.
          5    1    1    2  501    0  0.72037374892E+01 -0.17517805459E+02  0.43752323487E+01  0.20000000000E+02  0.47000000000E+01 0.  1.
         -5    1    1    2    0  501 -0.72037374892E+01  0.17517805459E+02 -0.43752323487E+01  0.20000000000E+02  0.47000000000E+01 0. -1.
</event>
<event>
 4    1  0.5025809E-002  0.4000000E+02  0.7546771E-02  0.1348030E+00
         11   -1    0    0    0    0  0.00000000000E+00  0.00000000000E+00  0.20000000000E+02  0.20000000000E+02  0.00000000000E+00 0.  1.
        -11   -1    0    0    0    0 -0.00000000000E+00 -0.00000000000E+00 -0.20000000000E+02  0.20000000000E+02  0.00000000000E+00 0. -1.
          5    1    1    2  501    0  0.15999381061E+02  0.71116257465E+01 -0.84471643113E+01  0.20000000000E+02  0.47000000000E+01 0. -1.
         -5    1    1    2    0  501 -0.15999381061E+02 -0.71116257465E+01  0.84471643113E+01  0.20000000000E+02  0.47000000000E+01 0.  1.
</event>
<event>
 4    1  0.5025809E-002  0.4000000E+02  0.7546771E-02  0.1348030E+00
         11   -1    0    0    0    0  0.00000000000E+00  0.00000000000E+00  0.20000000000E+02  0.20000000000E+02  0.00000000000E+00 0.  1.
        -11   -1    0    0    0    0 -0.00000000000E+00 -0.00000000000E+00 -0.20000000000E+02  0.20000000000E+02  0.00000000000E+00 0. -1.
          5    1    1    2  501    0  0.70677297619E+01  0.15565294569E+02  0.92562844052E+01  0.20000000000E+02  0.47000000000E+01 0.  1.
         -5    1    1    2    0  501 -0.70677297619E+01 -0.15565294569E+02 -0.92562844052E+01  0.20000000000E+02  0.47000000000E+01 0. -1.
</event>
<event>
 4    1  0.5025809E-002  0.4000000E+02  0.7546771E-02  0.1348030E+00
         11   -1    0    0    0    0  0.00000000000E+00  0.00000000000E+00  0.20000000000E+02  0.20000000000E+02  0.00000000000E+00 0. -1.
        -11   -1    0    0    0    0 -0.00000000000E+00 -0.00000000000E+00 -0.20000000000E+02  0.20000000000E+02  0.00000000000E+00 0.  1.
          5    1    1    2  501    0 -0.35392579824E+01 -0.16532261395E+02  0.95952064127E+01  0.20000000000E+02  0.47000000000E+01 0.  1.
         -5    1    1    2    0  501  0.35392579824E+01  0.16532261395E+02 -0.95952064127E+01  0.20000000000E+02  0.47000000000E+01 0. -1.
</event>
<event>
 4    1  0.5025809E-002  0.4000000E+02  0.7546771E-02  0.1348030E+00
         11   -1    0    0    0    0  0.00000000000E+00  0.00000000000E+00  0.20000000000E+02  0.20000000000E+02  0.00000000000E+00 0.  1.
        -11   -1    0    0    0    0 -0.00000000000E+00 -0.00000000000E+00 -0.20000000000E+02  0.20000000000E+02  0.00000000000E+00 0. -1.
          5    1    1    2  501    0 -0.35098894324E+01 -0.22316268875E+01  0.18989747697E+02  0.20000000000E+02  0.47000000000E+01 0.  1.
         -5    1    1    2    0  501  0.35098894324E+01  0.22316268875E+01 -0.18989747697E+02  0.20000000000E+02  0.47000000000E+01 0. -1.
</event>
<event>
 4    1  0.5025809E-002  0.4000000E+02  0.7546771E-02  0.1348030E+00
         11   -1    0    0    0    0  0.00000000000E+00  0.00000000000E+00  0.20000000000E+02  0.20000000000E+02  0.00000000000E+00 0. -1.
        -11   -1    0    0    0    0 -0.00000000000E+00 -0.00000000000E+00 -0.20000000000E+02  0.20000000000E+02  0.00000000000E+00 0.  1.
          5    1    1    2  501    0 -0.20633142388E+01 -0.13767299594E+02 -0.13568868643E+02  0.20000000000E+02  0.47000000000E+01 0.  1.
         -5    1    1    2    0  501  0.20633142388E+01  0.13767299594E+02  0.13568868643E+02  0.20000000000E+02  0.47000000000E+01 0. -1.
</event>
<event>
 4    1  0.5025809E-002  0.4000000E+02  0.7546771E-02  0.1348030E+00
         11   -1    0    0    0    0  0.00000000000E+00  0.00000000000E+00  0.20000000000E+02  0.20000000000E+02  0.00000000000E+00 0. -1.
        -11   -1    0    0    0    0 -0.00000000000E+00 -0.00000000000E+00 -0.20000000000E+02  0.20000000000E+02  0.00000000000E+00 0.  1.
          5    1    1    2  501    0  0.14562260264E+02  0.83179237251E+01 -0.98317201400E+01  0.20000000000E+02  0.47000000000E+01 0.  1.
         -5    1    1    2    0  501 -0.14562260264E+02 -0.83179237251E+01  0.98317201400E+01  0.20000000000E+02  0.47000000000E+01 0. -1.
</event>
<event>
 4    1  0.5025809E-002  0.4000000E+02  0.7546771E-02  0.1348030E+00
         11   -1    0    0    0    0  0.00000000000E+00  0.00000000000E+00  0.20000000000E+02  0.20000000000E+02  0.00000000000E+00 0. -1.
        -11   -1    0    0    0    0 -0.00000000000E+00 -0.00000000000E+00 -0.20000000000E+02  0.20000000000E+02  0.00000000000E+00 0.  1.
          5    1    1    2  501    0  0.16516089609E+02 -0.10243238554E+02 -0.45260129485E+00  0.20000000000E+02  0.47000000000E+01 0.  1.
         -5    1    1    2    0  501 -0.16516089609E+02  0.10243238554E+02  0.45260129485E+00  0.20000000000E+02  0.47000000000E+01 0. -1.
</event>
<event>
 4    1  0.5025809E-002  0.4000000E+02  0.7546771E-02  0.1348030E+00
         11   -1    0    0    0    0  0.00000000000E+00  0.00000000000E+00  0.20000000000E+02  0.20000000000E+02  0.00000000000E+00 0.  1.
        -11   -1    0    0    0    0 -0.00000000000E+00 -0.00000000000E+00 -0.20000000000E+02  0.20000000000E+02  0.00000000000E+00 0. -1.
          5    1    1    2  501    0 -0.13810306038E+02  0.10908922583E+02 -0.82571699276E+01  0.20000000000E+02  0.47000000000E+01 0. -1.
         -5    1    1    2    0  501  0.13810306038E+02 -0.10908922583E+02  0.82571699276E+01  0.20000000000E+02  0.47000000000E+01 0.  1.
</event>
<event>
 4    1  0.5025809E-002  0.4000000E+02  0.7546771E-02  0.1348030E+00
         11   -1    0    0    0    0  0.00000000000E+00  0.00000000000E+00  0.20000000000E+02  0.20000000000E+02  0.00000000000E+00 0.  1.
        -11   -1    0    0    0    0 -0.00000000000E+00 -0.00000000000E+00 -0.20000000000E+02  0.20000000000E+02  0.00000000000E+00 0. -1.
          5    1    1    2  501    0  0.91968445472E+01 -0.93835261467E+01  0.14327508068E+02  0.20000000000E+02  0.47000000000E+01 0.  1.
         -5    1    1    2    0  501 -0.91968445472E+01  0.93835261467E+01 -0.14327508068E+02  0.20000000000E+02  0.47000000000E+01 0. -1.
</event>
<event>
 4    1  0.5025809E-002  0.4000000E+02  0.7546771E-02  0.1348030E+00
         11   -1    0    0    0    0  0.00000000000E+00  0.00000000000E+00  0.20000000000E+02  0.20000000000E+02  0.00000000000E+00 0. -1.
        -11   -1    0    0    0    0 -0.00000000000E+00 -0.00000000000E+00 -0.20000000000E+02  0.20000000000E+02  0.00000000000E+00 0.  1.
          5    1    1    2  501    0  0.52810751358E+01  0.57839713726E+01 -0.17792299474E+02  0.20000000000E+02  0.47000000000E+01 0.  1.
         -5    1    1    2    0  501 -0.52810751358E+01 -0.57839713726E+01  0.17792299474E+02  0.20000000000E+02  0.47000000000E+01 0. -1.
</event>
<event>
 4    1  0.5025809E-002  0.4000000E+02  0.7546771E-02  0.1348030E+00
         11   -1    0    0    0    0  0.00000000000E+00  0.00000000000E+00  0.20000000000E+02  0.20000000000E+02  0.00000000000E+00 0.  1.
        -11   -1    0    0    0    0 -0.00000000000E+00 -0.00000000000E+00 -0.20000000000E+02  0.20000000000E+02  0.00000000000E+00 0. -1.
          5    1    1    2  501    0  0.14062093485E+02  0.12253692585E+02  0.54785531708E+01  0.20000000000E+02  0.47000000000E+01 0.  1.
         -5    1    1    2    0  501 -0.14062093485E+02 -0.12253692585E+02 -0.54785531708E+01  0.20000000000E+02  0.47000000000E+01 0. -1.
</event>
<event>
 4    1  0.5025809E-002  0.4000000E+02  0.7546771E-02  0.1348030E+00
         11   -1    0    0    0    0  0.00000000000E+00  0.00000000000E+00  0.20000000000E+02  0.20000000000E+02  0.00000000000E+00 0.  1.
        -11   -1    0    0    0    0 -0.00000000000E+00 -0.00000000000E+00 -0.20000000000E+02  0.20000000000E+02  0.00000000000E+00 0. -1.
          5    1    1    2  501    0  0.13443308562E-01  0.15325972132E+02  0.11959280809E+02  0.20000000000E+02  0.47000000000E+01 0.  1.
         -5    1    1    2    0  501 -0.13443308562E-01 -0.15325972132E+02 -0.11959280809E+02  0.20000000000E+02  0.47000000000E+01 0. -1.
</event>
<event>
 4    1  0.5025809E-002  0.4000000E+02  0.7546771E-02  0.1348030E+00
         11   -1    0    0    0    0  0.00000000000E+00  0.00000000000E+00  0.20000000000E+02  0.20000000000E+02  0.00000000000E+00 0.  1.
        -11   -1    0    0    0    0 -0.00000000000E+00 -0.00000000000E+00 -0.20000000000E+02  0.20000000000E+02  0.00000000000E+00 0. -1.
          5    1    1    2  501    0  0.54341270430E+01 -0.13624892025E+02  0.12757060030E+02  0.20000000000E+02  0.47000000000E+01 0.  1.
         -5    1    1    2    0  501 -0.54341270430E+01  0.13624892025E+02 -0.12757060030E+02  0.20000000000E+02  0.47000000000E+01 0. -1.
</event>
<event>
 4    1  0.5025809E-002  0.4000000E+02  0.7546771E-02  0.1348030E+00
         11   -1    0    0    0    0  0.00000000000E+00  0.00000000000E+00  0.20000000000E+02  0.20000000000E+02  0.00000000000E+00 0.  1.
        -11   -1    0    0    0    0 -0.00000000000E+00 -0.00000000000E+00 -0.20000000000E+02  0.20000000000E+02  0.00000000000E+00 0. -1.
          5    1    1    2  501    0  0.15619808303E+02 -0.11192189989E+02 -0.29438871966E+01  0.20000000000E+02  0.47000000000E+01 0. -1.
         -5    1    1    2    0  501 -0.15619808303E+02  0.11192189989E+02  0.29438871966E+01  0.20000000000E+02  0.47000000000E+01 0.  1.
</event>
<event>
 4    1  0.5025809E-002  0.4000000E+02  0.7546771E-02  0.1348030E+00
         11   -1    0    0    0    0  0.00000000000E+00  0.00000000000E+00  0.20000000000E+02  0.20000000000E+02  0.00000000000E+00 0.  1.
        -11   -1    0    0    0    0 -0.00000000000E+00 -0.00000000000E+00 -0.20000000000E+02  0.20000000000E+02  0.00000000000E+00 0. -1.
          5    1    1    2  501    0 -0.24361790869E+01  0.16165670310E+02  0.10518846651E+02  0.20000000000E+02  0.47000000000E+01 0.  1.
         -5    1    1    2    0  501  0.24361790869E+01 -0.16165670310E+02 -0.10518846651E+02  0.20000000000E+02  0.47000000000E+01 0. -1.
</event>
<event>
 4    1  0.5025809E-002  0.4000000E+02  0.7546771E-02  0.1348030E+00
         11   -1    0    0    0    0  0.00000000000E+00  0.00000000000E+00  0.20000000000E+02  0.20000000000E+02  0.00000000000E+00 0. -1.
        -11   -1    0    0    0    0 -0.00000000000E+00 -0.00000000000E+00 -0.20000000000E+02  0.20000000000E+02  0.00000000000E+00 0.  1.
          5    1    1    2  501    0 -0.77932414951E+01  0.21471592202E+01  0.17679510578E+02  0.20000000000E+02  0.47000000000E+01 0. -1.
         -5    1    1    2    0  501  0.77932414951E+01 -0.21471592202E+01 -0.17679510578E+02  0.20000000000E+02  0.47000000000E+01 0.  1.
</event>
<event>
 4    1  0.5025809E-002  0.4000000E+02  0.7546771E-02  0.1348030E+00
         11   -1    0    0    0    0  0.00000000000E+00  0.00000000000E+00  0.20000000000E+02  0.20000000000E+02  0.00000000000E+00 0. -1.
        -11   -1    0    0    0    0 -0.00000000000E+00 -0.00000000000E+00 -0.20000000000E+02  0.20000000000E+02  0.00000000000E+00 0.  1.
          5    1    1    2  501    0  0.89735740276E+01  0.16916461887E+02  0.33493710472E+01  0.20000000000E+02  0.47000000000E+01 0.  1.
         -5    1    1    2    0  501 -0.89735740276E+01 -0.16916461887E+02 -0.33493710472E+01  0.20000000000E+02  0.47000000000E+01 0. -1.
</event>
<event>
 4    1  0.5025809E-002  0.4000000E+02  0.7546771E-02  0.1348030E+00
         11   -1    0    0    0    0  0.00000000000E+00  0.00000000000E+00  0.20000000000E+02  0.20000000000E+02  0.00000000000E+00 0. -1.
        -11   -1    0    0    0    0 -0.00000000000E+00 -0.00000000000E+00 -0.20000000000E+02  0.20000000000E+02  0.00000000000E+00 0.  1.
          5    1    1    2  501    0  0.84293145396E+01  0.12670601882E+01 -0.17471439977E+02  0.20000000000E+02  0.47000000000E+01 0.  1.
         -5    1    1    2    0  501 -0.84293145396E+01 -0.12670601882E+01  0.17471439977E+02  0.20000000000E+02  0.47000000000E+01 0. -1.
</event>
<event>
 4    1  0.5025809E-002  0.4000000E+02  0.7546771E-02  0.1348030E+00
         11   -1    0    0    0    0  0.00000000000E+00  0.00000000000E+00  0.20000000000E+02  0.20000000000E+02  0.00000000000E+00 0.  1.
        -11   -1    0    0    0    0 -0.00000000000E+00 -0.00000000000E+00 -0.20000000000E+02  0.20000000000E+02  0.00000000000E+00 0. -1.
          5    1    1    2  501    0  0.13619091760E+02  0.63072407164E+01  0.12355122589E+02  0.20000000000E+02  0.47000000000E+01 0. -1.
         -5    1    1    2    0  501 -0.13619091760E+02 -0.63072407164E+01 -0.12355122589E+02  0.20000000000E+02  0.47000000000E+01 0. -1.
</event>
<event>
 4    1  0.5025809E-002  0.4000000E+02  0.7546771E-02  0.1348030E+00
         11   -1    0    0    0    0  0.00000000000E+00  0.00000000000E+00  0.20000000000E+02  0.20000000000E+02  0.00000000000E+00 0.  1.
        -11   -1    0    0    0    0 -0.00000000000E+00 -0.00000000000E+00 -0.20000000000E+02  0.20000000000E+02  0.00000000000E+00 0. -1.
          5    1    1    2  501    0 -0.38446916017E+01  0.11042407319E+02 -0.15530408465E+02  0.20000000000E+02  0.47000000000E+01 0. -1.
         -5    1    1    2    0  501  0.38446916017E+01 -0.11042407319E+02  0.15530408465E+02  0.20000000000E+02  0.47000000000E+01 0.  1.
</event>
<event>
 4    1  0.5025809E-002  0.4000000E+02  0.7546771E-02  0.1348030E+00
         11   -1    0    0    0    0  0.00000000000E+00  0.00000000000E+00  0.20000000000E+02  0.20000000000E+02  0.00000000000E+00 0.  1.
        -11   -1    0    0    0    0 -0.00000000000E+00 -0.00000000000E+00 -0.20000000000E+02  0.20000000000E+02  0.00000000000E+00 0. -1.
          5    1    1    2  501    0 -0.18949185787E+02 -0.21884848038E+01  0.37481851957E+01  0.20000000000E+02  0.47000000000E+01 0. -1.
         -5    1    1    2    0  501  0.18949185787E+02  0.21884848038E+01 -0.37481851957E+01  0.20000000000E+02  0.47000000000E+01 0.  1.
</event>
<event>
 4    1  0.5025809E-002  0.4000000E+02  0.7546771E-02  0.1348030E+00
         11   -1    0    0    0    0  0.00000000000E+00  0.00000000000E+00  0.20000000000E+02  0.20000000000E+02  0.00000000000E+00 0.  1.
        -11   -1    0    0    0    0 -0.00000000000E+00 -0.00000000000E+00 -0.20000000000E+02  0.20000000000E+02  0.00000000000E+00 0. -1.
          5    1    1    2  501    0  0.59753471915E+00 -0.13637191539E+02 -0.13841241245E+02  0.20000000000E+02  0.47000000000E+01 0. -1.
         -5    1    1    2    0  501 -0.59753471915E+00  0.13637191539E+02  0.13841241245E+02  0.20000000000E+02  0.47000000000E+01 0.  1.
</event>
<event>
 4    1  0.5025809E-002  0.4000000E+02  0.7546771E-02  0.1348030E+00
         11   -1    0    0    0    0  0.00000000000E+00  0.00000000000E+00  0.20000000000E+02  0.20000000000E+02  0.00000000000E+00 0.  1.
        -11   -1    0    0    0    0 -0.00000000000E+00 -0.00000000000E+00 -0.20000000000E+02  0.20000000000E+02  0.00000000000E+00 0. -1.
          5    1    1    2  501    0 -0.14362174306E+02 -0.21212833419E+01 -0.12928190367E+02  0.20000000000E+02  0.47000000000E+01 0. -1.
         -5    1    1    2    0  501  0.14362174306E+02  0.21212833419E+01  0.12928190367E+02  0.20000000000E+02  0.47000000000E+01 0.  1.
</event>
<event>
 4    1  0.5025809E-002  0.4000000E+02  0.7546771E-02  0.1348030E+00
         11   -1    0    0    0    0  0.00000000000E+00  0.00000000000E+00  0.20000000000E+02  0.20000000000E+02  0.00000000000E+00 0. -1.
        -11   -1    0    0    0    0 -0.00000000000E+00 -0.00000000000E+00 -0.20000000000E+02  0.20000000000E+02  0.00000000000E+00 0.  1.
          5    1    1    2  501    0 -0.31523109327E+01  0.90627801064E+00 -0.19161200274E+02  0.20000000000E+02  0.47000000000E+01 0.  1.
         -5    1    1    2    0  501  0.31523109327E+01 -0.90627801064E+00  0.19161200274E+02  0.20000000000E+02  0.47000000000E+01 0. -1.
</event>
<event>
 4    1  0.5025809E-002  0.4000000E+02  0.7546771E-02  0.1348030E+00
         11   -1    0    0    0    0  0.00000000000E+00  0.00000000000E+00  0.20000000000E+02  0.20000000000E+02  0.00000000000E+00 0.  1.
        -11   -1    0    0    0    0 -0.00000000000E+00 -0.00000000000E+00 -0.20000000000E+02  0.20000000000E+02  0.00000000000E+00 0. -1.
          5    1    1    2  501    0 -0.18388432207E+02  0.17102978078E+01 -0.60704565215E+01  0.20000000000E+02  0.47000000000E+01 0. -1.
         -5    1    1    2    0  501  0.18388432207E+02 -0.17102978078E+01  0.60704565215E+01  0.20000000000E+02  0.47000000000E+01 0.  1.
</event>
<event>
 4    1  0.5025809E-002  0.4000000E+02  0.7546771E-02  0.1348030E+00
         11   -1    0    0    0    0  0.00000000000E+00  0.00000000000E+00  0.20000000000E+02  0.20000000000E+02  0.00000000000E+00 0.  1.
        -11   -1    0    0    0    0 -0.00000000000E+00 -0.00000000000E+00 -0.20000000000E+02  0.20000000000E+02  0.00000000000E+00 0. -1.
          5    1    1    2  501    0  0.35503882657E+01  0.18978314394E+02  0.22645807430E+01  0.20000000000E+02  0.47000000000E+01 0.  1.
         -5    1    1    2    0  501 -0.35503882657E+01 -0.18978314394E+02 -0.22645807430E+01  0.20000000000E+02  0.47000000000E+01 0. -1.
</event>
<event>
 4    1  0.5025809E-002  0.4000000E+02  0.7546771E-02  0.1348030E+00
         11   -1    0    0    0    0  0.00000000000E+00  0.00000000000E+00  0.20000000000E+02  0.20000000000E+02  0.00000000000E+00 0. -1.
        -11   -1    0    0    0    0 -0.00000000000E+00 -0.00000000000E+00 -0.20000000000E+02  0.20000000000E+02  0.00000000000E+00 0.  1.
          5    1    1    2  501    0  0.13071939290E+02  0.94215972035E+01 -0.10875105026E+02  0.20000000000E+02  0.47000000000E+01 0.  1.
         -5    1    1    2    0  501 -0.13071939290E+02 -0.94215972035E+01  0.10875105026E+02  0.20000000000E+02  0.47000000000E+01 0. -1.
</event>
<event>
 4    1  0.5025809E-002  0.4000000E+02  0.7546771E-02  0.1348030E+00
         11   -1    0    0    0    0  0.00000000000E+00  0.00000000000E+00  0.20000000000E+02  0.20000000000E+02  0.00000000000E+00 0.  1.
        -11   -1    0    0    0    0 -0.00000000000E+00 -0.00000000000E+00 -0.20000000000E+02  0.20000000000E+02  0.00000000000E+00 0. -1.
          5    1    1    2  501    0  0.14693943371E+02 -0.70039256806E+01  0.10627466926E+02  0.20000000000E+02  0.47000000000E+01 0.  1.
         -5    1    1    2    0  501 -0.14693943371E+02  0.70039256806E+01 -0.10627466926E+02  0.20000000000E+02  0.47000000000E+01 0. -1.
</event>
<event>
 4    1  0.5025809E-002  0.4000000E+02  0.7546771E-02  0.1348030E+00
         11   -1    0    0    0    0  0.00000000000E+00  0.00000000000E+00  0.20000000000E+02  0.20000000000E+02  0.00000000000E+00 0.  1.
        -11   -1    0    0    0    0 -0.00000000000E+00 -0.00000000000E+00 -0.20000000000E+02  0.20000000000E+02  0.00000000000E+00 0. -1.
          5    1    1    2  501    0 -0.49501493576E+00  0.68862146399E+01 -0.18172644501E+02  0.20000000000E+02  0.47000000000E+01 0. -1.
         -5    1    1    2    0  501  0.49501493576E+00 -0.68862146399E+01  0.18172644501E+02  0.20000000000E+02  0.47000000000E+01 0.  1.
</event>
<event>
 4    1  0.5025809E-002  0.4000000E+02  0.7546771E-02  0.1348030E+00
         11   -1    0    0    0    0  0.00000000000E+00  0.00000000000E+00  0.20000000000E+02  0.20000000000E+02  0.00000000000E+00 0.  1.
        -11   -1    0    0    0    0 -0.00000000000E+00 -0.00000000000E+00 -0.20000000000E+02  0.20000000000E+02  0.00000000000E+00 0. -1.
          5    1    1    2  501    0 -0.15850842152E+02 -0.99632689617E+01  0.52339349116E+01  0.20000000000E+02  0.47000000000E+01 0. -1.
         -5    1    1    2    0  501  0.15850842152E+02  0.99632689617E+01 -0.52339349116E+01  0.20000000000E+02  0.47000000000E+01 0.  1.
</event>
<event>
 4    1  0.5025809E-002  0.4000000E+02  0.7546771E-02  0.1348030E+00
         11   -1    0    0    0    0  0.00000000000E+00  0.00000000000E+00  0.20000000000E+02  0.20000000000E+02  0.00000000000E+00 0. -1.
        -11   -1    0    0    0    0 -0.00000000000E+00 -0.00000000000E+00 -0.20000000000E+02  0.20000000000E+02  0.00000000000E+00 0.  1.
          5    1    1    2  501    0  0.15731509208E+01 -0.14406667916E+02 -0.12956971704E+02  0.20000000000E+02  0.47000000000E+01 0.  1.
         -5    1    1    2    0  501 -0.15731509208E+01  0.14406667916E+02  0.12956971704E+02  0.20000000000E+02  0.47000000000E+01 0. -1.
</event>
<event>
 4    1  0.5025809E-002  0.4000000E+02  0.7546771E-02  0.1348030E+00
         11   -1    0    0    0    0  0.00000000000E+00  0.00000000000E+00  0.20000000000E+02  0.20000000000E+02  0.00000000000E+00 0.  1.
        -11   -1    0    0    0    0 -0.00000000000E+00 -0.00000000000E+00 -0.20000000000E+02  0.20000000000E+02  0.00000000000E+00 0. -1.
          5    1    1    2  501    0 -0.52291127741E+01 -0.53296733407E+00 -0.18715830877E+02  0.20000000000E+02  0.47000000000E+01 0. -1.
         -5    1    1    2    0  501  0.52291127741E+01  0.53296733407E+00  0.18715830877E+02  0.20000000000E+02  0.47000000000E+01 0.  1.
</event>
<event>
 4    1  0.5025809E-002  0.4000000E+02  0.7546771E-02  0.1348030E+00
         11   -1    0    0    0    0  0.00000000000E+00  0.00000000000E+00  0.20000000000E+02  0.20000000000E+02  0.00000000000E+00 0.  1.
        -11   -1    0    0    0    0 -0.00000000000E+00 -0.00000000000E+00 -0.20000000000E+02  0.20000000000E+02  0.00000000000E+00 0. -1.
          5    1    1    2  501    0 -0.14448305070E+02 -0.60085322359E+01  0.11534904463E+02  0.20000000000E+02  0.47000000000E+01 0.  1.
         -5    1    1    2    0  501  0.14448305070E+02  0.60085322359E+01 -0.11534904463E+02  0.20000000000E+02  0.47000000000E+01 0. -1.
</event>
<event>
 4    1  0.5025809E-002  0.4000000E+02  0.7546771E-02  0.1348030E+00
         11   -1    0    0    0    0  0.00000000000E+00  0.00000000000E+00  0.20000000000E+02  0.20000000000E+02  0.00000000000E+00 0.  1.
        -11   -1    0    0    0    0 -0.00000000000E+00 -0.00000000000E+00 -0.20000000000E+02  0.20000000000E+02  0.00000000000E+00 0. -1.
          5    1    1    2  501    0  0.11198017138E+02  0.10029240068E+02 -0.12325938335E+02  0.20000000000E+02  0.47000000000E+01 0. -1.
         -5    1    1    2    0  501 -0.11198017138E+02 -0.10029240068E+02  0.12325938335E+02  0.20000000000E+02  0.47000000000E+01 0.  1.
</event>
<event>
 4    1  0.5025809E-002  0.4000000E+02  0.7546771E-02  0.1348030E+00
         11   -1    0    0    0    0  0.00000000000E+00  0.00000000000E+00  0.20000000000E+02  0.20000000000E+02  0.00000000000E+00 0. -1.
        -11   -1    0    0    0    0 -0.00000000000E+00 -0.00000000000E+00 -0.20000000000E+02  0.20000000000E+02  0.00000000000E+00 0.  1.
          5    1    1    2  501    0 -0.19372928611E+02 -0.92636246941E+00 -0.13196551032E+01  0.20000000000E+02  0.47000000000E+01 0.  1.
         -5    1    1    2    0  501  0.19372928611E+02  0.92636246941E+00  0.13196551032E+01  0.20000000000E+02  0.47000000000E+01 0. -1.
</event>
<event>
 4    1  0.5025809E-002  0.4000000E+02  0.7546771E-02  0.1348030E+00
         11   -1    0    0    0    0  0.00000000000E+00  0.00000000000E+00  0.20000000000E+02  0.20000000000E+02  0.00000000000E+00 0. -1.
        -11   -1    0    0    0    0 -0.00000000000E+00 -0.00000000000E+00 -0.20000000000E+02  0.20000000000E+02  0.00000000000E+00 0.  1.
          5    1    1    2  501    0  0.90963349359E+01  0.99956964616E+01 -0.13973286764E+02  0.20000000000E+02  0.47000000000E+01 0.  1.
         -5    1    1    2    0  501 -0.90963349359E+01 -0.99956964616E+01  0.13973286764E+02  0.20000000000E+02  0.47000000000E+01 0. -1.
</event>
<event>
 4    1  0.5025809E-002  0.4000000E+02  0.7546771E-02  0.1348030E+00
         11   -1    0    0    0    0  0.00000000000E+00  0.00000000000E+00  0.20000000000E+02  0.20000000000E+02  0.00000000000E+00 0.  1.
        -11   -1    0    0    0    0 -0.00000000000E+00 -0.00000000000E+00 -0.20000000000E+02  0.20000000000E+02  0.00000000000E+00 0. -1.
          5    1    1    2  501    0 -0.19275219001E+02  0.75459465541E+00  0.24096720480E+01  0.20000000000E+02  0.47000000000E+01 0.  1.
         -5    1    1    2    0  501  0.19275219001E+02 -0.75459465541E+00 -0.24096720480E+01  0.20000000000E+02  0.47000000000E+01 0. -1.
</event>
<event>
 4    1  0.5025809E-002  0.4000000E+02  0.7546771E-02  0.1348030E+00
         11   -1    0    0    0    0  0.00000000000E+00  0.00000000000E+00  0.20000000000E+02  0.20000000000E+02  0.00000000000E+00 0.  1.
        -11   -1    0    0    0    0 -0.00000000000E+00 -0.00000000000E+00 -0.20000000000E+02  0.20000000000E+02  0.00000000000E+00 0. -1.
          5    1    1    2  501    0  0.55981945566E+01 -0.97882943629E+01  0.15835387939E+02  0.20000000000E+02  0.47000000000E+01 0.  1.
         -5    1    1    2    0  501 -0.55981945566E+01  0.97882943629E+01 -0.15835387939E+02  0.20000000000E+02  0.47000000000E+01 0. -1.
</event>
<event>
 4    1  0.5025809E-002  0.4000000E+02  0.7546771E-02  0.1348030E+00
         11   -1    0    0    0    0  0.00000000000E+00  0.00000000000E+00  0.20000000000E+02  0.20000000000E+02  0.00000000000E+00 0.  1.
        -11   -1    0    0    0    0 -0.00000000000E+00 -0.00000000000E+00 -0.20000000000E+02  0.20000000000E+02  0.00000000000E+00 0. -1.
          5    1    1    2  501    0  0.18560334682E+02  0.51947122828E+01 -0.25375068061E+01  0.20000000000E+02  0.47000000000E+01 0.  1.
         -5    1    1    2    0  501 -0.18560334682E+02 -0.51947122828E+01  0.25375068061E+01  0.20000000000E+02  0.47000000000E+01 0. -1.
</event>
<event>
 4    1  0.5025809E-002  0.4000000E+02  0.7546771E-02  0.1348030E+00
         11   -1    0    0    0    0  0.00000000000E+00  0.00000000000E+00  0.20000000000E+02  0.20000000000E+02  0.00000000000E+00 0.  1.
        -11   -1    0    0    0    0 -0.00000000000E+00 -0.00000000000E+00 -0.20000000000E+02  0.20000000000E+02  0.00000000000E+00 0. -1.
          5    1    1    2  501    0 -0.96346205967E+01  0.46478312914E+01 -0.16232120941E+02  0.20000000000E+02  0.47000000000E+01 0. -1.
         -5    1    1    2    0  501  0.96346205967E+01 -0.46478312914E+01  0.16232120941E+02  0.20000000000E+02  0.47000000000E+01 0.  1.
</event>
<event>
 4    1  0.5025809E-002  0.4000000E+02  0.7546771E-02  0.1348030E+00
         11   -1    0    0    0    0  0.00000000000E+00  0.00000000000E+00  0.20000000000E+02  0.20000000000E+02  0.00000000000E+00 0. -1.
        -11   -1    0    0    0    0 -0.00000000000E+00 -0.00000000000E+00 -0.20000000000E+02  0.20000000000E+02  0.00000000000E+00 0.  1.
          5    1    1    2  501    0  0.54026664141E+01 -0.88383783211E+01 -0.16450053625E+02  0.20000000000E+02  0.47000000000E+01 0.  1.
         -5    1    1    2    0  501 -0.54026664141E+01  0.88383783211E+01  0.16450053625E+02  0.20000000000E+02  0.47000000000E+01 0. -1.
</event>
<event>
 4    1  0.5025809E-002  0.4000000E+02  0.7546771E-02  0.1348030E+00
         11   -1    0    0    0    0  0.00000000000E+00  0.00000000000E+00  0.20000000000E+02  0.20000000000E+02  0.00000000000E+00 0.  1.
        -11   -1    0    0    0    0 -0.00000000000E+00 -0.00000000000E+00 -0.20000000000E+02  0.20000000000E+02  0.00000000000E+00 0. -1.
          5    1    1    2  501    0 -0.99436895751E+01 -0.10210039950E+02 -0.13220745889E+02  0.20000000000E+02  0.47000000000E+01 0. -1.
         -5    1    1    2    0  501  0.99436895751E+01  0.10210039950E+02  0.13220745889E+02  0.20000000000E+02  0.47000000000E+01 0.  1.
</event>
<event>
 4    1  0.5025809E-002  0.4000000E+02  0.7546771E-02  0.1348030E+00
         11   -1    0    0    0    0  0.00000000000E+00  0.00000000000E+00  0.20000000000E+02  0.20000000000E+02  0.00000000000E+00 0.  1.
        -11   -1    0    0    0    0 -0.00000000000E+00 -0.00000000000E+00 -0.20000000000E+02  0.20000000000E+02  0.00000000000E+00 0. -1.
          5    1    1    2  501    0 -0.17988852021E+02  0.66906836364E+01 -0.30896529666E+01  0.20000000000E+02  0.47000000000E+01 0. -1.
         -5    1    1    2    0  501  0.17988852021E+02 -0.66906836364E+01  0.30896529666E+01  0.20000000000E+02  0.47000000000E+01 0.  1.
</event>
<event>
 4    1  0.5025809E-002  0.4000000E+02  0.7546771E-02  0.1348030E+00
         11   -1    0    0    0    0  0.00000000000E+00  0.00000000000E+00  0.20000000000E+02  0.20000000000E+02  0.00000000000E+00 0.  1.
        -11   -1    0    0    0    0 -0.00000000000E+00 -0.00000000000E+00 -0.20000000000E+02  0.20000000000E+02  0.00000000000E+00 0. -1.
          5    1    1    2  501    0 -0.75019424029E+01 -0.59187233716E+01 -0.16929252016E+02  0.20000000000E+02  0.47000000000E+01 0. -1.
         -5    1    1    2    0  501  0.75019424029E+01  0.59187233716E+01  0.16929252016E+02  0.20000000000E+02  0.47000000000E+01 0.  1.
</event>
<event>
 4    1  0.5025809E-002  0.4000000E+02  0.7546771E-02  0.1348030E+00
         11   -1    0    0    0    0  0.00000000000E+00  0.00000000000E+00  0.20000000000E+02  0.20000000000E+02  0.00000000000E+00 0.  1.
        -11   -1    0    0    0    0 -0.00000000000E+00 -0.00000000000E+00 -0.20000000000E+02  0.20000000000E+02  0.00000000000E+00 0. -1.
          5    1    1    2  501    0 -0.13486122804E+02 -0.55160903358E+01  0.12868847622E+02  0.20000000000E+02  0.47000000000E+01 0.  1.
         -5    1    1    2    0  501  0.13486122804E+02  0.55160903358E+01 -0.12868847622E+02  0.20000000000E+02  0.47000000000E+01 0. -1.
</event>
<event>
 4    1  0.5025809E-002  0.4000000E+02  0.7546771E-02  0.1348030E+00
         11   -1    0    0    0    0  0.00000000000E+00  0.00000000000E+00  0.20000000000E+02  0.20000000000E+02  0.00000000000E+00 0.  1.
        -11   -1    0    0    0    0 -0.00000000000E+00 -0.00000000000E+00 -0.20000000000E+02  0.20000000000E+02  0.00000000000E+00 0. -1.
          5    1    1    2  501    0 -0.14291857521E+02  0.11976526836E+01 -0.13123202226E+02  0.20000000000E+02  0.47000000000E+01 0. -1.
         -5    1    1    2    0  501  0.14291857521E+02 -0.11976526836E+01  0.13123202226E+02  0.20000000000E+02  0.47000000000E+01 0.  1.
</event>
<event>
 4    1  0.5025809E-002  0.4000000E+02  0.7546771E-02  0.1348030E+00
         11   -1    0    0    0    0  0.00000000000E+00  0.00000000000E+00  0.20000000000E+02  0.20000000000E+02  0.00000000000E+00 0.  1.
        -11   -1    0    0    0    0 -0.00000000000E+00 -0.00000000000E+00 -0.20000000000E+02  0.20000000000E+02  0.00000000000E+00 0. -1.
          5    1    1    2  501    0  0.43763415432E+00  0.68303154162E+00 -0.19422974650E+02  0.20000000000E+02  0.47000000000E+01 0. -1.
         -5    1    1    2    0  501 -0.43763415432E+00 -0.68303154162E+00  0.19422974650E+02  0.20000000000E+02  0.47000000000E+01 0.  1.
</event>
<event>
 4    1  0.5025809E-002  0.4000000E+02  0.7546771E-02  0.1348030E+00
         11   -1    0    0    0    0  0.00000000000E+00  0.00000000000E+00  0.20000000000E+02  0.20000000000E+02  0.00000000000E+00 0.  1.
        -11   -1    0    0    0    0 -0.00000000000E+00 -0.00000000000E+00 -0.20000000000E+02  0.20000000000E+02  0.00000000000E+00 0. -1.
          5    1    1    2  501    0 -0.18174427270E+02  0.64828241568E+01 -0.23607592775E+01  0.20000000000E+02  0.47000000000E+01 0. -1.
         -5    1    1    2    0  501  0.18174427270E+02 -0.64828241568E+01  0.23607592775E+01  0.20000000000E+02  0.47000000000E+01 0.  1.
</event>
<event>
 4    1  0.5025809E-002  0.4000000E+02  0.7546771E-02  0.1348030E+00
         11   -1    0    0    0    0  0.00000000000E+00  0.00000000000E+00  0.20000000000E+02  0.20000000000E+02  0.00000000000E+00 0.  1.
        -11   -1    0    0    0    0 -0.00000000000E+00 -0.00000000000E+00 -0.20000000000E+02  0.20000000000E+02  0.00000000000E+00 0. -1.
          5    1    1    2  501    0 -0.14464358573E+02 -0.11027607292E+01  0.12941261525E+02  0.20000000000E+02  0.47000000000E+01 0.  1.
         -5    1    1    2    0  501  0.14464358573E+02  0.11027607292E+01 -0.12941261525E+02  0.20000000000E+02  0.47000000000E+01 0. -1.
</event>
<event>
 4    1  0.5025809E-002  0.4000000E+02  0.7546771E-02  0.1348030E+00
         11   -1    0    0    0    0  0.00000000000E+00  0.00000000000E+00  0.20000000000E+02  0.20000000000E+02  0.00000000000E+00 0.  1.
        -11   -1    0    0    0    0 -0.00000000000E+00 -0.00000000000E+00 -0.20000000000E+02  0.20000000000E+02  0.00000000000E+00 0. -1.
          5    1    1    2  501    0 -0.15624245812E+01 -0.89736949915E+01 -0.17173864668E+02  0.20000000000E+02  0.47000000000E+01 0. -1.
         -5    1    1    2    0  501  0.15624245812E+01  0.89736949915E+01  0.17173864668E+02  0.20000000000E+02  0.47000000000E+01 0.  1.
</event>
<event>
 4    1  0.5025809E-002  0.4000000E+02  0.7546771E-02  0.1348030E+00
         11   -1    0    0    0    0  0.00000000000E+00  0.00000000000E+00  0.20000000000E+02  0.20000000000E+02  0.00000000000E+00 0.  1.
        -11   -1    0    0    0    0 -0.00000000000E+00 -0.00000000000E+00 -0.20000000000E+02  0.20000000000E+02  0.00000000000E+00 0. -1.
          5    1    1    2  501    0  0.16972971441E+01 -0.47927642256E+01 -0.18763224496E+02  0.20000000000E+02  0.47000000000E+01 0. -1.
         -5    1    1    2    0  501 -0.16972971441E+01  0.47927642256E+01  0.18763224496E+02  0.20000000000E+02  0.47000000000E+01 0.  1.
</event>
<event>
 4    1  0.5025809E-002  0.4000000E+02  0.7546771E-02  0.1348030E+00
         11   -1    0    0    0    0  0.00000000000E+00  0.00000000000E+00  0.20000000000E+02  0.20000000000E+02  0.00000000000E+00 0.  1.
        -11   -1    0    0    0    0 -0.00000000000E+00 -0.00000000000E+00 -0.20000000000E+02  0.20000000000E+02  0.00000000000E+00 0. -1.
          5    1    1    2  501    0  0.17376552074E+01  0.10179882402E+02 -0.16469989334E+02  0.20000000000E+02  0.47000000000E+01 0. -1.
         -5    1    1    2    0  501 -0.17376552074E+01 -0.10179882402E+02  0.16469989334E+02  0.20000000000E+02  0.47000000000E+01 0.  1.
</event>
<event>
 4    1  0.5025809E-002  0.4000000E+02  0.7546771E-02  0.1348030E+00
         11   -1    0    0    0    0  0.00000000000E+00  0.00000000000E+00  0.20000000000E+02  0.20000000000E+02  0.00000000000E+00 0.  1.
        -11   -1    0    0    0    0 -0.00000000000E+00 -0.00000000000E+00 -0.20000000000E+02  0.20000000000E+02  0.00000000000E+00 0. -1.
          5    1    1    2  501    0 -0.11967132936E+02  0.44052357163E+01 -0.14672819347E+02  0.20000000000E+02  0.47000000000E+01 0. -1.
         -5    1    1    2    0  501  0.11967132936E+02 -0.44052357163E+01  0.14672819347E+02  0.20000000000E+02  0.47000000000E+01 0.  1.
</event>
<event>
 4    1  0.5025809E-002  0.4000000E+02  0.7546771E-02  0.1348030E+00
         11   -1    0    0    0    0  0.00000000000E+00  0.00000000000E+00  0.20000000000E+02  0.20000000000E+02  0.00000000000E+00 0.  1.
        -11   -1    0    0    0    0 -0.00000000000E+00 -0.00000000000E+00 -0.20000000000E+02  0.20000000000E+02  0.00000000000E+00 0. -1.
          5    1    1    2  501    0  0.73370382714E+01  0.82919115046E+01 -0.15978800737E+02  0.20000000000E+02  0.47000000000E+01 0. -1.
         -5    1    1    2    0  501 -0.73370382714E+01 -0.82919115046E+01  0.15978800737E+02  0.20000000000E+02  0.47000000000E+01 0.  1.
</event>
<event>
 4    1  0.5025809E-002  0.4000000E+02  0.7546771E-02  0.1348030E+00
         11   -1    0    0    0    0  0.00000000000E+00  0.00000000000E+00  0.20000000000E+02  0.20000000000E+02  0.00000000000E+00 0.  1.
        -11   -1    0    0    0    0 -0.00000000000E+00 -0.00000000000E+00 -0.20000000000E+02  0.20000000000E+02  0.00000000000E+00 0. -1.
          5    1    1    2  501    0  0.40948527672E+00  0.18351670950E+02 -0.63998824329E+01  0.20000000000E+02  0.47000000000E+01 0. -1.
         -5    1    1    2    0  501 -0.40948527672E+00 -0.18351670950E+02  0.63998824329E+01  0.20000000000E+02  0.47000000000E+01 0.  1.
</event>
<event>
 4    1  0.5025809E-002  0.4000000E+02  0.7546771E-02  0.1348030E+00
         11   -1    0    0    0    0  0.00000000000E+00  0.00000000000E+00  0.20000000000E+02  0.20000000000E+02  0.00000000000E+00 0. -1.
        -11   -1    0    0    0    0 -0.00000000000E+00 -0.00000000000E+00 -0.20000000000E+02  0.20000000000E+02  0.00000000000E+00 0.  1.
          5    1    1    2  501    0  0.87404940431E+01  0.16072987891E+02 -0.65706030277E+01  0.20000000000E+02  0.47000000000E+01 0.  1.
         -5    1    1    2    0  501 -0.87404940431E+01 -0.16072987891E+02  0.65706030277E+01  0.20000000000E+02  0.47000000000E+01 0. -1.
</event>
<event>
 4    1  0.5025809E-002  0.4000000E+02  0.7546771E-02  0.1348030E+00
         11   -1    0    0    0    0  0.00000000000E+00  0.00000000000E+00  0.20000000000E+02  0.20000000000E+02  0.00000000000E+00 0. -1.
        -11   -1    0    0    0    0 -0.00000000000E+00 -0.00000000000E+00 -0.20000000000E+02  0.20000000000E+02  0.00000000000E+00 0.  1.
          5    1    1    2  501    0  0.13028024853E+02  0.83880605153E+01 -0.11739719299E+02  0.20000000000E+02  0.47000000000E+01 0.  1.
         -5    1    1    2    0  501 -0.13028024853E+02 -0.83880605153E+01  0.11739719299E+02  0.20000000000E+02  0.47000000000E+01 0. -1.
</event>
<event>
 4    1  0.5025809E-002  0.4000000E+02  0.7546771E-02  0.1348030E+00
         11   -1    0    0    0    0  0.00000000000E+00  0.00000000000E+00  0.20000000000E+02  0.20000000000E+02  0.00000000000E+00 0.  1.
        -11   -1    0    0    0    0 -0.00000000000E+00 -0.00000000000E+00 -0.20000000000E+02  0.20000000000E+02  0.00000000000E+00 0. -1.
          5    1    1    2  501    0  0.39410063944E+01 -0.15394055248E+02  0.11198282530E+02  0.20000000000E+02  0.47000000000E+01 0.  1.
         -5    1    1    2    0  501 -0.39410063944E+01  0.15394055248E+02 -0.11198282530E+02  0.20000000000E+02  0.47000000000E+01 0. -1.
</event>
<event>
 4    1  0.5025809E-002  0.4000000E+02  0.7546771E-02  0.1348030E+00
         11   -1    0    0    0    0  0.00000000000E+00  0.00000000000E+00  0.20000000000E+02  0.20000000000E+02  0.00000000000E+00 0.  1.
        -11   -1    0    0    0    0 -0.00000000000E+00 -0.00000000000E+00 -0.20000000000E+02  0.20000000000E+02  0.00000000000E+00 0. -1.
          5    1    1    2  501    0  0.37813280836E+01 -0.14017017308E+02 -0.12928061870E+02  0.20000000000E+02  0.47000000000E+01 0. -1.
         -5    1    1    2    0  501 -0.37813280836E+01  0.14017017308E+02  0.12928061870E+02  0.20000000000E+02  0.47000000000E+01 0.  1.
</event>
<event>
 4    1  0.5025809E-002  0.4000000E+02  0.7546771E-02  0.1348030E+00
         11   -1    0    0    0    0  0.00000000000E+00  0.00000000000E+00  0.20000000000E+02  0.20000000000E+02  0.00000000000E+00 0.  1.
        -11   -1    0    0    0    0 -0.00000000000E+00 -0.00000000000E+00 -0.20000000000E+02  0.20000000000E+02  0.00000000000E+00 0. -1.
          5    1    1    2  501    0  0.36709171890E+01  0.11142692631E+02  0.15500798944E+02  0.20000000000E+02  0.47000000000E+01 0.  1.
         -5    1    1    2    0  501 -0.36709171890E+01 -0.11142692631E+02 -0.15500798944E+02  0.20000000000E+02  0.47000000000E+01 0. -1.
</event>
<event>
 4    1  0.5025809E-002  0.4000000E+02  0.7546771E-02  0.1348030E+00
         11   -1    0    0    0    0  0.00000000000E+00  0.00000000000E+00  0.20000000000E+02  0.20000000000E+02  0.00000000000E+00 0.  1.
        -11   -1    0    0    0    0 -0.00000000000E+00 -0.00000000000E+00 -0.20000000000E+02  0.20000000000E+02  0.00000000000E+00 0. -1.
          5    1    1    2  501    0 -0.18848054368E+02 -0.37228192731E+01 -0.29667260098E+01  0.20000000000E+02  0.47000000000E+01 0. -1.
         -5    1    1    2    0  501  0.18848054368E+02  0.37228192731E+01  0.29667260098E+01  0.20000000000E+02  0.47000000000E+01 0.  1.
</event>
<event>
 4    1  0.5025809E-002  0.4000000E+02  0.7546771E-02  0.1348030E+00
         11   -1    0    0    0    0  0.00000000000E+00  0.00000000000E+00  0.20000000000E+02  0.20000000000E+02  0.00000000000E+00 0.  1.
        -11   -1    0    0    0    0 -0.00000000000E+00 -0.00000000000E+00 -0.20000000000E+02  0.20000000000E+02  0.00000000000E+00 0. -1.
          5    1    1    2  501    0  0.15514992901E+02  0.69122418182E+01  0.94559985364E+01  0.20000000000E+02  0.47000000000E+01 0.  1.
         -5    1    1    2    0  501 -0.15514992901E+02 -0.69122418182E+01 -0.94559985364E+01  0.20000000000E+02  0.47000000000E+01 0. -1.
</event>
<event>
 4    1  0.5025809E-002  0.4000000E+02  0.7546771E-02  0.1348030E+00
         11   -1    0    0    0    0  0.00000000000E+00  0.00000000000E+00  0.20000000000E+02  0.20000000000E+02  0.00000000000E+00 0.  1.
        -11   -1    0    0    0    0 -0.00000000000E+00 -0.00000000000E+00 -0.20000000000E+02  0.20000000000E+02  0.00000000000E+00 0. -1.
          5    1    1    2  501    0 -0.57995458695E+01  0.47767314449E+01 -0.17929252757E+02  0.20000000000E+02  0.47000000000E+01 0. -1.
         -5    1    1    2    0  501  0.57995458695E+01 -0.47767314449E+01  0.17929252757E+02  0.20000000000E+02  0.47000000000E+01 0.  1.
</event>
<event>
 4    1  0.5025809E-002  0.4000000E+02  0.7546771E-02  0.1348030E+00
         11   -1    0    0    0    0  0.00000000000E+00  0.00000000000E+00  0.20000000000E+02  0.20000000000E+02  0.00000000000E+00 0. -1.
        -11   -1    0    0    0    0 -0.00000000000E+00 -0.00000000000E+00 -0.20000000000E+02  0.20000000000E+02  0.00000000000E+00 0.  1.
          5    1    1    2  501    0  0.50129674329E+00  0.10684050357E+02 -0.16232984000E+02  0.20000000000E+02  0.47000000000E+01 0.  1.
         -5    1    1    2    0  501 -0.50129674329E+00 -0.10684050357E+02  0.16232984000E+02  0.20000000000E+02  0.47000000000E+01 0. -1.
</event>
<event>
 4    1  0.5025809E-002  0.4000000E+02  0.7546771E-02  0.1348030E+00
         11   -1    0    0    0    0  0.00000000000E+00  0.00000000000E+00  0.20000000000E+02  0.20000000000E+02  0.00000000000E+00 0. -1.
        -11   -1    0    0    0    0 -0.00000000000E+00 -0.00000000000E+00 -0.20000000000E+02  0.20000000000E+02  0.00000000000E+00 0.  1.
          5    1    1    2  501    0 -0.39227692717E+01  0.56217863642E+01 -0.18191135185E+02  0.20000000000E+02  0.47000000000E+01 0.  1.
         -5    1    1    2    0  501  0.39227692717E+01 -0.56217863642E+01  0.18191135185E+02  0.20000000000E+02  0.47000000000E+01 0. -1.
</event>
<event>
 4    1  0.5025809E-002  0.4000000E+02  0.7546771E-02  0.1348030E+00
         11   -1    0    0    0    0  0.00000000000E+00  0.00000000000E+00  0.20000000000E+02  0.20000000000E+02  0.00000000000E+00 0.  1.
        -11   -1    0    0    0    0 -0.00000000000E+00 -0.00000000000E+00 -0.20000000000E+02  0.20000000000E+02  0.00000000000E+00 0. -1.
          5    1    1    2  501    0  0.24758118180E+00 -0.33335861141E+01  0.19150350054E+02  0.20000000000E+02  0.47000000000E+01 0.  1.
         -5    1    1    2    0  501 -0.24758118180E+00  0.33335861141E+01 -0.19150350054E+02  0.20000000000E+02  0.47000000000E+01 0. -1.
</event>
<event>
 4    1  0.5025809E-002  0.4000000E+02  0.7546771E-02  0.1348030E+00
         11   -1    0    0    0    0  0.00000000000E+00  0.00000000000E+00  0.20000000000E+02  0.20000000000E+02  0.00000000000E+00 0.  1.
        -11   -1    0    0    0    0 -0.00000000000E+00 -0.00000000000E+00 -0.20000000000E+02  0.20000000000E+02  0.00000000000E+00 0. -1.
          5    1    1    2  501    0  0.87293814844E+01 -0.15642511392E+02 -0.75511413879E+01  0.20000000000E+02  0.47000000000E+01 0. -1.
         -5    1    1    2    0  501 -0.87293814844E+01  0.15642511392E+02  0.75511413879E+01  0.20000000000E+02  0.47000000000E+01 0.  1.
</event>
<event>
 4    1  0.5025809E-002  0.4000000E+02  0.7546771E-02  0.1348030E+00
         11   -1    0    0    0    0  0.00000000000E+00  0.00000000000E+00  0.20000000000E+02  0.20000000000E+02  0.00000000000E+00 0.  1.
        -11   -1    0    0    0    0 -0.00000000000E+00 -0.00000000000E+00 -0.20000000000E+02  0.20000000000E+02  0.00000000000E+00 0. -1.
          5    1    1    2  501    0  0.86104706446E+01  0.17427952408E+02  0.19044723344E+00  0.20000000000E+02  0.47000000000E+01 0.  1.
         -5    1    1    2    0  501 -0.86104706446E+01 -0.17427952408E+02 -0.19044723344E+00  0.20000000000E+02  0.47000000000E+01 0. -1.
</event>
<event>
 4    1  0.5025809E-002  0.4000000E+02  0.7546771E-02  0.1348030E+00
         11   -1    0    0    0    0  0.00000000000E+00  0.00000000000E+00  0.20000000000E+02  0.20000000000E+02  0.00000000000E+00 0. -1.
        -11   -1    0    0    0    0 -0.00000000000E+00 -0.00000000000E+00 -0.20000000000E+02  0.20000000000E+02  0.00000000000E+00 0.  1.
          5    1    1    2  501    0 -0.15512044856E+02 -0.11547077168E+02 -0.19878312989E+01  0.20000000000E+02  0.47000000000E+01 0. -1.
         -5    1    1    2    0  501  0.15512044856E+02  0.11547077168E+02  0.19878312989E+01  0.20000000000E+02  0.47000000000E+01 0.  1.
</event>
<event>
 4    1  0.5025809E-002  0.4000000E+02  0.7546771E-02  0.1348030E+00
         11   -1    0    0    0    0  0.00000000000E+00  0.00000000000E+00  0.20000000000E+02  0.20000000000E+02  0.00000000000E+00 0.  1.
        -11   -1    0    0    0    0 -0.00000000000E+00 -0.00000000000E+00 -0.20000000000E+02  0.20000000000E+02  0.00000000000E+00 0. -1.
          5    1    1    2  501    0 -0.86602794361E+01 -0.11117261141E+02  0.13390894847E+02  0.20000000000E+02  0.47000000000E+01 0.  1.
         -5    1    1    2    0  501  0.86602794361E+01  0.11117261141E+02 -0.13390894847E+02  0.20000000000E+02  0.47000000000E+01 0. -1.
</event>
<event>
 4    1  0.5025809E-002  0.4000000E+02  0.7546771E-02  0.1348030E+00
         11   -1    0    0    0    0  0.00000000000E+00  0.00000000000E+00  0.20000000000E+02  0.20000000000E+02  0.00000000000E+00 0.  1.
        -11   -1    0    0    0    0 -0.00000000000E+00 -0.00000000000E+00 -0.20000000000E+02  0.20000000000E+02  0.00000000000E+00 0. -1.
          5    1    1    2  501    0  0.29701327350E+01  0.19084308813E+02 -0.22084991885E+01  0.20000000000E+02  0.47000000000E+01 0. -1.
         -5    1    1    2    0  501 -0.29701327350E+01 -0.19084308813E+02  0.22084991885E+01  0.20000000000E+02  0.47000000000E+01 0.  1.
</event>
<event>
 4    1  0.5025809E-002  0.4000000E+02  0.7546771E-02  0.1348030E+00
         11   -1    0    0    0    0  0.00000000000E+00  0.00000000000E+00  0.20000000000E+02  0.20000000000E+02  0.00000000000E+00 0.  1.
        -11   -1    0    0    0    0 -0.00000000000E+00 -0.00000000000E+00 -0.20000000000E+02  0.20000000000E+02  0.00000000000E+00 0. -1.
          5    1    1    2  501    0  0.26512616005E+00  0.10066256511E+02 -0.16628595490E+02  0.20000000000E+02  0.47000000000E+01 0. -1.
         -5    1    1    2    0  501 -0.26512616005E+00 -0.10066256511E+02  0.16628595490E+02  0.20000000000E+02  0.47000000000E+01 0.  1.
</event>
<event>
 4    1  0.5025809E-002  0.4000000E+02  0.7546771E-02  0.1348030E+00
         11   -1    0    0    0    0  0.00000000000E+00  0.00000000000E+00  0.20000000000E+02  0.20000000000E+02  0.00000000000E+00 0. -1.
        -11   -1    0    0    0    0 -0.00000000000E+00 -0.00000000000E+00 -0.20000000000E+02  0.20000000000E+02  0.00000000000E+00 0.  1.
          5    1    1    2  501    0  0.78806988879E+00  0.56658945275E+01 -0.18579197643E+02  0.20000000000E+02  0.47000000000E+01 0.  1.
         -5    1    1    2    0  501 -0.78806988879E+00 -0.56658945275E+01  0.18579197643E+02  0.20000000000E+02  0.47000000000E+01 0. -1.
</event>
<event>
 4    1  0.5025809E-002  0.4000000E+02  0.7546771E-02  0.1348030E+00
         11   -1    0    0    0    0  0.00000000000E+00  0.00000000000E+00  0.20000000000E+02  0.20000000000E+02  0.00000000000E+00 0.  1.
        -11   -1    0    0    0    0 -0.00000000000E+00 -0.00000000000E+00 -0.20000000000E+02  0.20000000000E+02  0.00000000000E+00 0. -1.
          5    1    1    2  501    0 -0.17861455424E+02 -0.56857386940E+01 -0.51527454467E+01  0.20000000000E+02  0.47000000000E+01 0. -1.
         -5    1    1    2    0  501  0.17861455424E+02  0.56857386940E+01  0.51527454467E+01  0.20000000000E+02  0.47000000000E+01 0.  1.
</event>
<event>
 4    1  0.5025809E-002  0.4000000E+02  0.7546771E-02  0.1348030E+00
         11   -1    0    0    0    0  0.00000000000E+00  0.00000000000E+00  0.20000000000E+02  0.20000000000E+02  0.00000000000E+00 0. -1.
        -11   -1    0    0    0    0 -0.00000000000E+00 -0.00000000000E+00 -0.20000000000E+02  0.20000000000E+02  0.00000000000E+00 0.  1.
          5    1    1    2  501    0  0.19439602959E+02 -0.41925618066E-01  0.10039443284E+00  0.20000000000E+02  0.47000000000E+01 0.  1.
         -5    1    1    2    0  501 -0.19439602959E+02  0.41925618066E-01 -0.10039443284E+00  0.20000000000E+02  0.47000000000E+01 0. -1.
</event>
<event>
 4    1  0.5025809E-002  0.4000000E+02  0.7546771E-02  0.1348030E+00
         11   -1    0    0    0    0  0.00000000000E+00  0.00000000000E+00  0.20000000000E+02  0.20000000000E+02  0.00000000000E+00 0. -1.
        -11   -1    0    0    0    0 -0.00000000000E+00 -0.00000000000E+00 -0.20000000000E+02  0.20000000000E+02  0.00000000000E+00 0.  1.
          5    1    1    2  501    0  0.11575323006E+02 -0.10254942322E+02 -0.11779560912E+02  0.20000000000E+02  0.47000000000E+01 0.  1.
         -5    1    1    2    0  501 -0.11575323006E+02  0.10254942322E+02  0.11779560912E+02  0.20000000000E+02  0.47000000000E+01 0. -1.
</event>
<event>
 4    1  0.5025809E-002  0.4000000E+02  0.7546771E-02  0.1348030E+00
         11   -1    0    0    0    0  0.00000000000E+00  0.00000000000E+00  0.20000000000E+02  0.20000000000E+02  0.00000000000E+00 0. -1.
        -11   -1    0    0    0    0 -0.00000000000E+00 -0.00000000000E+00 -0.20000000000E+02  0.20000000000E+02  0.00000000000E+00 0.  1.
          5    1    1    2  501    0 -0.10072639110E+02 -0.16042400648E+02 -0.43695906918E+01  0.20000000000E+02  0.47000000000E+01 0.  1.
         -5    1    1    2    0  501  0.10072639110E+02  0.16042400648E+02  0.43695906918E+01  0.20000000000E+02  0.47000000000E+01 0. -1.
</event>
<event>
 4    1  0.5025809E-002  0.4000000E+02  0.7546771E-02  0.1348030E+00
         11   -1    0    0    0    0  0.00000000000E+00  0.00000000000E+00  0.20000000000E+02  0.20000000000E+02  0.00000000000E+00 0.  1.
        -11   -1    0    0    0    0 -0.00000000000E+00 -0.00000000000E+00 -0.20000000000E+02  0.20000000000E+02  0.00000000000E+00 0. -1.
          5    1    1    2  501    0  0.69526973866E+01 -0.17101362070E+02  0.60920780028E+01  0.20000000000E+02  0.47000000000E+01 0. -1.
         -5    1    1    2    0  501 -0.69526973866E+01  0.17101362070E+02 -0.60920780028E+01  0.20000000000E+02  0.47000000000E+01 0.  1.
</event>
<event>
 4    1  0.5025809E-002  0.4000000E+02  0.7546771E-02  0.1348030E+00
         11   -1    0    0    0    0  0.00000000000E+00  0.00000000000E+00  0.20000000000E+02  0.20000000000E+02  0.00000000000E+00 0. -1.
        -11   -1    0    0    0    0 -0.00000000000E+00 -0.00000000000E+00 -0.20000000000E+02  0.20000000000E+02  0.00000000000E+00 0.  1.
          5    1    1    2  501    0  0.18725140299E+02  0.43932999380E-02 -0.52229399263E+01  0.20000000000E+02  0.47000000000E+01 0.  1.
         -5    1    1    2    0  501 -0.18725140299E+02 -0.43932999380E-02  0.52229399263E+01  0.20000000000E+02  0.47000000000E+01 0. -1.
</event>
<event>
 4    1  0.5025809E-002  0.4000000E+02  0.7546771E-02  0.1348030E+00
         11   -1    0    0    0    0  0.00000000000E+00  0.00000000000E+00  0.20000000000E+02  0.20000000000E+02  0.00000000000E+00 0. -1.
        -11   -1    0    0    0    0 -0.00000000000E+00 -0.00000000000E+00 -0.20000000000E+02  0.20000000000E+02  0.00000000000E+00 0.  1.
          5    1    1    2  501    0 -0.57728030417E+01 -0.16931156913E+02 -0.76105630944E+01  0.20000000000E+02  0.47000000000E+01 0.  1.
         -5    1    1    2    0  501  0.57728030417E+01  0.16931156913E+02  0.76105630944E+01  0.20000000000E+02  0.47000000000E+01 0. -1.
</event>
<event>
 4    1  0.5025809E-002  0.4000000E+02  0.7546771E-02  0.1348030E+00
         11   -1    0    0    0    0  0.00000000000E+00  0.00000000000E+00  0.20000000000E+02  0.20000000000E+02  0.00000000000E+00 0.  1.
        -11   -1    0    0    0    0 -0.00000000000E+00 -0.00000000000E+00 -0.20000000000E+02  0.20000000000E+02  0.00000000000E+00 0. -1.
          5    1    1    2  501    0  0.90609842824E-01 -0.88616052427E+01 -0.17302420131E+02  0.20000000000E+02  0.47000000000E+01 0. -1.
         -5    1    1    2    0  501 -0.90609842824E-01  0.88616052427E+01  0.17302420131E+02  0.20000000000E+02  0.47000000000E+01 0.  1.
</event>
<event>
 4    1  0.5025809E-002  0.4000000E+02  0.7546771E-02  0.1348030E+00
         11   -1    0    0    0    0  0.00000000000E+00  0.00000000000E+00  0.20000000000E+02  0.20000000000E+02  0.00000000000E+00 0. -1.
        -11   -1    0    0    0    0 -0.00000000000E+00 -0.00000000000E+00 -0.20000000000E+02  0.20000000000E+02  0.00000000000E+00 0.  1.
          5    1    1    2  501    0  0.12595539032E+01  0.13033319925E+02 -0.14368580156E+02  0.20000000000E+02  0.47000000000E+01 0.  1.
         -5    1    1    2    0  501 -0.12595539032E+01 -0.13033319925E+02  0.14368580156E+02  0.20000000000E+02  0.47000000000E+01 0. -1.
</event>
<event>
 4    1  0.5025809E-002  0.4000000E+02  0.7546771E-02  0.1348030E+00
         11   -1    0    0    0    0  0.00000000000E+00  0.00000000000E+00  0.20000000000E+02  0.20000000000E+02  0.00000000000E+00 0.  1.
        -11   -1    0    0    0    0 -0.00000000000E+00 -0.00000000000E+00 -0.20000000000E+02  0.20000000000E+02  0.00000000000E+00 0. -1.
          5    1    1    2  501    0  0.20082742078E+01  0.10963231330E+02 -0.15927472917E+02  0.20000000000E+02  0.47000000000E+01 0. -1.
         -5    1    1    2    0  501 -0.20082742078E+01 -0.10963231330E+02  0.15927472917E+02  0.20000000000E+02  0.47000000000E+01 0.  1.
</event>
<event>
 4    1  0.5025809E-002  0.4000000E+02  0.7546771E-02  0.1348030E+00
         11   -1    0    0    0    0  0.00000000000E+00  0.00000000000E+00  0.20000000000E+02  0.20000000000E+02  0.00000000000E+00 0.  1.
        -11   -1    0    0    0    0 -0.00000000000E+00 -0.00000000000E+00 -0.20000000000E+02  0.20000000000E+02  0.00000000000E+00 0. -1.
          5    1    1    2  501    0  0.47801615262E+01  0.40127903655E+01 -0.18410800343E+02  0.20000000000E+02  0.47000000000E+01 0. -1.
         -5    1    1    2    0  501 -0.47801615262E+01 -0.40127903655E+01  0.18410800343E+02  0.20000000000E+02  0.47000000000E+01 0.  1.
</event>
<event>
 4    1  0.5025809E-002  0.4000000E+02  0.7546771E-02  0.1348030E+00
         11   -1    0    0    0    0  0.00000000000E+00  0.00000000000E+00  0.20000000000E+02  0.20000000000E+02  0.00000000000E+00 0.  1.
        -11   -1    0    0    0    0 -0.00000000000E+00 -0.00000000000E+00 -0.20000000000E+02  0.20000000000E+02  0.00000000000E+00 0. -1.
          5    1    1    2  501    0 -0.10390778785E+02 -0.16208575957E+02  0.26877093742E+01  0.20000000000E+02  0.47000000000E+01 0. -1.
         -5    1    1    2    0  501  0.10390778785E+02  0.16208575957E+02 -0.26877093742E+01  0.20000000000E+02  0.47000000000E+01 0.  1.
</event>
<event>
 4    1  0.5025809E-002  0.4000000E+02  0.7546771E-02  0.1348030E+00
         11   -1    0    0    0    0  0.00000000000E+00  0.00000000000E+00  0.20000000000E+02  0.20000000000E+02  0.00000000000E+00 0. -1.
        -11   -1    0    0    0    0 -0.00000000000E+00 -0.00000000000E+00 -0.20000000000E+02  0.20000000000E+02  0.00000000000E+00 0.  1.
          5    1    1    2  501    0  0.51409165462E+01  0.10484073197E+02 -0.15542367460E+02  0.20000000000E+02  0.47000000000E+01 0.  1.
         -5    1    1    2    0  501 -0.51409165462E+01 -0.10484073197E+02  0.15542367460E+02  0.20000000000E+02  0.47000000000E+01 0. -1.
</event>
<event>
 4    1  0.5025809E-002  0.4000000E+02  0.7546771E-02  0.1348030E+00
         11   -1    0    0    0    0  0.00000000000E+00  0.00000000000E+00  0.20000000000E+02  0.20000000000E+02  0.00000000000E+00 0.  1.
        -11   -1    0    0    0    0 -0.00000000000E+00 -0.00000000000E+00 -0.20000000000E+02  0.20000000000E+02  0.00000000000E+00 0. -1.
          5    1    1    2  501    0  0.58573113064E+01  0.14843335552E+02 -0.11103030845E+02  0.20000000000E+02  0.47000000000E+01 0. -1.
         -5    1    1    2    0  501 -0.58573113064E+01 -0.14843335552E+02  0.11103030845E+02  0.20000000000E+02  0.47000000000E+01 0.  1.
</event>
<event>
 4    1  0.5025809E-002  0.4000000E+02  0.7546771E-02  0.1348030E+00
         11   -1    0    0    0    0  0.00000000000E+00  0.00000000000E+00  0.20000000000E+02  0.20000000000E+02  0.00000000000E+00 0. -1.
        -11   -1    0    0    0    0 -0.00000000000E+00 -0.00000000000E+00 -0.20000000000E+02  0.20000000000E+02  0.00000000000E+00 0.  1.
          5    1    1    2  501    0 -0.18806492376E+02  0.37350889943E+01 -0.32054570222E+01  0.20000000000E+02  0.47000000000E+01 0.  1.
         -5    1    1    2    0  501  0.18806492376E+02 -0.37350889943E+01  0.32054570222E+01  0.20000000000E+02  0.47000000000E+01 0. -1.
</event>
<event>
 4    1  0.5025809E-002  0.4000000E+02  0.7546771E-02  0.1348030E+00
         11   -1    0    0    0    0  0.00000000000E+00  0.00000000000E+00  0.20000000000E+02  0.20000000000E+02  0.00000000000E+00 0.  1.
        -11   -1    0    0    0    0 -0.00000000000E+00 -0.00000000000E+00 -0.20000000000E+02  0.20000000000E+02  0.00000000000E+00 0. -1.
          5    1    1    2  501    0 -0.14578403349E+02  0.79952069605E+01  0.10072577697E+02  0.20000000000E+02  0.47000000000E+01 0. -1.
         -5    1    1    2    0  501  0.14578403349E+02 -0.79952069605E+01 -0.10072577697E+02  0.20000000000E+02  0.47000000000E+01 0.  1.
</event>
<event>
 4    1  0.5025809E-002  0.4000000E+02  0.7546771E-02  0.1348030E+00
         11   -1    0    0    0    0  0.00000000000E+00  0.00000000000E+00  0.20000000000E+02  0.20000000000E+02  0.00000000000E+00 0.  1.
        -11   -1    0    0    0    0 -0.00000000000E+00 -0.00000000000E+00 -0.20000000000E+02  0.20000000000E+02  0.00000000000E+00 0. -1.
          5    1    1    2  501    0 -0.25372518518E+01  0.18642809365E+02  0.48906044654E+01  0.20000000000E+02  0.47000000000E+01 0. -1.
         -5    1    1    2    0  501  0.25372518518E+01 -0.18642809365E+02 -0.48906044654E+01  0.20000000000E+02  0.47000000000E+01 0.  1.
</event>
<event>
 4    1  0.5025809E-002  0.4000000E+02  0.7546771E-02  0.1348030E+00
         11   -1    0    0    0    0  0.00000000000E+00  0.00000000000E+00  0.20000000000E+02  0.20000000000E+02  0.00000000000E+00 0. -1.
        -11   -1    0    0    0    0 -0.00000000000E+00 -0.00000000000E+00 -0.20000000000E+02  0.20000000000E+02  0.00000000000E+00 0.  1.
          5    1    1    2  501    0  0.69125177437E+01  0.13202359596E+02 -0.12482980395E+02  0.20000000000E+02  0.47000000000E+01 0.  1.
         -5    1    1    2    0  501 -0.69125177437E+01 -0.13202359596E+02  0.12482980395E+02  0.20000000000E+02  0.47000000000E+01 0. -1.
</event>
<event>
 4    1  0.5025809E-002  0.4000000E+02  0.7546771E-02  0.1348030E+00
         11   -1    0    0    0    0  0.00000000000E+00  0.00000000000E+00  0.20000000000E+02  0.20000000000E+02  0.00000000000E+00 0.  1.
        -11   -1    0    0    0    0 -0.00000000000E+00 -0.00000000000E+00 -0.20000000000E+02  0.20000000000E+02  0.00000000000E+00 0. -1.
          5    1    1    2  501    0  0.51924109940E+01  0.29790583055E+01  0.18495244786E+02  0.20000000000E+02  0.47000000000E+01 0.  1.
         -5    1    1    2    0  501 -0.51924109940E+01 -0.29790583055E+01 -0.18495244786E+02  0.20000000000E+02  0.47000000000E+01 0. -1.
</event>
<event>
 4    1  0.5025809E-002  0.4000000E+02  0.7546771E-02  0.1348030E+00
         11   -1    0    0    0    0  0.00000000000E+00  0.00000000000E+00  0.20000000000E+02  0.20000000000E+02  0.00000000000E+00 0.  1.
        -11   -1    0    0    0    0 -0.00000000000E+00 -0.00000000000E+00 -0.20000000000E+02  0.20000000000E+02  0.00000000000E+00 0. -1.
          5    1    1    2  501    0 -0.90047682889E+01  0.17001343422E+02 -0.27889908383E+01  0.20000000000E+02  0.47000000000E+01 0. -1.
         -5    1    1    2    0  501  0.90047682889E+01 -0.17001343422E+02  0.27889908383E+01  0.20000000000E+02  0.47000000000E+01 0.  1.
</event>
<event>
 4    1  0.5025809E-002  0.4000000E+02  0.7546771E-02  0.1348030E+00
         11   -1    0    0    0    0  0.00000000000E+00  0.00000000000E+00  0.20000000000E+02  0.20000000000E+02  0.00000000000E+00 0.  1.
        -11   -1    0    0    0    0 -0.00000000000E+00 -0.00000000000E+00 -0.20000000000E+02  0.20000000000E+02  0.00000000000E+00 0. -1.
          5    1    1    2  501    0 -0.11188904809E+02 -0.55155025920E+01 -0.14909649236E+02  0.20000000000E+02  0.47000000000E+01 0. -1.
         -5    1    1    2    0  501  0.11188904809E+02  0.55155025920E+01  0.14909649236E+02  0.20000000000E+02  0.47000000000E+01 0.  1.
</event>
<event>
 4    1  0.5025809E-002  0.4000000E+02  0.7546771E-02  0.1348030E+00
         11   -1    0    0    0    0  0.00000000000E+00  0.00000000000E+00  0.20000000000E+02  0.20000000000E+02  0.00000000000E+00 0.  1.
        -11   -1    0    0    0    0 -0.00000000000E+00 -0.00000000000E+00 -0.20000000000E+02  0.20000000000E+02  0.00000000000E+00 0. -1.
          5    1    1    2  501    0  0.72437553456E+01 -0.17983108129E+02  0.14303253120E+01  0.20000000000E+02  0.47000000000E+01 0. -1.
         -5    1    1    2    0  501 -0.72437553456E+01  0.17983108129E+02 -0.14303253120E+01  0.20000000000E+02  0.47000000000E+01 0.  1.
</event>
<event>
 4    1  0.5025809E-002  0.4000000E+02  0.7546771E-02  0.1348030E+00
         11   -1    0    0    0    0  0.00000000000E+00  0.00000000000E+00  0.20000000000E+02  0.20000000000E+02  0.00000000000E+00 0.  1.
        -11   -1    0    0    0    0 -0.00000000000E+00 -0.00000000000E+00 -0.20000000000E+02  0.20000000000E+02  0.00000000000E+00 0. -1.
          5    1    1    2  501    0 -0.72595843281E+01 -0.12320099299E+02 -0.13169039018E+02  0.20000000000E+02  0.47000000000E+01 0. -1.
         -5    1    1    2    0  501  0.72595843281E+01  0.12320099299E+02  0.13169039018E+02  0.20000000000E+02  0.47000000000E+01 0.  1.
</event>
<event>
 4    1  0.5025809E-002  0.4000000E+02  0.7546771E-02  0.1348030E+00
         11   -1    0    0    0    0  0.00000000000E+00  0.00000000000E+00  0.20000000000E+02  0.20000000000E+02  0.00000000000E+00 0.  1.
        -11   -1    0    0    0    0 -0.00000000000E+00 -0.00000000000E+00 -0.20000000000E+02  0.20000000000E+02  0.00000000000E+00 0. -1.
          5    1    1    2  501    0 -0.51212831967E+01  0.95572621470E+01 -0.16135092150E+02  0.20000000000E+02  0.47000000000E+01 0. -1.
         -5    1    1    2    0  501  0.51212831967E+01 -0.95572621470E+01  0.16135092150E+02  0.20000000000E+02  0.47000000000E+01 0.  1.
</event>
<event>
 4    1  0.5025809E-002  0.4000000E+02  0.7546771E-02  0.1348030E+00
         11   -1    0    0    0    0  0.00000000000E+00  0.00000000000E+00  0.20000000000E+02  0.20000000000E+02  0.00000000000E+00 0.  1.
        -11   -1    0    0    0    0 -0.00000000000E+00 -0.00000000000E+00 -0.20000000000E+02  0.20000000000E+02  0.00000000000E+00 0. -1.
          5    1    1    2  501    0 -0.11263117623E+02  0.20825652484E+01 -0.15707167262E+02  0.20000000000E+02  0.47000000000E+01 0. -1.
         -5    1    1    2    0  501  0.11263117623E+02 -0.20825652484E+01  0.15707167262E+02  0.20000000000E+02  0.47000000000E+01 0.  1.
</event>
<event>
 4    1  0.5025809E-002  0.4000000E+02  0.7546771E-02  0.1348030E+00
         11   -1    0    0    0    0  0.00000000000E+00  0.00000000000E+00  0.20000000000E+02  0.20000000000E+02  0.00000000000E+00 0.  1.
        -11   -1    0    0    0    0 -0.00000000000E+00 -0.00000000000E+00 -0.20000000000E+02  0.20000000000E+02  0.00000000000E+00 0. -1.
          5    1    1    2  501    0  0.21198039877E+01  0.16658340812E+02  0.97936771667E+01  0.20000000000E+02  0.47000000000E+01 0. -1.
         -5    1    1    2    0  501 -0.21198039877E+01 -0.16658340812E+02 -0.97936771667E+01  0.20000000000E+02  0.47000000000E+01 0.  1.
</event>
<event>
 4    1  0.5025809E-002  0.4000000E+02  0.7546771E-02  0.1348030E+00
         11   -1    0    0    0    0  0.00000000000E+00  0.00000000000E+00  0.20000000000E+02  0.20000000000E+02  0.00000000000E+00 0.  1.
        -11   -1    0    0    0    0 -0.00000000000E+00 -0.00000000000E+00 -0.20000000000E+02  0.20000000000E+02  0.00000000000E+00 0. -1.
          5    1    1    2  501    0  0.82600574163E+01 -0.64043471919E+01 -0.16391027684E+02  0.20000000000E+02  0.47000000000E+01 0. -1.
         -5    1    1    2    0  501 -0.82600574163E+01  0.64043471919E+01  0.16391027684E+02  0.20000000000E+02  0.47000000000E+01 0.  1.
</event>
<event>
 4    1  0.5025809E-002  0.4000000E+02  0.7546771E-02  0.1348030E+00
         11   -1    0    0    0    0  0.00000000000E+00  0.00000000000E+00  0.20000000000E+02  0.20000000000E+02  0.00000000000E+00 0.  1.
        -11   -1    0    0    0    0 -0.00000000000E+00 -0.00000000000E+00 -0.20000000000E+02  0.20000000000E+02  0.00000000000E+00 0. -1.
          5    1    1    2  501    0 -0.86404219308E+01 -0.17340566817E+02  0.15993283952E+01  0.20000000000E+02  0.47000000000E+01 0. -1.
         -5    1    1    2    0  501  0.86404219308E+01  0.17340566817E+02 -0.15993283952E+01  0.20000000000E+02  0.47000000000E+01 0.  1.
</event>
<event>
 4    1  0.5025809E-002  0.4000000E+02  0.7546771E-02  0.1348030E+00
         11   -1    0    0    0    0  0.00000000000E+00  0.00000000000E+00  0.20000000000E+02  0.20000000000E+02  0.00000000000E+00 0. -1.
        -11   -1    0    0    0    0 -0.00000000000E+00 -0.00000000000E+00 -0.20000000000E+02  0.20000000000E+02  0.00000000000E+00 0.  1.
          5    1    1    2  501    0 -0.10977434238E+02 -0.17737152366E+01  0.15945528270E+02  0.20000000000E+02  0.47000000000E+01 0. -1.
         -5    1    1    2    0  501  0.10977434238E+02  0.17737152366E+01 -0.15945528270E+02  0.20000000000E+02  0.47000000000E+01 0.  1.
</event>
<event>
 4    1  0.5025809E-002  0.4000000E+02  0.7546771E-02  0.1348030E+00
         11   -1    0    0    0    0  0.00000000000E+00  0.00000000000E+00  0.20000000000E+02  0.20000000000E+02  0.00000000000E+00 0.  1.
        -11   -1    0    0    0    0 -0.00000000000E+00 -0.00000000000E+00 -0.20000000000E+02  0.20000000000E+02  0.00000000000E+00 0. -1.
          5    1    1    2  501    0  0.41373381979E+00  0.11617944994E+02 -0.15580827271E+02  0.20000000000E+02  0.47000000000E+01 0.  1.
         -5    1    1    2    0  501 -0.41373381979E+00 -0.11617944994E+02  0.15580827271E+02  0.20000000000E+02  0.47000000000E+01 0.  1.
</event>
<event>
 4    1  0.5025809E-002  0.4000000E+02  0.7546771E-02  0.1348030E+00
         11   -1    0    0    0    0  0.00000000000E+00  0.00000000000E+00  0.20000000000E+02  0.20000000000E+02  0.00000000000E+00 0.  1.
        -11   -1    0    0    0    0 -0.00000000000E+00 -0.00000000000E+00 -0.20000000000E+02  0.20000000000E+02  0.00000000000E+00 0. -1.
          5    1    1    2  501    0 -0.92664930781E+01  0.15368984448E+02  0.74723773374E+01  0.20000000000E+02  0.47000000000E+01 0.  1.
         -5    1    1    2    0  501  0.92664930781E+01 -0.15368984448E+02 -0.74723773374E+01  0.20000000000E+02  0.47000000000E+01 0. -1.
</event>
<event>
 4    1  0.5025809E-002  0.4000000E+02  0.7546771E-02  0.1348030E+00
         11   -1    0    0    0    0  0.00000000000E+00  0.00000000000E+00  0.20000000000E+02  0.20000000000E+02  0.00000000000E+00 0.  1.
        -11   -1    0    0    0    0 -0.00000000000E+00 -0.00000000000E+00 -0.20000000000E+02  0.20000000000E+02  0.00000000000E+00 0. -1.
          5    1    1    2  501    0 -0.68809377184E+01 -0.40821925667E+01 -0.17717178104E+02  0.20000000000E+02  0.47000000000E+01 0. -1.
         -5    1    1    2    0  501  0.68809377184E+01  0.40821925667E+01  0.17717178104E+02  0.20000000000E+02  0.47000000000E+01 0.  1.
</event>
<event>
 4    1  0.5025809E-002  0.4000000E+02  0.7546771E-02  0.1348030E+00
         11   -1    0    0    0    0  0.00000000000E+00  0.00000000000E+00  0.20000000000E+02  0.20000000000E+02  0.00000000000E+00 0. -1.
        -11   -1    0    0    0    0 -0.00000000000E+00 -0.00000000000E+00 -0.20000000000E+02  0.20000000000E+02  0.00000000000E+00 0.  1.
          5    1    1    2  501    0  0.18835790362E+02 -0.26996624954E+01 -0.39792994183E+01  0.20000000000E+02  0.47000000000E+01 0.  1.
         -5    1    1    2    0  501 -0.18835790362E+02  0.26996624954E+01  0.39792994183E+01  0.20000000000E+02  0.47000000000E+01 0. -1.
</event>
<event>
 4    1  0.5025809E-002  0.4000000E+02  0.7546771E-02  0.1348030E+00
         11   -1    0    0    0    0  0.00000000000E+00  0.00000000000E+00  0.20000000000E+02  0.20000000000E+02  0.00000000000E+00 0.  1.
        -11   -1    0    0    0    0 -0.00000000000E+00 -0.00000000000E+00 -0.20000000000E+02  0.20000000000E+02  0.00000000000E+00 0. -1.
          5    1    1    2  501    0 -0.50754378348E+01 -0.57213240301E+01 -0.17872223760E+02  0.20000000000E+02  0.47000000000E+01 0. -1.
         -5    1    1    2    0  501  0.50754378348E+01  0.57213240301E+01  0.17872223760E+02  0.20000000000E+02  0.47000000000E+01 0.  1.
</event>
<event>
 4    1  0.5025809E-002  0.4000000E+02  0.7546771E-02  0.1348030E+00
         11   -1    0    0    0    0  0.00000000000E+00  0.00000000000E+00  0.20000000000E+02  0.20000000000E+02  0.00000000000E+00 0.  1.
        -11   -1    0    0    0    0 -0.00000000000E+00 -0.00000000000E+00 -0.20000000000E+02  0.20000000000E+02  0.00000000000E+00 0. -1.
          5    1    1    2  501    0  0.14956882509E+02  0.43050629677E+01 -0.11647664936E+02  0.20000000000E+02  0.47000000000E+01 0. -1.
         -5    1    1    2    0  501 -0.14956882509E+02 -0.43050629677E+01  0.11647664936E+02  0.20000000000E+02  0.47000000000E+01 0.  1.
</event>
<event>
 4    1  0.5025809E-002  0.4000000E+02  0.7546771E-02  0.1348030E+00
         11   -1    0    0    0    0  0.00000000000E+00  0.00000000000E+00  0.20000000000E+02  0.20000000000E+02  0.00000000000E+00 0.  1.
        -11   -1    0    0    0    0 -0.00000000000E+00 -0.00000000000E+00 -0.20000000000E+02  0.20000000000E+02  0.00000000000E+00 0. -1.
          5    1    1    2  501    0  0.14748504766E+02 -0.18578256391E+01 -0.12527573231E+02  0.20000000000E+02  0.47000000000E+01 0. -1.
         -5    1    1    2    0  501 -0.14748504766E+02  0.18578256391E+01  0.12527573231E+02  0.20000000000E+02  0.47000000000E+01 0.  1.
</event>
<event>
 4    1  0.5025809E-002  0.4000000E+02  0.7546771E-02  0.1348030E+00
         11   -1    0    0    0    0  0.00000000000E+00  0.00000000000E+00  0.20000000000E+02  0.20000000000E+02  0.00000000000E+00 0. -1.
        -11   -1    0    0    0    0 -0.00000000000E+00 -0.00000000000E+00 -0.20000000000E+02  0.20000000000E+02  0.00000000000E+00 0.  1.
          5    1    1    2  501    0 -0.16530847284E+02  0.79691028752E+01 -0.64136173444E+01  0.20000000000E+02  0.47000000000E+01 0. -1.
         -5    1    1    2    0  501  0.16530847284E+02 -0.79691028752E+01  0.64136173444E+01  0.20000000000E+02  0.47000000000E+01 0.  1.
</event>
<event>
 4    1  0.5025809E-002  0.4000000E+02  0.7546771E-02  0.1348030E+00
         11   -1    0    0    0    0  0.00000000000E+00  0.00000000000E+00  0.20000000000E+02  0.20000000000E+02  0.00000000000E+00 0.  1.
        -11   -1    0    0    0    0 -0.00000000000E+00 -0.00000000000E+00 -0.20000000000E+02  0.20000000000E+02  0.00000000000E+00 0. -1.
          5    1    1    2  501    0  0.37748204148E+01  0.12866886434E+02 -0.14074941006E+02  0.20000000000E+02  0.47000000000E+01 0. -1.
         -5    1    1    2    0  501 -0.37748204148E+01 -0.12866886434E+02  0.14074941006E+02  0.20000000000E+02  0.47000000000E+01 0.  1.
</event>
<event>
 4    1  0.5025809E-002  0.4000000E+02  0.7546771E-02  0.1348030E+00
         11   -1    0    0    0    0  0.00000000000E+00  0.00000000000E+00  0.20000000000E+02  0.20000000000E+02  0.00000000000E+00 0.  1.
        -11   -1    0    0    0    0 -0.00000000000E+00 -0.00000000000E+00 -0.20000000000E+02  0.20000000000E+02  0.00000000000E+00 0. -1.
          5    1    1    2  501    0 -0.12468770140E+02  0.21936656638E+01 -0.14752206688E+02  0.20000000000E+02  0.47000000000E+01 0. -1.
         -5    1    1    2    0  501  0.12468770140E+02 -0.21936656638E+01  0.14752206688E+02  0.20000000000E+02  0.47000000000E+01 0.  1.
</event>
<event>
 4    1  0.5025809E-002  0.4000000E+02  0.7546771E-02  0.1348030E+00
         11   -1    0    0    0    0  0.00000000000E+00  0.00000000000E+00  0.20000000000E+02  0.20000000000E+02  0.00000000000E+00 0. -1.
        -11   -1    0    0    0    0 -0.00000000000E+00 -0.00000000000E+00 -0.20000000000E+02  0.20000000000E+02  0.00000000000E+00 0.  1.
          5    1    1    2  501    0 -0.16298511918E+02  0.10193553902E+02 -0.28913609433E+01  0.20000000000E+02  0.47000000000E+01 0.  1.
         -5    1    1    2    0  501  0.16298511918E+02 -0.10193553902E+02  0.28913609433E+01  0.20000000000E+02  0.47000000000E+01 0. -1.
</event>
<event>
 4    1  0.5025809E-002  0.4000000E+02  0.7546771E-02  0.1348030E+00
         11   -1    0    0    0    0  0.00000000000E+00  0.00000000000E+00  0.20000000000E+02  0.20000000000E+02  0.00000000000E+00 0.  1.
        -11   -1    0    0    0    0 -0.00000000000E+00 -0.00000000000E+00 -0.20000000000E+02  0.20000000000E+02  0.00000000000E+00 0. -1.
          5    1    1    2  501    0 -0.12190859339E+02  0.10697219773E+02 -0.10717389501E+02  0.20000000000E+02  0.47000000000E+01 0. -1.
         -5    1    1    2    0  501  0.12190859339E+02 -0.10697219773E+02  0.10717389501E+02  0.20000000000E+02  0.47000000000E+01 0.  1.
</event>
<event>
 4    1  0.5025809E-002  0.4000000E+02  0.7546771E-02  0.1348030E+00
         11   -1    0    0    0    0  0.00000000000E+00  0.00000000000E+00  0.20000000000E+02  0.20000000000E+02  0.00000000000E+00 0.  1.
        -11   -1    0    0    0    0 -0.00000000000E+00 -0.00000000000E+00 -0.20000000000E+02  0.20000000000E+02  0.00000000000E+00 0. -1.
          5    1    1    2  501    0  0.15870348594E+02 -0.29632762286E+01 -0.10828713197E+02  0.20000000000E+02  0.47000000000E+01 0. -1.
         -5    1    1    2    0  501 -0.15870348594E+02  0.29632762286E+01  0.10828713197E+02  0.20000000000E+02  0.47000000000E+01 0.  1.
</event>
<event>
 4    1  0.5025809E-002  0.4000000E+02  0.7546771E-02  0.1348030E+00
         11   -1    0    0    0    0  0.00000000000E+00  0.00000000000E+00  0.20000000000E+02  0.20000000000E+02  0.00000000000E+00 0.  1.
        -11   -1    0    0    0    0 -0.00000000000E+00 -0.00000000000E+00 -0.20000000000E+02  0.20000000000E+02  0.00000000000E+00 0. -1.
          5    1    1    2  501    0 -0.82303135722E+01 -0.13530395885E+02  0.11273878024E+02  0.20000000000E+02  0.47000000000E+01 0.  1.
         -5    1    1    2    0  501  0.82303135722E+01  0.13530395885E+02 -0.11273878024E+02  0.20000000000E+02  0.47000000000E+01 0. -1.
</event>
<event>
 4    1  0.5025809E-002  0.4000000E+02  0.7546771E-02  0.1348030E+00
         11   -1    0    0    0    0  0.00000000000E+00  0.00000000000E+00  0.20000000000E+02  0.20000000000E+02  0.00000000000E+00 0. -1.
        -11   -1    0    0    0    0 -0.00000000000E+00 -0.00000000000E+00 -0.20000000000E+02  0.20000000000E+02  0.00000000000E+00 0.  1.
          5    1    1    2  501    0 -0.36332108068E+01 -0.19047908966E+02  0.13736605269E+01  0.20000000000E+02  0.47000000000E+01 0.  1.
         -5    1    1    2    0  501  0.36332108068E+01  0.19047908966E+02 -0.13736605269E+01  0.20000000000E+02  0.47000000000E+01 0. -1.
</event>
<event>
 4    1  0.5025809E-002  0.4000000E+02  0.7546771E-02  0.1348030E+00
         11   -1    0    0    0    0  0.00000000000E+00  0.00000000000E+00  0.20000000000E+02  0.20000000000E+02  0.00000000000E+00 0. -1.
        -11   -1    0    0    0    0 -0.00000000000E+00 -0.00000000000E+00 -0.20000000000E+02  0.20000000000E+02  0.00000000000E+00 0.  1.
          5    1    1    2  501    0  0.53297028580E+01  0.58168042568E+00  0.18685981787E+02  0.20000000000E+02  0.47000000000E+01 0. -1.
         -5    1    1    2    0  501 -0.53297028580E+01 -0.58168042568E+00 -0.18685981787E+02  0.20000000000E+02  0.47000000000E+01 0.  1.
</event>
<event>
 4    1  0.5025809E-002  0.4000000E+02  0.7546771E-02  0.1348030E+00
         11   -1    0    0    0    0  0.00000000000E+00  0.00000000000E+00  0.20000000000E+02  0.20000000000E+02  0.00000000000E+00 0. -1.
        -11   -1    0    0    0    0 -0.00000000000E+00 -0.00000000000E+00 -0.20000000000E+02  0.20000000000E+02  0.00000000000E+00 0.  1.
          5    1    1    2  501    0 -0.92969339180E+01 -0.58178856299E+01 -0.16050832580E+02  0.20000000000E+02  0.47000000000E+01 0.  1.
         -5    1    1    2    0  501  0.92969339180E+01  0.58178856299E+01  0.16050832580E+02  0.20000000000E+02  0.47000000000E+01 0. -1.
</event>
<event>
 4    1  0.5025809E-002  0.4000000E+02  0.7546771E-02  0.1348030E+00
         11   -1    0    0    0    0  0.00000000000E+00  0.00000000000E+00  0.20000000000E+02  0.20000000000E+02  0.00000000000E+00 0. -1.
        -11   -1    0    0    0    0 -0.00000000000E+00 -0.00000000000E+00 -0.20000000000E+02  0.20000000000E+02  0.00000000000E+00 0.  1.
          5    1    1    2  501    0  0.83524037768E+01 -0.15305521402E+02 -0.85958342105E+01  0.20000000000E+02  0.47000000000E+01 0.  1.
         -5    1    1    2    0  501 -0.83524037768E+01  0.15305521402E+02  0.85958342105E+01  0.20000000000E+02  0.47000000000E+01 0. -1.
</event>
<event>
 4    1  0.5025809E-002  0.4000000E+02  0.7546771E-02  0.1348030E+00
         11   -1    0    0    0    0  0.00000000000E+00  0.00000000000E+00  0.20000000000E+02  0.20000000000E+02  0.00000000000E+00 0.  1.
        -11   -1    0    0    0    0 -0.00000000000E+00 -0.00000000000E+00 -0.20000000000E+02  0.20000000000E+02  0.00000000000E+00 0. -1.
          5    1    1    2  501    0 -0.10433967021E+02 -0.89706214621E+01  0.13732089527E+02  0.20000000000E+02  0.47000000000E+01 0.  1.
         -5    1    1    2    0  501  0.10433967021E+02  0.89706214621E+01 -0.13732089527E+02  0.20000000000E+02  0.47000000000E+01 0. -1.
</event>
<event>
 4    1  0.5025809E-002  0.4000000E+02  0.7546771E-02  0.1348030E+00
         11   -1    0    0    0    0  0.00000000000E+00  0.00000000000E+00  0.20000000000E+02  0.20000000000E+02  0.00000000000E+00 0. -1.
        -11   -1    0    0    0    0 -0.00000000000E+00 -0.00000000000E+00 -0.20000000000E+02  0.20000000000E+02  0.00000000000E+00 0.  1.
          5    1    1    2  501    0 -0.12455848414E+01  0.17646014978E+02 -0.80608109898E+01  0.20000000000E+02  0.47000000000E+01 0.  1.
         -5    1    1    2    0  501  0.12455848414E+01 -0.17646014978E+02  0.80608109898E+01  0.20000000000E+02  0.47000000000E+01 0. -1.
</event>
<event>
 4    1  0.5025809E-002  0.4000000E+02  0.7546771E-02  0.1348030E+00
         11   -1    0    0    0    0  0.00000000000E+00  0.00000000000E+00  0.20000000000E+02  0.20000000000E+02  0.00000000000E+00 0.  1.
        -11   -1    0    0    0    0 -0.00000000000E+00 -0.00000000000E+00 -0.20000000000E+02  0.20000000000E+02  0.00000000000E+00 0. -1.
          5    1    1    2  501    0 -0.11443829398E+02 -0.13616861398E+02  0.78440967857E+01  0.20000000000E+02  0.47000000000E+01 0.  1.
         -5    1    1    2    0  501  0.11443829398E+02  0.13616861398E+02 -0.78440967857E+01  0.20000000000E+02  0.47000000000E+01 0. -1.
</event>
<event>
 4    1  0.5025809E-002  0.4000000E+02  0.7546771E-02  0.1348030E+00
         11   -1    0    0    0    0  0.00000000000E+00  0.00000000000E+00  0.20000000000E+02  0.20000000000E+02  0.00000000000E+00 0.  1.
        -11   -1    0    0    0    0 -0.00000000000E+00 -0.00000000000E+00 -0.20000000000E+02  0.20000000000E+02  0.00000000000E+00 0. -1.
          5    1    1    2  501    0  0.18546890070E+02 -0.52768085741E+01 -0.24653924612E+01  0.20000000000E+02  0.47000000000E+01 0. -1.
         -5    1    1    2    0  501 -0.18546890070E+02  0.52768085741E+01  0.24653924612E+01  0.20000000000E+02  0.47000000000E+01 0.  1.
</event>
<event>
 4    1  0.5025809E-002  0.4000000E+02  0.7546771E-02  0.1348030E+00
         11   -1    0    0    0    0  0.00000000000E+00  0.00000000000E+00  0.20000000000E+02  0.20000000000E+02  0.00000000000E+00 0.  1.
        -11   -1    0    0    0    0 -0.00000000000E+00 -0.00000000000E+00 -0.20000000000E+02  0.20000000000E+02  0.00000000000E+00 0. -1.
          5    1    1    2  501    0  0.18406375835E+02 -0.75725395447E+00 -0.62082119059E+01  0.20000000000E+02  0.47000000000E+01 0.  1.
         -5    1    1    2    0  501 -0.18406375835E+02  0.75725395447E+00  0.62082119059E+01  0.20000000000E+02  0.47000000000E+01 0. -1.
</event>
<event>
 4    1  0.5025809E-002  0.4000000E+02  0.7546771E-02  0.1348030E+00
         11   -1    0    0    0    0  0.00000000000E+00  0.00000000000E+00  0.20000000000E+02  0.20000000000E+02  0.00000000000E+00 0.  1.
        -11   -1    0    0    0    0 -0.00000000000E+00 -0.00000000000E+00 -0.20000000000E+02  0.20000000000E+02  0.00000000000E+00 0. -1.
          5    1    1    2  501    0 -0.12352666575E+02 -0.14163318375E+02  0.49721264177E+01  0.20000000000E+02  0.47000000000E+01 0. -1.
         -5    1    1    2    0  501  0.12352666575E+02  0.14163318375E+02 -0.49721264177E+01  0.20000000000E+02  0.47000000000E+01 0. -1.
</event>
<event>
 4    1  0.5025809E-002  0.4000000E+02  0.7546771E-02  0.1348030E+00
         11   -1    0    0    0    0  0.00000000000E+00  0.00000000000E+00  0.20000000000E+02  0.20000000000E+02  0.00000000000E+00 0. -1.
        -11   -1    0    0    0    0 -0.00000000000E+00 -0.00000000000E+00 -0.20000000000E+02  0.20000000000E+02  0.00000000000E+00 0.  1.
          5    1    1    2  501    0 -0.11508848599E+02  0.37939643985E+01 -0.15200731498E+02  0.20000000000E+02  0.47000000000E+01 0.  1.
         -5    1    1    2    0  501  0.11508848599E+02 -0.37939643985E+01  0.15200731498E+02  0.20000000000E+02  0.47000000000E+01 0. -1.
</event>
<event>
 4    1  0.5025809E-002  0.4000000E+02  0.7546771E-02  0.1348030E+00
         11   -1    0    0    0    0  0.00000000000E+00  0.00000000000E+00  0.20000000000E+02  0.20000000000E+02  0.00000000000E+00 0.  1.
        -11   -1    0    0    0    0 -0.00000000000E+00 -0.00000000000E+00 -0.20000000000E+02  0.20000000000E+02  0.00000000000E+00 0. -1.
          5    1    1    2  501    0  0.18438065731E+01 -0.14405558602E+02  0.12922471076E+02  0.20000000000E+02  0.47000000000E+01 0. -1.
         -5    1    1    2    0  501 -0.18438065731E+01  0.14405558602E+02 -0.12922471076E+02  0.20000000000E+02  0.47000000000E+01 0.  1.
</event>
<event>
 4    1  0.5025809E-002  0.4000000E+02  0.7546771E-02  0.1348030E+00
         11   -1    0    0    0    0  0.00000000000E+00  0.00000000000E+00  0.20000000000E+02  0.20000000000E+02  0.00000000000E+00 0.  1.
        -11   -1    0    0    0    0 -0.00000000000E+00 -0.00000000000E+00 -0.20000000000E+02  0.20000000000E+02  0.00000000000E+00 0. -1.
          5    1    1    2  501    0 -0.10451104580E+02 -0.16342994280E+02  0.12613290736E+01  0.20000000000E+02  0.47000000000E+01 0. -1.
         -5    1    1    2    0  501  0.10451104580E+02  0.16342994280E+02 -0.12613290736E+01  0.20000000000E+02  0.47000000000E+01 0.  1.
</event>
<event>
 4    1  0.5025809E-002  0.4000000E+02  0.7546771E-02  0.1348030E+00
         11   -1    0    0    0    0  0.00000000000E+00  0.00000000000E+00  0.20000000000E+02  0.20000000000E+02  0.00000000000E+00 0.  1.
        -11   -1    0    0    0    0 -0.00000000000E+00 -0.00000000000E+00 -0.20000000000E+02  0.20000000000E+02  0.00000000000E+00 0. -1.
          5    1    1    2  501    0 -0.58135807768E+01 -0.88483171604E+01 -0.16303973809E+02  0.20000000000E+02  0.47000000000E+01 0. -1.
         -5    1    1    2    0  501  0.58135807768E+01  0.88483171604E+01  0.16303973809E+02  0.20000000000E+02  0.47000000000E+01 0.  1.
</event>
<event>
 4    1  0.5025809E-002  0.4000000E+02  0.7546771E-02  0.1348030E+00
         11   -1    0    0    0    0  0.00000000000E+00  0.00000000000E+00  0.20000000000E+02  0.20000000000E+02  0.00000000000E+00 0.  1.
        -11   -1    0    0    0    0 -0.00000000000E+00 -0.00000000000E+00 -0.20000000000E+02  0.20000000000E+02  0.00000000000E+00 0. -1.
          5    1    1    2  501    0  0.12294945349E+02  0.12123803111E+02 -0.89307176081E+01  0.20000000000E+02  0.47000000000E+01 0. -1.
         -5    1    1    2    0  501 -0.12294945349E+02 -0.12123803111E+02  0.89307176081E+01  0.20000000000E+02  0.47000000000E+01 0.  1.
</event>
<event>
 4    1  0.5025809E-002  0.4000000E+02  0.7546771E-02  0.1348030E+00
         11   -1    0    0    0    0  0.00000000000E+00  0.00000000000E+00  0.20000000000E+02  0.20000000000E+02  0.00000000000E+00 0.  1.
        -11   -1    0    0    0    0 -0.00000000000E+00 -0.00000000000E+00 -0.20000000000E+02  0.20000000000E+02  0.00000000000E+00 0. -1.
          5    1    1    2  501    0  0.24499993424E+01 -0.95409966414E+01  0.16759382038E+02  0.20000000000E+02  0.47000000000E+01 0.  1.
         -5    1    1    2    0  501 -0.24499993424E+01  0.95409966414E+01 -0.16759382038E+02  0.20000000000E+02  0.47000000000E+01 0. -1.
</event>
<event>
 4    1  0.5025809E-002  0.4000000E+02  0.7546771E-02  0.1348030E+00
         11   -1    0    0    0    0  0.00000000000E+00  0.00000000000E+00  0.20000000000E+02  0.20000000000E+02  0.00000000000E+00 0.  1.
        -11   -1    0    0    0    0 -0.00000000000E+00 -0.00000000000E+00 -0.20000000000E+02  0.20000000000E+02  0.00000000000E+00 0. -1.
          5    1    1    2  501    0 -0.65005234871E+01 -0.16370440269E+02 -0.82256841541E+01  0.20000000000E+02  0.47000000000E+01 0. -1.
         -5    1    1    2    0  501  0.65005234871E+01  0.16370440269E+02  0.82256841541E+01  0.20000000000E+02  0.47000000000E+01 0.  1.
</event>
<event>
 4    1  0.5025809E-002  0.4000000E+02  0.7546771E-02  0.1348030E+00
         11   -1    0    0    0    0  0.00000000000E+00  0.00000000000E+00  0.20000000000E+02  0.20000000000E+02  0.00000000000E+00 0.  1.
        -11   -1    0    0    0    0 -0.00000000000E+00 -0.00000000000E+00 -0.20000000000E+02  0.20000000000E+02  0.00000000000E+00 0. -1.
          5    1    1    2  501    0 -0.19378291176E+02  0.22807756927E+00  0.15296443099E+01  0.20000000000E+02  0.47000000000E+01 0.  1.
         -5    1    1    2    0  501  0.19378291176E+02 -0.22807756927E+00 -0.15296443099E+01  0.20000000000E+02  0.47000000000E+01 0. -1.
</event>
<event>
 4    1  0.5025809E-002  0.4000000E+02  0.7546771E-02  0.1348030E+00
         11   -1    0    0    0    0  0.00000000000E+00  0.00000000000E+00  0.20000000000E+02  0.20000000000E+02  0.00000000000E+00 0. -1.
        -11   -1    0    0    0    0 -0.00000000000E+00 -0.00000000000E+00 -0.20000000000E+02  0.20000000000E+02  0.00000000000E+00 0.  1.
          5    1    1    2  501    0  0.59718750218E+01  0.18319725034E+02 -0.25757296827E+01  0.20000000000E+02  0.47000000000E+01 0.  1.
         -5    1    1    2    0  501 -0.59718750218E+01 -0.18319725034E+02  0.25757296827E+01  0.20000000000E+02  0.47000000000E+01 0. -1.
</event>
<event>
 4    1  0.5025809E-002  0.4000000E+02  0.7546771E-02  0.1348030E+00
         11   -1    0    0    0    0  0.00000000000E+00  0.00000000000E+00  0.20000000000E+02  0.20000000000E+02  0.00000000000E+00 0.  1.
        -11   -1    0    0    0    0 -0.00000000000E+00 -0.00000000000E+00 -0.20000000000E+02  0.20000000000E+02  0.00000000000E+00 0. -1.
          5    1    1    2  501    0 -0.12380843778E+02 -0.76042587703E+01  0.12915105725E+02  0.20000000000E+02  0.47000000000E+01 0.  1.
         -5    1    1    2    0  501  0.12380843778E+02  0.76042587703E+01 -0.12915105725E+02  0.20000000000E+02  0.47000000000E+01 0. -1.
</event>
<event>
 4    1  0.5025809E-002  0.4000000E+02  0.7546771E-02  0.1348030E+00
         11   -1    0    0    0    0  0.00000000000E+00  0.00000000000E+00  0.20000000000E+02  0.20000000000E+02  0.00000000000E+00 0.  1.
        -11   -1    0    0    0    0 -0.00000000000E+00 -0.00000000000E+00 -0.20000000000E+02  0.20000000000E+02  0.00000000000E+00 0. -1.
          5    1    1    2  501    0  0.15286710160E+02 -0.21406063491E+01 -0.11817118809E+02  0.20000000000E+02  0.47000000000E+01 0. -1.
         -5    1    1    2    0  501 -0.15286710160E+02  0.21406063491E+01  0.11817118809E+02  0.20000000000E+02  0.47000000000E+01 0.  1.
</event>
<event>
 4    1  0.5025809E-002  0.4000000E+02  0.7546771E-02  0.1348030E+00
         11   -1    0    0    0    0  0.00000000000E+00  0.00000000000E+00  0.20000000000E+02  0.20000000000E+02  0.00000000000E+00 0. -1.
        -11   -1    0    0    0    0 -0.00000000000E+00 -0.00000000000E+00 -0.20000000000E+02  0.20000000000E+02  0.00000000000E+00 0.  1.
          5    1    1    2  501    0 -0.17701875383E+02 -0.47434920213E+00  0.80205112540E+01  0.20000000000E+02  0.47000000000E+01 0. -1.
         -5    1    1    2    0  501  0.17701875383E+02  0.47434920213E+00 -0.80205112540E+01  0.20000000000E+02  0.47000000000E+01 0.  1.
</event>
<event>
 4    1  0.5025809E-002  0.4000000E+02  0.7546771E-02  0.1348030E+00
         11   -1    0    0    0    0  0.00000000000E+00  0.00000000000E+00  0.20000000000E+02  0.20000000000E+02  0.00000000000E+00 0. -1.
        -11   -1    0    0    0    0 -0.00000000000E+00 -0.00000000000E+00 -0.20000000000E+02  0.20000000000E+02  0.00000000000E+00 0.  1.
          5    1    1    2  501    0  0.12359263725E+02  0.60889658473E+01 -0.13714339032E+02  0.20000000000E+02  0.47000000000E+01 0.  1.
         -5    1    1    2    0  501 -0.12359263725E+02 -0.60889658473E+01  0.13714339032E+02  0.20000000000E+02  0.47000000000E+01 0. -1.
</event>
<event>
 4    1  0.5025809E-002  0.4000000E+02  0.7546771E-02  0.1348030E+00
         11   -1    0    0    0    0  0.00000000000E+00  0.00000000000E+00  0.20000000000E+02  0.20000000000E+02  0.00000000000E+00 0. -1.
        -11   -1    0    0    0    0 -0.00000000000E+00 -0.00000000000E+00 -0.20000000000E+02  0.20000000000E+02  0.00000000000E+00 0.  1.
          5    1    1    2  501    0  0.12648150889E+02  0.15403634030E+00 -0.14761793655E+02  0.20000000000E+02  0.47000000000E+01 0.  1.
         -5    1    1    2    0  501 -0.12648150889E+02 -0.15403634030E+00  0.14761793655E+02  0.20000000000E+02  0.47000000000E+01 0. -1.
</event>
<event>
 4    1  0.5025809E-002  0.4000000E+02  0.7546771E-02  0.1348030E+00
         11   -1    0    0    0    0  0.00000000000E+00  0.00000000000E+00  0.20000000000E+02  0.20000000000E+02  0.00000000000E+00 0.  1.
        -11   -1    0    0    0    0 -0.00000000000E+00 -0.00000000000E+00 -0.20000000000E+02  0.20000000000E+02  0.00000000000E+00 0. -1.
          5    1    1    2  501    0  0.18694839239E+01  0.17326915651E+02 -0.86135372456E+01  0.20000000000E+02  0.47000000000E+01 0. -1.
         -5    1    1    2    0  501 -0.18694839239E+01 -0.17326915651E+02  0.86135372456E+01  0.20000000000E+02  0.47000000000E+01 0.  1.
</event>
<event>
 4    1  0.5025809E-002  0.4000000E+02  0.7546771E-02  0.1348030E+00
         11   -1    0    0    0    0  0.00000000000E+00  0.00000000000E+00  0.20000000000E+02  0.20000000000E+02  0.00000000000E+00 0. -1.
        -11   -1    0    0    0    0 -0.00000000000E+00 -0.00000000000E+00 -0.20000000000E+02  0.20000000000E+02  0.00000000000E+00 0.  1.
          5    1    1    2  501    0 -0.23725209530E+01  0.18509013089E+02 -0.54495484965E+01  0.20000000000E+02  0.47000000000E+01 0.  1.
         -5    1    1    2    0  501  0.23725209530E+01 -0.18509013089E+02  0.54495484965E+01  0.20000000000E+02  0.47000000000E+01 0. -1.
</event>
<event>
 4    1  0.5025809E-002  0.4000000E+02  0.7546771E-02  0.1348030E+00
         11   -1    0    0    0    0  0.00000000000E+00  0.00000000000E+00  0.20000000000E+02  0.20000000000E+02  0.00000000000E+00 0.  1.
        -11   -1    0    0    0    0 -0.00000000000E+00 -0.00000000000E+00 -0.20000000000E+02  0.20000000000E+02  0.00000000000E+00 0. -1.
          5    1    1    2  501    0 -0.18279335652E+02  0.34249397409E+01  0.56608900256E+01  0.20000000000E+02  0.47000000000E+01 0.  1.
         -5    1    1    2    0  501  0.18279335652E+02 -0.34249397409E+01 -0.56608900256E+01  0.20000000000E+02  0.47000000000E+01 0. -1.
</event>
<event>
 4    1  0.5025809E-002  0.4000000E+02  0.7546771E-02  0.1348030E+00
         11   -1    0    0    0    0  0.00000000000E+00  0.00000000000E+00  0.20000000000E+02  0.20000000000E+02  0.00000000000E+00 0.  1.
        -11   -1    0    0    0    0 -0.00000000000E+00 -0.00000000000E+00 -0.20000000000E+02  0.20000000000E+02  0.00000000000E+00 0. -1.
          5    1    1    2  501    0 -0.36835315295E+01 -0.87494645259E+01  0.16964329223E+02  0.20000000000E+02  0.47000000000E+01 0.  1.
         -5    1    1    2    0  501  0.36835315295E+01  0.87494645259E+01 -0.16964329223E+02  0.20000000000E+02  0.47000000000E+01 0. -1.
</event>
<event>
 4    1  0.5025809E-002  0.4000000E+02  0.7546771E-02  0.1348030E+00
         11   -1    0    0    0    0  0.00000000000E+00  0.00000000000E+00  0.20000000000E+02  0.20000000000E+02  0.00000000000E+00 0.  1.
        -11   -1    0    0    0    0 -0.00000000000E+00 -0.00000000000E+00 -0.20000000000E+02  0.20000000000E+02  0.00000000000E+00 0. -1.
          5    1    1    2  501    0 -0.12326225940E+02 -0.14337717951E+02  0.45170784830E+01  0.20000000000E+02  0.47000000000E+01 0.  1.
         -5    1    1    2    0  501  0.12326225940E+02  0.14337717951E+02 -0.45170784830E+01  0.20000000000E+02  0.47000000000E+01 0. -1.
</event>
<event>
 4    1  0.5025809E-002  0.4000000E+02  0.7546771E-02  0.1348030E+00
         11   -1    0    0    0    0  0.00000000000E+00  0.00000000000E+00  0.20000000000E+02  0.20000000000E+02  0.00000000000E+00 0. -1.
        -11   -1    0    0    0    0 -0.00000000000E+00 -0.00000000000E+00 -0.20000000000E+02  0.20000000000E+02  0.00000000000E+00 0.  1.
          5    1    1    2  501    0  0.16634914953E+02  0.95191377540E+01  0.32520179802E+01  0.20000000000E+02  0.47000000000E+01 0.  1.
         -5    1    1    2    0  501 -0.16634914953E+02 -0.95191377540E+01 -0.32520179802E+01  0.20000000000E+02  0.47000000000E+01 0. -1.
</event>
<event>
 4    1  0.5025809E-002  0.4000000E+02  0.7546771E-02  0.1348030E+00
         11   -1    0    0    0    0  0.00000000000E+00  0.00000000000E+00  0.20000000000E+02  0.20000000000E+02  0.00000000000E+00 0. -1.
        -11   -1    0    0    0    0 -0.00000000000E+00 -0.00000000000E+00 -0.20000000000E+02  0.20000000000E+02  0.00000000000E+00 0.  1.
          5    1    1    2  501    0 -0.13074299543E+02 -0.20349815663E+01 -0.14241893887E+02  0.20000000000E+02  0.47000000000E+01 0.  1.
         -5    1    1    2    0  501  0.13074299543E+02  0.20349815663E+01  0.14241893887E+02  0.20000000000E+02  0.47000000000E+01 0. -1.
</event>
<event>
 4    1  0.5025809E-002  0.4000000E+02  0.7546771E-02  0.1348030E+00
         11   -1    0    0    0    0  0.00000000000E+00  0.00000000000E+00  0.20000000000E+02  0.20000000000E+02  0.00000000000E+00 0.  1.
        -11   -1    0    0    0    0 -0.00000000000E+00 -0.00000000000E+00 -0.20000000000E+02  0.20000000000E+02  0.00000000000E+00 0. -1.
          5    1    1    2  501    0  0.11037930354E+02 -0.43017961417E+01 -0.15413261934E+02  0.20000000000E+02  0.47000000000E+01 0. -1.
         -5    1    1    2    0  501 -0.11037930354E+02  0.43017961417E+01  0.15413261934E+02  0.20000000000E+02  0.47000000000E+01 0.  1.
</event>
<event>
 4    1  0.5025809E-002  0.4000000E+02  0.7546771E-02  0.1348030E+00
         11   -1    0    0    0    0  0.00000000000E+00  0.00000000000E+00  0.20000000000E+02  0.20000000000E+02  0.00000000000E+00 0.  1.
        -11   -1    0    0    0    0 -0.00000000000E+00 -0.00000000000E+00 -0.20000000000E+02  0.20000000000E+02  0.00000000000E+00 0. -1.
          5    1    1    2  501    0 -0.55515836453E+01  0.48254085672E+01 -0.17994592276E+02  0.20000000000E+02  0.47000000000E+01 0. -1.
         -5    1    1    2    0  501  0.55515836453E+01 -0.48254085672E+01  0.17994592276E+02  0.20000000000E+02  0.47000000000E+01 0.  1.
</event>
<event>
 4    1  0.5025809E-002  0.4000000E+02  0.7546771E-02  0.1348030E+00
         11   -1    0    0    0    0  0.00000000000E+00  0.00000000000E+00  0.20000000000E+02  0.20000000000E+02  0.00000000000E+00 0. -1.
        -11   -1    0    0    0    0 -0.00000000000E+00 -0.00000000000E+00 -0.20000000000E+02  0.20000000000E+02  0.00000000000E+00 0.  1.
          5    1    1    2  501    0 -0.19407144489E+02  0.10779070069E+01  0.33295532561E+00  0.20000000000E+02  0.47000000000E+01 0.  1.
         -5    1    1    2    0  501  0.19407144489E+02 -0.10779070069E+01 -0.33295532561E+00  0.20000000000E+02  0.47000000000E+01 0. -1.
</event>
<event>
 4    1  0.5025809E-002  0.4000000E+02  0.7546771E-02  0.1348030E+00
         11   -1    0    0    0    0  0.00000000000E+00  0.00000000000E+00  0.20000000000E+02  0.20000000000E+02  0.00000000000E+00 0.  1.
        -11   -1    0    0    0    0 -0.00000000000E+00 -0.00000000000E+00 -0.20000000000E+02  0.20000000000E+02  0.00000000000E+00 0. -1.
          5    1    1    2  501    0  0.11835394336E+02  0.32923202963E+01  0.15066322311E+02  0.20000000000E+02  0.47000000000E+01 0.  1.
         -5    1    1    2    0  501 -0.11835394336E+02 -0.32923202963E+01 -0.15066322311E+02  0.20000000000E+02  0.47000000000E+01 0. -1.
</event>
<event>
 4    1  0.5025809E-002  0.4000000E+02  0.7546771E-02  0.1348030E+00
         11   -1    0    0    0    0  0.00000000000E+00  0.00000000000E+00  0.20000000000E+02  0.20000000000E+02  0.00000000000E+00 0.  1.
        -11   -1    0    0    0    0 -0.00000000000E+00 -0.00000000000E+00 -0.20000000000E+02  0.20000000000E+02  0.00000000000E+00 0. -1.
          5    1    1    2  501    0  0.64418840600E+00  0.14911838705E+02  0.12455203239E+02  0.20000000000E+02  0.47000000000E+01 0.  1.
         -5    1    1    2    0  501 -0.64418840600E+00 -0.14911838705E+02 -0.12455203239E+02  0.20000000000E+02  0.47000000000E+01 0. -1.
</event>
<event>
 4    1  0.5025809E-002  0.4000000E+02  0.7546771E-02  0.1348030E+00
         11   -1    0    0    0    0  0.00000000000E+00  0.00000000000E+00  0.20000000000E+02  0.20000000000E+02  0.00000000000E+00 0.  1.
        -11   -1    0    0    0    0 -0.00000000000E+00 -0.00000000000E+00 -0.20000000000E+02  0.20000000000E+02  0.00000000000E+00 0. -1.
          5    1    1    2  501    0 -0.61198027118E+01  0.14098299015E+01 -0.18397564905E+02  0.20000000000E+02  0.47000000000E+01 0. -1.
         -5    1    1    2    0  501  0.61198027118E+01 -0.14098299015E+01  0.18397564905E+02  0.20000000000E+02  0.47000000000E+01 0.  1.
</event>
<event>
 4    1  0.5025809E-002  0.4000000E+02  0.7546771E-02  0.1348030E+00
         11   -1    0    0    0    0  0.00000000000E+00  0.00000000000E+00  0.20000000000E+02  0.20000000000E+02  0.00000000000E+00 0.  1.
        -11   -1    0    0    0    0 -0.00000000000E+00 -0.00000000000E+00 -0.20000000000E+02  0.20000000000E+02  0.00000000000E+00 0. -1.
          5    1    1    2  501    0 -0.65959087945E+01 -0.70883640060E+01 -0.16857018802E+02  0.20000000000E+02  0.47000000000E+01 0. -1.
         -5    1    1    2    0  501  0.65959087945E+01  0.70883640060E+01  0.16857018802E+02  0.20000000000E+02  0.47000000000E+01 0.  1.
</event>
<event>
 4    1  0.5025809E-002  0.4000000E+02  0.7546771E-02  0.1348030E+00
         11   -1    0    0    0    0  0.00000000000E+00  0.00000000000E+00  0.20000000000E+02  0.20000000000E+02  0.00000000000E+00 0.  1.
        -11   -1    0    0    0    0 -0.00000000000E+00 -0.00000000000E+00 -0.20000000000E+02  0.20000000000E+02  0.00000000000E+00 0. -1.
          5    1    1    2  501    0  0.12491449916E+02 -0.14619602100E+02 -0.28532286003E+01  0.20000000000E+02  0.47000000000E+01 0. -1.
         -5    1    1    2    0  501 -0.12491449916E+02  0.14619602100E+02  0.28532286003E+01  0.20000000000E+02  0.47000000000E+01 0.  1.
</event>
<event>
 4    1  0.5025809E-002  0.4000000E+02  0.7546771E-02  0.1348030E+00
         11   -1    0    0    0    0  0.00000000000E+00  0.00000000000E+00  0.20000000000E+02  0.20000000000E+02  0.00000000000E+00 0.  1.
        -11   -1    0    0    0    0 -0.00000000000E+00 -0.00000000000E+00 -0.20000000000E+02  0.20000000000E+02  0.00000000000E+00 0. -1.
          5    1    1    2  501    0 -0.10303738252E+02  0.12871588710E+02  0.10298795178E+02  0.20000000000E+02  0.47000000000E+01 0.  1.
         -5    1    1    2    0  501  0.10303738252E+02 -0.12871588710E+02 -0.10298795178E+02  0.20000000000E+02  0.47000000000E+01 0. -1.
</event>
<event>
 4    1  0.5025809E-002  0.4000000E+02  0.7546771E-02  0.1348030E+00
         11   -1    0    0    0    0  0.00000000000E+00  0.00000000000E+00  0.20000000000E+02  0.20000000000E+02  0.00000000000E+00 0.  1.
        -11   -1    0    0    0    0 -0.00000000000E+00 -0.00000000000E+00 -0.20000000000E+02  0.20000000000E+02  0.00000000000E+00 0. -1.
          5    1    1    2  501    0  0.70030096706E+01 -0.21446617087E+01  0.18007450728E+02  0.20000000000E+02  0.47000000000E+01 0.  1.
         -5    1    1    2    0  501 -0.70030096706E+01  0.21446617087E+01 -0.18007450728E+02  0.20000000000E+02  0.47000000000E+01 0. -1.
</event>
<event>
 4    1  0.5025809E-002  0.4000000E+02  0.7546771E-02  0.1348030E+00
         11   -1    0    0    0    0  0.00000000000E+00  0.00000000000E+00  0.20000000000E+02  0.20000000000E+02  0.00000000000E+00 0.  1.
        -11   -1    0    0    0    0 -0.00000000000E+00 -0.00000000000E+00 -0.20000000000E+02  0.20000000000E+02  0.00000000000E+00 0. -1.
          5    1    1    2  501    0 -0.10761673067E+02 -0.13979396846E+02 -0.81653448571E+01  0.20000000000E+02  0.47000000000E+01 0. -1.
         -5    1    1    2    0  501  0.10761673067E+02  0.13979396846E+02  0.81653448571E+01  0.20000000000E+02  0.47000000000E+01 0.  1.
</event>
<event>
 4    1  0.5025809E-002  0.4000000E+02  0.7546771E-02  0.1348030E+00
         11   -1    0    0    0    0  0.00000000000E+00  0.00000000000E+00  0.20000000000E+02  0.20000000000E+02  0.00000000000E+00 0. -1.
        -11   -1    0    0    0    0 -0.00000000000E+00 -0.00000000000E+00 -0.20000000000E+02  0.20000000000E+02  0.00000000000E+00 0.  1.
          5    1    1    2  501    0  0.32198080620E+01 -0.30560212357E+00  0.19168970848E+02  0.20000000000E+02  0.47000000000E+01 0. -1.
         -5    1    1    2    0  501 -0.32198080620E+01  0.30560212357E+00 -0.19168970848E+02  0.20000000000E+02  0.47000000000E+01 0.  1.
</event>
<event>
 4    1  0.5025809E-002  0.4000000E+02  0.7546771E-02  0.1348030E+00
         11   -1    0    0    0    0  0.00000000000E+00  0.00000000000E+00  0.20000000000E+02  0.20000000000E+02  0.00000000000E+00 0.  1.
        -11   -1    0    0    0    0 -0.00000000000E+00 -0.00000000000E+00 -0.20000000000E+02  0.20000000000E+02  0.00000000000E+00 0. -1.
          5    1    1    2  501    0  0.77703490579E+00  0.12538558574E+02 -0.14835456368E+02  0.20000000000E+02  0.47000000000E+01 0. -1.
         -5    1    1    2    0  501 -0.77703490579E+00 -0.12538558574E+02  0.14835456368E+02  0.20000000000E+02  0.47000000000E+01 0.  1.
</event>
<event>
 4    1  0.5025809E-002  0.4000000E+02  0.7546771E-02  0.1348030E+00
         11   -1    0    0    0    0  0.00000000000E+00  0.00000000000E+00  0.20000000000E+02  0.20000000000E+02  0.00000000000E+00 0. -1.
        -11   -1    0    0    0    0 -0.00000000000E+00 -0.00000000000E+00 -0.20000000000E+02  0.20000000000E+02  0.00000000000E+00 0.  1.
          5    1    1    2  501    0  0.19377651140E+02 -0.35710403621E+00  0.15129814940E+01  0.20000000000E+02  0.47000000000E+01 0. -1.
         -5    1    1    2    0  501 -0.19377651140E+02  0.35710403621E+00 -0.15129814940E+01  0.20000000000E+02  0.47000000000E+01 0.  1.
</event>
<event>
 4    1  0.5025809E-002  0.4000000E+02  0.7546771E-02  0.1348030E+00
         11   -1    0    0    0    0  0.00000000000E+00  0.00000000000E+00  0.20000000000E+02  0.20000000000E+02  0.00000000000E+00 0.  1.
        -11   -1    0    0    0    0 -0.00000000000E+00 -0.00000000000E+00 -0.20000000000E+02  0.20000000000E+02  0.00000000000E+00 0. -1.
          5    1    1    2  501    0  0.39123747193E+00  0.26484199616E+01 -0.19254682676E+02  0.20000000000E+02  0.47000000000E+01 0. -1.
         -5    1    1    2    0  501 -0.39123747193E+00 -0.26484199616E+01  0.19254682676E+02  0.20000000000E+02  0.47000000000E+01 0.  1.
</event>
<event>
 4    1  0.5025809E-002  0.4000000E+02  0.7546771E-02  0.1348030E+00
         11   -1    0    0    0    0  0.00000000000E+00  0.00000000000E+00  0.20000000000E+02  0.20000000000E+02  0.00000000000E+00 0. -1.
        -11   -1    0    0    0    0 -0.00000000000E+00 -0.00000000000E+00 -0.20000000000E+02  0.20000000000E+02  0.00000000000E+00 0.  1.
          5    1    1    2  501    0 -0.12888203715E+02  0.13910790346E+02 -0.42771622560E+01  0.20000000000E+02  0.47000000000E+01 0.  1.
         -5    1    1    2    0  501  0.12888203715E+02 -0.13910790346E+02  0.42771622560E+01  0.20000000000E+02  0.47000000000E+01 0. -1.
</event>
<event>
 4    1  0.5025809E-002  0.4000000E+02  0.7546771E-02  0.1348030E+00
         11   -1    0    0    0    0  0.00000000000E+00  0.00000000000E+00  0.20000000000E+02  0.20000000000E+02  0.00000000000E+00 0.  1.
        -11   -1    0    0    0    0 -0.00000000000E+00 -0.00000000000E+00 -0.20000000000E+02  0.20000000000E+02  0.00000000000E+00 0. -1.
          5    1    1    2  501    0  0.10974043051E+02  0.47315219982E+01 -0.15332745309E+02  0.20000000000E+02  0.47000000000E+01 0. -1.
         -5    1    1    2    0  501 -0.10974043051E+02 -0.47315219982E+01  0.15332745309E+02  0.20000000000E+02  0.47000000000E+01 0.  1.
</event>
<event>
 4    1  0.5025809E-002  0.4000000E+02  0.7546771E-02  0.1348030E+00
         11   -1    0    0    0    0  0.00000000000E+00  0.00000000000E+00  0.20000000000E+02  0.20000000000E+02  0.00000000000E+00 0.  1.
        -11   -1    0    0    0    0 -0.00000000000E+00 -0.00000000000E+00 -0.20000000000E+02  0.20000000000E+02  0.00000000000E+00 0. -1.
          5    1    1    2  501    0 -0.91728279751E+01  0.16838314904E+02  0.32000590808E+01  0.20000000000E+02  0.47000000000E+01 0. -1.
         -5    1    1    2    0  501  0.91728279751E+01 -0.16838314904E+02 -0.32000590808E+01  0.20000000000E+02  0.47000000000E+01 0.  1.
</event>
<event>
 4    1  0.5025809E-002  0.4000000E+02  0.7546771E-02  0.1348030E+00
         11   -1    0    0    0    0  0.00000000000E+00  0.00000000000E+00  0.20000000000E+02  0.20000000000E+02  0.00000000000E+00 0.  1.
        -11   -1    0    0    0    0 -0.00000000000E+00 -0.00000000000E+00 -0.20000000000E+02  0.20000000000E+02  0.00000000000E+00 0. -1.
          5    1    1    2  501    0 -0.23817057703E+00  0.18080426321E+01 -0.19354179306E+02  0.20000000000E+02  0.47000000000E+01 0. -1.
         -5    1    1    2    0  501  0.23817057703E+00 -0.18080426321E+01  0.19354179306E+02  0.20000000000E+02  0.47000000000E+01 0.  1.
</event>
<event>
 4    1  0.5025809E-002  0.4000000E+02  0.7546771E-02  0.1348030E+00
         11   -1    0    0    0    0  0.00000000000E+00  0.00000000000E+00  0.20000000000E+02  0.20000000000E+02  0.00000000000E+00 0.  1.
        -11   -1    0    0    0    0 -0.00000000000E+00 -0.00000000000E+00 -0.20000000000E+02  0.20000000000E+02  0.00000000000E+00 0. -1.
          5    1    1    2  501    0 -0.13569936172E+02 -0.85388410757E+00 -0.13893801288E+02  0.20000000000E+02  0.47000000000E+01 0. -1.
         -5    1    1    2    0  501  0.13569936172E+02  0.85388410757E+00  0.13893801288E+02  0.20000000000E+02  0.47000000000E+01 0.  1.
</event>
<event>
 4    1  0.5025809E-002  0.4000000E+02  0.7546771E-02  0.1348030E+00
         11   -1    0    0    0    0  0.00000000000E+00  0.00000000000E+00  0.20000000000E+02  0.20000000000E+02  0.00000000000E+00 0.  1.
        -11   -1    0    0    0    0 -0.00000000000E+00 -0.00000000000E+00 -0.20000000000E+02  0.20000000000E+02  0.00000000000E+00 0. -1.
          5    1    1    2  501    0 -0.23584040950E+01  0.65802364350E+01 -0.18139691800E+02  0.20000000000E+02  0.47000000000E+01 0. -1.
         -5    1    1    2    0  501  0.23584040950E+01 -0.65802364350E+01  0.18139691800E+02  0.20000000000E+02  0.47000000000E+01 0.  1.
</event>
<event>
 4    1  0.5025809E-002  0.4000000E+02  0.7546771E-02  0.1348030E+00
         11   -1    0    0    0    0  0.00000000000E+00  0.00000000000E+00  0.20000000000E+02  0.20000000000E+02  0.00000000000E+00 0. -1.
        -11   -1    0    0    0    0 -0.00000000000E+00 -0.00000000000E+00 -0.20000000000E+02  0.20000000000E+02  0.00000000000E+00 0.  1.
          5    1    1    2  501    0  0.63039240740E+00  0.10747305325E+02 -0.16186662215E+02  0.20000000000E+02  0.47000000000E+01 0.  1.
         -5    1    1    2    0  501 -0.63039240740E+00 -0.10747305325E+02  0.16186662215E+02  0.20000000000E+02  0.47000000000E+01 0. -1.
</event>
<event>
 4    1  0.5025809E-002  0.4000000E+02  0.7546771E-02  0.1348030E+00
         11   -1    0    0    0    0  0.00000000000E+00  0.00000000000E+00  0.20000000000E+02  0.20000000000E+02  0.00000000000E+00 0. -1.
        -11   -1    0    0    0    0 -0.00000000000E+00 -0.00000000000E+00 -0.20000000000E+02  0.20000000000E+02  0.00000000000E+00 0.  1.
          5    1    1    2  501    0 -0.94254487092E+01  0.13021450738E+02 -0.10932188130E+02  0.20000000000E+02  0.47000000000E+01 0.  1.
         -5    1    1    2    0  501  0.94254487092E+01 -0.13021450738E+02  0.10932188130E+02  0.20000000000E+02  0.47000000000E+01 0. -1.
</event>
<event>
 4    1  0.5025809E-002  0.4000000E+02  0.7546771E-02  0.1348030E+00
         11   -1    0    0    0    0  0.00000000000E+00  0.00000000000E+00  0.20000000000E+02  0.20000000000E+02  0.00000000000E+00 0. -1.
        -11   -1    0    0    0    0 -0.00000000000E+00 -0.00000000000E+00 -0.20000000000E+02  0.20000000000E+02  0.00000000000E+00 0.  1.
          5    1    1    2  501    0  0.72273769215E+00  0.17886938448E+02 -0.75792534726E+01  0.20000000000E+02  0.47000000000E+01 0.  1.
         -5    1    1    2    0  501 -0.72273769215E+00 -0.17886938448E+02  0.75792534726E+01  0.20000000000E+02  0.47000000000E+01 0. -1.
</event>
<event>
 4    1  0.5025809E-002  0.4000000E+02  0.7546771E-02  0.1348030E+00
         11   -1    0    0    0    0  0.00000000000E+00  0.00000000000E+00  0.20000000000E+02  0.20000000000E+02  0.00000000000E+00 0.  1.
        -11   -1    0    0    0    0 -0.00000000000E+00 -0.00000000000E+00 -0.20000000000E+02  0.20000000000E+02  0.00000000000E+00 0. -1.
          5    1    1    2  501    0 -0.11357668728E+02  0.29933536018E+01 -0.15490422695E+02  0.20000000000E+02  0.47000000000E+01 0. -1.
         -5    1    1    2    0  501  0.11357668728E+02 -0.29933536018E+01  0.15490422695E+02  0.20000000000E+02  0.47000000000E+01 0.  1.
</event>
<event>
 4    1  0.5025809E-002  0.4000000E+02  0.7546771E-02  0.1348030E+00
         11   -1    0    0    0    0  0.00000000000E+00  0.00000000000E+00  0.20000000000E+02  0.20000000000E+02  0.00000000000E+00 0.  1.
        -11   -1    0    0    0    0 -0.00000000000E+00 -0.00000000000E+00 -0.20000000000E+02  0.20000000000E+02  0.00000000000E+00 0. -1.
          5    1    1    2  501    0  0.17215715133E+02  0.43095802728E+01 -0.79345239521E+01  0.20000000000E+02  0.47000000000E+01 0. -1.
         -5    1    1    2    0  501 -0.17215715133E+02 -0.43095802728E+01  0.79345239521E+01  0.20000000000E+02  0.47000000000E+01 0.  1.
</event>
<event>
 4    1  0.5025809E-002  0.4000000E+02  0.7546771E-02  0.1348030E+00
         11   -1    0    0    0    0  0.00000000000E+00  0.00000000000E+00  0.20000000000E+02  0.20000000000E+02  0.00000000000E+00 0.  1.
        -11   -1    0    0    0    0 -0.00000000000E+00 -0.00000000000E+00 -0.20000000000E+02  0.20000000000E+02  0.00000000000E+00 0. -1.
          5    1    1    2  501    0 -0.14189260270E+02 -0.10451066188E+02 -0.82067111875E+01  0.20000000000E+02  0.47000000000E+01 0.  1.
         -5    1    1    2    0  501  0.14189260270E+02  0.10451066188E+02  0.82067111875E+01  0.20000000000E+02  0.47000000000E+01 0. -1.
</event>
<event>
 4    1  0.5025809E-002  0.4000000E+02  0.7546771E-02  0.1348030E+00
         11   -1    0    0    0    0  0.00000000000E+00  0.00000000000E+00  0.20000000000E+02  0.20000000000E+02  0.00000000000E+00 0. -1.
        -11   -1    0    0    0    0 -0.00000000000E+00 -0.00000000000E+00 -0.20000000000E+02  0.20000000000E+02  0.00000000000E+00 0.  1.
          5    1    1    2  501    0  0.49493996642E+01  0.62659737413E+01 -0.17724305798E+02  0.20000000000E+02  0.47000000000E+01 0.  1.
         -5    1    1    2    0  501 -0.49493996642E+01 -0.62659737413E+01  0.17724305798E+02  0.20000000000E+02  0.47000000000E+01 0. -1.
</event>
<event>
 4    1  0.5025809E-002  0.4000000E+02  0.7546771E-02  0.1348030E+00
         11   -1    0    0    0    0  0.00000000000E+00  0.00000000000E+00  0.20000000000E+02  0.20000000000E+02  0.00000000000E+00 0.  1.
        -11   -1    0    0    0    0 -0.00000000000E+00 -0.00000000000E+00 -0.20000000000E+02  0.20000000000E+02  0.00000000000E+00 0. -1.
          5    1    1    2  501    0  0.17710638994E+02  0.55622260305E+01  0.57710404621E+01  0.20000000000E+02  0.47000000000E+01 0.  1.
         -5    1    1    2    0  501 -0.17710638994E+02 -0.55622260305E+01 -0.57710404621E+01  0.20000000000E+02  0.47000000000E+01 0. -1.
</event>
<event>
 4    1  0.5025809E-002  0.4000000E+02  0.7546771E-02  0.1348030E+00
         11   -1    0    0    0    0  0.00000000000E+00  0.00000000000E+00  0.20000000000E+02  0.20000000000E+02  0.00000000000E+00 0.  1.
        -11   -1    0    0    0    0 -0.00000000000E+00 -0.00000000000E+00 -0.20000000000E+02  0.20000000000E+02  0.00000000000E+00 0. -1.
          5    1    1    2  501    0  0.36441459488E+01 -0.10972496592E+02  0.15628004314E+02  0.20000000000E+02  0.47000000000E+01 0.  1.
         -5    1    1    2    0  501 -0.36441459488E+01  0.10972496592E+02 -0.15628004314E+02  0.20000000000E+02  0.47000000000E+01 0. -1.
</event>
<event>
 4    1  0.5025809E-002  0.4000000E+02  0.7546771E-02  0.1348030E+00
         11   -1    0    0    0    0  0.00000000000E+00  0.00000000000E+00  0.20000000000E+02  0.20000000000E+02  0.00000000000E+00 0.  1.
        -11   -1    0    0    0    0 -0.00000000000E+00 -0.00000000000E+00 -0.20000000000E+02  0.20000000000E+02  0.00000000000E+00 0. -1.
          5    1    1    2  501    0 -0.57694540280E+01 -0.16372642784E+02  0.87498553403E+01  0.20000000000E+02  0.47000000000E+01 0.  1.
         -5    1    1    2    0  501  0.57694540280E+01  0.16372642784E+02 -0.87498553403E+01  0.20000000000E+02  0.47000000000E+01 0. -1.
</event>
<event>
 4    1  0.5025809E-002  0.4000000E+02  0.7546771E-02  0.1348030E+00
         11   -1    0    0    0    0  0.00000000000E+00  0.00000000000E+00  0.20000000000E+02  0.20000000000E+02  0.00000000000E+00 0.  1.
        -11   -1    0    0    0    0 -0.00000000000E+00 -0.00000000000E+00 -0.20000000000E+02  0.20000000000E+02  0.00000000000E+00 0. -1.
          5    1    1    2  501    0 -0.35470843215E+01 -0.11435909178E+02  0.15314965690E+02  0.20000000000E+02  0.47000000000E+01 0.  1.
         -5    1    1    2    0  501  0.35470843215E+01  0.11435909178E+02 -0.15314965690E+02  0.20000000000E+02  0.47000000000E+01 0. -1.
</event>
<event>
 4    1  0.5025809E-002  0.4000000E+02  0.7546771E-02  0.1348030E+00
         11   -1    0    0    0    0  0.00000000000E+00  0.00000000000E+00  0.20000000000E+02  0.20000000000E+02  0.00000000000E+00 0.  1.
        -11   -1    0    0    0    0 -0.00000000000E+00 -0.00000000000E+00 -0.20000000000E+02  0.20000000000E+02  0.00000000000E+00 0. -1.
          5    1    1    2  501    0  0.96612208342E+01 -0.12295778525E+02 -0.11549226920E+02  0.20000000000E+02  0.47000000000E+01 0. -1.
         -5    1    1    2    0  501 -0.96612208342E+01  0.12295778525E+02  0.11549226920E+02  0.20000000000E+02  0.47000000000E+01 0.  1.
</event>
<event>
 4    1  0.5025809E-002  0.4000000E+02  0.7546771E-02  0.1348030E+00
         11   -1    0    0    0    0  0.00000000000E+00  0.00000000000E+00  0.20000000000E+02  0.20000000000E+02  0.00000000000E+00 0.  1.
        -11   -1    0    0    0    0 -0.00000000000E+00 -0.00000000000E+00 -0.20000000000E+02  0.20000000000E+02  0.00000000000E+00 0. -1.
          5    1    1    2  501    0 -0.18985943436E+02 -0.38091564880E+01  0.17129736386E+01  0.20000000000E+02  0.47000000000E+01 0.  1.
         -5    1    1    2    0  501  0.18985943436E+02  0.38091564880E+01 -0.17129736386E+01  0.20000000000E+02  0.47000000000E+01 0. -1.
</event>
<event>
 4    1  0.5025809E-002  0.4000000E+02  0.7546771E-02  0.1348030E+00
         11   -1    0    0    0    0  0.00000000000E+00  0.00000000000E+00  0.20000000000E+02  0.20000000000E+02  0.00000000000E+00 0.  1.
        -11   -1    0    0    0    0 -0.00000000000E+00 -0.00000000000E+00 -0.20000000000E+02  0.20000000000E+02  0.00000000000E+00 0. -1.
          5    1    1    2  501    0 -0.12846631597E+02  0.14483299309E+02  0.17629797878E+01  0.20000000000E+02  0.47000000000E+01 0.  1.
         -5    1    1    2    0  501  0.12846631597E+02 -0.14483299309E+02 -0.17629797878E+01  0.20000000000E+02  0.47000000000E+01 0. -1.
</event>
<event>
 4    1  0.5025809E-002  0.4000000E+02  0.7546771E-02  0.1348030E+00
         11   -1    0    0    0    0  0.00000000000E+00  0.00000000000E+00  0.20000000000E+02  0.20000000000E+02  0.00000000000E+00 0.  1.
        -11   -1    0    0    0    0 -0.00000000000E+00 -0.00000000000E+00 -0.20000000000E+02  0.20000000000E+02  0.00000000000E+00 0. -1.
          5    1    1    2  501    0 -0.14511994836E+02  0.11970961935E+01 -0.12879400863E+02  0.20000000000E+02  0.47000000000E+01 0. -1.
         -5    1    1    2    0  501  0.14511994836E+02 -0.11970961935E+01  0.12879400863E+02  0.20000000000E+02  0.47000000000E+01 0.  1.
</event>
<event>
 4    1  0.5025809E-002  0.4000000E+02  0.7546771E-02  0.1348030E+00
         11   -1    0    0    0    0  0.00000000000E+00  0.00000000000E+00  0.20000000000E+02  0.20000000000E+02  0.00000000000E+00 0.  1.
        -11   -1    0    0    0    0 -0.00000000000E+00 -0.00000000000E+00 -0.20000000000E+02  0.20000000000E+02  0.00000000000E+00 0. -1.
          5    1    1    2  501    0 -0.14266991996E+02 -0.13072248918E+02 -0.18652741401E+01  0.20000000000E+02  0.47000000000E+01 0. -1.
         -5    1    1    2    0  501  0.14266991996E+02  0.13072248918E+02  0.18652741401E+01  0.20000000000E+02  0.47000000000E+01 0.  1.
</event>
<event>
 4    1  0.5025809E-002  0.4000000E+02  0.7546771E-02  0.1348030E+00
         11   -1    0    0    0    0  0.00000000000E+00  0.00000000000E+00  0.20000000000E+02  0.20000000000E+02  0.00000000000E+00 0. -1.
        -11   -1    0    0    0    0 -0.00000000000E+00 -0.00000000000E+00 -0.20000000000E+02  0.20000000000E+02  0.00000000000E+00 0.  1.
          5    1    1    2  501    0 -0.15150810070E+02 -0.90677444467E+01 -0.81325866048E+01  0.20000000000E+02  0.47000000000E+01 0.  1.
         -5    1    1    2    0  501  0.15150810070E+02  0.90677444467E+01  0.81325866048E+01  0.20000000000E+02  0.47000000000E+01 0. -1.
</event>
<event>
 4    1  0.5025809E-002  0.4000000E+02  0.7546771E-02  0.1348030E+00
         11   -1    0    0    0    0  0.00000000000E+00  0.00000000000E+00  0.20000000000E+02  0.20000000000E+02  0.00000000000E+00 0. -1.
        -11   -1    0    0    0    0 -0.00000000000E+00 -0.00000000000E+00 -0.20000000000E+02  0.20000000000E+02  0.00000000000E+00 0.  1.
          5    1    1    2  501    0 -0.12370792851E+02 -0.14496889746E+02 -0.38358404451E+01  0.20000000000E+02  0.47000000000E+01 0.  1.
         -5    1    1    2    0  501  0.12370792851E+02  0.14496889746E+02  0.38358404451E+01  0.20000000000E+02  0.47000000000E+01 0. -1.
</event>
<event>
 4    1  0.5025809E-002  0.4000000E+02  0.7546771E-02  0.1348030E+00
         11   -1    0    0    0    0  0.00000000000E+00  0.00000000000E+00  0.20000000000E+02  0.20000000000E+02  0.00000000000E+00 0. -1.
        -11   -1    0    0    0    0 -0.00000000000E+00 -0.00000000000E+00 -0.20000000000E+02  0.20000000000E+02  0.00000000000E+00 0.  1.
          5    1    1    2  501    0 -0.15859673291E+02 -0.10817786581E+02 -0.30587998611E+01  0.20000000000E+02  0.47000000000E+01 0.  1.
         -5    1    1    2    0  501  0.15859673291E+02  0.10817786581E+02  0.30587998611E+01  0.20000000000E+02  0.47000000000E+01 0. -1.
</event>
<event>
 4    1  0.5025809E-002  0.4000000E+02  0.7546771E-02  0.1348030E+00
         11   -1    0    0    0    0  0.00000000000E+00  0.00000000000E+00  0.20000000000E+02  0.20000000000E+02  0.00000000000E+00 0. -1.
        -11   -1    0    0    0    0 -0.00000000000E+00 -0.00000000000E+00 -0.20000000000E+02  0.20000000000E+02  0.00000000000E+00 0.  1.
          5    1    1    2  501    0 -0.18471480677E+02  0.48010118453E+00 -0.60401907619E+01  0.20000000000E+02  0.47000000000E+01 0.  1.
         -5    1    1    2    0  501  0.18471480677E+02 -0.48010118453E+00  0.60401907619E+01  0.20000000000E+02  0.47000000000E+01 0. -1.
</event>
<event>
 4    1  0.5025809E-002  0.4000000E+02  0.7546771E-02  0.1348030E+00
         11   -1    0    0    0    0  0.00000000000E+00  0.00000000000E+00  0.20000000000E+02  0.20000000000E+02  0.00000000000E+00 0. -1.
        -11   -1    0    0    0    0 -0.00000000000E+00 -0.00000000000E+00 -0.20000000000E+02  0.20000000000E+02  0.00000000000E+00 0.  1.
          5    1    1    2  501    0  0.33862483863E+01  0.15596156934E+02 -0.11099694174E+02  0.20000000000E+02  0.47000000000E+01 0.  1.
         -5    1    1    2    0  501 -0.33862483863E+01 -0.15596156934E+02  0.11099694174E+02  0.20000000000E+02  0.47000000000E+01 0. -1.
</event>
<event>
 4    1  0.5025809E-002  0.4000000E+02  0.7546771E-02  0.1348030E+00
         11   -1    0    0    0    0  0.00000000000E+00  0.00000000000E+00  0.20000000000E+02  0.20000000000E+02  0.00000000000E+00 0. -1.
        -11   -1    0    0    0    0 -0.00000000000E+00 -0.00000000000E+00 -0.20000000000E+02  0.20000000000E+02  0.00000000000E+00 0.  1.
          5    1    1    2  501    0  0.11612485992E+02 -0.11483230460E+02 -0.10544931830E+02  0.20000000000E+02  0.47000000000E+01 0.  1.
         -5    1    1    2    0  501 -0.11612485992E+02  0.11483230460E+02  0.10544931830E+02  0.20000000000E+02  0.47000000000E+01 0. -1.
</event>
<event>
 4    1  0.5025809E-002  0.4000000E+02  0.7546771E-02  0.1348030E+00
         11   -1    0    0    0    0  0.00000000000E+00  0.00000000000E+00  0.20000000000E+02  0.20000000000E+02  0.00000000000E+00 0.  1.
        -11   -1    0    0    0    0 -0.00000000000E+00 -0.00000000000E+00 -0.20000000000E+02  0.20000000000E+02  0.00000000000E+00 0. -1.
          5    1    1    2  501    0  0.11083360951E+02  0.13304081024E+02 -0.88357533992E+01  0.20000000000E+02  0.47000000000E+01 0. -1.
         -5    1    1    2    0  501 -0.11083360951E+02 -0.13304081024E+02  0.88357533992E+01  0.20000000000E+02  0.47000000000E+01 0.  1.
</event>
<event>
 4    1  0.5025809E-002  0.4000000E+02  0.7546771E-02  0.1348030E+00
         11   -1    0    0    0    0  0.00000000000E+00  0.00000000000E+00  0.20000000000E+02  0.20000000000E+02  0.00000000000E+00 0.  1.
        -11   -1    0    0    0    0 -0.00000000000E+00 -0.00000000000E+00 -0.20000000000E+02  0.20000000000E+02  0.00000000000E+00 0. -1.
          5    1    1    2  501    0 -0.36724262350E+01  0.11328325800E+02 -0.15365295966E+02  0.20000000000E+02  0.47000000000E+01 0. -1.
         -5    1    1    2    0  501  0.36724262350E+01 -0.11328325800E+02  0.15365295966E+02  0.20000000000E+02  0.47000000000E+01 0.  1.
</event>
<event>
 4    1  0.5025809E-002  0.4000000E+02  0.7546771E-02  0.1348030E+00
         11   -1    0    0    0    0  0.00000000000E+00  0.00000000000E+00  0.20000000000E+02  0.20000000000E+02  0.00000000000E+00 0. -1.
        -11   -1    0    0    0    0 -0.00000000000E+00 -0.00000000000E+00 -0.20000000000E+02  0.20000000000E+02  0.00000000000E+00 0.  1.
          5    1    1    2  501    0  0.12409300842E+01  0.11214696929E+02  0.15830371610E+02  0.20000000000E+02  0.47000000000E+01 0. -1.
         -5    1    1    2    0  501 -0.12409300842E+01 -0.11214696929E+02 -0.15830371610E+02  0.20000000000E+02  0.47000000000E+01 0.  1.
</event>
<event>
 4    1  0.5025809E-002  0.4000000E+02  0.7546771E-02  0.1348030E+00
         11   -1    0    0    0    0  0.00000000000E+00  0.00000000000E+00  0.20000000000E+02  0.20000000000E+02  0.00000000000E+00 0.  1.
        -11   -1    0    0    0    0 -0.00000000000E+00 -0.00000000000E+00 -0.20000000000E+02  0.20000000000E+02  0.00000000000E+00 0. -1.
          5    1    1    2  501    0  0.12988475820E+02 -0.13080943060E+02 -0.61723921246E+01  0.20000000000E+02  0.47000000000E+01 0. -1.
         -5    1    1    2    0  501 -0.12988475820E+02  0.13080943060E+02  0.61723921246E+01  0.20000000000E+02  0.47000000000E+01 0.  1.
</event>
<event>
 4    1  0.5025809E-002  0.4000000E+02  0.7546771E-02  0.1348030E+00
         11   -1    0    0    0    0  0.00000000000E+00  0.00000000000E+00  0.20000000000E+02  0.20000000000E+02  0.00000000000E+00 0. -1.
        -11   -1    0    0    0    0 -0.00000000000E+00 -0.00000000000E+00 -0.20000000000E+02  0.20000000000E+02  0.00000000000E+00 0.  1.
          5    1    1    2  501    0 -0.13091523043E+02  0.62706456042E+01 -0.12930623656E+02  0.20000000000E+02  0.47000000000E+01 0.  1.
         -5    1    1    2    0  501  0.13091523043E+02 -0.62706456042E+01  0.12930623656E+02  0.20000000000E+02  0.47000000000E+01 0. -1.
</event>
<event>
 4    1  0.5025809E-002  0.4000000E+02  0.7546771E-02  0.1348030E+00
         11   -1    0    0    0    0  0.00000000000E+00  0.00000000000E+00  0.20000000000E+02  0.20000000000E+02  0.00000000000E+00 0.  1.
        -11   -1    0    0    0    0 -0.00000000000E+00 -0.00000000000E+00 -0.20000000000E+02  0.20000000000E+02  0.00000000000E+00 0. -1.
          5    1    1    2  501    0  0.52494963450E+01 -0.18577370291E+02 -0.22878158090E+01  0.20000000000E+02  0.47000000000E+01 0. -1.
         -5    1    1    2    0  501 -0.52494963450E+01  0.18577370291E+02  0.22878158090E+01  0.20000000000E+02  0.47000000000E+01 0.  1.
</event>
<event>
 4    1  0.5025809E-002  0.4000000E+02  0.7546771E-02  0.1348030E+00
         11   -1    0    0    0    0  0.00000000000E+00  0.00000000000E+00  0.20000000000E+02  0.20000000000E+02  0.00000000000E+00 0.  1.
        -11   -1    0    0    0    0 -0.00000000000E+00 -0.00000000000E+00 -0.20000000000E+02  0.20000000000E+02  0.00000000000E+00 0. -1.
          5    1    1    2  501    0 -0.16824967743E+02 -0.84892261545E+01 -0.47711109561E+01  0.20000000000E+02  0.47000000000E+01 0. -1.
         -5    1    1    2    0  501  0.16824967743E+02  0.84892261545E+01  0.47711109561E+01  0.20000000000E+02  0.47000000000E+01 0.  1.
</event>
<event>
 4    1  0.5025809E-002  0.4000000E+02  0.7546771E-02  0.1348030E+00
         11   -1    0    0    0    0  0.00000000000E+00  0.00000000000E+00  0.20000000000E+02  0.20000000000E+02  0.00000000000E+00 0. -1.
        -11   -1    0    0    0    0 -0.00000000000E+00 -0.00000000000E+00 -0.20000000000E+02  0.20000000000E+02  0.00000000000E+00 0.  1.
          5    1    1    2  501    0 -0.15875185573E+02 -0.51592263648E+01 -0.99634766185E+01  0.20000000000E+02  0.47000000000E+01 0.  1.
         -5    1    1    2    0  501  0.15875185573E+02  0.51592263648E+01  0.99634766185E+01  0.20000000000E+02  0.47000000000E+01 0. -1.
</event>
<event>
 4    1  0.5025809E-002  0.4000000E+02  0.7546771E-02  0.1348030E+00
         11   -1    0    0    0    0  0.00000000000E+00  0.00000000000E+00  0.20000000000E+02  0.20000000000E+02  0.00000000000E+00 0.  1.
        -11   -1    0    0    0    0 -0.00000000000E+00 -0.00000000000E+00 -0.20000000000E+02  0.20000000000E+02  0.00000000000E+00 0. -1.
          5    1    1    2  501    0 -0.19062337509E+02  0.82550002510E+00 -0.37223431328E+01  0.20000000000E+02  0.47000000000E+01 0. -1.
         -5    1    1    2    0  501  0.19062337509E+02 -0.82550002510E+00  0.37223431328E+01  0.20000000000E+02  0.47000000000E+01 0.  1.
</event>
<event>
 4    1  0.5025809E-002  0.4000000E+02  0.7546771E-02  0.1348030E+00
         11   -1    0    0    0    0  0.00000000000E+00  0.00000000000E+00  0.20000000000E+02  0.20000000000E+02  0.00000000000E+00 0.  1.
        -11   -1    0    0    0    0 -0.00000000000E+00 -0.00000000000E+00 -0.20000000000E+02  0.20000000000E+02  0.00000000000E+00 0. -1.
          5    1    1    2  501    0  0.13675136045E+02  0.62093554455E+01  0.12342793813E+02  0.20000000000E+02  0.47000000000E+01 0.  1.
         -5    1    1    2    0  501 -0.13675136045E+02 -0.62093554455E+01 -0.12342793813E+02  0.20000000000E+02  0.47000000000E+01 0. -1.
</event>
<event>
 4    1  0.5025809E-002  0.4000000E+02  0.7546771E-02  0.1348030E+00
         11   -1    0    0    0    0  0.00000000000E+00  0.00000000000E+00  0.20000000000E+02  0.20000000000E+02  0.00000000000E+00 0.  1.
        -11   -1    0    0    0    0 -0.00000000000E+00 -0.00000000000E+00 -0.20000000000E+02  0.20000000000E+02  0.00000000000E+00 0. -1.
          5    1    1    2  501    0  0.14636316266E+02 -0.85610777970E+01 -0.95076912615E+01  0.20000000000E+02  0.47000000000E+01 0. -1.
         -5    1    1    2    0  501 -0.14636316266E+02  0.85610777970E+01  0.95076912615E+01  0.20000000000E+02  0.47000000000E+01 0.  1.
</event>
<event>
 4    1  0.5025809E-002  0.4000000E+02  0.7546771E-02  0.1348030E+00
         11   -1    0    0    0    0  0.00000000000E+00  0.00000000000E+00  0.20000000000E+02  0.20000000000E+02  0.00000000000E+00 0.  1.
        -11   -1    0    0    0    0 -0.00000000000E+00 -0.00000000000E+00 -0.20000000000E+02  0.20000000000E+02  0.00000000000E+00 0. -1.
          5    1    1    2  501    0 -0.10182928586E+02  0.57833555239E+01 -0.15516789755E+02  0.20000000000E+02  0.47000000000E+01 0. -1.
         -5    1    1    2    0  501  0.10182928586E+02 -0.57833555239E+01  0.15516789755E+02  0.20000000000E+02  0.47000000000E+01 0.  1.
</event>
<event>
 4    1  0.5025809E-002  0.4000000E+02  0.7546771E-02  0.1348030E+00
         11   -1    0    0    0    0  0.00000000000E+00  0.00000000000E+00  0.20000000000E+02  0.20000000000E+02  0.00000000000E+00 0.  1.
        -11   -1    0    0    0    0 -0.00000000000E+00 -0.00000000000E+00 -0.20000000000E+02  0.20000000000E+02  0.00000000000E+00 0. -1.
          5    1    1    2  501    0 -0.16463670298E+02 -0.88813127464E+01 -0.52895977359E+01  0.20000000000E+02  0.47000000000E+01 0. -1.
         -5    1    1    2    0  501  0.16463670298E+02  0.88813127464E+01  0.52895977359E+01  0.20000000000E+02  0.47000000000E+01 0.  1.
</event>
<event>
 4    1  0.5025809E-002  0.4000000E+02  0.7546771E-02  0.1348030E+00
         11   -1    0    0    0    0  0.00000000000E+00  0.00000000000E+00  0.20000000000E+02  0.20000000000E+02  0.00000000000E+00 0. -1.
        -11   -1    0    0    0    0 -0.00000000000E+00 -0.00000000000E+00 -0.20000000000E+02  0.20000000000E+02  0.00000000000E+00 0.  1.
          5    1    1    2  501    0 -0.16563579954E+02 -0.32991906274E+01 -0.96266899981E+01  0.20000000000E+02  0.47000000000E+01 0.  1.
         -5    1    1    2    0  501  0.16563579954E+02  0.32991906274E+01  0.96266899981E+01  0.20000000000E+02  0.47000000000E+01 0. -1.
</event>
<event>
 4    1  0.5025809E-002  0.4000000E+02  0.7546771E-02  0.1348030E+00
         11   -1    0    0    0    0  0.00000000000E+00  0.00000000000E+00  0.20000000000E+02  0.20000000000E+02  0.00000000000E+00 0.  1.
        -11   -1    0    0    0    0 -0.00000000000E+00 -0.00000000000E+00 -0.20000000000E+02  0.20000000000E+02  0.00000000000E+00 0. -1.
          5    1    1    2  501    0  0.96707384407E+01  0.43190296245E+01 -0.16301312865E+02  0.20000000000E+02  0.47000000000E+01 0. -1.
         -5    1    1    2    0  501 -0.96707384407E+01 -0.43190296245E+01  0.16301312865E+02  0.20000000000E+02  0.47000000000E+01 0.  1.
</event>
<event>
 4    1  0.5025809E-002  0.4000000E+02  0.7546771E-02  0.1348030E+00
         11   -1    0    0    0    0  0.00000000000E+00  0.00000000000E+00  0.20000000000E+02  0.20000000000E+02  0.00000000000E+00 0. -1.
        -11   -1    0    0    0    0 -0.00000000000E+00 -0.00000000000E+00 -0.20000000000E+02  0.20000000000E+02  0.00000000000E+00 0.  1.
          5    1    1    2  501    0 -0.92586368192E+01 -0.10127499209E+02  0.13770308785E+02  0.20000000000E+02  0.47000000000E+01 0. -1.
         -5    1    1    2    0  501  0.92586368192E+01  0.10127499209E+02 -0.13770308785E+02  0.20000000000E+02  0.47000000000E+01 0.  1.
</event>
<event>
 4    1  0.5025809E-002  0.4000000E+02  0.7546771E-02  0.1348030E+00
         11   -1    0    0    0    0  0.00000000000E+00  0.00000000000E+00  0.20000000000E+02  0.20000000000E+02  0.00000000000E+00 0.  1.
        -11   -1    0    0    0    0 -0.00000000000E+00 -0.00000000000E+00 -0.20000000000E+02  0.20000000000E+02  0.00000000000E+00 0. -1.
          5    1    1    2  501    0 -0.18425103425E+02 -0.54634557026E+01  0.29285176392E+01  0.20000000000E+02  0.47000000000E+01 0. -1.
         -5    1    1    2    0  501  0.18425103425E+02  0.54634557026E+01 -0.29285176392E+01  0.20000000000E+02  0.47000000000E+01 0.  1.
</event>
<event>
 4    1  0.5025809E-002  0.4000000E+02  0.7546771E-02  0.1348030E+00
         11   -1    0    0    0    0  0.00000000000E+00  0.00000000000E+00  0.20000000000E+02  0.20000000000E+02  0.00000000000E+00 0. -1.
        -11   -1    0    0    0    0 -0.00000000000E+00 -0.00000000000E+00 -0.20000000000E+02  0.20000000000E+02  0.00000000000E+00 0.  1.
          5    1    1    2  501    0 -0.95001002867E+01  0.81655350912E+01 -0.14865467743E+02  0.20000000000E+02  0.47000000000E+01 0.  1.
         -5    1    1    2    0  501  0.95001002867E+01 -0.81655350912E+01  0.14865467743E+02  0.20000000000E+02  0.47000000000E+01 0. -1.
</event>
<event>
 4    1  0.5025809E-002  0.4000000E+02  0.7546771E-02  0.1348030E+00
         11   -1    0    0    0    0  0.00000000000E+00  0.00000000000E+00  0.20000000000E+02  0.20000000000E+02  0.00000000000E+00 0. -1.
        -11   -1    0    0    0    0 -0.00000000000E+00 -0.00000000000E+00 -0.20000000000E+02  0.20000000000E+02  0.00000000000E+00 0.  1.
          5    1    1    2  501    0 -0.14281169951E+02  0.92307879461E+01  0.94207610479E+01  0.20000000000E+02  0.47000000000E+01 0. -1.
         -5    1    1    2    0  501  0.14281169951E+02 -0.92307879461E+01 -0.94207610479E+01  0.20000000000E+02  0.47000000000E+01 0.  1.
</event>
<event>
 4    1  0.5025809E-002  0.4000000E+02  0.7546771E-02  0.1348030E+00
         11   -1    0    0    0    0  0.00000000000E+00  0.00000000000E+00  0.20000000000E+02  0.20000000000E+02  0.00000000000E+00 0. -1.
        -11   -1    0    0    0    0 -0.00000000000E+00 -0.00000000000E+00 -0.20000000000E+02  0.20000000000E+02  0.00000000000E+00 0.  1.
          5    1    1    2  501    0 -0.61178800236E+01 -0.14974846118E+02 -0.10781258171E+02  0.20000000000E+02  0.47000000000E+01 0.  1.
         -5    1    1    2    0  501  0.61178800236E+01  0.14974846118E+02  0.10781258171E+02  0.20000000000E+02  0.47000000000E+01 0. -1.
</event>
<event>
 4    1  0.5025809E-002  0.4000000E+02  0.7546771E-02  0.1348030E+00
         11   -1    0    0    0    0  0.00000000000E+00  0.00000000000E+00  0.20000000000E+02  0.20000000000E+02  0.00000000000E+00 0.  1.
        -11   -1    0    0    0    0 -0.00000000000E+00 -0.00000000000E+00 -0.20000000000E+02  0.20000000000E+02  0.00000000000E+00 0. -1.
          5    1    1    2  501    0 -0.17405772867E+02  0.81544765129E+01 -0.29075047231E+01  0.20000000000E+02  0.47000000000E+01 0. -1.
         -5    1    1    2    0  501  0.17405772867E+02 -0.81544765129E+01  0.29075047231E+01  0.20000000000E+02  0.47000000000E+01 0.  1.
</event>
<event>
 4    1  0.5025809E-002  0.4000000E+02  0.7546771E-02  0.1348030E+00
         11   -1    0    0    0    0  0.00000000000E+00  0.00000000000E+00  0.20000000000E+02  0.20000000000E+02  0.00000000000E+00 0. -1.
        -11   -1    0    0    0    0 -0.00000000000E+00 -0.00000000000E+00 -0.20000000000E+02  0.20000000000E+02  0.00000000000E+00 0.  1.
          5    1    1    2  501    0  0.60570578763E+01  0.16513822726E+02 -0.82774216303E+01  0.20000000000E+02  0.47000000000E+01 0.  1.
         -5    1    1    2    0  501 -0.60570578763E+01 -0.16513822726E+02  0.82774216303E+01  0.20000000000E+02  0.47000000000E+01 0. -1.
</event>
<event>
 4    1  0.5025809E-002  0.4000000E+02  0.7546771E-02  0.1348030E+00
         11   -1    0    0    0    0  0.00000000000E+00  0.00000000000E+00  0.20000000000E+02  0.20000000000E+02  0.00000000000E+00 0.  1.
        -11   -1    0    0    0    0 -0.00000000000E+00 -0.00000000000E+00 -0.20000000000E+02  0.20000000000E+02  0.00000000000E+00 0. -1.
          5    1    1    2  501    0  0.17894749668E+02 -0.64926359571E+01 -0.39412704348E+01  0.20000000000E+02  0.47000000000E+01 0. -1.
         -5    1    1    2    0  501 -0.17894749668E+02  0.64926359571E+01  0.39412704348E+01  0.20000000000E+02  0.47000000000E+01 0.  1.
</event>
<event>
 4    1  0.5025809E-002  0.4000000E+02  0.7546771E-02  0.1348030E+00
         11   -1    0    0    0    0  0.00000000000E+00  0.00000000000E+00  0.20000000000E+02  0.20000000000E+02  0.00000000000E+00 0. -1.
        -11   -1    0    0    0    0 -0.00000000000E+00 -0.00000000000E+00 -0.20000000000E+02  0.20000000000E+02  0.00000000000E+00 0.  1.
          5    1    1    2  501    0 -0.74543706461E+01  0.36255424156E+01 -0.17584021169E+02  0.20000000000E+02  0.47000000000E+01 0.  1.
         -5    1    1    2    0  501  0.74543706461E+01 -0.36255424156E+01  0.17584021169E+02  0.20000000000E+02  0.47000000000E+01 0. -1.
</event>
<event>
 4    1  0.5025809E-002  0.4000000E+02  0.7546771E-02  0.1348030E+00
         11   -1    0    0    0    0  0.00000000000E+00  0.00000000000E+00  0.20000000000E+02  0.20000000000E+02  0.00000000000E+00 0.  1.
        -11   -1    0    0    0    0 -0.00000000000E+00 -0.00000000000E+00 -0.20000000000E+02  0.20000000000E+02  0.00000000000E+00 0. -1.
          5    1    1    2  501    0  0.15915094666E+02 -0.93881218995E+01 -0.60401100128E+01  0.20000000000E+02  0.47000000000E+01 0. -1.
         -5    1    1    2    0  501 -0.15915094666E+02  0.93881218995E+01  0.60401100128E+01  0.20000000000E+02  0.47000000000E+01 0.  1.
</event>
<event>
 4    1  0.5025809E-002  0.4000000E+02  0.7546771E-02  0.1348030E+00
         11   -1    0    0    0    0  0.00000000000E+00  0.00000000000E+00  0.20000000000E+02  0.20000000000E+02  0.00000000000E+00 0.  1.
        -11   -1    0    0    0    0 -0.00000000000E+00 -0.00000000000E+00 -0.20000000000E+02  0.20000000000E+02  0.00000000000E+00 0. -1.
          5    1    1    2  501    0 -0.36940140922E+01 -0.71484567927E+01  0.17696435386E+02  0.20000000000E+02  0.47000000000E+01 0.  1.
         -5    1    1    2    0  501  0.36940140922E+01  0.71484567927E+01 -0.17696435386E+02  0.20000000000E+02  0.47000000000E+01 0. -1.
</event>
<event>
 4    1  0.5025809E-002  0.4000000E+02  0.7546771E-02  0.1348030E+00
         11   -1    0    0    0    0  0.00000000000E+00  0.00000000000E+00  0.20000000000E+02  0.20000000000E+02  0.00000000000E+00 0.  1.
        -11   -1    0    0    0    0 -0.00000000000E+00 -0.00000000000E+00 -0.20000000000E+02  0.20000000000E+02  0.00000000000E+00 0. -1.
          5    1    1    2  501    0 -0.16024981933E+02 -0.68169051225E+01 -0.86394304561E+01  0.20000000000E+02  0.47000000000E+01 0. -1.
         -5    1    1    2    0  501  0.16024981933E+02  0.68169051225E+01  0.86394304561E+01  0.20000000000E+02  0.47000000000E+01 0.  1.
</event>
<event>
 4    1  0.5025809E-002  0.4000000E+02  0.7546771E-02  0.1348030E+00
         11   -1    0    0    0    0  0.00000000000E+00  0.00000000000E+00  0.20000000000E+02  0.20000000000E+02  0.00000000000E+00 0. -1.
        -11   -1    0    0    0    0 -0.00000000000E+00 -0.00000000000E+00 -0.20000000000E+02  0.20000000000E+02  0.00000000000E+00 0.  1.
          5    1    1    2  501    0 -0.45944102736E+01  0.17292616432E+02 -0.76004480893E+01  0.20000000000E+02  0.47000000000E+01 0.  1.
         -5    1    1    2    0  501  0.45944102736E+01 -0.17292616432E+02  0.76004480893E+01  0.20000000000E+02  0.47000000000E+01 0. -1.
</event>
<event>
 4    1  0.5025809E-002  0.4000000E+02  0.7546771E-02  0.1348030E+00
         11   -1    0    0    0    0  0.00000000000E+00  0.00000000000E+00  0.20000000000E+02  0.20000000000E+02  0.00000000000E+00 0.  1.
        -11   -1    0    0    0    0 -0.00000000000E+00 -0.00000000000E+00 -0.20000000000E+02  0.20000000000E+02  0.00000000000E+00 0. -1.
          5    1    1    2  501    0 -0.24788372641E+01  0.32941194217E+01 -0.18997740472E+02  0.20000000000E+02  0.47000000000E+01 0. -1.
         -5    1    1    2    0  501  0.24788372641E+01 -0.32941194217E+01  0.18997740472E+02  0.20000000000E+02  0.47000000000E+01 0.  1.
</event>
<event>
 4    1  0.5025809E-002  0.4000000E+02  0.7546771E-02  0.1348030E+00
         11   -1    0    0    0    0  0.00000000000E+00  0.00000000000E+00  0.20000000000E+02  0.20000000000E+02  0.00000000000E+00 0.  1.
        -11   -1    0    0    0    0 -0.00000000000E+00 -0.00000000000E+00 -0.20000000000E+02  0.20000000000E+02  0.00000000000E+00 0. -1.
          5    1    1    2  501    0  0.16265159780E+01 -0.18117268685E+02  0.68577708602E+01  0.20000000000E+02  0.47000000000E+01 0.  1.
         -5    1    1    2    0  501 -0.16265159780E+01  0.18117268685E+02 -0.68577708602E+01  0.20000000000E+02  0.47000000000E+01 0. -1.
</event>
<event>
 4    1  0.5025809E-002  0.4000000E+02  0.7546771E-02  0.1348030E+00
         11   -1    0    0    0    0  0.00000000000E+00  0.00000000000E+00  0.20000000000E+02  0.20000000000E+02  0.00000000000E+00 0.  1.
        -11   -1    0    0    0    0 -0.00000000000E+00 -0.00000000000E+00 -0.20000000000E+02  0.20000000000E+02  0.00000000000E+00 0. -1.
          5    1    1    2  501    0 -0.38102575314E+01 -0.65429638741E+01 -0.17904791573E+02  0.20000000000E+02  0.47000000000E+01 0. -1.
         -5    1    1    2    0  501  0.38102575314E+01  0.65429638741E+01  0.17904791573E+02  0.20000000000E+02  0.47000000000E+01 0.  1.
</event>
<event>
 4    1  0.5025809E-002  0.4000000E+02  0.7546771E-02  0.1348030E+00
         11   -1    0    0    0    0  0.00000000000E+00  0.00000000000E+00  0.20000000000E+02  0.20000000000E+02  0.00000000000E+00 0. -1.
        -11   -1    0    0    0    0 -0.00000000000E+00 -0.00000000000E+00 -0.20000000000E+02  0.20000000000E+02  0.00000000000E+00 0.  1.
          5    1    1    2  501    0  0.63870527671E+01 -0.18329302327E+02  0.10734212338E+01  0.20000000000E+02  0.47000000000E+01 0.  1.
         -5    1    1    2    0  501 -0.63870527671E+01  0.18329302327E+02 -0.10734212338E+01  0.20000000000E+02  0.47000000000E+01 0. -1.
</event>
<event>
 4    1  0.5025809E-002  0.4000000E+02  0.7546771E-02  0.1348030E+00
         11   -1    0    0    0    0  0.00000000000E+00  0.00000000000E+00  0.20000000000E+02  0.20000000000E+02  0.00000000000E+00 0.  1.
        -11   -1    0    0    0    0 -0.00000000000E+00 -0.00000000000E+00 -0.20000000000E+02  0.20000000000E+02  0.00000000000E+00 0. -1.
          5    1    1    2  501    0 -0.22523432103E+01  0.13359991121E+02 -0.13940860350E+02  0.20000000000E+02  0.47000000000E+01 0. -1.
         -5    1    1    2    0  501  0.22523432103E+01 -0.13359991121E+02  0.13940860350E+02  0.20000000000E+02  0.47000000000E+01 0.  1.
</event>
<event>
 4    1  0.5025809E-002  0.4000000E+02  0.7546771E-02  0.1348030E+00
         11   -1    0    0    0    0  0.00000000000E+00  0.00000000000E+00  0.20000000000E+02  0.20000000000E+02  0.00000000000E+00 0.  1.
        -11   -1    0    0    0    0 -0.00000000000E+00 -0.00000000000E+00 -0.20000000000E+02  0.20000000000E+02  0.00000000000E+00 0. -1.
          5    1    1    2  501    0  0.92921571005E+01  0.94087403915E+01  0.14249260355E+02  0.20000000000E+02  0.47000000000E+01 0.  1.
         -5    1    1    2    0  501 -0.92921571005E+01 -0.94087403915E+01 -0.14249260355E+02  0.20000000000E+02  0.47000000000E+01 0. -1.
</event>
<event>
 4    1  0.5025809E-002  0.4000000E+02  0.7546771E-02  0.1348030E+00
         11   -1    0    0    0    0  0.00000000000E+00  0.00000000000E+00  0.20000000000E+02  0.20000000000E+02  0.00000000000E+00 0.  1.
        -11   -1    0    0    0    0 -0.00000000000E+00 -0.00000000000E+00 -0.20000000000E+02  0.20000000000E+02  0.00000000000E+00 0. -1.
          5    1    1    2  501    0  0.80817740927E+00 -0.13053991488E+02 -0.14382286171E+02  0.20000000000E+02  0.47000000000E+01 0. -1.
         -5    1    1    2    0  501 -0.80817740927E+00  0.13053991488E+02  0.14382286171E+02  0.20000000000E+02  0.47000000000E+01 0.  1.
</event>
<event>
 4    1  0.5025809E-002  0.4000000E+02  0.7546771E-02  0.1348030E+00
         11   -1    0    0    0    0  0.00000000000E+00  0.00000000000E+00  0.20000000000E+02  0.20000000000E+02  0.00000000000E+00 0.  1.
        -11   -1    0    0    0    0 -0.00000000000E+00 -0.00000000000E+00 -0.20000000000E+02  0.20000000000E+02  0.00000000000E+00 0. -1.
          5    1    1    2  501    0  0.12114424487E+02  0.11735724700E+02 -0.96655825019E+01  0.20000000000E+02  0.47000000000E+01 0. -1.
         -5    1    1    2    0  501 -0.12114424487E+02 -0.11735724700E+02  0.96655825019E+01  0.20000000000E+02  0.47000000000E+01 0.  1.
</event>
<event>
 4    1  0.5025809E-002  0.4000000E+02  0.7546771E-02  0.1348030E+00
         11   -1    0    0    0    0  0.00000000000E+00  0.00000000000E+00  0.20000000000E+02  0.20000000000E+02  0.00000000000E+00 0. -1.
        -11   -1    0    0    0    0 -0.00000000000E+00 -0.00000000000E+00 -0.20000000000E+02  0.20000000000E+02  0.00000000000E+00 0.  1.
          5    1    1    2  501    0 -0.16016890202E+02 -0.88426188897E-01  0.11016415437E+02  0.20000000000E+02  0.47000000000E+01 0. -1.
         -5    1    1    2    0  501  0.16016890202E+02  0.88426188897E-01 -0.11016415437E+02  0.20000000000E+02  0.47000000000E+01 0.  1.
</event>
<event>
 4    1  0.5025809E-002  0.4000000E+02  0.7546771E-02  0.1348030E+00
         11   -1    0    0    0    0  0.00000000000E+00  0.00000000000E+00  0.20000000000E+02  0.20000000000E+02  0.00000000000E+00 0.  1.
        -11   -1    0    0    0    0 -0.00000000000E+00 -0.00000000000E+00 -0.20000000000E+02  0.20000000000E+02  0.00000000000E+00 0. -1.
          5    1    1    2  501    0 -0.17076323421E+01  0.14624054468E+02 -0.12693739509E+02  0.20000000000E+02  0.47000000000E+01 0.  1.
         -5    1    1    2    0  501  0.17076323421E+01 -0.14624054468E+02  0.12693739509E+02  0.20000000000E+02  0.47000000000E+01 0. -1.
</event>
<event>
 4    1  0.5025809E-002  0.4000000E+02  0.7546771E-02  0.1348030E+00
         11   -1    0    0    0    0  0.00000000000E+00  0.00000000000E+00  0.20000000000E+02  0.20000000000E+02  0.00000000000E+00 0. -1.
        -11   -1    0    0    0    0 -0.00000000000E+00 -0.00000000000E+00 -0.20000000000E+02  0.20000000000E+02  0.00000000000E+00 0.  1.
          5    1    1    2  501    0 -0.15549973661E+02 -0.11637455036E+02 -0.82338290310E+00  0.20000000000E+02  0.47000000000E+01 0.  1.
         -5    1    1    2    0  501  0.15549973661E+02  0.11637455036E+02  0.82338290310E+00  0.20000000000E+02  0.47000000000E+01 0. -1.
</event>
<event>
 4    1  0.5025809E-002  0.4000000E+02  0.7546771E-02  0.1348030E+00
         11   -1    0    0    0    0  0.00000000000E+00  0.00000000000E+00  0.20000000000E+02  0.20000000000E+02  0.00000000000E+00 0.  1.
        -11   -1    0    0    0    0 -0.00000000000E+00 -0.00000000000E+00 -0.20000000000E+02  0.20000000000E+02  0.00000000000E+00 0. -1.
          5    1    1    2  501    0  0.49299789432E+01 -0.18800161613E+02 -0.39903753233E+00  0.20000000000E+02  0.47000000000E+01 0. -1.
         -5    1    1    2    0  501 -0.49299789432E+01  0.18800161613E+02  0.39903753233E+00  0.20000000000E+02  0.47000000000E+01 0.  1.
</event>
<event>
 4    1  0.5025809E-002  0.4000000E+02  0.7546771E-02  0.1348030E+00
         11   -1    0    0    0    0  0.00000000000E+00  0.00000000000E+00  0.20000000000E+02  0.20000000000E+02  0.00000000000E+00 0. -1.
        -11   -1    0    0    0    0 -0.00000000000E+00 -0.00000000000E+00 -0.20000000000E+02  0.20000000000E+02  0.00000000000E+00 0.  1.
          5    1    1    2  501    0 -0.12253063676E+02  0.15061651913E+02 -0.95868253903E+00  0.20000000000E+02  0.47000000000E+01 0.  1.
         -5    1    1    2    0  501  0.12253063676E+02 -0.15061651913E+02  0.95868253903E+00  0.20000000000E+02  0.47000000000E+01 0. -1.
</event>
<event>
 4    1  0.5025809E-002  0.4000000E+02  0.7546771E-02  0.1348030E+00
         11   -1    0    0    0    0  0.00000000000E+00  0.00000000000E+00  0.20000000000E+02  0.20000000000E+02  0.00000000000E+00 0.  1.
        -11   -1    0    0    0    0 -0.00000000000E+00 -0.00000000000E+00 -0.20000000000E+02  0.20000000000E+02  0.00000000000E+00 0. -1.
          5    1    1    2  501    0 -0.16146761072E+02 -0.10337789235E+02 -0.32128212846E+01  0.20000000000E+02  0.47000000000E+01 0. -1.
         -5    1    1    2    0  501  0.16146761072E+02  0.10337789235E+02  0.32128212846E+01  0.20000000000E+02  0.47000000000E+01 0.  1.
</event>
<event>
 4    1  0.5025809E-002  0.4000000E+02  0.7546771E-02  0.1348030E+00
         11   -1    0    0    0    0  0.00000000000E+00  0.00000000000E+00  0.20000000000E+02  0.20000000000E+02  0.00000000000E+00 0.  1.
        -11   -1    0    0    0    0 -0.00000000000E+00 -0.00000000000E+00 -0.20000000000E+02  0.20000000000E+02  0.00000000000E+00 0. -1.
          5    1    1    2  501    0 -0.14743507713E+02 -0.11911309097E+02  0.43196870148E+01  0.20000000000E+02  0.47000000000E+01 0.  1.
         -5    1    1    2    0  501  0.14743507713E+02  0.11911309097E+02 -0.43196870148E+01  0.20000000000E+02  0.47000000000E+01 0. -1.
</event>
<event>
 4    1  0.5025809E-002  0.4000000E+02  0.7546771E-02  0.1348030E+00
         11   -1    0    0    0    0  0.00000000000E+00  0.00000000000E+00  0.20000000000E+02  0.20000000000E+02  0.00000000000E+00 0. -1.
        -11   -1    0    0    0    0 -0.00000000000E+00 -0.00000000000E+00 -0.20000000000E+02  0.20000000000E+02  0.00000000000E+00 0.  1.
          5    1    1    2  501    0  0.13214424185E+02 -0.13971627337E+02 -0.28429954297E+01  0.20000000000E+02  0.47000000000E+01 0.  1.
         -5    1    1    2    0  501 -0.13214424185E+02  0.13971627337E+02  0.28429954297E+01  0.20000000000E+02  0.47000000000E+01 0. -1.
</event>
<event>
 4    1  0.5025809E-002  0.4000000E+02  0.7546771E-02  0.1348030E+00
         11   -1    0    0    0    0  0.00000000000E+00  0.00000000000E+00  0.20000000000E+02  0.20000000000E+02  0.00000000000E+00 0.  1.
        -11   -1    0    0    0    0 -0.00000000000E+00 -0.00000000000E+00 -0.20000000000E+02  0.20000000000E+02  0.00000000000E+00 0. -1.
          5    1    1    2  501    0 -0.32540298397E+00  0.19407439869E+02 -0.10748909904E+01  0.20000000000E+02  0.47000000000E+01 0. -1.
         -5    1    1    2    0  501  0.32540298397E+00 -0.19407439869E+02  0.10748909904E+01  0.20000000000E+02  0.47000000000E+01 0.  1.
</event>
<event>
 4    1  0.5025809E-002  0.4000000E+02  0.7546771E-02  0.1348030E+00
         11   -1    0    0    0    0  0.00000000000E+00  0.00000000000E+00  0.20000000000E+02  0.20000000000E+02  0.00000000000E+00 0.  1.
        -11   -1    0    0    0    0 -0.00000000000E+00 -0.00000000000E+00 -0.20000000000E+02  0.20000000000E+02  0.00000000000E+00 0. -1.
          5    1    1    2  501    0  0.28423779355E+01  0.18926111588E+02 -0.34107459342E+01  0.20000000000E+02  0.47000000000E+01 0. -1.
         -5    1    1    2    0  501 -0.28423779355E+01 -0.18926111588E+02  0.34107459342E+01  0.20000000000E+02  0.47000000000E+01 0.  1.
</event>
<event>
 4    1  0.5025809E-002  0.4000000E+02  0.7546771E-02  0.1348030E+00
         11   -1    0    0    0    0  0.00000000000E+00  0.00000000000E+00  0.20000000000E+02  0.20000000000E+02  0.00000000000E+00 0.  1.
        -11   -1    0    0    0    0 -0.00000000000E+00 -0.00000000000E+00 -0.20000000000E+02  0.20000000000E+02  0.00000000000E+00 0. -1.
          5    1    1    2  501    0  0.22652199694E+01  0.12046755924E+02 -0.15088222234E+02  0.20000000000E+02  0.47000000000E+01 0. -1.
         -5    1    1    2    0  501 -0.22652199694E+01 -0.12046755924E+02  0.15088222234E+02  0.20000000000E+02  0.47000000000E+01 0.  1.
</event>
<event>
 4    1  0.5025809E-002  0.4000000E+02  0.7546771E-02  0.1348030E+00
         11   -1    0    0    0    0  0.00000000000E+00  0.00000000000E+00  0.20000000000E+02  0.20000000000E+02  0.00000000000E+00 0.  1.
        -11   -1    0    0    0    0 -0.00000000000E+00 -0.00000000000E+00 -0.20000000000E+02  0.20000000000E+02  0.00000000000E+00 0. -1.
          5    1    1    2  501    0 -0.12689730757E+01  0.17491105651E+01 -0.19319428552E+02  0.20000000000E+02  0.47000000000E+01 0. -1.
         -5    1    1    2    0  501  0.12689730757E+01 -0.17491105651E+01  0.19319428552E+02  0.20000000000E+02  0.47000000000E+01 0.  1.
</event>
<event>
 4    1  0.5025809E-002  0.4000000E+02  0.7546771E-02  0.1348030E+00
         11   -1    0    0    0    0  0.00000000000E+00  0.00000000000E+00  0.20000000000E+02  0.20000000000E+02  0.00000000000E+00 0.  1.
        -11   -1    0    0    0    0 -0.00000000000E+00 -0.00000000000E+00 -0.20000000000E+02  0.20000000000E+02  0.00000000000E+00 0. -1.
          5    1    1    2  501    0  0.18632399553E+02  0.40286839565E+01  0.38096446675E+01  0.20000000000E+02  0.47000000000E+01 0.  1.
         -5    1    1    2    0  501 -0.18632399553E+02 -0.40286839565E+01 -0.38096446675E+01  0.20000000000E+02  0.47000000000E+01 0. -1.
</event>
<event>
 4    1  0.5025809E-002  0.4000000E+02  0.7546771E-02  0.1348030E+00
         11   -1    0    0    0    0  0.00000000000E+00  0.00000000000E+00  0.20000000000E+02  0.20000000000E+02  0.00000000000E+00 0. -1.
        -11   -1    0    0    0    0 -0.00000000000E+00 -0.00000000000E+00 -0.20000000000E+02  0.20000000000E+02  0.00000000000E+00 0.  1.
          5    1    1    2  501    0  0.50042129254E+01 -0.17858824997E+02 -0.58249654693E+01  0.20000000000E+02  0.47000000000E+01 0.  1.
         -5    1    1    2    0  501 -0.50042129254E+01  0.17858824997E+02  0.58249654693E+01  0.20000000000E+02  0.47000000000E+01 0. -1.
</event>
<event>
 4    1  0.5025809E-002  0.4000000E+02  0.7546771E-02  0.1348030E+00
         11   -1    0    0    0    0  0.00000000000E+00  0.00000000000E+00  0.20000000000E+02  0.20000000000E+02  0.00000000000E+00 0. -1.
        -11   -1    0    0    0    0 -0.00000000000E+00 -0.00000000000E+00 -0.20000000000E+02  0.20000000000E+02  0.00000000000E+00 0.  1.
          5    1    1    2  501    0 -0.12129701482E+02 -0.12885055470E+02 -0.80470918654E+01  0.20000000000E+02  0.47000000000E+01 0.  1.
         -5    1    1    2    0  501  0.12129701482E+02  0.12885055470E+02  0.80470918654E+01  0.20000000000E+02  0.47000000000E+01 0. -1.
</event>
<event>
 4    1  0.5025809E-002  0.4000000E+02  0.7546771E-02  0.1348030E+00
         11   -1    0    0    0    0  0.00000000000E+00  0.00000000000E+00  0.20000000000E+02  0.20000000000E+02  0.00000000000E+00 0.  1.
        -11   -1    0    0    0    0 -0.00000000000E+00 -0.00000000000E+00 -0.20000000000E+02  0.20000000000E+02  0.00000000000E+00 0. -1.
          5    1    1    2  501    0  0.18938470858E+02 -0.43866925736E+01  0.35353075123E-01  0.20000000000E+02  0.47000000000E+01 0. -1.
         -5    1    1    2    0  501 -0.18938470858E+02  0.43866925736E+01 -0.35353075123E-01  0.20000000000E+02  0.47000000000E+01 0.  1.
</event>
<event>
 4    1  0.5025809E-002  0.4000000E+02  0.7546771E-02  0.1348030E+00
         11   -1    0    0    0    0  0.00000000000E+00  0.00000000000E+00  0.20000000000E+02  0.20000000000E+02  0.00000000000E+00 0.  1.
        -11   -1    0    0    0    0 -0.00000000000E+00 -0.00000000000E+00 -0.20000000000E+02  0.20000000000E+02  0.00000000000E+00 0. -1.
          5    1    1    2  501    0 -0.15976867956E+02  0.11016562095E+02  0.11336004268E+01  0.20000000000E+02  0.47000000000E+01 0. -1.
         -5    1    1    2    0  501  0.15976867956E+02 -0.11016562095E+02 -0.11336004268E+01  0.20000000000E+02  0.47000000000E+01 0.  1.
</event>
<event>
 4    1  0.5025809E-002  0.4000000E+02  0.7546771E-02  0.1348030E+00
         11   -1    0    0    0    0  0.00000000000E+00  0.00000000000E+00  0.20000000000E+02  0.20000000000E+02  0.00000000000E+00 0.  1.
        -11   -1    0    0    0    0 -0.00000000000E+00 -0.00000000000E+00 -0.20000000000E+02  0.20000000000E+02  0.00000000000E+00 0. -1.
          5    1    1    2  501    0 -0.16100944177E+02 -0.49966644122E+01 -0.96800279630E+01  0.20000000000E+02  0.47000000000E+01 0. -1.
         -5    1    1    2    0  501  0.16100944177E+02  0.49966644122E+01  0.96800279630E+01  0.20000000000E+02  0.47000000000E+01 0.  1.
</event>
<event>
 4    1  0.5025809E-002  0.4000000E+02  0.7546771E-02  0.1348030E+00
         11   -1    0    0    0    0  0.00000000000E+00  0.00000000000E+00  0.20000000000E+02  0.20000000000E+02  0.00000000000E+00 0. -1.
        -11   -1    0    0    0    0 -0.00000000000E+00 -0.00000000000E+00 -0.20000000000E+02  0.20000000000E+02  0.00000000000E+00 0.  1.
          5    1    1    2  501    0  0.39818213189E+01 -0.13058777395E+02 -0.13839199108E+02  0.20000000000E+02  0.47000000000E+01 0.  1.
         -5    1    1    2    0  501 -0.39818213189E+01  0.13058777395E+02  0.13839199108E+02  0.20000000000E+02  0.47000000000E+01 0. -1.
</event>
<event>
 4    1  0.5025809E-002  0.4000000E+02  0.7546771E-02  0.1348030E+00
         11   -1    0    0    0    0  0.00000000000E+00  0.00000000000E+00  0.20000000000E+02  0.20000000000E+02  0.00000000000E+00 0.  1.
        -11   -1    0    0    0    0 -0.00000000000E+00 -0.00000000000E+00 -0.20000000000E+02  0.20000000000E+02  0.00000000000E+00 0. -1.
          5    1    1    2  501    0 -0.10025716122E+02  0.58962811953E+01  0.15576549178E+02  0.20000000000E+02  0.47000000000E+01 0.  1.
         -5    1    1    2    0  501  0.10025716122E+02 -0.58962811953E+01 -0.15576549178E+02  0.20000000000E+02  0.47000000000E+01 0. -1.
</event>
<event>
 4    1  0.5025809E-002  0.4000000E+02  0.7546771E-02  0.1348030E+00
         11   -1    0    0    0    0  0.00000000000E+00  0.00000000000E+00  0.20000000000E+02  0.20000000000E+02  0.00000000000E+00 0. -1.
        -11   -1    0    0    0    0 -0.00000000000E+00 -0.00000000000E+00 -0.20000000000E+02  0.20000000000E+02  0.00000000000E+00 0.  1.
          5    1    1    2  501    0  0.10395825304E+02  0.12068197905E+02  0.11144299690E+02  0.20000000000E+02  0.47000000000E+01 0. -1.
         -5    1    1    2    0  501 -0.10395825304E+02 -0.12068197905E+02 -0.11144299690E+02  0.20000000000E+02  0.47000000000E+01 0.  1.
</event>
<event>
 4    1  0.5025809E-002  0.4000000E+02  0.7546771E-02  0.1348030E+00
         11   -1    0    0    0    0  0.00000000000E+00  0.00000000000E+00  0.20000000000E+02  0.20000000000E+02  0.00000000000E+00 0.  1.
        -11   -1    0    0    0    0 -0.00000000000E+00 -0.00000000000E+00 -0.20000000000E+02  0.20000000000E+02  0.00000000000E+00 0. -1.
          5    1    1    2  501    0 -0.11725290254E+02 -0.15659049129E+01 -0.15426454883E+02  0.20000000000E+02  0.47000000000E+01 0. -1.
         -5    1    1    2    0  501  0.11725290254E+02  0.15659049129E+01  0.15426454883E+02  0.20000000000E+02  0.47000000000E+01 0.  1.
</event>
<event>
 4    1  0.5025809E-002  0.4000000E+02  0.7546771E-02  0.1348030E+00
         11   -1    0    0    0    0  0.00000000000E+00  0.00000000000E+00  0.20000000000E+02  0.20000000000E+02  0.00000000000E+00 0. -1.
        -11   -1    0    0    0    0 -0.00000000000E+00 -0.00000000000E+00 -0.20000000000E+02  0.20000000000E+02  0.00000000000E+00 0.  1.
          5    1    1    2  501    0 -0.14781706003E+02  0.41384749816E+01  0.11928293779E+02  0.20000000000E+02  0.47000000000E+01 0. -1.
         -5    1    1    2    0  501  0.14781706003E+02 -0.41384749816E+01 -0.11928293779E+02  0.20000000000E+02  0.47000000000E+01 0.  1.
</event>
<event>
 4    1  0.5025809E-002  0.4000000E+02  0.7546771E-02  0.1348030E+00
         11   -1    0    0    0    0  0.00000000000E+00  0.00000000000E+00  0.20000000000E+02  0.20000000000E+02  0.00000000000E+00 0.  1.
        -11   -1    0    0    0    0 -0.00000000000E+00 -0.00000000000E+00 -0.20000000000E+02  0.20000000000E+02  0.00000000000E+00 0. -1.
          5    1    1    2  501    0  0.80499528569E+01  0.55688208389E+01 -0.16795728429E+02  0.20000000000E+02  0.47000000000E+01 0. -1.
         -5    1    1    2    0  501 -0.80499528569E+01 -0.55688208389E+01  0.16795728429E+02  0.20000000000E+02  0.47000000000E+01 0.  1.
</event>
<event>
 4    1  0.5025809E-002  0.4000000E+02  0.7546771E-02  0.1348030E+00
         11   -1    0    0    0    0  0.00000000000E+00  0.00000000000E+00  0.20000000000E+02  0.20000000000E+02  0.00000000000E+00 0. -1.
        -11   -1    0    0    0    0 -0.00000000000E+00 -0.00000000000E+00 -0.20000000000E+02  0.20000000000E+02  0.00000000000E+00 0.  1.
          5    1    1    2  501    0  0.12712572261E+02  0.11545182468E+02  0.91109422280E+01  0.20000000000E+02  0.47000000000E+01 0. -1.
         -5    1    1    2    0  501 -0.12712572261E+02 -0.11545182468E+02 -0.91109422280E+01  0.20000000000E+02  0.47000000000E+01 0.  1.
</event>
<event>
 4    1  0.5025809E-002  0.4000000E+02  0.7546771E-02  0.1348030E+00
         11   -1    0    0    0    0  0.00000000000E+00  0.00000000000E+00  0.20000000000E+02  0.20000000000E+02  0.00000000000E+00 0. -1.
        -11   -1    0    0    0    0 -0.00000000000E+00 -0.00000000000E+00 -0.20000000000E+02  0.20000000000E+02  0.00000000000E+00 0.  1.
          5    1    1    2  501    0 -0.17618325798E+02 -0.51311751361E+00  0.82000796643E+01  0.20000000000E+02  0.47000000000E+01 0. -1.
         -5    1    1    2    0  501  0.17618325798E+02  0.51311751361E+00 -0.82000796643E+01  0.20000000000E+02  0.47000000000E+01 0.  1.
</event>
<event>
 4    1  0.5025809E-002  0.4000000E+02  0.7546771E-02  0.1348030E+00
         11   -1    0    0    0    0  0.00000000000E+00  0.00000000000E+00  0.20000000000E+02  0.20000000000E+02  0.00000000000E+00 0.  1.
        -11   -1    0    0    0    0 -0.00000000000E+00 -0.00000000000E+00 -0.20000000000E+02  0.20000000000E+02  0.00000000000E+00 0. -1.
          5    1    1    2  501    0 -0.86986107423E+01  0.86015962325E+01  0.15108167109E+02  0.20000000000E+02  0.47000000000E+01 0.  1.
         -5    1    1    2    0  501  0.86986107423E+01 -0.86015962325E+01 -0.15108167109E+02  0.20000000000E+02  0.47000000000E+01 0. -1.
</event>
<event>
 4    1  0.5025809E-002  0.4000000E+02  0.7546771E-02  0.1348030E+00
         11   -1    0    0    0    0  0.00000000000E+00  0.00000000000E+00  0.20000000000E+02  0.20000000000E+02  0.00000000000E+00 0.  1.
        -11   -1    0    0    0    0 -0.00000000000E+00 -0.00000000000E+00 -0.20000000000E+02  0.20000000000E+02  0.00000000000E+00 0. -1.
          5    1    1    2  501    0  0.13194738942E+02  0.75714578009E+01 -0.12102970338E+02  0.20000000000E+02  0.47000000000E+01 0. -1.
         -5    1    1    2    0  501 -0.13194738942E+02 -0.75714578009E+01  0.12102970338E+02  0.20000000000E+02  0.47000000000E+01 0.  1.
</event>
<event>
 4    1  0.5025809E-002  0.4000000E+02  0.7546771E-02  0.1348030E+00
         11   -1    0    0    0    0  0.00000000000E+00  0.00000000000E+00  0.20000000000E+02  0.20000000000E+02  0.00000000000E+00 0. -1.
        -11   -1    0    0    0    0 -0.00000000000E+00 -0.00000000000E+00 -0.20000000000E+02  0.20000000000E+02  0.00000000000E+00 0.  1.
          5    1    1    2  501    0 -0.10024236821E+02 -0.50673010927E+01 -0.15866541394E+02  0.20000000000E+02  0.47000000000E+01 0.  1.
         -5    1    1    2    0  501  0.10024236821E+02  0.50673010927E+01  0.15866541394E+02  0.20000000000E+02  0.47000000000E+01 0. -1.
</event>
<event>
 4    1  0.5025809E-002  0.4000000E+02  0.7546771E-02  0.1348030E+00
         11   -1    0    0    0    0  0.00000000000E+00  0.00000000000E+00  0.20000000000E+02  0.20000000000E+02  0.00000000000E+00 0.  1.
        -11   -1    0    0    0    0 -0.00000000000E+00 -0.00000000000E+00 -0.20000000000E+02  0.20000000000E+02  0.00000000000E+00 0. -1.
          5    1    1    2  501    0  0.95348410908E+01  0.16772545860E+02 -0.23829625983E+01  0.20000000000E+02  0.47000000000E+01 0.  1.
         -5    1    1    2    0  501 -0.95348410908E+01 -0.16772545860E+02  0.23829625983E+01  0.20000000000E+02  0.47000000000E+01 0. -1.
</event>
<event>
 4    1  0.5025809E-002  0.4000000E+02  0.7546771E-02  0.1348030E+00
         11   -1    0    0    0    0  0.00000000000E+00  0.00000000000E+00  0.20000000000E+02  0.20000000000E+02  0.00000000000E+00 0.  1.
        -11   -1    0    0    0    0 -0.00000000000E+00 -0.00000000000E+00 -0.20000000000E+02  0.20000000000E+02  0.00000000000E+00 0. -1.
          5    1    1    2  501    0  0.85866501802E+01 -0.38162473835E+01 -0.17018099030E+02  0.20000000000E+02  0.47000000000E+01 0. -1.
         -5    1    1    2    0  501 -0.85866501802E+01  0.38162473835E+01  0.17018099030E+02  0.20000000000E+02  0.47000000000E+01 0.  1.
</event>
<event>
 4    1  0.5025809E-002  0.4000000E+02  0.7546771E-02  0.1348030E+00
         11   -1    0    0    0    0  0.00000000000E+00  0.00000000000E+00  0.20000000000E+02  0.20000000000E+02  0.00000000000E+00 0.  1.
        -11   -1    0    0    0    0 -0.00000000000E+00 -0.00000000000E+00 -0.20000000000E+02  0.20000000000E+02  0.00000000000E+00 0. -1.
          5    1    1    2  501    0  0.25009375586E+01  0.16827110875E+02 -0.94076379037E+01  0.20000000000E+02  0.47000000000E+01 0. -1.
         -5    1    1    2    0  501 -0.25009375586E+01 -0.16827110875E+02  0.94076379037E+01  0.20000000000E+02  0.47000000000E+01 0.  1.
</event>
<event>
 4    1  0.5025809E-002  0.4000000E+02  0.7546771E-02  0.1348030E+00
         11   -1    0    0    0    0  0.00000000000E+00  0.00000000000E+00  0.20000000000E+02  0.20000000000E+02  0.00000000000E+00 0.  1.
        -11   -1    0    0    0    0 -0.00000000000E+00 -0.00000000000E+00 -0.20000000000E+02  0.20000000000E+02  0.00000000000E+00 0. -1.
          5    1    1    2  501    0 -0.13955184230E+01  0.18463855283E+02 -0.59201838174E+01  0.20000000000E+02  0.47000000000E+01 0. -1.
         -5    1    1    2    0  501  0.13955184230E+01 -0.18463855283E+02  0.59201838174E+01  0.20000000000E+02  0.47000000000E+01 0.  1.
</event>
<event>
 4    1  0.5025809E-002  0.4000000E+02  0.7546771E-02  0.1348030E+00
         11   -1    0    0    0    0  0.00000000000E+00  0.00000000000E+00  0.20000000000E+02  0.20000000000E+02  0.00000000000E+00 0.  1.
        -11   -1    0    0    0    0 -0.00000000000E+00 -0.00000000000E+00 -0.20000000000E+02  0.20000000000E+02  0.00000000000E+00 0. -1.
          5    1    1    2  501    0  0.11837719750E+02 -0.10988845877E+02 -0.10817747336E+02  0.20000000000E+02  0.47000000000E+01 0. -1.
         -5    1    1    2    0  501 -0.11837719750E+02  0.10988845877E+02  0.10817747336E+02  0.20000000000E+02  0.47000000000E+01 0.  1.
</event>
<event>
 4    1  0.5025809E-002  0.4000000E+02  0.7546771E-02  0.1348030E+00
         11   -1    0    0    0    0  0.00000000000E+00  0.00000000000E+00  0.20000000000E+02  0.20000000000E+02  0.00000000000E+00 0. -1.
        -11   -1    0    0    0    0 -0.00000000000E+00 -0.00000000000E+00 -0.20000000000E+02  0.20000000000E+02  0.00000000000E+00 0.  1.
          5    1    1    2  501    0 -0.17110649858E+02  0.20752321435E+01 -0.89904990397E+01  0.20000000000E+02  0.47000000000E+01 0.  1.
         -5    1    1    2    0  501  0.17110649858E+02 -0.20752321435E+01  0.89904990397E+01  0.20000000000E+02  0.47000000000E+01 0. -1.
</event>
<event>
 4    1  0.5025809E-002  0.4000000E+02  0.7546771E-02  0.1348030E+00
         11   -1    0    0    0    0  0.00000000000E+00  0.00000000000E+00  0.20000000000E+02  0.20000000000E+02  0.00000000000E+00 0.  1.
        -11   -1    0    0    0    0 -0.00000000000E+00 -0.00000000000E+00 -0.20000000000E+02  0.20000000000E+02  0.00000000000E+00 0. -1.
          5    1    1    2  501    0 -0.83252338646E+01 -0.22789767171E+01  0.17418574747E+02  0.20000000000E+02  0.47000000000E+01 0. -1.
         -5    1    1    2    0  501  0.83252338646E+01  0.22789767171E+01 -0.17418574747E+02  0.20000000000E+02  0.47000000000E+01 0.  1.
</event>
<event>
 4    1  0.5025809E-002  0.4000000E+02  0.7546771E-02  0.1348030E+00
         11   -1    0    0    0    0  0.00000000000E+00  0.00000000000E+00  0.20000000000E+02  0.20000000000E+02  0.00000000000E+00 0. -1.
        -11   -1    0    0    0    0 -0.00000000000E+00 -0.00000000000E+00 -0.20000000000E+02  0.20000000000E+02  0.00000000000E+00 0.  1.
          5    1    1    2  501    0  0.10534023481E+02 -0.15801695754E+02 -0.41534034967E+01  0.20000000000E+02  0.47000000000E+01 0.  1.
         -5    1    1    2    0  501 -0.10534023481E+02  0.15801695754E+02  0.41534034967E+01  0.20000000000E+02  0.47000000000E+01 0. -1.
</event>
<event>
 4    1  0.5025809E-002  0.4000000E+02  0.7546771E-02  0.1348030E+00
         11   -1    0    0    0    0  0.00000000000E+00  0.00000000000E+00  0.20000000000E+02  0.20000000000E+02  0.00000000000E+00 0.  1.
        -11   -1    0    0    0    0 -0.00000000000E+00 -0.00000000000E+00 -0.20000000000E+02  0.20000000000E+02  0.00000000000E+00 0. -1.
          5    1    1    2  501    0 -0.18375298657E+02  0.60691514463E+01 -0.18503513119E+01  0.20000000000E+02  0.47000000000E+01 0.  1.
         -5    1    1    2    0  501  0.18375298657E+02 -0.60691514463E+01  0.18503513119E+01  0.20000000000E+02  0.47000000000E+01 0. -1.
</event>
<event>
 4    1  0.5025809E-002  0.4000000E+02  0.7546771E-02  0.1348030E+00
         11   -1    0    0    0    0  0.00000000000E+00  0.00000000000E+00  0.20000000000E+02  0.20000000000E+02  0.00000000000E+00 0. -1.
        -11   -1    0    0    0    0 -0.00000000000E+00 -0.00000000000E+00 -0.20000000000E+02  0.20000000000E+02  0.00000000000E+00 0.  1.
          5    1    1    2  501    0 -0.10858809619E+02 -0.84829787370E+00 -0.16102069568E+02  0.20000000000E+02  0.47000000000E+01 0.  1.
         -5    1    1    2    0  501  0.10858809619E+02  0.84829787370E+00  0.16102069568E+02  0.20000000000E+02  0.47000000000E+01 0. -1.
</event>
<event>
 4    1  0.5025809E-002  0.4000000E+02  0.7546771E-02  0.1348030E+00
         11   -1    0    0    0    0  0.00000000000E+00  0.00000000000E+00  0.20000000000E+02  0.20000000000E+02  0.00000000000E+00 0.  1.
        -11   -1    0    0    0    0 -0.00000000000E+00 -0.00000000000E+00 -0.20000000000E+02  0.20000000000E+02  0.00000000000E+00 0. -1.
          5    1    1    2  501    0  0.14023370758E+02 -0.10362014976E+02  0.85955638682E+01  0.20000000000E+02  0.47000000000E+01 0.  1.
         -5    1    1    2    0  501 -0.14023370758E+02  0.10362014976E+02 -0.85955638682E+01  0.20000000000E+02  0.47000000000E+01 0. -1.
</event>
<event>
 4    1  0.5025809E-002  0.4000000E+02  0.7546771E-02  0.1348030E+00
         11   -1    0    0    0    0  0.00000000000E+00  0.00000000000E+00  0.20000000000E+02  0.20000000000E+02  0.00000000000E+00 0. -1.
        -11   -1    0    0    0    0 -0.00000000000E+00 -0.00000000000E+00 -0.20000000000E+02  0.20000000000E+02  0.00000000000E+00 0.  1.
          5    1    1    2  501    0  0.12531914021E+02  0.26849168897E+01 -0.14616851654E+02  0.20000000000E+02  0.47000000000E+01 0.  1.
         -5    1    1    2    0  501 -0.12531914021E+02 -0.26849168897E+01  0.14616851654E+02  0.20000000000E+02  0.47000000000E+01 0. -1.
</event>
<event>
 4    1  0.5025809E-002  0.4000000E+02  0.7546771E-02  0.1348030E+00
         11   -1    0    0    0    0  0.00000000000E+00  0.00000000000E+00  0.20000000000E+02  0.20000000000E+02  0.00000000000E+00 0.  1.
        -11   -1    0    0    0    0 -0.00000000000E+00 -0.00000000000E+00 -0.20000000000E+02  0.20000000000E+02  0.00000000000E+00 0. -1.
          5    1    1    2  501    0  0.14719484631E+01  0.16080699023E+02 -0.10823792618E+02  0.20000000000E+02  0.47000000000E+01 0. -1.
         -5    1    1    2    0  501 -0.14719484631E+01 -0.16080699023E+02  0.10823792618E+02  0.20000000000E+02  0.47000000000E+01 0.  1.
</event>
<event>
 4    1  0.5025809E-002  0.4000000E+02  0.7546771E-02  0.1348030E+00
         11   -1    0    0    0    0  0.00000000000E+00  0.00000000000E+00  0.20000000000E+02  0.20000000000E+02  0.00000000000E+00 0.  1.
        -11   -1    0    0    0    0 -0.00000000000E+00 -0.00000000000E+00 -0.20000000000E+02  0.20000000000E+02  0.00000000000E+00 0. -1.
          5    1    1    2  501    0 -0.12309986453E+02 -0.37378454596E+01 -0.14574043531E+02  0.20000000000E+02  0.47000000000E+01 0. -1.
         -5    1    1    2    0  501  0.12309986453E+02  0.37378454596E+01  0.14574043531E+02  0.20000000000E+02  0.47000000000E+01 0.  1.
</event>
<event>
 4    1  0.5025809E-002  0.4000000E+02  0.7546771E-02  0.1348030E+00
         11   -1    0    0    0    0  0.00000000000E+00  0.00000000000E+00  0.20000000000E+02  0.20000000000E+02  0.00000000000E+00 0.  1.
        -11   -1    0    0    0    0 -0.00000000000E+00 -0.00000000000E+00 -0.20000000000E+02  0.20000000000E+02  0.00000000000E+00 0. -1.
          5    1    1    2  501    0  0.17632419780E+02  0.70767681807E+01  0.41142587198E+01  0.20000000000E+02  0.47000000000E+01 0. -1.
         -5    1    1    2    0  501 -0.17632419780E+02 -0.70767681807E+01 -0.41142587198E+01  0.20000000000E+02  0.47000000000E+01 0. -1.
</event>
<event>
 4    1  0.5025809E-002  0.4000000E+02  0.7546771E-02  0.1348030E+00
         11   -1    0    0    0    0  0.00000000000E+00  0.00000000000E+00  0.20000000000E+02  0.20000000000E+02  0.00000000000E+00 0.  1.
        -11   -1    0    0    0    0 -0.00000000000E+00 -0.00000000000E+00 -0.20000000000E+02  0.20000000000E+02  0.00000000000E+00 0. -1.
          5    1    1    2  501    0 -0.12341403453E+02 -0.11080301155E+02  0.10140349458E+02  0.20000000000E+02  0.47000000000E+01 0.  1.
         -5    1    1    2    0  501  0.12341403453E+02  0.11080301155E+02 -0.10140349458E+02  0.20000000000E+02  0.47000000000E+01 0. -1.
</event>
<event>
 4    1  0.5025809E-002  0.4000000E+02  0.7546771E-02  0.1348030E+00
         11   -1    0    0    0    0  0.00000000000E+00  0.00000000000E+00  0.20000000000E+02  0.20000000000E+02  0.00000000000E+00 0. -1.
        -11   -1    0    0    0    0 -0.00000000000E+00 -0.00000000000E+00 -0.20000000000E+02  0.20000000000E+02  0.00000000000E+00 0.  1.
          5    1    1    2  501    0 -0.44964128565E+01  0.36170053712E+01 -0.18563661912E+02  0.20000000000E+02  0.47000000000E+01 0.  1.
         -5    1    1    2    0  501  0.44964128565E+01 -0.36170053712E+01  0.18563661912E+02  0.20000000000E+02  0.47000000000E+01 0. -1.
</event>
<event>
 4    1  0.5025809E-002  0.4000000E+02  0.7546771E-02  0.1348030E+00
         11   -1    0    0    0    0  0.00000000000E+00  0.00000000000E+00  0.20000000000E+02  0.20000000000E+02  0.00000000000E+00 0.  1.
        -11   -1    0    0    0    0 -0.00000000000E+00 -0.00000000000E+00 -0.20000000000E+02  0.20000000000E+02  0.00000000000E+00 0. -1.
          5    1    1    2  501    0  0.17492082118E+02 -0.65804256986E+00 -0.84560063366E+01  0.20000000000E+02  0.47000000000E+01 0. -1.
         -5    1    1    2    0  501 -0.17492082118E+02  0.65804256986E+00  0.84560063366E+01  0.20000000000E+02  0.47000000000E+01 0.  1.
</event>
<event>
 4    1  0.5025809E-002  0.4000000E+02  0.7546771E-02  0.1348030E+00
         11   -1    0    0    0    0  0.00000000000E+00  0.00000000000E+00  0.20000000000E+02  0.20000000000E+02  0.00000000000E+00 0. -1.
        -11   -1    0    0    0    0 -0.00000000000E+00 -0.00000000000E+00 -0.20000000000E+02  0.20000000000E+02  0.00000000000E+00 0.  1.
          5    1    1    2  501    0  0.16296858159E+02  0.10307152703E+02  0.24667827861E+01  0.20000000000E+02  0.47000000000E+01 0.  1.
         -5    1    1    2    0  501 -0.16296858159E+02 -0.10307152703E+02 -0.24667827861E+01  0.20000000000E+02  0.47000000000E+01 0. -1.
</event>
<event>
 4    1  0.5025809E-002  0.4000000E+02  0.7546771E-02  0.1348030E+00
         11   -1    0    0    0    0  0.00000000000E+00  0.00000000000E+00  0.20000000000E+02  0.20000000000E+02  0.00000000000E+00 0.  1.
        -11   -1    0    0    0    0 -0.00000000000E+00 -0.00000000000E+00 -0.20000000000E+02  0.20000000000E+02  0.00000000000E+00 0. -1.
          5    1    1    2  501    0  0.16580909661E+02 -0.85988202763E+01 -0.53892230104E+01  0.20000000000E+02  0.47000000000E+01 0. -1.
         -5    1    1    2    0  501 -0.16580909661E+02  0.85988202763E+01  0.53892230104E+01  0.20000000000E+02  0.47000000000E+01 0.  1.
</event>
<event>
 4    1  0.5025809E-002  0.4000000E+02  0.7546771E-02  0.1348030E+00
         11   -1    0    0    0    0  0.00000000000E+00  0.00000000000E+00  0.20000000000E+02  0.20000000000E+02  0.00000000000E+00 0.  1.
        -11   -1    0    0    0    0 -0.00000000000E+00 -0.00000000000E+00 -0.20000000000E+02  0.20000000000E+02  0.00000000000E+00 0. -1.
          5    1    1    2  501    0  0.17285540798E+02  0.42512131984E+00 -0.88847819993E+01  0.20000000000E+02  0.47000000000E+01 0. -1.
         -5    1    1    2    0  501 -0.17285540798E+02 -0.42512131984E+00  0.88847819993E+01  0.20000000000E+02  0.47000000000E+01 0.  1.
</event>
<event>
 4    1  0.5025809E-002  0.4000000E+02  0.7546771E-02  0.1348030E+00
         11   -1    0    0    0    0  0.00000000000E+00  0.00000000000E+00  0.20000000000E+02  0.20000000000E+02  0.00000000000E+00 0.  1.
        -11   -1    0    0    0    0 -0.00000000000E+00 -0.00000000000E+00 -0.20000000000E+02  0.20000000000E+02  0.00000000000E+00 0. -1.
          5    1    1    2  501    0 -0.78635142569E+01 -0.83157199618E+01 -0.15713813829E+02  0.20000000000E+02  0.47000000000E+01 0. -1.
         -5    1    1    2    0  501  0.78635142569E+01  0.83157199618E+01  0.15713813829E+02  0.20000000000E+02  0.47000000000E+01 0.  1.
</event>
<event>
 4    1  0.5025809E-002  0.4000000E+02  0.7546771E-02  0.1348030E+00
         11   -1    0    0    0    0  0.00000000000E+00  0.00000000000E+00  0.20000000000E+02  0.20000000000E+02  0.00000000000E+00 0. -1.
        -11   -1    0    0    0    0 -0.00000000000E+00 -0.00000000000E+00 -0.20000000000E+02  0.20000000000E+02  0.00000000000E+00 0.  1.
          5    1    1    2  501    0  0.14478520934E+02  0.13219914953E+01 -0.12904835143E+02  0.20000000000E+02  0.47000000000E+01 0.  1.
         -5    1    1    2    0  501 -0.14478520934E+02 -0.13219914953E+01  0.12904835143E+02  0.20000000000E+02  0.47000000000E+01 0. -1.
</event>
<event>
 4    1  0.5025809E-002  0.4000000E+02  0.7546771E-02  0.1348030E+00
         11   -1    0    0    0    0  0.00000000000E+00  0.00000000000E+00  0.20000000000E+02  0.20000000000E+02  0.00000000000E+00 0.  1.
        -11   -1    0    0    0    0 -0.00000000000E+00 -0.00000000000E+00 -0.20000000000E+02  0.20000000000E+02  0.00000000000E+00 0. -1.
          5    1    1    2  501    0 -0.19319052912E+02 -0.97669166559E+00 -0.19313901703E+01  0.20000000000E+02  0.47000000000E+01 0. -1.
         -5    1    1    2    0  501  0.19319052912E+02  0.97669166559E+00  0.19313901703E+01  0.20000000000E+02  0.47000000000E+01 0.  1.
</event>
<event>
 4    1  0.5025809E-002  0.4000000E+02  0.7546771E-02  0.1348030E+00
         11   -1    0    0    0    0  0.00000000000E+00  0.00000000000E+00  0.20000000000E+02  0.20000000000E+02  0.00000000000E+00 0.  1.
        -11   -1    0    0    0    0 -0.00000000000E+00 -0.00000000000E+00 -0.20000000000E+02  0.20000000000E+02  0.00000000000E+00 0. -1.
          5    1    1    2  501    0 -0.14725899285E+02 -0.99880387258E+01 -0.78292383190E+01  0.20000000000E+02  0.47000000000E+01 0. -1.
         -5    1    1    2    0  501  0.14725899285E+02  0.99880387258E+01  0.78292383190E+01  0.20000000000E+02  0.47000000000E+01 0.  1.
</event>
<event>
 4    1  0.5025809E-002  0.4000000E+02  0.7546771E-02  0.1348030E+00
         11   -1    0    0    0    0  0.00000000000E+00  0.00000000000E+00  0.20000000000E+02  0.20000000000E+02  0.00000000000E+00 0.  1.
        -11   -1    0    0    0    0 -0.00000000000E+00 -0.00000000000E+00 -0.20000000000E+02  0.20000000000E+02  0.00000000000E+00 0. -1.
          5    1    1    2  501    0  0.17748335682E+02 -0.74438169186E+01 -0.27379134744E+01  0.20000000000E+02  0.47000000000E+01 0. -1.
         -5    1    1    2    0  501 -0.17748335682E+02  0.74438169186E+01  0.27379134744E+01  0.20000000000E+02  0.47000000000E+01 0.  1.
</event>
<event>
 4    1  0.5025809E-002  0.4000000E+02  0.7546771E-02  0.1348030E+00
         11   -1    0    0    0    0  0.00000000000E+00  0.00000000000E+00  0.20000000000E+02  0.20000000000E+02  0.00000000000E+00 0. -1.
        -11   -1    0    0    0    0 -0.00000000000E+00 -0.00000000000E+00 -0.20000000000E+02  0.20000000000E+02  0.00000000000E+00 0.  1.
          5    1    1    2  501    0 -0.13222841371E+02 -0.12204232382E+02 -0.73568456595E+01  0.20000000000E+02  0.47000000000E+01 0.  1.
         -5    1    1    2    0  501  0.13222841371E+02  0.12204232382E+02  0.73568456595E+01  0.20000000000E+02  0.47000000000E+01 0. -1.
</event>
<event>
 4    1  0.5025809E-002  0.4000000E+02  0.7546771E-02  0.1348030E+00
         11   -1    0    0    0    0  0.00000000000E+00  0.00000000000E+00  0.20000000000E+02  0.20000000000E+02  0.00000000000E+00 0.  1.
        -11   -1    0    0    0    0 -0.00000000000E+00 -0.00000000000E+00 -0.20000000000E+02  0.20000000000E+02  0.00000000000E+00 0. -1.
          5    1    1    2  501    0 -0.14626672364E+02  0.34416886302E+01 -0.12333905907E+02  0.20000000000E+02  0.47000000000E+01 0. -1.
         -5    1    1    2    0  501  0.14626672364E+02 -0.34416886302E+01  0.12333905907E+02  0.20000000000E+02  0.47000000000E+01 0.  1.
</event>
<event>
 4    1  0.5025809E-002  0.4000000E+02  0.7546771E-02  0.1348030E+00
         11   -1    0    0    0    0  0.00000000000E+00  0.00000000000E+00  0.20000000000E+02  0.20000000000E+02  0.00000000000E+00 0.  1.
        -11   -1    0    0    0    0 -0.00000000000E+00 -0.00000000000E+00 -0.20000000000E+02  0.20000000000E+02  0.00000000000E+00 0. -1.
          5    1    1    2  501    0  0.57923270899E+01  0.60170851809E+01 -0.17554305250E+02  0.20000000000E+02  0.47000000000E+01 0. -1.
         -5    1    1    2    0  501 -0.57923270899E+01 -0.60170851809E+01  0.17554305250E+02  0.20000000000E+02  0.47000000000E+01 0.  1.
</event>
<event>
 4    1  0.5025809E-002  0.4000000E+02  0.7546771E-02  0.1348030E+00
         11   -1    0    0    0    0  0.00000000000E+00  0.00000000000E+00  0.20000000000E+02  0.20000000000E+02  0.00000000000E+00 0.  1.
        -11   -1    0    0    0    0 -0.00000000000E+00 -0.00000000000E+00 -0.20000000000E+02  0.20000000000E+02  0.00000000000E+00 0. -1.
          5    1    1    2  501    0  0.20948361035E+01  0.18864808196E+02  0.42000801682E+01  0.20000000000E+02  0.47000000000E+01 0. -1.
         -5    1    1    2    0  501 -0.20948361035E+01 -0.18864808196E+02 -0.42000801682E+01  0.20000000000E+02  0.47000000000E+01 0.  1.
</event>
<event>
 4    1  0.5025809E-002  0.4000000E+02  0.7546771E-02  0.1348030E+00
         11   -1    0    0    0    0  0.00000000000E+00  0.00000000000E+00  0.20000000000E+02  0.20000000000E+02  0.00000000000E+00 0.  1.
        -11   -1    0    0    0    0 -0.00000000000E+00 -0.00000000000E+00 -0.20000000000E+02  0.20000000000E+02  0.00000000000E+00 0. -1.
          5    1    1    2  501    0 -0.11038638671E+02  0.74605861455E+01  0.14156203964E+02  0.20000000000E+02  0.47000000000E+01 0.  1.
         -5    1    1    2    0  501  0.11038638671E+02 -0.74605861455E+01 -0.14156203964E+02  0.20000000000E+02  0.47000000000E+01 0. -1.
</event>
<event>
 4    1  0.5025809E-002  0.4000000E+02  0.7546771E-02  0.1348030E+00
         11   -1    0    0    0    0  0.00000000000E+00  0.00000000000E+00  0.20000000000E+02  0.20000000000E+02  0.00000000000E+00 0. -1.
        -11   -1    0    0    0    0 -0.00000000000E+00 -0.00000000000E+00 -0.20000000000E+02  0.20000000000E+02  0.00000000000E+00 0.  1.
          5    1    1    2  501    0 -0.39702570880E+01  0.77628019790E+01 -0.17374865873E+02  0.20000000000E+02  0.47000000000E+01 0.  1.
         -5    1    1    2    0  501  0.39702570880E+01 -0.77628019790E+01  0.17374865873E+02  0.20000000000E+02  0.47000000000E+01 0. -1.
</event>
<event>
 4    1  0.5025809E-002  0.4000000E+02  0.7546771E-02  0.1348030E+00
         11   -1    0    0    0    0  0.00000000000E+00  0.00000000000E+00  0.20000000000E+02  0.20000000000E+02  0.00000000000E+00 0.  1.
        -11   -1    0    0    0    0 -0.00000000000E+00 -0.00000000000E+00 -0.20000000000E+02  0.20000000000E+02  0.00000000000E+00 0. -1.
          5    1    1    2  501    0 -0.76790246061E+01 -0.10398163901E+02 -0.14519668336E+02  0.20000000000E+02  0.47000000000E+01 0. -1.
         -5    1    1    2    0  501  0.76790246061E+01  0.10398163901E+02  0.14519668336E+02  0.20000000000E+02  0.47000000000E+01 0.  1.
</event>
<event>
 4    1  0.5025809E-002  0.4000000E+02  0.7546771E-02  0.1348030E+00
         11   -1    0    0    0    0  0.00000000000E+00  0.00000000000E+00  0.20000000000E+02  0.20000000000E+02  0.00000000000E+00 0. -1.
        -11   -1    0    0    0    0 -0.00000000000E+00 -0.00000000000E+00 -0.20000000000E+02  0.20000000000E+02  0.00000000000E+00 0.  1.
          5    1    1    2  501    0  0.17981181558E+02  0.72123569016E+01  0.16028155497E+01  0.20000000000E+02  0.47000000000E+01 0.  1.
         -5    1    1    2    0  501 -0.17981181558E+02 -0.72123569016E+01 -0.16028155497E+01  0.20000000000E+02  0.47000000000E+01 0. -1.
</event>
<event>
 4    1  0.5025809E-002  0.4000000E+02  0.7546771E-02  0.1348030E+00
         11   -1    0    0    0    0  0.00000000000E+00  0.00000000000E+00  0.20000000000E+02  0.20000000000E+02  0.00000000000E+00 0.  1.
        -11   -1    0    0    0    0 -0.00000000000E+00 -0.00000000000E+00 -0.20000000000E+02  0.20000000000E+02  0.00000000000E+00 0. -1.
          5    1    1    2  501    0 -0.16703312593E+02 -0.55731342927E+01  0.82370821632E+01  0.20000000000E+02  0.47000000000E+01 0.  1.
         -5    1    1    2    0  501  0.16703312593E+02  0.55731342927E+01 -0.82370821632E+01  0.20000000000E+02  0.47000000000E+01 0. -1.
</event>
<event>
 4    1  0.5025809E-002  0.4000000E+02  0.7546771E-02  0.1348030E+00
         11   -1    0    0    0    0  0.00000000000E+00  0.00000000000E+00  0.20000000000E+02  0.20000000000E+02  0.00000000000E+00 0. -1.
        -11   -1    0    0    0    0 -0.00000000000E+00 -0.00000000000E+00 -0.20000000000E+02  0.20000000000E+02  0.00000000000E+00 0.  1.
          5    1    1    2  501    0 -0.80957541094E+00 -0.96316134820E+01  0.16866730845E+02  0.20000000000E+02  0.47000000000E+01 0. -1.
         -5    1    1    2    0  501  0.80957541094E+00  0.96316134820E+01 -0.16866730845E+02  0.20000000000E+02  0.47000000000E+01 0.  1.
</event>
<event>
 4    1  0.5025809E-002  0.4000000E+02  0.7546771E-02  0.1348030E+00
         11   -1    0    0    0    0  0.00000000000E+00  0.00000000000E+00  0.20000000000E+02  0.20000000000E+02  0.00000000000E+00 0.  1.
        -11   -1    0    0    0    0 -0.00000000000E+00 -0.00000000000E+00 -0.20000000000E+02  0.20000000000E+02  0.00000000000E+00 0. -1.
          5    1    1    2  501    0  0.43017335128E+01  0.14976004057E+02 -0.11624301754E+02  0.20000000000E+02  0.47000000000E+01 0. -1.
         -5    1    1    2    0  501 -0.43017335128E+01 -0.14976004057E+02  0.11624301754E+02  0.20000000000E+02  0.47000000000E+01 0.  1.
</event>
<event>
 4    1  0.5025809E-002  0.4000000E+02  0.7546771E-02  0.1348030E+00
         11   -1    0    0    0    0  0.00000000000E+00  0.00000000000E+00  0.20000000000E+02  0.20000000000E+02  0.00000000000E+00 0. -1.
        -11   -1    0    0    0    0 -0.00000000000E+00 -0.00000000000E+00 -0.20000000000E+02  0.20000000000E+02  0.00000000000E+00 0.  1.
          5    1    1    2  501    0 -0.17594132439E+02 -0.49328315721E+01  0.66350340164E+01  0.20000000000E+02  0.47000000000E+01 0.  1.
         -5    1    1    2    0  501  0.17594132439E+02  0.49328315721E+01 -0.66350340164E+01  0.20000000000E+02  0.47000000000E+01 0. -1.
</event>
<event>
 4    1  0.5025809E-002  0.4000000E+02  0.7546771E-02  0.1348030E+00
         11   -1    0    0    0    0  0.00000000000E+00  0.00000000000E+00  0.20000000000E+02  0.20000000000E+02  0.00000000000E+00 0. -1.
        -11   -1    0    0    0    0 -0.00000000000E+00 -0.00000000000E+00 -0.20000000000E+02  0.20000000000E+02  0.00000000000E+00 0.  1.
          5    1    1    2  501    0 -0.67584265233E+01  0.24705472542E+00 -0.18225603828E+02  0.20000000000E+02  0.47000000000E+01 0.  1.
         -5    1    1    2    0  501  0.67584265233E+01 -0.24705472542E+00  0.18225603828E+02  0.20000000000E+02  0.47000000000E+01 0. -1.
</event>
<event>
 4    1  0.5025809E-002  0.4000000E+02  0.7546771E-02  0.1348030E+00
         11   -1    0    0    0    0  0.00000000000E+00  0.00000000000E+00  0.20000000000E+02  0.20000000000E+02  0.00000000000E+00 0. -1.
        -11   -1    0    0    0    0 -0.00000000000E+00 -0.00000000000E+00 -0.20000000000E+02  0.20000000000E+02  0.00000000000E+00 0.  1.
          5    1    1    2  501    0 -0.18967744468E+00 -0.56600193817E+01  0.18596725601E+02  0.20000000000E+02  0.47000000000E+01 0. -1.
         -5    1    1    2    0  501  0.18967744468E+00  0.56600193817E+01 -0.18596725601E+02  0.20000000000E+02  0.47000000000E+01 0.  1.
</event>
<event>
 4    1  0.5025809E-002  0.4000000E+02  0.7546771E-02  0.1348030E+00
         11   -1    0    0    0    0  0.00000000000E+00  0.00000000000E+00  0.20000000000E+02  0.20000000000E+02  0.00000000000E+00 0.  1.
        -11   -1    0    0    0    0 -0.00000000000E+00 -0.00000000000E+00 -0.20000000000E+02  0.20000000000E+02  0.00000000000E+00 0. -1.
          5    1    1    2  501    0 -0.11257001800E+02 -0.14452281133E+02  0.65054961797E+01  0.20000000000E+02  0.47000000000E+01 0. -1.
         -5    1    1    2    0  501  0.11257001800E+02  0.14452281133E+02 -0.65054961797E+01  0.20000000000E+02  0.47000000000E+01 0.  1.
</event>
<event>
 4    1  0.5025809E-002  0.4000000E+02  0.7546771E-02  0.1348030E+00
         11   -1    0    0    0    0  0.00000000000E+00  0.00000000000E+00  0.20000000000E+02  0.20000000000E+02  0.00000000000E+00 0. -1.
        -11   -1    0    0    0    0 -0.00000000000E+00 -0.00000000000E+00 -0.20000000000E+02  0.20000000000E+02  0.00000000000E+00 0.  1.
          5    1    1    2  501    0 -0.10344533279E+02 -0.12142625574E+02 -0.11111132949E+02  0.20000000000E+02  0.47000000000E+01 0.  1.
         -5    1    1    2    0  501  0.10344533279E+02  0.12142625574E+02  0.11111132949E+02  0.20000000000E+02  0.47000000000E+01 0. -1.
</event>
<event>
 4    1  0.5025809E-002  0.4000000E+02  0.7546771E-02  0.1348030E+00
         11   -1    0    0    0    0  0.00000000000E+00  0.00000000000E+00  0.20000000000E+02  0.20000000000E+02  0.00000000000E+00 0.  1.
        -11   -1    0    0    0    0 -0.00000000000E+00 -0.00000000000E+00 -0.20000000000E+02  0.20000000000E+02  0.00000000000E+00 0. -1.
          5    1    1    2  501    0  0.15089031385E+02  0.10688126918E+02 -0.59995895568E+01  0.20000000000E+02  0.47000000000E+01 0. -1.
         -5    1    1    2    0  501 -0.15089031385E+02 -0.10688126918E+02  0.59995895568E+01  0.20000000000E+02  0.47000000000E+01 0.  1.
</event>
<event>
 4    1  0.5025809E-002  0.4000000E+02  0.7546771E-02  0.1348030E+00
         11   -1    0    0    0    0  0.00000000000E+00  0.00000000000E+00  0.20000000000E+02  0.20000000000E+02  0.00000000000E+00 0. -1.
        -11   -1    0    0    0    0 -0.00000000000E+00 -0.00000000000E+00 -0.20000000000E+02  0.20000000000E+02  0.00000000000E+00 0.  1.
          5    1    1    2  501    0  0.10008365361E+02  0.13493838412E+02  0.97805392343E+01  0.20000000000E+02  0.47000000000E+01 0.  1.
         -5    1    1    2    0  501 -0.10008365361E+02 -0.13493838412E+02 -0.97805392343E+01  0.20000000000E+02  0.47000000000E+01 0. -1.
</event>
<event>
 4    1  0.5025809E-002  0.4000000E+02  0.7546771E-02  0.1348030E+00
         11   -1    0    0    0    0  0.00000000000E+00  0.00000000000E+00  0.20000000000E+02  0.20000000000E+02  0.00000000000E+00 0. -1.
        -11   -1    0    0    0    0 -0.00000000000E+00 -0.00000000000E+00 -0.20000000000E+02  0.20000000000E+02  0.00000000000E+00 0.  1.
          5    1    1    2  501    0  0.12831340652E+02 -0.94236220585E+01  0.11156255840E+02  0.20000000000E+02  0.47000000000E+01 0. -1.
         -5    1    1    2    0  501 -0.12831340652E+02  0.94236220585E+01 -0.11156255840E+02  0.20000000000E+02  0.47000000000E+01 0.  1.
</event>
<event>
 4    1  0.5025809E-002  0.4000000E+02  0.7546771E-02  0.1348030E+00
         11   -1    0    0    0    0  0.00000000000E+00  0.00000000000E+00  0.20000000000E+02  0.20000000000E+02  0.00000000000E+00 0.  1.
        -11   -1    0    0    0    0 -0.00000000000E+00 -0.00000000000E+00 -0.20000000000E+02  0.20000000000E+02  0.00000000000E+00 0. -1.
          5    1    1    2  501    0  0.13059403184E+02 -0.13838449361E+01 -0.14333421144E+02  0.20000000000E+02  0.47000000000E+01 0. -1.
         -5    1    1    2    0  501 -0.13059403184E+02  0.13838449361E+01  0.14333421144E+02  0.20000000000E+02  0.47000000000E+01 0.  1.
</event>
<event>
 4    1  0.5025809E-002  0.4000000E+02  0.7546771E-02  0.1348030E+00
         11   -1    0    0    0    0  0.00000000000E+00  0.00000000000E+00  0.20000000000E+02  0.20000000000E+02  0.00000000000E+00 0. -1.
        -11   -1    0    0    0    0 -0.00000000000E+00 -0.00000000000E+00 -0.20000000000E+02  0.20000000000E+02  0.00000000000E+00 0.  1.
          5    1    1    2  501    0 -0.38573217836E+01 -0.16409322283E+01  0.18982581755E+02  0.20000000000E+02  0.47000000000E+01 0. -1.
         -5    1    1    2    0  501  0.38573217836E+01  0.16409322283E+01 -0.18982581755E+02  0.20000000000E+02  0.47000000000E+01 0.  1.
</event>
<event>
 4    1  0.5025809E-002  0.4000000E+02  0.7546771E-02  0.1348030E+00
         11   -1    0    0    0    0  0.00000000000E+00  0.00000000000E+00  0.20000000000E+02  0.20000000000E+02  0.00000000000E+00 0.  1.
        -11   -1    0    0    0    0 -0.00000000000E+00 -0.00000000000E+00 -0.20000000000E+02  0.20000000000E+02  0.00000000000E+00 0. -1.
          5    1    1    2  501    0  0.51881852288E+01  0.10589266871E+02 -0.15455101461E+02  0.20000000000E+02  0.47000000000E+01 0. -1.
         -5    1    1    2    0  501 -0.51881852288E+01 -0.10589266871E+02  0.15455101461E+02  0.20000000000E+02  0.47000000000E+01 0.  1.
</event>
<event>
 4    1  0.5025809E-002  0.4000000E+02  0.7546771E-02  0.1348030E+00
         11   -1    0    0    0    0  0.00000000000E+00  0.00000000000E+00  0.20000000000E+02  0.20000000000E+02  0.00000000000E+00 0. -1.
        -11   -1    0    0    0    0 -0.00000000000E+00 -0.00000000000E+00 -0.20000000000E+02  0.20000000000E+02  0.00000000000E+00 0.  1.
          5    1    1    2  501    0  0.16640653662E+02  0.16723916657E+01 -0.99096797035E+01  0.20000000000E+02  0.47000000000E+01 0.  1.
         -5    1    1    2    0  501 -0.16640653662E+02 -0.16723916657E+01  0.99096797035E+01  0.20000000000E+02  0.47000000000E+01 0.  1.
</event>
<event>
 4    1  0.5025809E-002  0.4000000E+02  0.7546771E-02  0.1348030E+00
         11   -1    0    0    0    0  0.00000000000E+00  0.00000000000E+00  0.20000000000E+02  0.20000000000E+02  0.00000000000E+00 0.  1.
        -11   -1    0    0    0    0 -0.00000000000E+00 -0.00000000000E+00 -0.20000000000E+02  0.20000000000E+02  0.00000000000E+00 0. -1.
          5    1    1    2  501    0 -0.49384503443E+01  0.11399451147E+02  0.14952398528E+02  0.20000000000E+02  0.47000000000E+01 0.  1.
         -5    1    1    2    0  501  0.49384503443E+01 -0.11399451147E+02 -0.14952398528E+02  0.20000000000E+02  0.47000000000E+01 0. -1.
</event>
<event>
 4    1  0.5025809E-002  0.4000000E+02  0.7546771E-02  0.1348030E+00
         11   -1    0    0    0    0  0.00000000000E+00  0.00000000000E+00  0.20000000000E+02  0.20000000000E+02  0.00000000000E+00 0.  1.
        -11   -1    0    0    0    0 -0.00000000000E+00 -0.00000000000E+00 -0.20000000000E+02  0.20000000000E+02  0.00000000000E+00 0. -1.
          5    1    1    2  501    0  0.16656070627E+02 -0.32530875110E+01  0.94817051694E+01  0.20000000000E+02  0.47000000000E+01 0.  1.
         -5    1    1    2    0  501 -0.16656070627E+02  0.32530875110E+01 -0.94817051694E+01  0.20000000000E+02  0.47000000000E+01 0. -1.
</event>
<event>
 4    1  0.5025809E-002  0.4000000E+02  0.7546771E-02  0.1348030E+00
         11   -1    0    0    0    0  0.00000000000E+00  0.00000000000E+00  0.20000000000E+02  0.20000000000E+02  0.00000000000E+00 0.  1.
        -11   -1    0    0    0    0 -0.00000000000E+00 -0.00000000000E+00 -0.20000000000E+02  0.20000000000E+02  0.00000000000E+00 0. -1.
          5    1    1    2  501    0  0.17059765846E+02 -0.59698337798E+01 -0.71578959154E+01  0.20000000000E+02  0.47000000000E+01 0. -1.
         -5    1    1    2    0  501 -0.17059765846E+02  0.59698337798E+01  0.71578959154E+01  0.20000000000E+02  0.47000000000E+01 0.  1.
</event>
<event>
 4    1  0.5025809E-002  0.4000000E+02  0.7546771E-02  0.1348030E+00
         11   -1    0    0    0    0  0.00000000000E+00  0.00000000000E+00  0.20000000000E+02  0.20000000000E+02  0.00000000000E+00 0. -1.
        -11   -1    0    0    0    0 -0.00000000000E+00 -0.00000000000E+00 -0.20000000000E+02  0.20000000000E+02  0.00000000000E+00 0.  1.
          5    1    1    2  501    0  0.19094255572E+02  0.36203965952E+01  0.46057861035E+00  0.20000000000E+02  0.47000000000E+01 0. -1.
         -5    1    1    2    0  501 -0.19094255572E+02 -0.36203965952E+01 -0.46057861035E+00  0.20000000000E+02  0.47000000000E+01 0.  1.
</event>
<event>
 4    1  0.5025809E-002  0.4000000E+02  0.7546771E-02  0.1348030E+00
         11   -1    0    0    0    0  0.00000000000E+00  0.00000000000E+00  0.20000000000E+02  0.20000000000E+02  0.00000000000E+00 0.  1.
        -11   -1    0    0    0    0 -0.00000000000E+00 -0.00000000000E+00 -0.20000000000E+02  0.20000000000E+02  0.00000000000E+00 0. -1.
          5    1    1    2  501    0 -0.84269435248E+01  0.58371859029E+01 -0.16517381256E+02  0.20000000000E+02  0.47000000000E+01 0. -1.
         -5    1    1    2    0  501  0.84269435248E+01 -0.58371859029E+01  0.16517381256E+02  0.20000000000E+02  0.47000000000E+01 0.  1.
</event>
<event>
 4    1  0.5025809E-002  0.4000000E+02  0.7546771E-02  0.1348030E+00
         11   -1    0    0    0    0  0.00000000000E+00  0.00000000000E+00  0.20000000000E+02  0.20000000000E+02  0.00000000000E+00 0. -1.
        -11   -1    0    0    0    0 -0.00000000000E+00 -0.00000000000E+00 -0.20000000000E+02  0.20000000000E+02  0.00000000000E+00 0.  1.
          5    1    1    2  501    0 -0.73175859400E+01  0.11595276576E+02 -0.13780874324E+02  0.20000000000E+02  0.47000000000E+01 0.  1.
         -5    1    1    2    0  501  0.73175859400E+01 -0.11595276576E+02  0.13780874324E+02  0.20000000000E+02  0.47000000000E+01 0. -1.
</event>
<event>
 4    1  0.5025809E-002  0.4000000E+02  0.7546771E-02  0.1348030E+00
         11   -1    0    0    0    0  0.00000000000E+00  0.00000000000E+00  0.20000000000E+02  0.20000000000E+02  0.00000000000E+00 0.  1.
        -11   -1    0    0    0    0 -0.00000000000E+00 -0.00000000000E+00 -0.20000000000E+02  0.20000000000E+02  0.00000000000E+00 0. -1.
          5    1    1    2  501    0  0.14479785114E+02 -0.36476961957E+01 -0.12447495151E+02  0.20000000000E+02  0.47000000000E+01 0. -1.
         -5    1    1    2    0  501 -0.14479785114E+02  0.36476961957E+01  0.12447495151E+02  0.20000000000E+02  0.47000000000E+01 0.  1.
</event>
<event>
 4    1  0.5025809E-002  0.4000000E+02  0.7546771E-02  0.1348030E+00
         11   -1    0    0    0    0  0.00000000000E+00  0.00000000000E+00  0.20000000000E+02  0.20000000000E+02  0.00000000000E+00 0.  1.
        -11   -1    0    0    0    0 -0.00000000000E+00 -0.00000000000E+00 -0.20000000000E+02  0.20000000000E+02  0.00000000000E+00 0. -1.
          5    1    1    2  501    0  0.16876453378E+02 -0.32047140381E+01 -0.91008312438E+01  0.20000000000E+02  0.47000000000E+01 0. -1.
         -5    1    1    2    0  501 -0.16876453378E+02  0.32047140381E+01  0.91008312438E+01  0.20000000000E+02  0.47000000000E+01 0.  1.
</event>
<event>
 4    1  0.5025809E-002  0.4000000E+02  0.7546771E-02  0.1348030E+00
         11   -1    0    0    0    0  0.00000000000E+00  0.00000000000E+00  0.20000000000E+02  0.20000000000E+02  0.00000000000E+00 0. -1.
        -11   -1    0    0    0    0 -0.00000000000E+00 -0.00000000000E+00 -0.20000000000E+02  0.20000000000E+02  0.00000000000E+00 0.  1.
          5    1    1    2  501    0  0.88008069454E+01 -0.17348759923E+01 -0.17246622927E+02  0.20000000000E+02  0.47000000000E+01 0.  1.
         -5    1    1    2    0  501 -0.88008069454E+01  0.17348759923E+01  0.17246622927E+02  0.20000000000E+02  0.47000000000E+01 0. -1.
</event>
<event>
 4    1  0.5025809E-002  0.4000000E+02  0.7546771E-02  0.1348030E+00
         11   -1    0    0    0    0  0.00000000000E+00  0.00000000000E+00  0.20000000000E+02  0.20000000000E+02  0.00000000000E+00 0. -1.
        -11   -1    0    0    0    0 -0.00000000000E+00 -0.00000000000E+00 -0.20000000000E+02  0.20000000000E+02  0.00000000000E+00 0.  1.
          5    1    1    2  501    0  0.94450142679E+01  0.17695206289E+01 -0.16898831386E+02  0.20000000000E+02  0.47000000000E+01 0.  1.
         -5    1    1    2    0  501 -0.94450142679E+01 -0.17695206289E+01  0.16898831386E+02  0.20000000000E+02  0.47000000000E+01 0. -1.
</event>
<event>
 4    1  0.5025809E-002  0.4000000E+02  0.7546771E-02  0.1348030E+00
         11   -1    0    0    0    0  0.00000000000E+00  0.00000000000E+00  0.20000000000E+02  0.20000000000E+02  0.00000000000E+00 0. -1.
        -11   -1    0    0    0    0 -0.00000000000E+00 -0.00000000000E+00 -0.20000000000E+02  0.20000000000E+02  0.00000000000E+00 0.  1.
          5    1    1    2  501    0 -0.19096103079E+01  0.61079428677E+00  0.19336243658E+02  0.20000000000E+02  0.47000000000E+01 0. -1.
         -5    1    1    2    0  501  0.19096103079E+01 -0.61079428677E+00 -0.19336243658E+02  0.20000000000E+02  0.47000000000E+01 0.  1.
</event>
<event>
 4    1  0.5025809E-002  0.4000000E+02  0.7546771E-02  0.1348030E+00
         11   -1    0    0    0    0  0.00000000000E+00  0.00000000000E+00  0.20000000000E+02  0.20000000000E+02  0.00000000000E+00 0. -1.
        -11   -1    0    0    0    0 -0.00000000000E+00 -0.00000000000E+00 -0.20000000000E+02  0.20000000000E+02  0.00000000000E+00 0.  1.
          5    1    1    2  501    0 -0.18602534971E+02 -0.18774467634E+01 -0.53226766124E+01  0.20000000000E+02  0.47000000000E+01 0.  1.
         -5    1    1    2    0  501  0.18602534971E+02  0.18774467634E+01  0.53226766124E+01  0.20000000000E+02  0.47000000000E+01 0. -1.
</event>
<event>
 4    1  0.5025809E-002  0.4000000E+02  0.7546771E-02  0.1348030E+00
         11   -1    0    0    0    0  0.00000000000E+00  0.00000000000E+00  0.20000000000E+02  0.20000000000E+02  0.00000000000E+00 0. -1.
        -11   -1    0    0    0    0 -0.00000000000E+00 -0.00000000000E+00 -0.20000000000E+02  0.20000000000E+02  0.00000000000E+00 0.  1.
          5    1    1    2  501    0 -0.64790495022E+00  0.95456641490E+00  0.19405644079E+02  0.20000000000E+02  0.47000000000E+01 0. -1.
         -5    1    1    2    0  501  0.64790495022E+00 -0.95456641490E+00 -0.19405644079E+02  0.20000000000E+02  0.47000000000E+01 0.  1.
</event>
<event>
 4    1  0.5025809E-002  0.4000000E+02  0.7546771E-02  0.1348030E+00
         11   -1    0    0    0    0  0.00000000000E+00  0.00000000000E+00  0.20000000000E+02  0.20000000000E+02  0.00000000000E+00 0. -1.
        -11   -1    0    0    0    0 -0.00000000000E+00 -0.00000000000E+00 -0.20000000000E+02  0.20000000000E+02  0.00000000000E+00 0.  1.
          5    1    1    2  501    0  0.67040019531E+01 -0.14148236665E+02 -0.11523617361E+02  0.20000000000E+02  0.47000000000E+01 0.  1.
         -5    1    1    2    0  501 -0.67040019531E+01  0.14148236665E+02  0.11523617361E+02  0.20000000000E+02  0.47000000000E+01 0. -1.
</event>
<event>
 4    1  0.5025809E-002  0.4000000E+02  0.7546771E-02  0.1348030E+00
         11   -1    0    0    0    0  0.00000000000E+00  0.00000000000E+00  0.20000000000E+02  0.20000000000E+02  0.00000000000E+00 0.  1.
        -11   -1    0    0    0    0 -0.00000000000E+00 -0.00000000000E+00 -0.20000000000E+02  0.20000000000E+02  0.00000000000E+00 0. -1.
          5    1    1    2  501    0 -0.92184668222E+00 -0.14645140057E+02 -0.12750689056E+02  0.20000000000E+02  0.47000000000E+01 0. -1.
         -5    1    1    2    0  501  0.92184668222E+00  0.14645140057E+02  0.12750689056E+02  0.20000000000E+02  0.47000000000E+01 0.  1.
</event>
<event>
 4    1  0.5025809E-002  0.4000000E+02  0.7546771E-02  0.1348030E+00
         11   -1    0    0    0    0  0.00000000000E+00  0.00000000000E+00  0.20000000000E+02  0.20000000000E+02  0.00000000000E+00 0.  1.
        -11   -1    0    0    0    0 -0.00000000000E+00 -0.00000000000E+00 -0.20000000000E+02  0.20000000000E+02  0.00000000000E+00 0. -1.
          5    1    1    2  501    0 -0.39737194790E+01  0.66680807218E+01 -0.17822913706E+02  0.20000000000E+02  0.47000000000E+01 0. -1.
         -5    1    1    2    0  501  0.39737194790E+01 -0.66680807218E+01  0.17822913706E+02  0.20000000000E+02  0.47000000000E+01 0.  1.
</event>
<event>
 4    1  0.5025809E-002  0.4000000E+02  0.7546771E-02  0.1348030E+00
         11   -1    0    0    0    0  0.00000000000E+00  0.00000000000E+00  0.20000000000E+02  0.20000000000E+02  0.00000000000E+00 0.  1.
        -11   -1    0    0    0    0 -0.00000000000E+00 -0.00000000000E+00 -0.20000000000E+02  0.20000000000E+02  0.00000000000E+00 0. -1.
          5    1    1    2  501    0  0.63920884379E+01  0.16326831403E+02 -0.83955810841E+01  0.20000000000E+02  0.47000000000E+01 0. -1.
         -5    1    1    2    0  501 -0.63920884379E+01 -0.16326831403E+02  0.83955810841E+01  0.20000000000E+02  0.47000000000E+01 0.  1.
</event>
<event>
 4    1  0.5025809E-002  0.4000000E+02  0.7546771E-02  0.1348030E+00
         11   -1    0    0    0    0  0.00000000000E+00  0.00000000000E+00  0.20000000000E+02  0.20000000000E+02  0.00000000000E+00 0.  1.
        -11   -1    0    0    0    0 -0.00000000000E+00 -0.00000000000E+00 -0.20000000000E+02  0.20000000000E+02  0.00000000000E+00 0. -1.
          5    1    1    2  501    0  0.17230577899E+02 -0.82493333694E+01 -0.36007893884E+01  0.20000000000E+02  0.47000000000E+01 0. -1.
         -5    1    1    2    0  501 -0.17230577899E+02  0.82493333694E+01  0.36007893884E+01  0.20000000000E+02  0.47000000000E+01 0.  1.
</event>
<event>
 4    1  0.5025809E-002  0.4000000E+02  0.7546771E-02  0.1348030E+00
         11   -1    0    0    0    0  0.00000000000E+00  0.00000000000E+00  0.20000000000E+02  0.20000000000E+02  0.00000000000E+00 0.  1.
        -11   -1    0    0    0    0 -0.00000000000E+00 -0.00000000000E+00 -0.20000000000E+02  0.20000000000E+02  0.00000000000E+00 0. -1.
          5    1    1    2  501    0  0.38954080686E+00 -0.79376442563E+01  0.17741253102E+02  0.20000000000E+02  0.47000000000E+01 0.  1.
         -5    1    1    2    0  501 -0.38954080686E+00  0.79376442563E+01 -0.17741253102E+02  0.20000000000E+02  0.47000000000E+01 0. -1.
</event>
<event>
 4    1  0.5025809E-002  0.4000000E+02  0.7546771E-02  0.1348030E+00
         11   -1    0    0    0    0  0.00000000000E+00  0.00000000000E+00  0.20000000000E+02  0.20000000000E+02  0.00000000000E+00 0.  1.
        -11   -1    0    0    0    0 -0.00000000000E+00 -0.00000000000E+00 -0.20000000000E+02  0.20000000000E+02  0.00000000000E+00 0. -1.
          5    1    1    2  501    0  0.66837438822E+01 -0.17544864195E+02 -0.50413597452E+01  0.20000000000E+02  0.47000000000E+01 0. -1.
         -5    1    1    2    0  501 -0.66837438822E+01  0.17544864195E+02  0.50413597452E+01  0.20000000000E+02  0.47000000000E+01 0.  1.
</event>
<event>
 4    1  0.5025809E-002  0.4000000E+02  0.7546771E-02  0.1348030E+00
         11   -1    0    0    0    0  0.00000000000E+00  0.00000000000E+00  0.20000000000E+02  0.20000000000E+02  0.00000000000E+00 0. -1.
        -11   -1    0    0    0    0 -0.00000000000E+00 -0.00000000000E+00 -0.20000000000E+02  0.20000000000E+02  0.00000000000E+00 0.  1.
          5    1    1    2  501    0 -0.14902212769E+02 -0.73429214114E+01  0.10095323656E+02  0.20000000000E+02  0.47000000000E+01 0. -1.
         -5    1    1    2    0  501  0.14902212769E+02  0.73429214114E+01 -0.10095323656E+02  0.20000000000E+02  0.47000000000E+01 0.  1.
</event>
<event>
 4    1  0.5025809E-002  0.4000000E+02  0.7546771E-02  0.1348030E+00
         11   -1    0    0    0    0  0.00000000000E+00  0.00000000000E+00  0.20000000000E+02  0.20000000000E+02  0.00000000000E+00 0. -1.
        -11   -1    0    0    0    0 -0.00000000000E+00 -0.00000000000E+00 -0.20000000000E+02  0.20000000000E+02  0.00000000000E+00 0.  1.
          5    1    1    2  501    0  0.16985085458E+01 -0.19353621926E+02  0.67999048777E+00  0.20000000000E+02  0.47000000000E+01 0. -1.
         -5    1    1    2    0  501 -0.16985085458E+01  0.19353621926E+02 -0.67999048777E+00  0.20000000000E+02  0.47000000000E+01 0.  1.
</event>
<event>
 4    1  0.5025809E-002  0.4000000E+02  0.7546771E-02  0.1348030E+00
         11   -1    0    0    0    0  0.00000000000E+00  0.00000000000E+00  0.20000000000E+02  0.20000000000E+02  0.00000000000E+00 0. -1.
        -11   -1    0    0    0    0 -0.00000000000E+00 -0.00000000000E+00 -0.20000000000E+02  0.20000000000E+02  0.00000000000E+00 0.  1.
          5    1    1    2  501    0 -0.17700461744E+02  0.68737168841E+01 -0.41660137136E+01  0.20000000000E+02  0.47000000000E+01 0.  1.
         -5    1    1    2    0  501  0.17700461744E+02 -0.68737168841E+01  0.41660137136E+01  0.20000000000E+02  0.47000000000E+01 0. -1.
</event>
<event>
 4    1  0.5025809E-002  0.4000000E+02  0.7546771E-02  0.1348030E+00
         11   -1    0    0    0    0  0.00000000000E+00  0.00000000000E+00  0.20000000000E+02  0.20000000000E+02  0.00000000000E+00 0.  1.
        -11   -1    0    0    0    0 -0.00000000000E+00 -0.00000000000E+00 -0.20000000000E+02  0.20000000000E+02  0.00000000000E+00 0. -1.
          5    1    1    2  501    0  0.92154379676E+01 -0.20074117672E+01  0.16998705864E+02  0.20000000000E+02  0.47000000000E+01 0.  1.
         -5    1    1    2    0  501 -0.92154379676E+01  0.20074117672E+01 -0.16998705864E+02  0.20000000000E+02  0.47000000000E+01 0. -1.
</event>
<event>
 4    1  0.5025809E-002  0.4000000E+02  0.7546771E-02  0.1348030E+00
         11   -1    0    0    0    0  0.00000000000E+00  0.00000000000E+00  0.20000000000E+02  0.20000000000E+02  0.00000000000E+00 0. -1.
        -11   -1    0    0    0    0 -0.00000000000E+00 -0.00000000000E+00 -0.20000000000E+02  0.20000000000E+02  0.00000000000E+00 0.  1.
          5    1    1    2  501    0  0.16001533416E+02 -0.10993257997E+02  0.10045929355E+01  0.20000000000E+02  0.47000000000E+01 0.  1.
         -5    1    1    2    0  501 -0.16001533416E+02  0.10993257997E+02 -0.10045929355E+01  0.20000000000E+02  0.47000000000E+01 0. -1.
</event>
<event>
 4    1  0.5025809E-002  0.4000000E+02  0.7546771E-02  0.1348030E+00
         11   -1    0    0    0    0  0.00000000000E+00  0.00000000000E+00  0.20000000000E+02  0.20000000000E+02  0.00000000000E+00 0.  1.
        -11   -1    0    0    0    0 -0.00000000000E+00 -0.00000000000E+00 -0.20000000000E+02  0.20000000000E+02  0.00000000000E+00 0. -1.
          5    1    1    2  501    0 -0.13932422764E+02  0.55892885699E+01 -0.12351414866E+02  0.20000000000E+02  0.47000000000E+01 0. -1.
         -5    1    1    2    0  501  0.13932422764E+02 -0.55892885699E+01  0.12351414866E+02  0.20000000000E+02  0.47000000000E+01 0.  1.
</event>
<event>
 4    1  0.5025809E-002  0.4000000E+02  0.7546771E-02  0.1348030E+00
         11   -1    0    0    0    0  0.00000000000E+00  0.00000000000E+00  0.20000000000E+02  0.20000000000E+02  0.00000000000E+00 0.  1.
        -11   -1    0    0    0    0 -0.00000000000E+00 -0.00000000000E+00 -0.20000000000E+02  0.20000000000E+02  0.00000000000E+00 0. -1.
          5    1    1    2  501    0  0.11667943902E+02  0.14397325218E+02 -0.58724876906E+01  0.20000000000E+02  0.47000000000E+01 0. -1.
         -5    1    1    2    0  501 -0.11667943902E+02 -0.14397325218E+02  0.58724876906E+01  0.20000000000E+02  0.47000000000E+01 0.  1.
</event>
<event>
 4    1  0.5025809E-002  0.4000000E+02  0.7546771E-02  0.1348030E+00
         11   -1    0    0    0    0  0.00000000000E+00  0.00000000000E+00  0.20000000000E+02  0.20000000000E+02  0.00000000000E+00 0.  1.
        -11   -1    0    0    0    0 -0.00000000000E+00 -0.00000000000E+00 -0.20000000000E+02  0.20000000000E+02  0.00000000000E+00 0. -1.
          5    1    1    2  501    0 -0.95926417302E+01  0.47580548266E+01  0.16225046653E+02  0.20000000000E+02  0.47000000000E+01 0.  1.
         -5    1    1    2    0  501  0.95926417302E+01 -0.47580548266E+01 -0.16225046653E+02  0.20000000000E+02  0.47000000000E+01 0. -1.
</event>
<event>
 4    1  0.5025809E-002  0.4000000E+02  0.7546771E-02  0.1348030E+00
         11   -1    0    0    0    0  0.00000000000E+00  0.00000000000E+00  0.20000000000E+02  0.20000000000E+02  0.00000000000E+00 0. -1.
        -11   -1    0    0    0    0 -0.00000000000E+00 -0.00000000000E+00 -0.20000000000E+02  0.20000000000E+02  0.00000000000E+00 0.  1.
          5    1    1    2  501    0 -0.18426060214E+02  0.58120653461E+01 -0.21471379535E+01  0.20000000000E+02  0.47000000000E+01 0.  1.
         -5    1    1    2    0  501  0.18426060214E+02 -0.58120653461E+01  0.21471379535E+01  0.20000000000E+02  0.47000000000E+01 0. -1.
</event>
<event>
 4    1  0.5025809E-002  0.4000000E+02  0.7546771E-02  0.1348030E+00
         11   -1    0    0    0    0  0.00000000000E+00  0.00000000000E+00  0.20000000000E+02  0.20000000000E+02  0.00000000000E+00 0.  1.
        -11   -1    0    0    0    0 -0.00000000000E+00 -0.00000000000E+00 -0.20000000000E+02  0.20000000000E+02  0.00000000000E+00 0. -1.
          5    1    1    2  501    0  0.41383153168E+01  0.22692105948E+01 -0.18858288088E+02  0.20000000000E+02  0.47000000000E+01 0. -1.
         -5    1    1    2    0  501 -0.41383153168E+01 -0.22692105948E+01  0.18858288088E+02  0.20000000000E+02  0.47000000000E+01 0.  1.
</event>
<event>
 4    1  0.5025809E-002  0.4000000E+02  0.7546771E-02  0.1348030E+00
         11   -1    0    0    0    0  0.00000000000E+00  0.00000000000E+00  0.20000000000E+02  0.20000000000E+02  0.00000000000E+00 0.  1.
        -11   -1    0    0    0    0 -0.00000000000E+00 -0.00000000000E+00 -0.20000000000E+02  0.20000000000E+02  0.00000000000E+00 0. -1.
          5    1    1    2  501    0 -0.16705865154E+01  0.16245229415E+01  0.19299742638E+02  0.20000000000E+02  0.47000000000E+01 0.  1.
         -5    1    1    2    0  501  0.16705865154E+01 -0.16245229415E+01 -0.19299742638E+02  0.20000000000E+02  0.47000000000E+01 0. -1.
</event>
<event>
 4    1  0.5025809E-002  0.4000000E+02  0.7546771E-02  0.1348030E+00
         11   -1    0    0    0    0  0.00000000000E+00  0.00000000000E+00  0.20000000000E+02  0.20000000000E+02  0.00000000000E+00 0.  1.
        -11   -1    0    0    0    0 -0.00000000000E+00 -0.00000000000E+00 -0.20000000000E+02  0.20000000000E+02  0.00000000000E+00 0. -1.
          5    1    1    2  501    0  0.71198543072E+01 -0.16533444071E+02 -0.73391349487E+01  0.20000000000E+02  0.47000000000E+01 0.  1.
         -5    1    1    2    0  501 -0.71198543072E+01  0.16533444071E+02  0.73391349487E+01  0.20000000000E+02  0.47000000000E+01 0. -1.
</event>
<event>
 4    1  0.5025809E-002  0.4000000E+02  0.7546771E-02  0.1348030E+00
         11   -1    0    0    0    0  0.00000000000E+00  0.00000000000E+00  0.20000000000E+02  0.20000000000E+02  0.00000000000E+00 0. -1.
        -11   -1    0    0    0    0 -0.00000000000E+00 -0.00000000000E+00 -0.20000000000E+02  0.20000000000E+02  0.00000000000E+00 0.  1.
          5    1    1    2  501    0  0.14669904037E+02  0.68027746097E+01  0.10790096068E+02  0.20000000000E+02  0.47000000000E+01 0. -1.
         -5    1    1    2    0  501 -0.14669904037E+02 -0.68027746097E+01 -0.10790096068E+02  0.20000000000E+02  0.47000000000E+01 0.  1.
</event>
<event>
 4    1  0.5025809E-002  0.4000000E+02  0.7546771E-02  0.1348030E+00
         11   -1    0    0    0    0  0.00000000000E+00  0.00000000000E+00  0.20000000000E+02  0.20000000000E+02  0.00000000000E+00 0. -1.
        -11   -1    0    0    0    0 -0.00000000000E+00 -0.00000000000E+00 -0.20000000000E+02  0.20000000000E+02  0.00000000000E+00 0.  1.
          5    1    1    2  501    0  0.57466782064E+01 -0.12243930882E+02 -0.13963231938E+02  0.20000000000E+02  0.47000000000E+01 0.  1.
         -5    1    1    2    0  501 -0.57466782064E+01  0.12243930882E+02  0.13963231938E+02  0.20000000000E+02  0.47000000000E+01 0. -1.
</event>
<event>
 4    1  0.5025809E-002  0.4000000E+02  0.7546771E-02  0.1348030E+00
         11   -1    0    0    0    0  0.00000000000E+00  0.00000000000E+00  0.20000000000E+02  0.20000000000E+02  0.00000000000E+00 0. -1.
        -11   -1    0    0    0    0 -0.00000000000E+00 -0.00000000000E+00 -0.20000000000E+02  0.20000000000E+02  0.00000000000E+00 0.  1.
          5    1    1    2  501    0 -0.82991500969E+01  0.16155652062E+02  0.69302968267E+01  0.20000000000E+02  0.47000000000E+01 0. -1.
         -5    1    1    2    0  501  0.82991500969E+01 -0.16155652062E+02 -0.69302968267E+01  0.20000000000E+02  0.47000000000E+01 0.  1.
</event>
<event>
 4    1  0.5025809E-002  0.4000000E+02  0.7546771E-02  0.1348030E+00
         11   -1    0    0    0    0  0.00000000000E+00  0.00000000000E+00  0.20000000000E+02  0.20000000000E+02  0.00000000000E+00 0.  1.
        -11   -1    0    0    0    0 -0.00000000000E+00 -0.00000000000E+00 -0.20000000000E+02  0.20000000000E+02  0.00000000000E+00 0. -1.
          5    1    1    2  501    0 -0.13638623876E+02  0.16740202804E+01 -0.13751203397E+02  0.20000000000E+02  0.47000000000E+01 0. -1.
         -5    1    1    2    0  501  0.13638623876E+02 -0.16740202804E+01  0.13751203397E+02  0.20000000000E+02  0.47000000000E+01 0.  1.
</event>
<event>
 4    1  0.5025809E-002  0.4000000E+02  0.7546771E-02  0.1348030E+00
         11   -1    0    0    0    0  0.00000000000E+00  0.00000000000E+00  0.20000000000E+02  0.20000000000E+02  0.00000000000E+00 0.  1.
        -11   -1    0    0    0    0 -0.00000000000E+00 -0.00000000000E+00 -0.20000000000E+02  0.20000000000E+02  0.00000000000E+00 0. -1.
          5    1    1    2  501    0  0.16911074805E+02  0.40099972958E+01  0.87089305100E+01  0.20000000000E+02  0.47000000000E+01 0.  1.
         -5    1    1    2    0  501 -0.16911074805E+02 -0.40099972958E+01 -0.87089305100E+01  0.20000000000E+02  0.47000000000E+01 0. -1.
</event>
<event>
 4    1  0.5025809E-002  0.4000000E+02  0.7546771E-02  0.1348030E+00
         11   -1    0    0    0    0  0.00000000000E+00  0.00000000000E+00  0.20000000000E+02  0.20000000000E+02  0.00000000000E+00 0.  1.
        -11   -1    0    0    0    0 -0.00000000000E+00 -0.00000000000E+00 -0.20000000000E+02  0.20000000000E+02  0.00000000000E+00 0. -1.
          5    1    1    2  501    0  0.75780333637E+01  0.97655665979E+01 -0.15003903471E+02  0.20000000000E+02  0.47000000000E+01 0. -1.
         -5    1    1    2    0  501 -0.75780333637E+01 -0.97655665979E+01  0.15003903471E+02  0.20000000000E+02  0.47000000000E+01 0.  1.
</event>
<event>
 4    1  0.5025809E-002  0.4000000E+02  0.7546771E-02  0.1348030E+00
         11   -1    0    0    0    0  0.00000000000E+00  0.00000000000E+00  0.20000000000E+02  0.20000000000E+02  0.00000000000E+00 0.  1.
        -11   -1    0    0    0    0 -0.00000000000E+00 -0.00000000000E+00 -0.20000000000E+02  0.20000000000E+02  0.00000000000E+00 0. -1.
          5    1    1    2  501    0 -0.44138495062E+01 -0.10893816449E+02 -0.15483949616E+02  0.20000000000E+02  0.47000000000E+01 0. -1.
         -5    1    1    2    0  501  0.44138495062E+01  0.10893816449E+02  0.15483949616E+02  0.20000000000E+02  0.47000000000E+01 0.  1.
</event>
<event>
 4    1  0.5025809E-002  0.4000000E+02  0.7546771E-02  0.1348030E+00
         11   -1    0    0    0    0  0.00000000000E+00  0.00000000000E+00  0.20000000000E+02  0.20000000000E+02  0.00000000000E+00 0. -1.
        -11   -1    0    0    0    0 -0.00000000000E+00 -0.00000000000E+00 -0.20000000000E+02  0.20000000000E+02  0.00000000000E+00 0.  1.
          5    1    1    2  501    0 -0.11817938801E+02  0.12633264333E+02  0.88683118344E+01  0.20000000000E+02  0.47000000000E+01 0. -1.
         -5    1    1    2    0  501  0.11817938801E+02 -0.12633264333E+02 -0.88683118344E+01  0.20000000000E+02  0.47000000000E+01 0.  1.
</event>
<event>
 4    1  0.5025809E-002  0.4000000E+02  0.7546771E-02  0.1348030E+00
         11   -1    0    0    0    0  0.00000000000E+00  0.00000000000E+00  0.20000000000E+02  0.20000000000E+02  0.00000000000E+00 0.  1.
        -11   -1    0    0    0    0 -0.00000000000E+00 -0.00000000000E+00 -0.20000000000E+02  0.20000000000E+02  0.00000000000E+00 0. -1.
          5    1    1    2  501    0  0.11284610729E+00  0.19365625109E+02 -0.16940572266E+01  0.20000000000E+02  0.47000000000E+01 0. -1.
         -5    1    1    2    0  501 -0.11284610729E+00 -0.19365625109E+02  0.16940572266E+01  0.20000000000E+02  0.47000000000E+01 0.  1.
</event>
<event>
 4    1  0.5025809E-002  0.4000000E+02  0.7546771E-02  0.1348030E+00
         11   -1    0    0    0    0  0.00000000000E+00  0.00000000000E+00  0.20000000000E+02  0.20000000000E+02  0.00000000000E+00 0.  1.
        -11   -1    0    0    0    0 -0.00000000000E+00 -0.00000000000E+00 -0.20000000000E+02  0.20000000000E+02  0.00000000000E+00 0. -1.
          5    1    1    2  501    0  0.29120041902E+01  0.18178661572E+02  0.62423148779E+01  0.20000000000E+02  0.47000000000E+01 0. -1.
         -5    1    1    2    0  501 -0.29120041902E+01 -0.18178661572E+02 -0.62423148779E+01  0.20000000000E+02  0.47000000000E+01 0.  1.
</event>
<event>
 4    1  0.5025809E-002  0.4000000E+02  0.7546771E-02  0.1348030E+00
         11   -1    0    0    0    0  0.00000000000E+00  0.00000000000E+00  0.20000000000E+02  0.20000000000E+02  0.00000000000E+00 0.  1.
        -11   -1    0    0    0    0 -0.00000000000E+00 -0.00000000000E+00 -0.20000000000E+02  0.20000000000E+02  0.00000000000E+00 0. -1.
          5    1    1    2  501    0  0.15124268901E+02 -0.34035683108E+00  0.12208630040E+02  0.20000000000E+02  0.47000000000E+01 0.  1.
         -5    1    1    2    0  501 -0.15124268901E+02  0.34035683108E+00 -0.12208630040E+02  0.20000000000E+02  0.47000000000E+01 0. -1.
</event>
<event>
 4    1  0.5025809E-002  0.4000000E+02  0.7546771E-02  0.1348030E+00
         11   -1    0    0    0    0  0.00000000000E+00  0.00000000000E+00  0.20000000000E+02  0.20000000000E+02  0.00000000000E+00 0.  1.
        -11   -1    0    0    0    0 -0.00000000000E+00 -0.00000000000E+00 -0.20000000000E+02  0.20000000000E+02  0.00000000000E+00 0. -1.
          5    1    1    2  501    0 -0.15552100429E+01  0.38850798866E+01  0.18984137484E+02  0.20000000000E+02  0.47000000000E+01 0.  1.
         -5    1    1    2    0  501  0.15552100429E+01 -0.38850798866E+01 -0.18984137484E+02  0.20000000000E+02  0.47000000000E+01 0. -1.
</event>
<event>
 4    1  0.5025809E-002  0.4000000E+02  0.7546771E-02  0.1348030E+00
         11   -1    0    0    0    0  0.00000000000E+00  0.00000000000E+00  0.20000000000E+02  0.20000000000E+02  0.00000000000E+00 0.  1.
        -11   -1    0    0    0    0 -0.00000000000E+00 -0.00000000000E+00 -0.20000000000E+02  0.20000000000E+02  0.00000000000E+00 0. -1.
          5    1    1    2  501    0 -0.18830473056E+01  0.18941334870E+02  0.39484131240E+01  0.20000000000E+02  0.47000000000E+01 0.  1.
         -5    1    1    2    0  501  0.18830473056E+01 -0.18941334870E+02 -0.39484131240E+01  0.20000000000E+02  0.47000000000E+01 0. -1.
</event>
<event>
 4    1  0.5025809E-002  0.4000000E+02  0.7546771E-02  0.1348030E+00
         11   -1    0    0    0    0  0.00000000000E+00  0.00000000000E+00  0.20000000000E+02  0.20000000000E+02  0.00000000000E+00 0.  1.
        -11   -1    0    0    0    0 -0.00000000000E+00 -0.00000000000E+00 -0.20000000000E+02  0.20000000000E+02  0.00000000000E+00 0. -1.
          5    1    1    2  501    0  0.10888195831E+02 -0.10715613783E+02 -0.12022180035E+02  0.20000000000E+02  0.47000000000E+01 0. -1.
         -5    1    1    2    0  501 -0.10888195831E+02  0.10715613783E+02  0.12022180035E+02  0.20000000000E+02  0.47000000000E+01 0.  1.
</event>
<event>
 4    1  0.5025809E-002  0.4000000E+02  0.7546771E-02  0.1348030E+00
         11   -1    0    0    0    0  0.00000000000E+00  0.00000000000E+00  0.20000000000E+02  0.20000000000E+02  0.00000000000E+00 0.  1.
        -11   -1    0    0    0    0 -0.00000000000E+00 -0.00000000000E+00 -0.20000000000E+02  0.20000000000E+02  0.00000000000E+00 0. -1.
          5    1    1    2  501    0  0.62959130941E+01  0.45476307394E+01 -0.17821069917E+02  0.20000000000E+02  0.47000000000E+01 0. -1.
         -5    1    1    2    0  501 -0.62959130941E+01 -0.45476307394E+01  0.17821069917E+02  0.20000000000E+02  0.47000000000E+01 0.  1.
</event>
<event>
 4    1  0.5025809E-002  0.4000000E+02  0.7546771E-02  0.1348030E+00
         11   -1    0    0    0    0  0.00000000000E+00  0.00000000000E+00  0.20000000000E+02  0.20000000000E+02  0.00000000000E+00 0.  1.
        -11   -1    0    0    0    0 -0.00000000000E+00 -0.00000000000E+00 -0.20000000000E+02  0.20000000000E+02  0.00000000000E+00 0. -1.
          5    1    1    2  501    0  0.15117387474E+02 -0.20780339535E+01  0.12043935023E+02  0.20000000000E+02  0.47000000000E+01 0.  1.
         -5    1    1    2    0  501 -0.15117387474E+02  0.20780339535E+01 -0.12043935023E+02  0.20000000000E+02  0.47000000000E+01 0. -1.
</event>
<event>
 4    1  0.5025809E-002  0.4000000E+02  0.7546771E-02  0.1348030E+00
         11   -1    0    0    0    0  0.00000000000E+00  0.00000000000E+00  0.20000000000E+02  0.20000000000E+02  0.00000000000E+00 0.  1.
        -11   -1    0    0    0    0 -0.00000000000E+00 -0.00000000000E+00 -0.20000000000E+02  0.20000000000E+02  0.00000000000E+00 0. -1.
          5    1    1    2  501    0  0.14878788231E+02 -0.16519528253E+01  0.12401722164E+02  0.20000000000E+02  0.47000000000E+01 0.  1.
         -5    1    1    2    0  501 -0.14878788231E+02  0.16519528253E+01 -0.12401722164E+02  0.20000000000E+02  0.47000000000E+01 0. -1.
</event>
<event>
 4    1  0.5025809E-002  0.4000000E+02  0.7546771E-02  0.1348030E+00
         11   -1    0    0    0    0  0.00000000000E+00  0.00000000000E+00  0.20000000000E+02  0.20000000000E+02  0.00000000000E+00 0.  1.
        -11   -1    0    0    0    0 -0.00000000000E+00 -0.00000000000E+00 -0.20000000000E+02  0.20000000000E+02  0.00000000000E+00 0. -1.
          5    1    1    2  501    0  0.90582739164E+01 -0.12027128843E+02 -0.12296578607E+02  0.20000000000E+02  0.47000000000E+01 0. -1.
         -5    1    1    2    0  501 -0.90582739164E+01  0.12027128843E+02  0.12296578607E+02  0.20000000000E+02  0.47000000000E+01 0.  1.
</event>
<event>
 4    1  0.5025809E-002  0.4000000E+02  0.7546771E-02  0.1348030E+00
         11   -1    0    0    0    0  0.00000000000E+00  0.00000000000E+00  0.20000000000E+02  0.20000000000E+02  0.00000000000E+00 0.  1.
        -11   -1    0    0    0    0 -0.00000000000E+00 -0.00000000000E+00 -0.20000000000E+02  0.20000000000E+02  0.00000000000E+00 0. -1.
          5    1    1    2  501    0  0.43876010798E+01  0.65121574052E+00 -0.18927093671E+02  0.20000000000E+02  0.47000000000E+01 0. -1.
         -5    1    1    2    0  501 -0.43876010798E+01 -0.65121574052E+00  0.18927093671E+02  0.20000000000E+02  0.47000000000E+01 0.  1.
</event>
<event>
 4    1  0.5025809E-002  0.4000000E+02  0.7546771E-02  0.1348030E+00
         11   -1    0    0    0    0  0.00000000000E+00  0.00000000000E+00  0.20000000000E+02  0.20000000000E+02  0.00000000000E+00 0. -1.
        -11   -1    0    0    0    0 -0.00000000000E+00 -0.00000000000E+00 -0.20000000000E+02  0.20000000000E+02  0.00000000000E+00 0.  1.
          5    1    1    2  501    0 -0.17032283542E+02  0.86293708894E+01 -0.36531185835E+01  0.20000000000E+02  0.47000000000E+01 0.  1.
         -5    1    1    2    0  501  0.17032283542E+02 -0.86293708894E+01  0.36531185835E+01  0.20000000000E+02  0.47000000000E+01 0. -1.
</event>
<event>
 4    1  0.5025809E-002  0.4000000E+02  0.7546771E-02  0.1348030E+00
         11   -1    0    0    0    0  0.00000000000E+00  0.00000000000E+00  0.20000000000E+02  0.20000000000E+02  0.00000000000E+00 0.  1.
        -11   -1    0    0    0    0 -0.00000000000E+00 -0.00000000000E+00 -0.20000000000E+02  0.20000000000E+02  0.00000000000E+00 0. -1.
          5    1    1    2  501    0 -0.14350909495E+02  0.46578958938E+01 -0.12258278937E+02  0.20000000000E+02  0.47000000000E+01 0. -1.
         -5    1    1    2    0  501  0.14350909495E+02 -0.46578958938E+01  0.12258278937E+02  0.20000000000E+02  0.47000000000E+01 0.  1.
</event>
<event>
 4    1  0.5025809E-002  0.4000000E+02  0.7546771E-02  0.1348030E+00
         11   -1    0    0    0    0  0.00000000000E+00  0.00000000000E+00  0.20000000000E+02  0.20000000000E+02  0.00000000000E+00 0. -1.
        -11   -1    0    0    0    0 -0.00000000000E+00 -0.00000000000E+00 -0.20000000000E+02  0.20000000000E+02  0.00000000000E+00 0.  1.
          5    1    1    2  501    0 -0.18593681454E+02  0.23861906829E-01 -0.56731332254E+01  0.20000000000E+02  0.47000000000E+01 0. -1.
         -5    1    1    2    0  501  0.18593681454E+02 -0.23861906829E-01  0.56731332254E+01  0.20000000000E+02  0.47000000000E+01 0.  1.
</event>
<event>
 4    1  0.5025809E-002  0.4000000E+02  0.7546771E-02  0.1348030E+00
         11   -1    0    0    0    0  0.00000000000E+00  0.00000000000E+00  0.20000000000E+02  0.20000000000E+02  0.00000000000E+00 0. -1.
        -11   -1    0    0    0    0 -0.00000000000E+00 -0.00000000000E+00 -0.20000000000E+02  0.20000000000E+02  0.00000000000E+00 0.  1.
          5    1    1    2  501    0  0.16359583159E+02  0.28951535244E+01 -0.10094162913E+02  0.20000000000E+02  0.47000000000E+01 0.  1.
         -5    1    1    2    0  501 -0.16359583159E+02 -0.28951535244E+01  0.10094162913E+02  0.20000000000E+02  0.47000000000E+01 0. -1.
</event>
<event>
 4    1  0.5025809E-002  0.4000000E+02  0.7546771E-02  0.1348030E+00
         11   -1    0    0    0    0  0.00000000000E+00  0.00000000000E+00  0.20000000000E+02  0.20000000000E+02  0.00000000000E+00 0.  1.
        -11   -1    0    0    0    0 -0.00000000000E+00 -0.00000000000E+00 -0.20000000000E+02  0.20000000000E+02  0.00000000000E+00 0. -1.
          5    1    1    2  501    0 -0.10777283089E+02 -0.16163366151E+02 -0.71117077648E+00  0.20000000000E+02  0.47000000000E+01 0. -1.
         -5    1    1    2    0  501  0.10777283089E+02  0.16163366151E+02  0.71117077648E+00  0.20000000000E+02  0.47000000000E+01 0.  1.
</event>
<event>
 4    1  0.5025809E-002  0.4000000E+02  0.7546771E-02  0.1348030E+00
         11   -1    0    0    0    0  0.00000000000E+00  0.00000000000E+00  0.20000000000E+02  0.20000000000E+02  0.00000000000E+00 0.  1.
        -11   -1    0    0    0    0 -0.00000000000E+00 -0.00000000000E+00 -0.20000000000E+02  0.20000000000E+02  0.00000000000E+00 0. -1.
          5    1    1    2  501    0  0.32712978871E+01  0.18407184925E+02  0.53276780386E+01  0.20000000000E+02  0.47000000000E+01 0.  1.
         -5    1    1    2    0  501 -0.32712978871E+01 -0.18407184925E+02 -0.53276780386E+01  0.20000000000E+02  0.47000000000E+01 0. -1.
</event>
<event>
 4    1  0.5025809E-002  0.4000000E+02  0.7546771E-02  0.1348030E+00
         11   -1    0    0    0    0  0.00000000000E+00  0.00000000000E+00  0.20000000000E+02  0.20000000000E+02  0.00000000000E+00 0.  1.
        -11   -1    0    0    0    0 -0.00000000000E+00 -0.00000000000E+00 -0.20000000000E+02  0.20000000000E+02  0.00000000000E+00 0. -1.
          5    1    1    2  501    0 -0.46286473122E+01  0.16218987634E+02  0.96659228310E+01  0.20000000000E+02  0.47000000000E+01 0.  1.
         -5    1    1    2    0  501  0.46286473122E+01 -0.16218987634E+02 -0.96659228310E+01  0.20000000000E+02  0.47000000000E+01 0. -1.
</event>
<event>
 4    1  0.5025809E-002  0.4000000E+02  0.7546771E-02  0.1348030E+00
         11   -1    0    0    0    0  0.00000000000E+00  0.00000000000E+00  0.20000000000E+02  0.20000000000E+02  0.00000000000E+00 0.  1.
        -11   -1    0    0    0    0 -0.00000000000E+00 -0.00000000000E+00 -0.20000000000E+02  0.20000000000E+02  0.00000000000E+00 0. -1.
          5    1    1    2  501    0 -0.18032654917E+02 -0.71009674228E+01 -0.15197428410E+01  0.20000000000E+02  0.47000000000E+01 0. -1.
         -5    1    1    2    0  501  0.18032654917E+02  0.71009674228E+01  0.15197428410E+01  0.20000000000E+02  0.47000000000E+01 0.  1.
</event>
<event>
 4    1  0.5025809E-002  0.4000000E+02  0.7546771E-02  0.1348030E+00
         11   -1    0    0    0    0  0.00000000000E+00  0.00000000000E+00  0.20000000000E+02  0.20000000000E+02  0.00000000000E+00 0.  1.
        -11   -1    0    0    0    0 -0.00000000000E+00 -0.00000000000E+00 -0.20000000000E+02  0.20000000000E+02  0.00000000000E+00 0. -1.
          5    1    1    2  501    0  0.15265979231E+02 -0.11540735285E+01 -0.11980316875E+02  0.20000000000E+02  0.47000000000E+01 0. -1.
         -5    1    1    2    0  501 -0.15265979231E+02  0.11540735285E+01  0.11980316875E+02  0.20000000000E+02  0.47000000000E+01 0.  1.
</event>
<event>
 4    1  0.5025809E-002  0.4000000E+02  0.7546771E-02  0.1348030E+00
         11   -1    0    0    0    0  0.00000000000E+00  0.00000000000E+00  0.20000000000E+02  0.20000000000E+02  0.00000000000E+00 0.  1.
        -11   -1    0    0    0    0 -0.00000000000E+00 -0.00000000000E+00 -0.20000000000E+02  0.20000000000E+02  0.00000000000E+00 0. -1.
          5    1    1    2  501    0  0.14335272289E+02  0.12517497036E+02  0.39651275360E+01  0.20000000000E+02  0.47000000000E+01 0. -1.
         -5    1    1    2    0  501 -0.14335272289E+02 -0.12517497036E+02 -0.39651275360E+01  0.20000000000E+02  0.47000000000E+01 0.  1.
</event>
<event>
 4    1  0.5025809E-002  0.4000000E+02  0.7546771E-02  0.1348030E+00
         11   -1    0    0    0    0  0.00000000000E+00  0.00000000000E+00  0.20000000000E+02  0.20000000000E+02  0.00000000000E+00 0.  1.
        -11   -1    0    0    0    0 -0.00000000000E+00 -0.00000000000E+00 -0.20000000000E+02  0.20000000000E+02  0.00000000000E+00 0. -1.
          5    1    1    2  501    0  0.15740716251E+02  0.80332108725E+01 -0.80998379597E+01  0.20000000000E+02  0.47000000000E+01 0. -1.
         -5    1    1    2    0  501 -0.15740716251E+02 -0.80332108725E+01  0.80998379597E+01  0.20000000000E+02  0.47000000000E+01 0.  1.
</event>
<event>
 4    1  0.5025809E-002  0.4000000E+02  0.7546771E-02  0.1348030E+00
         11   -1    0    0    0    0  0.00000000000E+00  0.00000000000E+00  0.20000000000E+02  0.20000000000E+02  0.00000000000E+00 0.  1.
        -11   -1    0    0    0    0 -0.00000000000E+00 -0.00000000000E+00 -0.20000000000E+02  0.20000000000E+02  0.00000000000E+00 0. -1.
          5    1    1    2  501    0 -0.18562349199E+02  0.33193443227E+01 -0.47255841410E+01  0.20000000000E+02  0.47000000000E+01 0. -1.
         -5    1    1    2    0  501  0.18562349199E+02 -0.33193443227E+01  0.47255841410E+01  0.20000000000E+02  0.47000000000E+01 0.  1.
</event>
<event>
 4    1  0.5025809E-002  0.4000000E+02  0.7546771E-02  0.1348030E+00
         11   -1    0    0    0    0  0.00000000000E+00  0.00000000000E+00  0.20000000000E+02  0.20000000000E+02  0.00000000000E+00 0.  1.
        -11   -1    0    0    0    0 -0.00000000000E+00 -0.00000000000E+00 -0.20000000000E+02  0.20000000000E+02  0.00000000000E+00 0. -1.
          5    1    1    2  501    0  0.15710456633E+02  0.11343287166E+02  0.15560811892E+01  0.20000000000E+02  0.47000000000E+01 0. -1.
         -5    1    1    2    0  501 -0.15710456633E+02 -0.11343287166E+02 -0.15560811892E+01  0.20000000000E+02  0.47000000000E+01 0.  1.
</event>
<event>
 4    1  0.5025809E-002  0.4000000E+02  0.7546771E-02  0.1348030E+00
         11   -1    0    0    0    0  0.00000000000E+00  0.00000000000E+00  0.20000000000E+02  0.20000000000E+02  0.00000000000E+00 0. -1.
        -11   -1    0    0    0    0 -0.00000000000E+00 -0.00000000000E+00 -0.20000000000E+02  0.20000000000E+02  0.00000000000E+00 0.  1.
          5    1    1    2  501    0 -0.61510852904E+00  0.36322329824E-02 -0.19430173141E+02  0.20000000000E+02  0.47000000000E+01 0.  1.
         -5    1    1    2    0  501  0.61510852904E+00 -0.36322329824E-02  0.19430173141E+02  0.20000000000E+02  0.47000000000E+01 0. -1.
</event>
<event>
 4    1  0.5025809E-002  0.4000000E+02  0.7546771E-02  0.1348030E+00
         11   -1    0    0    0    0  0.00000000000E+00  0.00000000000E+00  0.20000000000E+02  0.20000000000E+02  0.00000000000E+00 0. -1.
        -11   -1    0    0    0    0 -0.00000000000E+00 -0.00000000000E+00 -0.20000000000E+02  0.20000000000E+02  0.00000000000E+00 0.  1.
          5    1    1    2  501    0  0.11799944637E+02 -0.14391230448E+02 -0.56181663164E+01  0.20000000000E+02  0.47000000000E+01 0.  1.
         -5    1    1    2    0  501 -0.11799944637E+02  0.14391230448E+02  0.56181663164E+01  0.20000000000E+02  0.47000000000E+01 0. -1.
</event>
<event>
 4    1  0.5025809E-002  0.4000000E+02  0.7546771E-02  0.1348030E+00
         11   -1    0    0    0    0  0.00000000000E+00  0.00000000000E+00  0.20000000000E+02  0.20000000000E+02  0.00000000000E+00 0.  1.
        -11   -1    0    0    0    0 -0.00000000000E+00 -0.00000000000E+00 -0.20000000000E+02  0.20000000000E+02  0.00000000000E+00 0. -1.
          5    1    1    2  501    0 -0.66699080988E+01 -0.93853184815E+01  0.15663273060E+02  0.20000000000E+02  0.47000000000E+01 0.  1.
         -5    1    1    2    0  501  0.66699080988E+01  0.93853184815E+01 -0.15663273060E+02  0.20000000000E+02  0.47000000000E+01 0. -1.
</event>
<event>
 4    1  0.5025809E-002  0.4000000E+02  0.7546771E-02  0.1348030E+00
         11   -1    0    0    0    0  0.00000000000E+00  0.00000000000E+00  0.20000000000E+02  0.20000000000E+02  0.00000000000E+00 0.  1.
        -11   -1    0    0    0    0 -0.00000000000E+00 -0.00000000000E+00 -0.20000000000E+02  0.20000000000E+02  0.00000000000E+00 0. -1.
          5    1    1    2  501    0 -0.17415982889E+02  0.42157642921E+00  0.86264600687E+01  0.20000000000E+02  0.47000000000E+01 0.  1.
         -5    1    1    2    0  501  0.17415982889E+02 -0.42157642921E+00 -0.86264600687E+01  0.20000000000E+02  0.47000000000E+01 0. -1.
</event>
<event>
 4    1  0.5025809E-002  0.4000000E+02  0.7546771E-02  0.1348030E+00
         11   -1    0    0    0    0  0.00000000000E+00  0.00000000000E+00  0.20000000000E+02  0.20000000000E+02  0.00000000000E+00 0. -1.
        -11   -1    0    0    0    0 -0.00000000000E+00 -0.00000000000E+00 -0.20000000000E+02  0.20000000000E+02  0.00000000000E+00 0.  1.
          5    1    1    2  501    0  0.11829950725E+02 -0.12890439965E+02  0.84734186339E+01  0.20000000000E+02  0.47000000000E+01 0.  1.
         -5    1    1    2    0  501 -0.11829950725E+02  0.12890439965E+02 -0.84734186339E+01  0.20000000000E+02  0.47000000000E+01 0. -1.
</event>
<event>
 4    1  0.5025809E-002  0.4000000E+02  0.7546771E-02  0.1348030E+00
         11   -1    0    0    0    0  0.00000000000E+00  0.00000000000E+00  0.20000000000E+02  0.20000000000E+02  0.00000000000E+00 0. -1.
        -11   -1    0    0    0    0 -0.00000000000E+00 -0.00000000000E+00 -0.20000000000E+02  0.20000000000E+02  0.00000000000E+00 0.  1.
          5    1    1    2  501    0  0.18834705070E+02  0.14063616236E+01  0.46028286848E+01  0.20000000000E+02  0.47000000000E+01 0.  1.
         -5    1    1    2    0  501 -0.18834705070E+02 -0.14063616236E+01 -0.46028286848E+01  0.20000000000E+02  0.47000000000E+01 0. -1.
</event>
<event>
 4    1  0.5025809E-002  0.4000000E+02  0.7546771E-02  0.1348030E+00
         11   -1    0    0    0    0  0.00000000000E+00  0.00000000000E+00  0.20000000000E+02  0.20000000000E+02  0.00000000000E+00 0.  1.
        -11   -1    0    0    0    0 -0.00000000000E+00 -0.00000000000E+00 -0.20000000000E+02  0.20000000000E+02  0.00000000000E+00 0. -1.
          5    1    1    2  501    0  0.23510380499E-01  0.13675282019E+02 -0.13816515804E+02  0.20000000000E+02  0.47000000000E+01 0. -1.
         -5    1    1    2    0  501 -0.23510380499E-01 -0.13675282019E+02  0.13816515804E+02  0.20000000000E+02  0.47000000000E+01 0.  1.
</event>
<event>
 4    1  0.5025809E-002  0.4000000E+02  0.7546771E-02  0.1348030E+00
         11   -1    0    0    0    0  0.00000000000E+00  0.00000000000E+00  0.20000000000E+02  0.20000000000E+02  0.00000000000E+00 0.  1.
        -11   -1    0    0    0    0 -0.00000000000E+00 -0.00000000000E+00 -0.20000000000E+02  0.20000000000E+02  0.00000000000E+00 0. -1.
          5    1    1    2  501    0 -0.30786490631E-01 -0.18675311254E+02 -0.53983147138E+01  0.20000000000E+02  0.47000000000E+01 0. -1.
         -5    1    1    2    0  501  0.30786490631E-01  0.18675311254E+02  0.53983147138E+01  0.20000000000E+02  0.47000000000E+01 0.  1.
</event>
<event>
 4    1  0.5025809E-002  0.4000000E+02  0.7546771E-02  0.1348030E+00
         11   -1    0    0    0    0  0.00000000000E+00  0.00000000000E+00  0.20000000000E+02  0.20000000000E+02  0.00000000000E+00 0. -1.
        -11   -1    0    0    0    0 -0.00000000000E+00 -0.00000000000E+00 -0.20000000000E+02  0.20000000000E+02  0.00000000000E+00 0.  1.
          5    1    1    2  501    0 -0.80444899611E+00 -0.15450114285E+02 -0.11771016540E+02  0.20000000000E+02  0.47000000000E+01 0.  1.
         -5    1    1    2    0  501  0.80444899611E+00  0.15450114285E+02  0.11771016540E+02  0.20000000000E+02  0.47000000000E+01 0. -1.
</event>
<event>
 4    1  0.5025809E-002  0.4000000E+02  0.7546771E-02  0.1348030E+00
         11   -1    0    0    0    0  0.00000000000E+00  0.00000000000E+00  0.20000000000E+02  0.20000000000E+02  0.00000000000E+00 0.  1.
        -11   -1    0    0    0    0 -0.00000000000E+00 -0.00000000000E+00 -0.20000000000E+02  0.20000000000E+02  0.00000000000E+00 0. -1.
          5    1    1    2  501    0  0.17146578343E+02 -0.47996332989E+01  0.78018184632E+01  0.20000000000E+02  0.47000000000E+01 0.  1.
         -5    1    1    2    0  501 -0.17146578343E+02  0.47996332989E+01 -0.78018184632E+01  0.20000000000E+02  0.47000000000E+01 0. -1.
</event>
<event>
 4    1  0.5025809E-002  0.4000000E+02  0.7546771E-02  0.1348030E+00
         11   -1    0    0    0    0  0.00000000000E+00  0.00000000000E+00  0.20000000000E+02  0.20000000000E+02  0.00000000000E+00 0.  1.
        -11   -1    0    0    0    0 -0.00000000000E+00 -0.00000000000E+00 -0.20000000000E+02  0.20000000000E+02  0.00000000000E+00 0. -1.
          5    1    1    2  501    0 -0.53116874200E+01  0.18456309908E+02 -0.30100832764E+01  0.20000000000E+02  0.47000000000E+01 0.  1.
         -5    1    1    2    0  501  0.53116874200E+01 -0.18456309908E+02  0.30100832764E+01  0.20000000000E+02  0.47000000000E+01 0. -1.
</event>
<event>
 4    1  0.5025809E-002  0.4000000E+02  0.7546771E-02  0.1348030E+00
         11   -1    0    0    0    0  0.00000000000E+00  0.00000000000E+00  0.20000000000E+02  0.20000000000E+02  0.00000000000E+00 0. -1.
        -11   -1    0    0    0    0 -0.00000000000E+00 -0.00000000000E+00 -0.20000000000E+02  0.20000000000E+02  0.00000000000E+00 0.  1.
          5    1    1    2  501    0  0.39724242635E+01  0.60031939352E+01 -0.18058003988E+02  0.20000000000E+02  0.47000000000E+01 0.  1.
         -5    1    1    2    0  501 -0.39724242635E+01 -0.60031939352E+01  0.18058003988E+02  0.20000000000E+02  0.47000000000E+01 0. -1.
</event>
<event>
 4    1  0.5025809E-002  0.4000000E+02  0.7546771E-02  0.1348030E+00
         11   -1    0    0    0    0  0.00000000000E+00  0.00000000000E+00  0.20000000000E+02  0.20000000000E+02  0.00000000000E+00 0.  1.
        -11   -1    0    0    0    0 -0.00000000000E+00 -0.00000000000E+00 -0.20000000000E+02  0.20000000000E+02  0.00000000000E+00 0. -1.
          5    1    1    2  501    0 -0.85163283506E+01  0.16763914222E+02 -0.49349094594E+01  0.20000000000E+02  0.47000000000E+01 0.  1.
         -5    1    1    2    0  501  0.85163283506E+01 -0.16763914222E+02  0.49349094594E+01  0.20000000000E+02  0.47000000000E+01 0. -1.
</event>
<event>
 4    1  0.5025809E-002  0.4000000E+02  0.7546771E-02  0.1348030E+00
         11   -1    0    0    0    0  0.00000000000E+00  0.00000000000E+00  0.20000000000E+02  0.20000000000E+02  0.00000000000E+00 0.  1.
        -11   -1    0    0    0    0 -0.00000000000E+00 -0.00000000000E+00 -0.20000000000E+02  0.20000000000E+02  0.00000000000E+00 0. -1.
          5    1    1    2  501    0  0.64496714091E+01  0.10580671454E+02  0.14978689205E+02  0.20000000000E+02  0.47000000000E+01 0.  1.
         -5    1    1    2    0  501 -0.64496714091E+01 -0.10580671454E+02 -0.14978689205E+02  0.20000000000E+02  0.47000000000E+01 0. -1.
</event>
<event>
 4    1  0.5025809E-002  0.4000000E+02  0.7546771E-02  0.1348030E+00
         11   -1    0    0    0    0  0.00000000000E+00  0.00000000000E+00  0.20000000000E+02  0.20000000000E+02  0.00000000000E+00 0.  1.
        -11   -1    0    0    0    0 -0.00000000000E+00 -0.00000000000E+00 -0.20000000000E+02  0.20000000000E+02  0.00000000000E+00 0. -1.
          5    1    1    2  501    0 -0.37889219253E+01 -0.18836588867E+02 -0.29558400666E+01  0.20000000000E+02  0.47000000000E+01 0. -1.
         -5    1    1    2    0  501  0.37889219253E+01  0.18836588867E+02  0.29558400666E+01  0.20000000000E+02  0.47000000000E+01 0.  1.
</event>
<event>
 4    1  0.5025809E-002  0.4000000E+02  0.7546771E-02  0.1348030E+00
         11   -1    0    0    0    0  0.00000000000E+00  0.00000000000E+00  0.20000000000E+02  0.20000000000E+02  0.00000000000E+00 0.  1.
        -11   -1    0    0    0    0 -0.00000000000E+00 -0.00000000000E+00 -0.20000000000E+02  0.20000000000E+02  0.00000000000E+00 0. -1.
          5    1    1    2  501    0 -0.64457305061E+01 -0.17578665229E+02  0.52300178787E+01  0.20000000000E+02  0.47000000000E+01 0. -1.
         -5    1    1    2    0  501  0.64457305061E+01  0.17578665229E+02 -0.52300178787E+01  0.20000000000E+02  0.47000000000E+01 0.  1.
</event>
<event>
 4    1  0.5025809E-002  0.4000000E+02  0.7546771E-02  0.1348030E+00
         11   -1    0    0    0    0  0.00000000000E+00  0.00000000000E+00  0.20000000000E+02  0.20000000000E+02  0.00000000000E+00 0.  1.
        -11   -1    0    0    0    0 -0.00000000000E+00 -0.00000000000E+00 -0.20000000000E+02  0.20000000000E+02  0.00000000000E+00 0. -1.
          5    1    1    2  501    0  0.12433850905E+02  0.20928236386E+01  0.14796264423E+02  0.20000000000E+02  0.47000000000E+01 0.  1.
         -5    1    1    2    0  501 -0.12433850905E+02 -0.20928236386E+01 -0.14796264423E+02  0.20000000000E+02  0.47000000000E+01 0. -1.
</event>
<event>
 4    1  0.5025809E-002  0.4000000E+02  0.7546771E-02  0.1348030E+00
         11   -1    0    0    0    0  0.00000000000E+00  0.00000000000E+00  0.20000000000E+02  0.20000000000E+02  0.00000000000E+00 0.  1.
        -11   -1    0    0    0    0 -0.00000000000E+00 -0.00000000000E+00 -0.20000000000E+02  0.20000000000E+02  0.00000000000E+00 0. -1.
          5    1    1    2  501    0  0.15860372870E+02  0.90678458715E-01 -0.11240567149E+02  0.20000000000E+02  0.47000000000E+01 0. -1.
         -5    1    1    2    0  501 -0.15860372870E+02 -0.90678458715E-01  0.11240567149E+02  0.20000000000E+02  0.47000000000E+01 0.  1.
</event>
<event>
 4    1  0.5025809E-002  0.4000000E+02  0.7546771E-02  0.1348030E+00
         11   -1    0    0    0    0  0.00000000000E+00  0.00000000000E+00  0.20000000000E+02  0.20000000000E+02  0.00000000000E+00 0. -1.
        -11   -1    0    0    0    0 -0.00000000000E+00 -0.00000000000E+00 -0.20000000000E+02  0.20000000000E+02  0.00000000000E+00 0.  1.
          5    1    1    2  501    0 -0.13418399624E+01 -0.29673722412E+00 -0.19391271555E+02  0.20000000000E+02  0.47000000000E+01 0.  1.
         -5    1    1    2    0  501  0.13418399624E+01  0.29673722412E+00  0.19391271555E+02  0.20000000000E+02  0.47000000000E+01 0. -1.
</event>
<event>
 4    1  0.5025809E-002  0.4000000E+02  0.7546771E-02  0.1348030E+00
         11   -1    0    0    0    0  0.00000000000E+00  0.00000000000E+00  0.20000000000E+02  0.20000000000E+02  0.00000000000E+00 0. -1.
        -11   -1    0    0    0    0 -0.00000000000E+00 -0.00000000000E+00 -0.20000000000E+02  0.20000000000E+02  0.00000000000E+00 0.  1.
          5    1    1    2  501    0  0.66115197821E+01 -0.14207109303E+02 -0.11504601315E+02  0.20000000000E+02  0.47000000000E+01 0.  1.
         -5    1    1    2    0  501 -0.66115197821E+01  0.14207109303E+02  0.11504601315E+02  0.20000000000E+02  0.47000000000E+01 0. -1.
</event>
<event>
 4    1  0.5025809E-002  0.4000000E+02  0.7546771E-02  0.1348030E+00
         11   -1    0    0    0    0  0.00000000000E+00  0.00000000000E+00  0.20000000000E+02  0.20000000000E+02  0.00000000000E+00 0.  1.
        -11   -1    0    0    0    0 -0.00000000000E+00 -0.00000000000E+00 -0.20000000000E+02  0.20000000000E+02  0.00000000000E+00 0. -1.
          5    1    1    2  501    0 -0.17971761705E+02  0.30071112890E+01  0.67737037800E+01  0.20000000000E+02  0.47000000000E+01 0. -1.
         -5    1    1    2    0  501  0.17971761705E+02 -0.30071112890E+01 -0.67737037800E+01  0.20000000000E+02  0.47000000000E+01 0.  1.
</event>
<event>
 4    1  0.5025809E-002  0.4000000E+02  0.7546771E-02  0.1348030E+00
         11   -1    0    0    0    0  0.00000000000E+00  0.00000000000E+00  0.20000000000E+02  0.20000000000E+02  0.00000000000E+00 0.  1.
        -11   -1    0    0    0    0 -0.00000000000E+00 -0.00000000000E+00 -0.20000000000E+02  0.20000000000E+02  0.00000000000E+00 0. -1.
          5    1    1    2  501    0 -0.54325919314E+01 -0.57002454955E+01 -0.17773692531E+02  0.20000000000E+02  0.47000000000E+01 0. -1.
         -5    1    1    2    0  501  0.54325919314E+01  0.57002454955E+01  0.17773692531E+02  0.20000000000E+02  0.47000000000E+01 0.  1.
</event>
<event>
 4    1  0.5025809E-002  0.4000000E+02  0.7546771E-02  0.1348030E+00
         11   -1    0    0    0    0  0.00000000000E+00  0.00000000000E+00  0.20000000000E+02  0.20000000000E+02  0.00000000000E+00 0. -1.
        -11   -1    0    0    0    0 -0.00000000000E+00 -0.00000000000E+00 -0.20000000000E+02  0.20000000000E+02  0.00000000000E+00 0.  1.
          5    1    1    2  501    0  0.95264366633E+01 -0.39431902534E+01 -0.16480541712E+02  0.20000000000E+02  0.47000000000E+01 0.  1.
         -5    1    1    2    0  501 -0.95264366633E+01  0.39431902534E+01  0.16480541712E+02  0.20000000000E+02  0.47000000000E+01 0. -1.
</event>
<event>
 4    1  0.5025809E-002  0.4000000E+02  0.7546771E-02  0.1348030E+00
         11   -1    0    0    0    0  0.00000000000E+00  0.00000000000E+00  0.20000000000E+02  0.20000000000E+02  0.00000000000E+00 0.  1.
        -11   -1    0    0    0    0 -0.00000000000E+00 -0.00000000000E+00 -0.20000000000E+02  0.20000000000E+02  0.00000000000E+00 0. -1.
          5    1    1    2  501    0  0.12091633817E+02  0.15211856839E+02  0.54936612428E+00  0.20000000000E+02  0.47000000000E+01 0. -1.
         -5    1    1    2    0  501 -0.12091633817E+02 -0.15211856839E+02 -0.54936612428E+00  0.20000000000E+02  0.47000000000E+01 0.  1.
</event>
<event>
 4    1  0.5025809E-002  0.4000000E+02  0.7546771E-02  0.1348030E+00
         11   -1    0    0    0    0  0.00000000000E+00  0.00000000000E+00  0.20000000000E+02  0.20000000000E+02  0.00000000000E+00 0.  1.
        -11   -1    0    0    0    0 -0.00000000000E+00 -0.00000000000E+00 -0.20000000000E+02  0.20000000000E+02  0.00000000000E+00 0. -1.
          5    1    1    2  501    0  0.41516301374E+01  0.57478705821E+01 -0.18100716864E+02  0.20000000000E+02  0.47000000000E+01 0. -1.
         -5    1    1    2    0  501 -0.41516301374E+01 -0.57478705821E+01  0.18100716864E+02  0.20000000000E+02  0.47000000000E+01 0.  1.
</event>
<event>
 4    1  0.5025809E-002  0.4000000E+02  0.7546771E-02  0.1348030E+00
         11   -1    0    0    0    0  0.00000000000E+00  0.00000000000E+00  0.20000000000E+02  0.20000000000E+02  0.00000000000E+00 0. -1.
        -11   -1    0    0    0    0 -0.00000000000E+00 -0.00000000000E+00 -0.20000000000E+02  0.20000000000E+02  0.00000000000E+00 0.  1.
          5    1    1    2  501    0 -0.15184346417E+02 -0.25187179295E+01  0.11874412991E+02  0.20000000000E+02  0.47000000000E+01 0. -1.
         -5    1    1    2    0  501  0.15184346417E+02  0.25187179295E+01 -0.11874412991E+02  0.20000000000E+02  0.47000000000E+01 0.  1.
</event>
<event>
 4    1  0.5025809E-002  0.4000000E+02  0.7546771E-02  0.1348030E+00
         11   -1    0    0    0    0  0.00000000000E+00  0.00000000000E+00  0.20000000000E+02  0.20000000000E+02  0.00000000000E+00 0. -1.
        -11   -1    0    0    0    0 -0.00000000000E+00 -0.00000000000E+00 -0.20000000000E+02  0.20000000000E+02  0.00000000000E+00 0.  1.
          5    1    1    2  501    0  0.13390048781E+02  0.61060960355E+01 -0.12701660712E+02  0.20000000000E+02  0.47000000000E+01 0.  1.
         -5    1    1    2    0  501 -0.13390048781E+02 -0.61060960355E+01  0.12701660712E+02  0.20000000000E+02  0.47000000000E+01 0. -1.
</event>
<event>
 4    1  0.5025809E-002  0.4000000E+02  0.7546771E-02  0.1348030E+00
         11   -1    0    0    0    0  0.00000000000E+00  0.00000000000E+00  0.20000000000E+02  0.20000000000E+02  0.00000000000E+00 0.  1.
        -11   -1    0    0    0    0 -0.00000000000E+00 -0.00000000000E+00 -0.20000000000E+02  0.20000000000E+02  0.00000000000E+00 0. -1.
          5    1    1    2  501    0 -0.10123501892E+02  0.65134873961E+01 -0.15264311035E+02  0.20000000000E+02  0.47000000000E+01 0. -1.
         -5    1    1    2    0  501  0.10123501892E+02 -0.65134873961E+01  0.15264311035E+02  0.20000000000E+02  0.47000000000E+01 0.  1.
</event>
<event>
 4    1  0.5025809E-002  0.4000000E+02  0.7546771E-02  0.1348030E+00
         11   -1    0    0    0    0  0.00000000000E+00  0.00000000000E+00  0.20000000000E+02  0.20000000000E+02  0.00000000000E+00 0.  1.
        -11   -1    0    0    0    0 -0.00000000000E+00 -0.00000000000E+00 -0.20000000000E+02  0.20000000000E+02  0.00000000000E+00 0. -1.
          5    1    1    2  501    0  0.79667312961E+01 -0.12290076443E+02 -0.12782613719E+02  0.20000000000E+02  0.47000000000E+01 0. -1.
         -5    1    1    2    0  501 -0.79667312961E+01  0.12290076443E+02  0.12782613719E+02  0.20000000000E+02  0.47000000000E+01 0.  1.
</event>
<event>
 4    1  0.5025809E-002  0.4000000E+02  0.7546771E-02  0.1348030E+00
         11   -1    0    0    0    0  0.00000000000E+00  0.00000000000E+00  0.20000000000E+02  0.20000000000E+02  0.00000000000E+00 0.  1.
        -11   -1    0    0    0    0 -0.00000000000E+00 -0.00000000000E+00 -0.20000000000E+02  0.20000000000E+02  0.00000000000E+00 0. -1.
          5    1    1    2  501    0  0.14706068663E+02  0.35732943747E+01  0.12201356966E+02  0.20000000000E+02  0.47000000000E+01 0.  1.
         -5    1    1    2    0  501 -0.14706068663E+02 -0.35732943747E+01 -0.12201356966E+02  0.20000000000E+02  0.47000000000E+01 0. -1.
</event>
<event>
 4    1  0.5025809E-002  0.4000000E+02  0.7546771E-02  0.1348030E+00
         11   -1    0    0    0    0  0.00000000000E+00  0.00000000000E+00  0.20000000000E+02  0.20000000000E+02  0.00000000000E+00 0.  1.
        -11   -1    0    0    0    0 -0.00000000000E+00 -0.00000000000E+00 -0.20000000000E+02  0.20000000000E+02  0.00000000000E+00 0. -1.
          5    1    1    2  501    0 -0.96045615762E+01 -0.11675776528E+02  0.12220418954E+02  0.20000000000E+02  0.47000000000E+01 0.  1.
         -5    1    1    2    0  501  0.96045615762E+01  0.11675776528E+02 -0.12220418954E+02  0.20000000000E+02  0.47000000000E+01 0. -1.
</event>
<event>
 4    1  0.5025809E-002  0.4000000E+02  0.7546771E-02  0.1348030E+00
         11   -1    0    0    0    0  0.00000000000E+00  0.00000000000E+00  0.20000000000E+02  0.20000000000E+02  0.00000000000E+00 0.  1.
        -11   -1    0    0    0    0 -0.00000000000E+00 -0.00000000000E+00 -0.20000000000E+02  0.20000000000E+02  0.00000000000E+00 0. -1.
          5    1    1    2  501    0 -0.10209878208E+02  0.11737279505E+02  0.11657815267E+02  0.20000000000E+02  0.47000000000E+01 0.  1.
         -5    1    1    2    0  501  0.10209878208E+02 -0.11737279505E+02 -0.11657815267E+02  0.20000000000E+02  0.47000000000E+01 0. -1.
</event>
<event>
 4    1  0.5025809E-002  0.4000000E+02  0.7546771E-02  0.1348030E+00
         11   -1    0    0    0    0  0.00000000000E+00  0.00000000000E+00  0.20000000000E+02  0.20000000000E+02  0.00000000000E+00 0.  1.
        -11   -1    0    0    0    0 -0.00000000000E+00 -0.00000000000E+00 -0.20000000000E+02  0.20000000000E+02  0.00000000000E+00 0. -1.
          5    1    1    2  501    0  0.17065956822E+01  0.18451455466E+02  0.58771866025E+01  0.20000000000E+02  0.47000000000E+01 0. -1.
         -5    1    1    2    0  501 -0.17065956822E+01 -0.18451455466E+02 -0.58771866025E+01  0.20000000000E+02  0.47000000000E+01 0.  1.
</event>
<event>
 4    1  0.5025809E-002  0.4000000E+02  0.7546771E-02  0.1348030E+00
         11   -1    0    0    0    0  0.00000000000E+00  0.00000000000E+00  0.20000000000E+02  0.20000000000E+02  0.00000000000E+00 0.  1.
        -11   -1    0    0    0    0 -0.00000000000E+00 -0.00000000000E+00 -0.20000000000E+02  0.20000000000E+02  0.00000000000E+00 0. -1.
          5    1    1    2  501    0  0.12730089260E+02  0.13914123568E+02  0.47172017942E+01  0.20000000000E+02  0.47000000000E+01 0. -1.
         -5    1    1    2    0  501 -0.12730089260E+02 -0.13914123568E+02 -0.47172017942E+01  0.20000000000E+02  0.47000000000E+01 0.  1.
</event>
<event>
 4    1  0.5025809E-002  0.4000000E+02  0.7546771E-02  0.1348030E+00
         11   -1    0    0    0    0  0.00000000000E+00  0.00000000000E+00  0.20000000000E+02  0.20000000000E+02  0.00000000000E+00 0.  1.
        -11   -1    0    0    0    0 -0.00000000000E+00 -0.00000000000E+00 -0.20000000000E+02  0.20000000000E+02  0.00000000000E+00 0. -1.
          5    1    1    2  501    0 -0.17064475274E+02  0.83020015516E+01 -0.42178731453E+01  0.20000000000E+02  0.47000000000E+01 0. -1.
         -5    1    1    2    0  501  0.17064475274E+02 -0.83020015516E+01  0.42178731453E+01  0.20000000000E+02  0.47000000000E+01 0.  1.
</event>
<event>
 4    1  0.5025809E-002  0.4000000E+02  0.7546771E-02  0.1348030E+00
         11   -1    0    0    0    0  0.00000000000E+00  0.00000000000E+00  0.20000000000E+02  0.20000000000E+02  0.00000000000E+00 0. -1.
        -11   -1    0    0    0    0 -0.00000000000E+00 -0.00000000000E+00 -0.20000000000E+02  0.20000000000E+02  0.00000000000E+00 0.  1.
          5    1    1    2  501    0  0.37084067811E+01 -0.59389505681E+01 -0.18135230500E+02  0.20000000000E+02  0.47000000000E+01 0.  1.
         -5    1    1    2    0  501 -0.37084067811E+01  0.59389505681E+01  0.18135230500E+02  0.20000000000E+02  0.47000000000E+01 0. -1.
</event>
<event>
 4    1  0.5025809E-002  0.4000000E+02  0.7546771E-02  0.1348030E+00
         11   -1    0    0    0    0  0.00000000000E+00  0.00000000000E+00  0.20000000000E+02  0.20000000000E+02  0.00000000000E+00 0.  1.
        -11   -1    0    0    0    0 -0.00000000000E+00 -0.00000000000E+00 -0.20000000000E+02  0.20000000000E+02  0.00000000000E+00 0. -1.
          5    1    1    2  501    0  0.50976034566E+01  0.11225389427E+02 -0.15030471423E+02  0.20000000000E+02  0.47000000000E+01 0. -1.
         -5    1    1    2    0  501 -0.50976034566E+01 -0.11225389427E+02  0.15030471423E+02  0.20000000000E+02  0.47000000000E+01 0.  1.
</event>
<event>
 4    1  0.5025809E-002  0.4000000E+02  0.7546771E-02  0.1348030E+00
         11   -1    0    0    0    0  0.00000000000E+00  0.00000000000E+00  0.20000000000E+02  0.20000000000E+02  0.00000000000E+00 0.  1.
        -11   -1    0    0    0    0 -0.00000000000E+00 -0.00000000000E+00 -0.20000000000E+02  0.20000000000E+02  0.00000000000E+00 0. -1.
          5    1    1    2  501    0  0.17565385494E+02  0.81840878436E+01 -0.15452956425E+01  0.20000000000E+02  0.47000000000E+01 0. -1.
         -5    1    1    2    0  501 -0.17565385494E+02 -0.81840878436E+01  0.15452956425E+01  0.20000000000E+02  0.47000000000E+01 0.  1.
</event>
<event>
 4    1  0.5025809E-002  0.4000000E+02  0.7546771E-02  0.1348030E+00
         11   -1    0    0    0    0  0.00000000000E+00  0.00000000000E+00  0.20000000000E+02  0.20000000000E+02  0.00000000000E+00 0. -1.
        -11   -1    0    0    0    0 -0.00000000000E+00 -0.00000000000E+00 -0.20000000000E+02  0.20000000000E+02  0.00000000000E+00 0.  1.
          5    1    1    2  501    0  0.28210738072E+01 -0.65838740767E+01 -0.18072192582E+02  0.20000000000E+02  0.47000000000E+01 0.  1.
         -5    1    1    2    0  501 -0.28210738072E+01  0.65838740767E+01  0.18072192582E+02  0.20000000000E+02  0.47000000000E+01 0. -1.
</event>
<event>
 4    1  0.5025809E-002  0.4000000E+02  0.7546771E-02  0.1348030E+00
         11   -1    0    0    0    0  0.00000000000E+00  0.00000000000E+00  0.20000000000E+02  0.20000000000E+02  0.00000000000E+00 0.  1.
        -11   -1    0    0    0    0 -0.00000000000E+00 -0.00000000000E+00 -0.20000000000E+02  0.20000000000E+02  0.00000000000E+00 0. -1.
          5    1    1    2  501    0 -0.37251495255E+01 -0.19032864144E+02 -0.13354188376E+01  0.20000000000E+02  0.47000000000E+01 0. -1.
         -5    1    1    2    0  501  0.37251495255E+01  0.19032864144E+02  0.13354188376E+01  0.20000000000E+02  0.47000000000E+01 0.  1.
</event>
<event>
 4    1  0.5025809E-002  0.4000000E+02  0.7546771E-02  0.1348030E+00
         11   -1    0    0    0    0  0.00000000000E+00  0.00000000000E+00  0.20000000000E+02  0.20000000000E+02  0.00000000000E+00 0. -1.
        -11   -1    0    0    0    0 -0.00000000000E+00 -0.00000000000E+00 -0.20000000000E+02  0.20000000000E+02  0.00000000000E+00 0.  1.
          5    1    1    2  501    0  0.96350022414E+01 -0.13912721795E+02 -0.95662377178E+01  0.20000000000E+02  0.47000000000E+01 0.  1.
         -5    1    1    2    0  501 -0.96350022414E+01  0.13912721795E+02  0.95662377178E+01  0.20000000000E+02  0.47000000000E+01 0. -1.
</event>
<event>
 4    1  0.5025809E-002  0.4000000E+02  0.7546771E-02  0.1348030E+00
         11   -1    0    0    0    0  0.00000000000E+00  0.00000000000E+00  0.20000000000E+02  0.20000000000E+02  0.00000000000E+00 0. -1.
        -11   -1    0    0    0    0 -0.00000000000E+00 -0.00000000000E+00 -0.20000000000E+02  0.20000000000E+02  0.00000000000E+00 0.  1.
          5    1    1    2  501    0  0.43902685271E+01  0.79721589402E+01 -0.17177899292E+02  0.20000000000E+02  0.47000000000E+01 0.  1.
         -5    1    1    2    0  501 -0.43902685271E+01 -0.79721589402E+01  0.17177899292E+02  0.20000000000E+02  0.47000000000E+01 0. -1.
</event>
<event>
 4    1  0.5025809E-002  0.4000000E+02  0.7546771E-02  0.1348030E+00
         11   -1    0    0    0    0  0.00000000000E+00  0.00000000000E+00  0.20000000000E+02  0.20000000000E+02  0.00000000000E+00 0.  1.
        -11   -1    0    0    0    0 -0.00000000000E+00 -0.00000000000E+00 -0.20000000000E+02  0.20000000000E+02  0.00000000000E+00 0. -1.
          5    1    1    2  501    0 -0.15817391812E+02  0.30920437479E+01 -0.10870114154E+02  0.20000000000E+02  0.47000000000E+01 0. -1.
         -5    1    1    2    0  501  0.15817391812E+02 -0.30920437479E+01  0.10870114154E+02  0.20000000000E+02  0.47000000000E+01 0.  1.
</event>
<event>
 4    1  0.5025809E-002  0.4000000E+02  0.7546771E-02  0.1348030E+00
         11   -1    0    0    0    0  0.00000000000E+00  0.00000000000E+00  0.20000000000E+02  0.20000000000E+02  0.00000000000E+00 0.  1.
        -11   -1    0    0    0    0 -0.00000000000E+00 -0.00000000000E+00 -0.20000000000E+02  0.20000000000E+02  0.00000000000E+00 0. -1.
          5    1    1    2  501    0 -0.81422232112E+01  0.14143157103E+01 -0.17595849290E+02  0.20000000000E+02  0.47000000000E+01 0. -1.
         -5    1    1    2    0  501  0.81422232112E+01 -0.14143157103E+01  0.17595849290E+02  0.20000000000E+02  0.47000000000E+01 0.  1.
</event>
<event>
 4    1  0.5025809E-002  0.4000000E+02  0.7546771E-02  0.1348030E+00
         11   -1    0    0    0    0  0.00000000000E+00  0.00000000000E+00  0.20000000000E+02  0.20000000000E+02  0.00000000000E+00 0.  1.
        -11   -1    0    0    0    0 -0.00000000000E+00 -0.00000000000E+00 -0.20000000000E+02  0.20000000000E+02  0.00000000000E+00 0. -1.
          5    1    1    2  501    0  0.83993001345E+01  0.17500414463E+02  0.10474974368E+01  0.20000000000E+02  0.47000000000E+01 0. -1.
         -5    1    1    2    0  501 -0.83993001345E+01 -0.17500414463E+02 -0.10474974368E+01  0.20000000000E+02  0.47000000000E+01 0.  1.
</event>
<event>
 4    1  0.5025809E-002  0.4000000E+02  0.7546771E-02  0.1348030E+00
         11   -1    0    0    0    0  0.00000000000E+00  0.00000000000E+00  0.20000000000E+02  0.20000000000E+02  0.00000000000E+00 0.  1.
        -11   -1    0    0    0    0 -0.00000000000E+00 -0.00000000000E+00 -0.20000000000E+02  0.20000000000E+02  0.00000000000E+00 0. -1.
          5    1    1    2  501    0 -0.19018451186E+02 -0.39759994490E+01 -0.63241036206E+00  0.20000000000E+02  0.47000000000E+01 0.  1.
         -5    1    1    2    0  501  0.19018451186E+02  0.39759994490E+01  0.63241036206E+00  0.20000000000E+02  0.47000000000E+01 0. -1.
</event>
<event>
 4    1  0.5025809E-002  0.4000000E+02  0.7546771E-02  0.1348030E+00
         11   -1    0    0    0    0  0.00000000000E+00  0.00000000000E+00  0.20000000000E+02  0.20000000000E+02  0.00000000000E+00 0.  1.
        -11   -1    0    0    0    0 -0.00000000000E+00 -0.00000000000E+00 -0.20000000000E+02  0.20000000000E+02  0.00000000000E+00 0. -1.
          5    1    1    2  501    0 -0.72996227307E+01 -0.13935347090E+02  0.11420665894E+02  0.20000000000E+02  0.47000000000E+01 0.  1.
         -5    1    1    2    0  501  0.72996227307E+01  0.13935347090E+02 -0.11420665894E+02  0.20000000000E+02  0.47000000000E+01 0. -1.
</event>
<event>
 4    1  0.5025809E-002  0.4000000E+02  0.7546771E-02  0.1348030E+00
         11   -1    0    0    0    0  0.00000000000E+00  0.00000000000E+00  0.20000000000E+02  0.20000000000E+02  0.00000000000E+00 0.  1.
        -11   -1    0    0    0    0 -0.00000000000E+00 -0.00000000000E+00 -0.20000000000E+02  0.20000000000E+02  0.00000000000E+00 0. -1.
          5    1    1    2  501    0 -0.84032754592E+01 -0.16814701960E+02 -0.49558813085E+01  0.20000000000E+02  0.47000000000E+01 0. -1.
         -5    1    1    2    0  501  0.84032754592E+01  0.16814701960E+02  0.49558813085E+01  0.20000000000E+02  0.47000000000E+01 0.  1.
</event>
<event>
 4    1  0.5025809E-002  0.4000000E+02  0.7546771E-02  0.1348030E+00
         11   -1    0    0    0    0  0.00000000000E+00  0.00000000000E+00  0.20000000000E+02  0.20000000000E+02  0.00000000000E+00 0.  1.
        -11   -1    0    0    0    0 -0.00000000000E+00 -0.00000000000E+00 -0.20000000000E+02  0.20000000000E+02  0.00000000000E+00 0. -1.
          5    1    1    2  501    0 -0.12354188253E+01  0.10326262405E+02  0.16424129964E+02  0.20000000000E+02  0.47000000000E+01 0.  1.
         -5    1    1    2    0  501  0.12354188253E+01 -0.10326262405E+02 -0.16424129964E+02  0.20000000000E+02  0.47000000000E+01 0. -1.
</event>
<event>
 4    1  0.5025809E-002  0.4000000E+02  0.7546771E-02  0.1348030E+00
         11   -1    0    0    0    0  0.00000000000E+00  0.00000000000E+00  0.20000000000E+02  0.20000000000E+02  0.00000000000E+00 0.  1.
        -11   -1    0    0    0    0 -0.00000000000E+00 -0.00000000000E+00 -0.20000000000E+02  0.20000000000E+02  0.00000000000E+00 0. -1.
          5    1    1    2  501    0  0.10601187790E+01  0.17328885250E+02 -0.87461925526E+01  0.20000000000E+02  0.47000000000E+01 0. -1.
         -5    1    1    2    0  501 -0.10601187790E+01 -0.17328885250E+02  0.87461925526E+01  0.20000000000E+02  0.47000000000E+01 0.  1.
</event>
<event>
 4    1  0.5025809E-002  0.4000000E+02  0.7546771E-02  0.1348030E+00
         11   -1    0    0    0    0  0.00000000000E+00  0.00000000000E+00  0.20000000000E+02  0.20000000000E+02  0.00000000000E+00 0.  1.
        -11   -1    0    0    0    0 -0.00000000000E+00 -0.00000000000E+00 -0.20000000000E+02  0.20000000000E+02  0.00000000000E+00 0. -1.
          5    1    1    2  501    0  0.96699193197E+01 -0.16216392764E+02 -0.46293915448E+01  0.20000000000E+02  0.47000000000E+01 0. -1.
         -5    1    1    2    0  501 -0.96699193197E+01  0.16216392764E+02  0.46293915448E+01  0.20000000000E+02  0.47000000000E+01 0.  1.
</event>
<event>
 4    1  0.5025809E-002  0.4000000E+02  0.7546771E-02  0.1348030E+00
         11   -1    0    0    0    0  0.00000000000E+00  0.00000000000E+00  0.20000000000E+02  0.20000000000E+02  0.00000000000E+00 0.  1.
        -11   -1    0    0    0    0 -0.00000000000E+00 -0.00000000000E+00 -0.20000000000E+02  0.20000000000E+02  0.00000000000E+00 0. -1.
          5    1    1    2  501    0  0.48025884029E+01  0.61220187935E+01 -0.17814770010E+02  0.20000000000E+02  0.47000000000E+01 0. -1.
         -5    1    1    2    0  501 -0.48025884029E+01 -0.61220187935E+01  0.17814770010E+02  0.20000000000E+02  0.47000000000E+01 0.  1.
</event>
<event>
 4    1  0.5025809E-002  0.4000000E+02  0.7546771E-02  0.1348030E+00
         11   -1    0    0    0    0  0.00000000000E+00  0.00000000000E+00  0.20000000000E+02  0.20000000000E+02  0.00000000000E+00 0.  1.
        -11   -1    0    0    0    0 -0.00000000000E+00 -0.00000000000E+00 -0.20000000000E+02  0.20000000000E+02  0.00000000000E+00 0. -1.
          5    1    1    2  501    0  0.83758136077E+01  0.13875597070E+02  0.10734223417E+02  0.20000000000E+02  0.47000000000E+01 0.  1.
         -5    1    1    2    0  501 -0.83758136077E+01 -0.13875597070E+02 -0.10734223417E+02  0.20000000000E+02  0.47000000000E+01 0. -1.
</event>
<event>
 4    1  0.5025809E-002  0.4000000E+02  0.7546771E-02  0.1348030E+00
         11   -1    0    0    0    0  0.00000000000E+00  0.00000000000E+00  0.20000000000E+02  0.20000000000E+02  0.00000000000E+00 0. -1.
        -11   -1    0    0    0    0 -0.00000000000E+00 -0.00000000000E+00 -0.20000000000E+02  0.20000000000E+02  0.00000000000E+00 0.  1.
          5    1    1    2  501    0  0.26463635295E+01  0.19047974115E+02  0.28427877464E+01  0.20000000000E+02  0.47000000000E+01 0.  1.
         -5    1    1    2    0  501 -0.26463635295E+01 -0.19047974115E+02 -0.28427877464E+01  0.20000000000E+02  0.47000000000E+01 0. -1.
</event>
<event>
 4    1  0.5025809E-002  0.4000000E+02  0.7546771E-02  0.1348030E+00
         11   -1    0    0    0    0  0.00000000000E+00  0.00000000000E+00  0.20000000000E+02  0.20000000000E+02  0.00000000000E+00 0. -1.
        -11   -1    0    0    0    0 -0.00000000000E+00 -0.00000000000E+00 -0.20000000000E+02  0.20000000000E+02  0.00000000000E+00 0.  1.
          5    1    1    2  501    0 -0.89331614383E+01  0.17145767614E+02 -0.20325549534E+01  0.20000000000E+02  0.47000000000E+01 0.  1.
         -5    1    1    2    0  501  0.89331614383E+01 -0.17145767614E+02  0.20325549534E+01  0.20000000000E+02  0.47000000000E+01 0. -1.
</event>
<event>
 4    1  0.5025809E-002  0.4000000E+02  0.7546771E-02  0.1348030E+00
         11   -1    0    0    0    0  0.00000000000E+00  0.00000000000E+00  0.20000000000E+02  0.20000000000E+02  0.00000000000E+00 0.  1.
        -11   -1    0    0    0    0 -0.00000000000E+00 -0.00000000000E+00 -0.20000000000E+02  0.20000000000E+02  0.00000000000E+00 0. -1.
          5    1    1    2  501    0 -0.62181069218E+01  0.87898829644E+01  0.16185892122E+02  0.20000000000E+02  0.47000000000E+01 0.  1.
         -5    1    1    2    0  501  0.62181069218E+01 -0.87898829644E+01 -0.16185892122E+02  0.20000000000E+02  0.47000000000E+01 0. -1.
</event>
<event>
 4    1  0.5025809E-002  0.4000000E+02  0.7546771E-02  0.1348030E+00
         11   -1    0    0    0    0  0.00000000000E+00  0.00000000000E+00  0.20000000000E+02  0.20000000000E+02  0.00000000000E+00 0.  1.
        -11   -1    0    0    0    0 -0.00000000000E+00 -0.00000000000E+00 -0.20000000000E+02  0.20000000000E+02  0.00000000000E+00 0. -1.
          5    1    1    2  501    0  0.18559155916E+02  0.13372027030E+01  0.56284652083E+01  0.20000000000E+02  0.47000000000E+01 0.  1.
         -5    1    1    2    0  501 -0.18559155916E+02 -0.13372027030E+01 -0.56284652083E+01  0.20000000000E+02  0.47000000000E+01 0. -1.
</event>
<event>
 4    1  0.5025809E-002  0.4000000E+02  0.7546771E-02  0.1348030E+00
         11   -1    0    0    0    0  0.00000000000E+00  0.00000000000E+00  0.20000000000E+02  0.20000000000E+02  0.00000000000E+00 0.  1.
        -11   -1    0    0    0    0 -0.00000000000E+00 -0.00000000000E+00 -0.20000000000E+02  0.20000000000E+02  0.00000000000E+00 0. -1.
          5    1    1    2  501    0  0.16668183088E+02  0.65163485865E+01 -0.75907096939E+01  0.20000000000E+02  0.47000000000E+01 0. -1.
         -5    1    1    2    0  501 -0.16668183088E+02 -0.65163485865E+01  0.75907096939E+01  0.20000000000E+02  0.47000000000E+01 0.  1.
</event>
<event>
 4    1  0.5025809E-002  0.4000000E+02  0.7546771E-02  0.1348030E+00
         11   -1    0    0    0    0  0.00000000000E+00  0.00000000000E+00  0.20000000000E+02  0.20000000000E+02  0.00000000000E+00 0.  1.
        -11   -1    0    0    0    0 -0.00000000000E+00 -0.00000000000E+00 -0.20000000000E+02  0.20000000000E+02  0.00000000000E+00 0. -1.
          5    1    1    2  501    0  0.53934272502E+01  0.18200538578E+02  0.41906250111E+01  0.20000000000E+02  0.47000000000E+01 0. -1.
         -5    1    1    2    0  501 -0.53934272502E+01 -0.18200538578E+02 -0.41906250111E+01  0.20000000000E+02  0.47000000000E+01 0.  1.
</event>
<event>
 4    1  0.5025809E-002  0.4000000E+02  0.7546771E-02  0.1348030E+00
         11   -1    0    0    0    0  0.00000000000E+00  0.00000000000E+00  0.20000000000E+02  0.20000000000E+02  0.00000000000E+00 0.  1.
        -11   -1    0    0    0    0 -0.00000000000E+00 -0.00000000000E+00 -0.20000000000E+02  0.20000000000E+02  0.00000000000E+00 0. -1.
          5    1    1    2  501    0 -0.21062410647E+00 -0.17140631420E+02  0.91686635891E+01  0.20000000000E+02  0.47000000000E+01 0. -1.
         -5    1    1    2    0  501  0.21062410647E+00  0.17140631420E+02 -0.91686635891E+01  0.20000000000E+02  0.47000000000E+01 0.  1.
</event>
<event>
 4    1  0.5025809E-002  0.4000000E+02  0.7546771E-02  0.1348030E+00
         11   -1    0    0    0    0  0.00000000000E+00  0.00000000000E+00  0.20000000000E+02  0.20000000000E+02  0.00000000000E+00 0. -1.
        -11   -1    0    0    0    0 -0.00000000000E+00 -0.00000000000E+00 -0.20000000000E+02  0.20000000000E+02  0.00000000000E+00 0.  1.
          5    1    1    2  501    0  0.19350801240E+02  0.41487932817E+00 -0.18122821293E+01  0.20000000000E+02  0.47000000000E+01 0.  1.
         -5    1    1    2    0  501 -0.19350801240E+02 -0.41487932817E+00  0.18122821293E+01  0.20000000000E+02  0.47000000000E+01 0. -1.
</event>
<event>
 4    1  0.5025809E-002  0.4000000E+02  0.7546771E-02  0.1348030E+00
         11   -1    0    0    0    0  0.00000000000E+00  0.00000000000E+00  0.20000000000E+02  0.20000000000E+02  0.00000000000E+00 0.  1.
        -11   -1    0    0    0    0 -0.00000000000E+00 -0.00000000000E+00 -0.20000000000E+02  0.20000000000E+02  0.00000000000E+00 0. -1.
          5    1    1    2  501    0 -0.15933691240E+02 -0.88694551925E+01 -0.67350017110E+01  0.20000000000E+02  0.47000000000E+01 0. -1.
         -5    1    1    2    0  501  0.15933691240E+02  0.88694551925E+01  0.67350017110E+01  0.20000000000E+02  0.47000000000E+01 0.  1.
</event>
<event>
 4    1  0.5025809E-002  0.4000000E+02  0.7546771E-02  0.1348030E+00
         11   -1    0    0    0    0  0.00000000000E+00  0.00000000000E+00  0.20000000000E+02  0.20000000000E+02  0.00000000000E+00 0. -1.
        -11   -1    0    0    0    0 -0.00000000000E+00 -0.00000000000E+00 -0.20000000000E+02  0.20000000000E+02  0.00000000000E+00 0.  1.
          5    1    1    2  501    0  0.10852352004E+02  0.10900072909E+02 -0.11888013567E+02  0.20000000000E+02  0.47000000000E+01 0.  1.
         -5    1    1    2    0  501 -0.10852352004E+02 -0.10900072909E+02  0.11888013567E+02  0.20000000000E+02  0.47000000000E+01 0. -1.
</event>
<event>
 4    1  0.5025809E-002  0.4000000E+02  0.7546771E-02  0.1348030E+00
         11   -1    0    0    0    0  0.00000000000E+00  0.00000000000E+00  0.20000000000E+02  0.20000000000E+02  0.00000000000E+00 0.  1.
        -11   -1    0    0    0    0 -0.00000000000E+00 -0.00000000000E+00 -0.20000000000E+02  0.20000000000E+02  0.00000000000E+00 0. -1.
          5    1    1    2  501    0  0.94145837772E+01  0.38849032527E+01 -0.16558476350E+02  0.20000000000E+02  0.47000000000E+01 0. -1.
         -5    1    1    2    0  501 -0.94145837772E+01 -0.38849032527E+01  0.16558476350E+02  0.20000000000E+02  0.47000000000E+01 0.  1.
</event>
<event>
 4    1  0.5025809E-002  0.4000000E+02  0.7546771E-02  0.1348030E+00
         11   -1    0    0    0    0  0.00000000000E+00  0.00000000000E+00  0.20000000000E+02  0.20000000000E+02  0.00000000000E+00 0.  1.
        -11   -1    0    0    0    0 -0.00000000000E+00 -0.00000000000E+00 -0.20000000000E+02  0.20000000000E+02  0.00000000000E+00 0. -1.
          5    1    1    2  501    0 -0.85701439457E+01  0.14096254992E+02 -0.10283881949E+02  0.20000000000E+02  0.47000000000E+01 0. -1.
         -5    1    1    2    0  501  0.85701439457E+01 -0.14096254992E+02  0.10283881949E+02  0.20000000000E+02  0.47000000000E+01 0.  1.
</event>
<event>
 4    1  0.5025809E-002  0.4000000E+02  0.7546771E-02  0.1348030E+00
         11   -1    0    0    0    0  0.00000000000E+00  0.00000000000E+00  0.20000000000E+02  0.20000000000E+02  0.00000000000E+00 0.  1.
        -11   -1    0    0    0    0 -0.00000000000E+00 -0.00000000000E+00 -0.20000000000E+02  0.20000000000E+02  0.00000000000E+00 0. -1.
          5    1    1    2  501    0 -0.14606484721E+02  0.35672305679E+01 -0.12322153633E+02  0.20000000000E+02  0.47000000000E+01 0. -1.
         -5    1    1    2    0  501  0.14606484721E+02 -0.35672305679E+01  0.12322153633E+02  0.20000000000E+02  0.47000000000E+01 0.  1.
</event>
<event>
 4    1  0.5025809E-002  0.4000000E+02  0.7546771E-02  0.1348030E+00
         11   -1    0    0    0    0  0.00000000000E+00  0.00000000000E+00  0.20000000000E+02  0.20000000000E+02  0.00000000000E+00 0. -1.
        -11   -1    0    0    0    0 -0.00000000000E+00 -0.00000000000E+00 -0.20000000000E+02  0.20000000000E+02  0.00000000000E+00 0.  1.
          5    1    1    2  501    0 -0.17872641270E+02  0.51865445250E+01 -0.56194706073E+01  0.20000000000E+02  0.47000000000E+01 0.  1.
         -5    1    1    2    0  501  0.17872641270E+02 -0.51865445250E+01  0.56194706073E+01  0.20000000000E+02  0.47000000000E+01 0. -1.
</event>
<event>
 4    1  0.5025809E-002  0.4000000E+02  0.7546771E-02  0.1348030E+00
         11   -1    0    0    0    0  0.00000000000E+00  0.00000000000E+00  0.20000000000E+02  0.20000000000E+02  0.00000000000E+00 0.  1.
        -11   -1    0    0    0    0 -0.00000000000E+00 -0.00000000000E+00 -0.20000000000E+02  0.20000000000E+02  0.00000000000E+00 0. -1.
          5    1    1    2  501    0  0.10352960090E+02 -0.45177874273E+01  0.15821372068E+02  0.20000000000E+02  0.47000000000E+01 0.  1.
         -5    1    1    2    0  501 -0.10352960090E+02  0.45177874273E+01 -0.15821372068E+02  0.20000000000E+02  0.47000000000E+01 0. -1.
</event>
<event>
 4    1  0.5025809E-002  0.4000000E+02  0.7546771E-02  0.1348030E+00
         11   -1    0    0    0    0  0.00000000000E+00  0.00000000000E+00  0.20000000000E+02  0.20000000000E+02  0.00000000000E+00 0. -1.
        -11   -1    0    0    0    0 -0.00000000000E+00 -0.00000000000E+00 -0.20000000000E+02  0.20000000000E+02  0.00000000000E+00 0.  1.
          5    1    1    2  501    0 -0.76462061260E+01  0.64028925096E+01 -0.16686776183E+02  0.20000000000E+02  0.47000000000E+01 0.  1.
         -5    1    1    2    0  501  0.76462061260E+01 -0.64028925096E+01  0.16686776183E+02  0.20000000000E+02  0.47000000000E+01 0. -1.
</event>
<event>
 4    1  0.5025809E-002  0.4000000E+02  0.7546771E-02  0.1348030E+00
         11   -1    0    0    0    0  0.00000000000E+00  0.00000000000E+00  0.20000000000E+02  0.20000000000E+02  0.00000000000E+00 0.  1.
        -11   -1    0    0    0    0 -0.00000000000E+00 -0.00000000000E+00 -0.20000000000E+02  0.20000000000E+02  0.00000000000E+00 0. -1.
          5    1    1    2  501    0  0.11001829270E+02 -0.69197986477E+01 -0.14456352908E+02  0.20000000000E+02  0.47000000000E+01 0. -1.
         -5    1    1    2    0  501 -0.11001829270E+02  0.69197986477E+01  0.14456352908E+02  0.20000000000E+02  0.47000000000E+01 0.  1.
</event>
<event>
 4    1  0.5025809E-002  0.4000000E+02  0.7546771E-02  0.1348030E+00
         11   -1    0    0    0    0  0.00000000000E+00  0.00000000000E+00  0.20000000000E+02  0.20000000000E+02  0.00000000000E+00 0. -1.
        -11   -1    0    0    0    0 -0.00000000000E+00 -0.00000000000E+00 -0.20000000000E+02  0.20000000000E+02  0.00000000000E+00 0.  1.
          5    1    1    2  501    0 -0.19387529650E+02  0.14078421671E+01  0.22732025155E+00  0.20000000000E+02  0.47000000000E+01 0.  1.
         -5    1    1    2    0  501  0.19387529650E+02 -0.14078421671E+01 -0.22732025155E+00  0.20000000000E+02  0.47000000000E+01 0. -1.
</event>
<event>
 4    1  0.5025809E-002  0.4000000E+02  0.7546771E-02  0.1348030E+00
         11   -1    0    0    0    0  0.00000000000E+00  0.00000000000E+00  0.20000000000E+02  0.20000000000E+02  0.00000000000E+00 0. -1.
        -11   -1    0    0    0    0 -0.00000000000E+00 -0.00000000000E+00 -0.20000000000E+02  0.20000000000E+02  0.00000000000E+00 0.  1.
          5    1    1    2  501    0  0.14751357837E+01  0.74202540864E+01 -0.17907367303E+02  0.20000000000E+02  0.47000000000E+01 0.  1.
         -5    1    1    2    0  501 -0.14751357837E+01 -0.74202540864E+01  0.17907367303E+02  0.20000000000E+02  0.47000000000E+01 0. -1.
</event>
<event>
 4    1  0.5025809E-002  0.4000000E+02  0.7546771E-02  0.1348030E+00
         11   -1    0    0    0    0  0.00000000000E+00  0.00000000000E+00  0.20000000000E+02  0.20000000000E+02  0.00000000000E+00 0.  1.
        -11   -1    0    0    0    0 -0.00000000000E+00 -0.00000000000E+00 -0.20000000000E+02  0.20000000000E+02  0.00000000000E+00 0. -1.
          5    1    1    2  501    0  0.10966923360E+01 -0.17202627324E+02 -0.89875958455E+01  0.20000000000E+02  0.47000000000E+01 0. -1.
         -5    1    1    2    0  501 -0.10966923360E+01  0.17202627324E+02  0.89875958455E+01  0.20000000000E+02  0.47000000000E+01 0.  1.
</event>
<event>
 4    1  0.5025809E-002  0.4000000E+02  0.7546771E-02  0.1348030E+00
         11   -1    0    0    0    0  0.00000000000E+00  0.00000000000E+00  0.20000000000E+02  0.20000000000E+02  0.00000000000E+00 0.  1.
        -11   -1    0    0    0    0 -0.00000000000E+00 -0.00000000000E+00 -0.20000000000E+02  0.20000000000E+02  0.00000000000E+00 0. -1.
          5    1    1    2  501    0  0.12863929909E+02  0.25415275437E+01  0.14351653042E+02  0.20000000000E+02  0.47000000000E+01 0.  1.
         -5    1    1    2    0  501 -0.12863929909E+02 -0.25415275437E+01 -0.14351653042E+02  0.20000000000E+02  0.47000000000E+01 0. -1.
</event>
<event>
 4    1  0.5025809E-002  0.4000000E+02  0.7546771E-02  0.1348030E+00
         11   -1    0    0    0    0  0.00000000000E+00  0.00000000000E+00  0.20000000000E+02  0.20000000000E+02  0.00000000000E+00 0.  1.
        -11   -1    0    0    0    0 -0.00000000000E+00 -0.00000000000E+00 -0.20000000000E+02  0.20000000000E+02  0.00000000000E+00 0. -1.
          5    1    1    2  501    0  0.18535654186E+02 -0.50990804190E+01 -0.28877158391E+01  0.20000000000E+02  0.47000000000E+01 0. -1.
         -5    1    1    2    0  501 -0.18535654186E+02  0.50990804190E+01  0.28877158391E+01  0.20000000000E+02  0.47000000000E+01 0.  1.
</event>
<event>
 4    1  0.5025809E-002  0.4000000E+02  0.7546771E-02  0.1348030E+00
         11   -1    0    0    0    0  0.00000000000E+00  0.00000000000E+00  0.20000000000E+02  0.20000000000E+02  0.00000000000E+00 0. -1.
        -11   -1    0    0    0    0 -0.00000000000E+00 -0.00000000000E+00 -0.20000000000E+02  0.20000000000E+02  0.00000000000E+00 0.  1.
          5    1    1    2  501    0  0.11842566248E+02  0.85752057138E+01 -0.12811302495E+02  0.20000000000E+02  0.47000000000E+01 0.  1.
         -5    1    1    2    0  501 -0.11842566248E+02 -0.85752057138E+01  0.12811302495E+02  0.20000000000E+02  0.47000000000E+01 0. -1.
</event>
<event>
 4    1  0.5025809E-002  0.4000000E+02  0.7546771E-02  0.1348030E+00
         11   -1    0    0    0    0  0.00000000000E+00  0.00000000000E+00  0.20000000000E+02  0.20000000000E+02  0.00000000000E+00 0.  1.
        -11   -1    0    0    0    0 -0.00000000000E+00 -0.00000000000E+00 -0.20000000000E+02  0.20000000000E+02  0.00000000000E+00 0. -1.
          5    1    1    2  501    0 -0.58194574570E+01 -0.18474363312E+02  0.16558427194E+01  0.20000000000E+02  0.47000000000E+01 0.  1.
         -5    1    1    2    0  501  0.58194574570E+01  0.18474363312E+02 -0.16558427194E+01  0.20000000000E+02  0.47000000000E+01 0. -1.
</event>
<event>
 4    1  0.5025809E-002  0.4000000E+02  0.7546771E-02  0.1348030E+00
         11   -1    0    0    0    0  0.00000000000E+00  0.00000000000E+00  0.20000000000E+02  0.20000000000E+02  0.00000000000E+00 0. -1.
        -11   -1    0    0    0    0 -0.00000000000E+00 -0.00000000000E+00 -0.20000000000E+02  0.20000000000E+02  0.00000000000E+00 0.  1.
          5    1    1    2  501    0 -0.14729435711E+02  0.49443302057E+01 -0.11683634813E+02  0.20000000000E+02  0.47000000000E+01 0.  1.
         -5    1    1    2    0  501  0.14729435711E+02 -0.49443302057E+01  0.11683634813E+02  0.20000000000E+02  0.47000000000E+01 0. -1.
</event>
<event>
 4    1  0.5025809E-002  0.4000000E+02  0.7546771E-02  0.1348030E+00
         11   -1    0    0    0    0  0.00000000000E+00  0.00000000000E+00  0.20000000000E+02  0.20000000000E+02  0.00000000000E+00 0.  1.
        -11   -1    0    0    0    0 -0.00000000000E+00 -0.00000000000E+00 -0.20000000000E+02  0.20000000000E+02  0.00000000000E+00 0. -1.
          5    1    1    2  501    0 -0.11727070479E+02 -0.58654896775E+01 -0.14352067754E+02  0.20000000000E+02  0.47000000000E+01 0. -1.
         -5    1    1    2    0  501  0.11727070479E+02  0.58654896775E+01  0.14352067754E+02  0.20000000000E+02  0.47000000000E+01 0.  1.
</event>
<event>
 4    1  0.5025809E-002  0.4000000E+02  0.7546771E-02  0.1348030E+00
         11   -1    0    0    0    0  0.00000000000E+00  0.00000000000E+00  0.20000000000E+02  0.20000000000E+02  0.00000000000E+00 0. -1.
        -11   -1    0    0    0    0 -0.00000000000E+00 -0.00000000000E+00 -0.20000000000E+02  0.20000000000E+02  0.00000000000E+00 0.  1.
          5    1    1    2  501    0 -0.17478434900E+02 -0.61401703483E+01  0.58917418079E+01  0.20000000000E+02  0.47000000000E+01 0.  1.
         -5    1    1    2    0  501  0.17478434900E+02  0.61401703483E+01 -0.58917418079E+01  0.20000000000E+02  0.47000000000E+01 0. -1.
</event>
<event>
 4    1  0.5025809E-002  0.4000000E+02  0.7546771E-02  0.1348030E+00
         11   -1    0    0    0    0  0.00000000000E+00  0.00000000000E+00  0.20000000000E+02  0.20000000000E+02  0.00000000000E+00 0.  1.
        -11   -1    0    0    0    0 -0.00000000000E+00 -0.00000000000E+00 -0.20000000000E+02  0.20000000000E+02  0.00000000000E+00 0. -1.
          5    1    1    2  501    0 -0.49919312255E+00  0.18339378067E+02 -0.64286871390E+01  0.20000000000E+02  0.47000000000E+01 0. -1.
         -5    1    1    2    0  501  0.49919312255E+00 -0.18339378067E+02  0.64286871390E+01  0.20000000000E+02  0.47000000000E+01 0.  1.
</event>
<event>
 4    1  0.5025809E-002  0.4000000E+02  0.7546771E-02  0.1348030E+00
         11   -1    0    0    0    0  0.00000000000E+00  0.00000000000E+00  0.20000000000E+02  0.20000000000E+02  0.00000000000E+00 0. -1.
        -11   -1    0    0    0    0 -0.00000000000E+00 -0.00000000000E+00 -0.20000000000E+02  0.20000000000E+02  0.00000000000E+00 0.  1.
          5    1    1    2  501    0  0.12643212382E+02 -0.92763102770E+00 -0.14737662004E+02  0.20000000000E+02  0.47000000000E+01 0.  1.
         -5    1    1    2    0  501 -0.12643212382E+02  0.92763102770E+00  0.14737662004E+02  0.20000000000E+02  0.47000000000E+01 0. -1.
</event>
<event>
 4    1  0.5025809E-002  0.4000000E+02  0.7546771E-02  0.1348030E+00
         11   -1    0    0    0    0  0.00000000000E+00  0.00000000000E+00  0.20000000000E+02  0.20000000000E+02  0.00000000000E+00 0. -1.
        -11   -1    0    0    0    0 -0.00000000000E+00 -0.00000000000E+00 -0.20000000000E+02  0.20000000000E+02  0.00000000000E+00 0.  1.
          5    1    1    2  501    0 -0.18116630211E+02  0.67086086854E+01  0.21661669638E+01  0.20000000000E+02  0.47000000000E+01 0. -1.
         -5    1    1    2    0  501  0.18116630211E+02 -0.67086086854E+01 -0.21661669638E+01  0.20000000000E+02  0.47000000000E+01 0.  1.
</event>
<event>
 4    1  0.5025809E-002  0.4000000E+02  0.7546771E-02  0.1348030E+00
         11   -1    0    0    0    0  0.00000000000E+00  0.00000000000E+00  0.20000000000E+02  0.20000000000E+02  0.00000000000E+00 0.  1.
        -11   -1    0    0    0    0 -0.00000000000E+00 -0.00000000000E+00 -0.20000000000E+02  0.20000000000E+02  0.00000000000E+00 0. -1.
          5    1    1    2  501    0 -0.46506983971E+01  0.78487638393E+01  0.17166185092E+02  0.20000000000E+02  0.47000000000E+01 0.  1.
         -5    1    1    2    0  501  0.46506983971E+01 -0.78487638393E+01 -0.17166185092E+02  0.20000000000E+02  0.47000000000E+01 0. -1.
</event>
<event>
 4    1  0.5025809E-002  0.4000000E+02  0.7546771E-02  0.1348030E+00
         11   -1    0    0    0    0  0.00000000000E+00  0.00000000000E+00  0.20000000000E+02  0.20000000000E+02  0.00000000000E+00 0.  1.
        -11   -1    0    0    0    0 -0.00000000000E+00 -0.00000000000E+00 -0.20000000000E+02  0.20000000000E+02  0.00000000000E+00 0. -1.
          5    1    1    2  501    0  0.14666880779E+02 -0.12426480715E+02 -0.28939912329E+01  0.20000000000E+02  0.47000000000E+01 0. -1.
         -5    1    1    2    0  501 -0.14666880779E+02  0.12426480715E+02  0.28939912329E+01  0.20000000000E+02  0.47000000000E+01 0.  1.
</event>
<event>
 4    1  0.5025809E-002  0.4000000E+02  0.7546771E-02  0.1348030E+00
         11   -1    0    0    0    0  0.00000000000E+00  0.00000000000E+00  0.20000000000E+02  0.20000000000E+02  0.00000000000E+00 0.  1.
        -11   -1    0    0    0    0 -0.00000000000E+00 -0.00000000000E+00 -0.20000000000E+02  0.20000000000E+02  0.00000000000E+00 0. -1.
          5    1    1    2  501    0 -0.16992969579E+02 -0.94417521596E+01  0.47969055822E-01  0.20000000000E+02  0.47000000000E+01 0.  1.
         -5    1    1    2    0  501  0.16992969579E+02  0.94417521596E+01 -0.47969055822E-01  0.20000000000E+02  0.47000000000E+01 0. -1.
</event>
<event>
 4    1  0.5025809E-002  0.4000000E+02  0.7546771E-02  0.1348030E+00
         11   -1    0    0    0    0  0.00000000000E+00  0.00000000000E+00  0.20000000000E+02  0.20000000000E+02  0.00000000000E+00 0. -1.
        -11   -1    0    0    0    0 -0.00000000000E+00 -0.00000000000E+00 -0.20000000000E+02  0.20000000000E+02  0.00000000000E+00 0.  1.
          5    1    1    2  501    0 -0.33618216974E+01  0.74734341479E+01  0.17628270956E+02  0.20000000000E+02  0.47000000000E+01 0. -1.
         -5    1    1    2    0  501  0.33618216974E+01 -0.74734341479E+01 -0.17628270956E+02  0.20000000000E+02  0.47000000000E+01 0.  1.
</event>
<event>
 4    1  0.5025809E-002  0.4000000E+02  0.7546771E-02  0.1348030E+00
         11   -1    0    0    0    0  0.00000000000E+00  0.00000000000E+00  0.20000000000E+02  0.20000000000E+02  0.00000000000E+00 0. -1.
        -11   -1    0    0    0    0 -0.00000000000E+00 -0.00000000000E+00 -0.20000000000E+02  0.20000000000E+02  0.00000000000E+00 0.  1.
          5    1    1    2  501    0 -0.93100034682E+01  0.83144132540E+01 -0.14903166364E+02  0.20000000000E+02  0.47000000000E+01 0.  1.
         -5    1    1    2    0  501  0.93100034682E+01 -0.83144132540E+01  0.14903166364E+02  0.20000000000E+02  0.47000000000E+01 0. -1.
</event>
<event>
 4    1  0.5025809E-002  0.4000000E+02  0.7546771E-02  0.1348030E+00
         11   -1    0    0    0    0  0.00000000000E+00  0.00000000000E+00  0.20000000000E+02  0.20000000000E+02  0.00000000000E+00 0.  1.
        -11   -1    0    0    0    0 -0.00000000000E+00 -0.00000000000E+00 -0.20000000000E+02  0.20000000000E+02  0.00000000000E+00 0. -1.
          5    1    1    2  501    0 -0.51581143723E+01  0.18416621549E+02 -0.34830886941E+01  0.20000000000E+02  0.47000000000E+01 0. -1.
         -5    1    1    2    0  501  0.51581143723E+01 -0.18416621549E+02  0.34830886941E+01  0.20000000000E+02  0.47000000000E+01 0.  1.
</event>
<event>
 4    1  0.5025809E-002  0.4000000E+02  0.7546771E-02  0.1348030E+00
         11   -1    0    0    0    0  0.00000000000E+00  0.00000000000E+00  0.20000000000E+02  0.20000000000E+02  0.00000000000E+00 0.  1.
        -11   -1    0    0    0    0 -0.00000000000E+00 -0.00000000000E+00 -0.20000000000E+02  0.20000000000E+02  0.00000000000E+00 0. -1.
          5    1    1    2  501    0  0.54219480709E+01 -0.16645550747E+02 -0.84521073973E+01  0.20000000000E+02  0.47000000000E+01 0. -1.
         -5    1    1    2    0  501 -0.54219480709E+01  0.16645550747E+02  0.84521073973E+01  0.20000000000E+02  0.47000000000E+01 0.  1.
</event>
<event>
 4    1  0.5025809E-002  0.4000000E+02  0.7546771E-02  0.1348030E+00
         11   -1    0    0    0    0  0.00000000000E+00  0.00000000000E+00  0.20000000000E+02  0.20000000000E+02  0.00000000000E+00 0.  1.
        -11   -1    0    0    0    0 -0.00000000000E+00 -0.00000000000E+00 -0.20000000000E+02  0.20000000000E+02  0.00000000000E+00 0. -1.
          5    1    1    2  501    0  0.22109126210E+01 -0.82916312052E+01 -0.17443357399E+02  0.20000000000E+02  0.47000000000E+01 0. -1.
         -5    1    1    2    0  501 -0.22109126210E+01  0.82916312052E+01  0.17443357399E+02  0.20000000000E+02  0.47000000000E+01 0.  1.
</event>
<event>
 4    1  0.5025809E-002  0.4000000E+02  0.7546771E-02  0.1348030E+00
         11   -1    0    0    0    0  0.00000000000E+00  0.00000000000E+00  0.20000000000E+02  0.20000000000E+02  0.00000000000E+00 0.  1.
        -11   -1    0    0    0    0 -0.00000000000E+00 -0.00000000000E+00 -0.20000000000E+02  0.20000000000E+02  0.00000000000E+00 0. -1.
          5    1    1    2  501    0 -0.18791306155E+02  0.40982484362E+01 -0.28286344322E+01  0.20000000000E+02  0.47000000000E+01 0. -1.
         -5    1    1    2    0  501  0.18791306155E+02 -0.40982484362E+01  0.28286344322E+01  0.20000000000E+02  0.47000000000E+01 0.  1.
</event>
<event>
 4    1  0.5025809E-002  0.4000000E+02  0.7546771E-02  0.1348030E+00
         11   -1    0    0    0    0  0.00000000000E+00  0.00000000000E+00  0.20000000000E+02  0.20000000000E+02  0.00000000000E+00 0. -1.
        -11   -1    0    0    0    0 -0.00000000000E+00 -0.00000000000E+00 -0.20000000000E+02  0.20000000000E+02  0.00000000000E+00 0.  1.
          5    1    1    2  501    0 -0.39430775947E+01  0.13259304464E+02 -0.13658440036E+02  0.20000000000E+02  0.47000000000E+01 0.  1.
         -5    1    1    2    0  501  0.39430775947E+01 -0.13259304464E+02  0.13658440036E+02  0.20000000000E+02  0.47000000000E+01 0. -1.
</event>
<event>
 4    1  0.5025809E-002  0.4000000E+02  0.7546771E-02  0.1348030E+00
         11   -1    0    0    0    0  0.00000000000E+00  0.00000000000E+00  0.20000000000E+02  0.20000000000E+02  0.00000000000E+00 0.  1.
        -11   -1    0    0    0    0 -0.00000000000E+00 -0.00000000000E+00 -0.20000000000E+02  0.20000000000E+02  0.00000000000E+00 0. -1.
          5    1    1    2  501    0  0.11042518789E+02 -0.12842289363E+02 -0.95419276205E+01  0.20000000000E+02  0.47000000000E+01 0. -1.
         -5    1    1    2    0  501 -0.11042518789E+02  0.12842289363E+02  0.95419276205E+01  0.20000000000E+02  0.47000000000E+01 0.  1.
</event>
<event>
 4    1  0.5025809E-002  0.4000000E+02  0.7546771E-02  0.1348030E+00
         11   -1    0    0    0    0  0.00000000000E+00  0.00000000000E+00  0.20000000000E+02  0.20000000000E+02  0.00000000000E+00 0.  1.
        -11   -1    0    0    0    0 -0.00000000000E+00 -0.00000000000E+00 -0.20000000000E+02  0.20000000000E+02  0.00000000000E+00 0. -1.
          5    1    1    2  501    0 -0.19512080580E+01 -0.11386356996E-01 -0.19341733569E+02  0.20000000000E+02  0.47000000000E+01 0. -1.
         -5    1    1    2    0  501  0.19512080580E+01  0.11386356996E-01  0.19341733569E+02  0.20000000000E+02  0.47000000000E+01 0.  1.
</event>
<event>
 4    1  0.5025809E-002  0.4000000E+02  0.7546771E-02  0.1348030E+00
         11   -1    0    0    0    0  0.00000000000E+00  0.00000000000E+00  0.20000000000E+02  0.20000000000E+02  0.00000000000E+00 0.  1.
        -11   -1    0    0    0    0 -0.00000000000E+00 -0.00000000000E+00 -0.20000000000E+02  0.20000000000E+02  0.00000000000E+00 0. -1.
          5    1    1    2  501    0 -0.66891272503E+01  0.12495714643E+02 -0.13304987493E+02  0.20000000000E+02  0.47000000000E+01 0. -1.
         -5    1    1    2    0  501  0.66891272503E+01 -0.12495714643E+02  0.13304987493E+02  0.20000000000E+02  0.47000000000E+01 0.  1.
</event>
<event>
 4    1  0.5025809E-002  0.4000000E+02  0.7546771E-02  0.1348030E+00
         11   -1    0    0    0    0  0.00000000000E+00  0.00000000000E+00  0.20000000000E+02  0.20000000000E+02  0.00000000000E+00 0. -1.
        -11   -1    0    0    0    0 -0.00000000000E+00 -0.00000000000E+00 -0.20000000000E+02  0.20000000000E+02  0.00000000000E+00 0.  1.
          5    1    1    2  501    0 -0.34002182671E+01 -0.18933291586E+02 -0.28069530561E+01  0.20000000000E+02  0.47000000000E+01 0.  1.
         -5    1    1    2    0  501  0.34002182671E+01  0.18933291586E+02  0.28069530561E+01  0.20000000000E+02  0.47000000000E+01 0. -1.
</event>
<event>
 4    1  0.5025809E-002  0.4000000E+02  0.7546771E-02  0.1348030E+00
         11   -1    0    0    0    0  0.00000000000E+00  0.00000000000E+00  0.20000000000E+02  0.20000000000E+02  0.00000000000E+00 0. -1.
        -11   -1    0    0    0    0 -0.00000000000E+00 -0.00000000000E+00 -0.20000000000E+02  0.20000000000E+02  0.00000000000E+00 0.  1.
          5    1    1    2  501    0  0.11187004417E+02  0.68743900961E+01 -0.14335399994E+02  0.20000000000E+02  0.47000000000E+01 0.  1.
         -5    1    1    2    0  501 -0.11187004417E+02 -0.68743900961E+01  0.14335399994E+02  0.20000000000E+02  0.47000000000E+01 0. -1.
</event>
<event>
 4    1  0.5025809E-002  0.4000000E+02  0.7546771E-02  0.1348030E+00
         11   -1    0    0    0    0  0.00000000000E+00  0.00000000000E+00  0.20000000000E+02  0.20000000000E+02  0.00000000000E+00 0.  1.
        -11   -1    0    0    0    0 -0.00000000000E+00 -0.00000000000E+00 -0.20000000000E+02  0.20000000000E+02  0.00000000000E+00 0. -1.
          5    1    1    2  501    0 -0.16271937640E+02  0.94429462296E+01  0.48953868022E+01  0.20000000000E+02  0.47000000000E+01 0.  1.
         -5    1    1    2    0  501  0.16271937640E+02 -0.94429462296E+01 -0.48953868022E+01  0.20000000000E+02  0.47000000000E+01 0. -1.
</event>
<event>
 4    1  0.5025809E-002  0.4000000E+02  0.7546771E-02  0.1348030E+00
         11   -1    0    0    0    0  0.00000000000E+00  0.00000000000E+00  0.20000000000E+02  0.20000000000E+02  0.00000000000E+00 0. -1.
        -11   -1    0    0    0    0 -0.00000000000E+00 -0.00000000000E+00 -0.20000000000E+02  0.20000000000E+02  0.00000000000E+00 0.  1.
          5    1    1    2  501    0  0.17314014210E+02  0.83569395921E+01 -0.28803598049E+01  0.20000000000E+02  0.47000000000E+01 0.  1.
         -5    1    1    2    0  501 -0.17314014210E+02 -0.83569395921E+01  0.28803598049E+01  0.20000000000E+02  0.47000000000E+01 0. -1.
</event>
<event>
 4    1  0.5025809E-002  0.4000000E+02  0.7546771E-02  0.1348030E+00
         11   -1    0    0    0    0  0.00000000000E+00  0.00000000000E+00  0.20000000000E+02  0.20000000000E+02  0.00000000000E+00 0. -1.
        -11   -1    0    0    0    0 -0.00000000000E+00 -0.00000000000E+00 -0.20000000000E+02  0.20000000000E+02  0.00000000000E+00 0.  1.
          5    1    1    2  501    0  0.18543703056E+02 -0.23612425604E+01  0.53353172858E+01  0.20000000000E+02  0.47000000000E+01 0. -1.
         -5    1    1    2    0  501 -0.18543703056E+02  0.23612425604E+01 -0.53353172858E+01  0.20000000000E+02  0.47000000000E+01 0.  1.
</event>
<event>
 4    1  0.5025809E-002  0.4000000E+02  0.7546771E-02  0.1348030E+00
         11   -1    0    0    0    0  0.00000000000E+00  0.00000000000E+00  0.20000000000E+02  0.20000000000E+02  0.00000000000E+00 0. -1.
        -11   -1    0    0    0    0 -0.00000000000E+00 -0.00000000000E+00 -0.20000000000E+02  0.20000000000E+02  0.00000000000E+00 0.  1.
          5    1    1    2  501    0 -0.54237915130E+01  0.89447334541E+01 -0.16385488368E+02  0.20000000000E+02  0.47000000000E+01 0.  1.
         -5    1    1    2    0  501  0.54237915130E+01 -0.89447334541E+01  0.16385488368E+02  0.20000000000E+02  0.47000000000E+01 0. -1.
</event>
<event>
 4    1  0.5025809E-002  0.4000000E+02  0.7546771E-02  0.1348030E+00
         11   -1    0    0    0    0  0.00000000000E+00  0.00000000000E+00  0.20000000000E+02  0.20000000000E+02  0.00000000000E+00 0.  1.
        -11   -1    0    0    0    0 -0.00000000000E+00 -0.00000000000E+00 -0.20000000000E+02  0.20000000000E+02  0.00000000000E+00 0. -1.
          5    1    1    2  501    0 -0.98444195434E+01  0.37667243003E+01 -0.16334294962E+02  0.20000000000E+02  0.47000000000E+01 0. -1.
         -5    1    1    2    0  501  0.98444195434E+01 -0.37667243003E+01  0.16334294962E+02  0.20000000000E+02  0.47000000000E+01 0.  1.
</event>
<event>
 4    1  0.5025809E-002  0.4000000E+02  0.7546771E-02  0.1348030E+00
         11   -1    0    0    0    0  0.00000000000E+00  0.00000000000E+00  0.20000000000E+02  0.20000000000E+02  0.00000000000E+00 0.  1.
        -11   -1    0    0    0    0 -0.00000000000E+00 -0.00000000000E+00 -0.20000000000E+02  0.20000000000E+02  0.00000000000E+00 0. -1.
          5    1    1    2  501    0  0.10146897802E+00  0.12175496317E+02  0.15154438079E+02  0.20000000000E+02  0.47000000000E+01 0.  1.
         -5    1    1    2    0  501 -0.10146897802E+00 -0.12175496317E+02 -0.15154438079E+02  0.20000000000E+02  0.47000000000E+01 0. -1.
</event>
<event>
 4    1  0.5025809E-002  0.4000000E+02  0.7546771E-02  0.1348030E+00
         11   -1    0    0    0    0  0.00000000000E+00  0.00000000000E+00  0.20000000000E+02  0.20000000000E+02  0.00000000000E+00 0.  1.
        -11   -1    0    0    0    0 -0.00000000000E+00 -0.00000000000E+00 -0.20000000000E+02  0.20000000000E+02  0.00000000000E+00 0. -1.
          5    1    1    2  501    0  0.14112078324E+02  0.35618133084E+01 -0.12886920940E+02  0.20000000000E+02  0.47000000000E+01 0. -1.
         -5    1    1    2    0  501 -0.14112078324E+02 -0.35618133084E+01  0.12886920940E+02  0.20000000000E+02  0.47000000000E+01 0.  1.
</event>
<event>
 4    1  0.5025809E-002  0.4000000E+02  0.7546771E-02  0.1348030E+00
         11   -1    0    0    0    0  0.00000000000E+00  0.00000000000E+00  0.20000000000E+02  0.20000000000E+02  0.00000000000E+00 0.  1.
        -11   -1    0    0    0    0 -0.00000000000E+00 -0.00000000000E+00 -0.20000000000E+02  0.20000000000E+02  0.00000000000E+00 0. -1.
          5    1    1    2  501    0  0.17445709858E+02 -0.17193668999E+01 -0.84024392304E+01  0.20000000000E+02  0.47000000000E+01 0.  1.
         -5    1    1    2    0  501 -0.17445709858E+02  0.17193668999E+01  0.84024392304E+01  0.20000000000E+02  0.47000000000E+01 0. -1.
</event>
<event>
 4    1  0.5025809E-002  0.4000000E+02  0.7546771E-02  0.1348030E+00
         11   -1    0    0    0    0  0.00000000000E+00  0.00000000000E+00  0.20000000000E+02  0.20000000000E+02  0.00000000000E+00 0.  1.
        -11   -1    0    0    0    0 -0.00000000000E+00 -0.00000000000E+00 -0.20000000000E+02  0.20000000000E+02  0.00000000000E+00 0. -1.
          5    1    1    2  501    0 -0.69422169777E+01 -0.85173987481E+01 -0.16036506540E+02  0.20000000000E+02  0.47000000000E+01 0. -1.
         -5    1    1    2    0  501  0.69422169777E+01  0.85173987481E+01  0.16036506540E+02  0.20000000000E+02  0.47000000000E+01 0.  1.
</event>
<event>
 4    1  0.5025809E-002  0.4000000E+02  0.7546771E-02  0.1348030E+00
         11   -1    0    0    0    0  0.00000000000E+00  0.00000000000E+00  0.20000000000E+02  0.20000000000E+02  0.00000000000E+00 0.  1.
        -11   -1    0    0    0    0 -0.00000000000E+00 -0.00000000000E+00 -0.20000000000E+02  0.20000000000E+02  0.00000000000E+00 0. -1.
          5    1    1    2  501    0  0.32610341274E+00  0.14046921815E+02 -0.13434568995E+02  0.20000000000E+02  0.47000000000E+01 0. -1.
         -5    1    1    2    0  501 -0.32610341274E+00 -0.14046921815E+02  0.13434568995E+02  0.20000000000E+02  0.47000000000E+01 0.  1.
</event>
<event>
 4    1  0.5025809E-002  0.4000000E+02  0.7546771E-02  0.1348030E+00
         11   -1    0    0    0    0  0.00000000000E+00  0.00000000000E+00  0.20000000000E+02  0.20000000000E+02  0.00000000000E+00 0. -1.
        -11   -1    0    0    0    0 -0.00000000000E+00 -0.00000000000E+00 -0.20000000000E+02  0.20000000000E+02  0.00000000000E+00 0.  1.
          5    1    1    2  501    0  0.41636022976E+01  0.86113919825E+01  0.16923898606E+02  0.20000000000E+02  0.47000000000E+01 0. -1.
         -5    1    1    2    0  501 -0.41636022976E+01 -0.86113919825E+01 -0.16923898606E+02  0.20000000000E+02  0.47000000000E+01 0.  1.
</event>
<event>
 4    1  0.5025809E-002  0.4000000E+02  0.7546771E-02  0.1348030E+00
         11   -1    0    0    0    0  0.00000000000E+00  0.00000000000E+00  0.20000000000E+02  0.20000000000E+02  0.00000000000E+00 0. -1.
        -11   -1    0    0    0    0 -0.00000000000E+00 -0.00000000000E+00 -0.20000000000E+02  0.20000000000E+02  0.00000000000E+00 0.  1.
          5    1    1    2  501    0  0.17278573761E+02  0.43154595873E+01 -0.77934393784E+01  0.20000000000E+02  0.47000000000E+01 0.  1.
         -5    1    1    2    0  501 -0.17278573761E+02 -0.43154595873E+01  0.77934393784E+01  0.20000000000E+02  0.47000000000E+01 0. -1.
</event>
<event>
 4    1  0.5025809E-002  0.4000000E+02  0.7546771E-02  0.1348030E+00
         11   -1    0    0    0    0  0.00000000000E+00  0.00000000000E+00  0.20000000000E+02  0.20000000000E+02  0.00000000000E+00 0.  1.
        -11   -1    0    0    0    0 -0.00000000000E+00 -0.00000000000E+00 -0.20000000000E+02  0.20000000000E+02  0.00000000000E+00 0. -1.
          5    1    1    2  501    0 -0.10239116399E+02  0.33374349853E+01 -0.16184314106E+02  0.20000000000E+02  0.47000000000E+01 0. -1.
         -5    1    1    2    0  501  0.10239116399E+02 -0.33374349853E+01  0.16184314106E+02  0.20000000000E+02  0.47000000000E+01 0.  1.
</event>
<event>
 4    1  0.5025809E-002  0.4000000E+02  0.7546771E-02  0.1348030E+00
         11   -1    0    0    0    0  0.00000000000E+00  0.00000000000E+00  0.20000000000E+02  0.20000000000E+02  0.00000000000E+00 0. -1.
        -11   -1    0    0    0    0 -0.00000000000E+00 -0.00000000000E+00 -0.20000000000E+02  0.20000000000E+02  0.00000000000E+00 0.  1.
          5    1    1    2  501    0 -0.59336254828E+01 -0.13407358066E+02 -0.12764984854E+02  0.20000000000E+02  0.47000000000E+01 0.  1.
         -5    1    1    2    0  501  0.59336254828E+01  0.13407358066E+02  0.12764984854E+02  0.20000000000E+02  0.47000000000E+01 0. -1.
</event>
<event>
 4    1  0.5025809E-002  0.4000000E+02  0.7546771E-02  0.1348030E+00
         11   -1    0    0    0    0  0.00000000000E+00  0.00000000000E+00  0.20000000000E+02  0.20000000000E+02  0.00000000000E+00 0.  1.
        -11   -1    0    0    0    0 -0.00000000000E+00 -0.00000000000E+00 -0.20000000000E+02  0.20000000000E+02  0.00000000000E+00 0. -1.
          5    1    1    2  501    0  0.70138197060E+01 -0.17683752495E+02 -0.40001538493E+01  0.20000000000E+02  0.47000000000E+01 0. -1.
         -5    1    1    2    0  501 -0.70138197060E+01  0.17683752495E+02  0.40001538493E+01  0.20000000000E+02  0.47000000000E+01 0.  1.
</event>
<event>
 4    1  0.5025809E-002  0.4000000E+02  0.7546771E-02  0.1348030E+00
         11   -1    0    0    0    0  0.00000000000E+00  0.00000000000E+00  0.20000000000E+02  0.20000000000E+02  0.00000000000E+00 0.  1.
        -11   -1    0    0    0    0 -0.00000000000E+00 -0.00000000000E+00 -0.20000000000E+02  0.20000000000E+02  0.00000000000E+00 0. -1.
          5    1    1    2  501    0 -0.10427260484E+02 -0.66800465437E+01 -0.14985300029E+02  0.20000000000E+02  0.47000000000E+01 0. -1.
         -5    1    1    2    0  501  0.10427260484E+02  0.66800465437E+01  0.14985300029E+02  0.20000000000E+02  0.47000000000E+01 0.  1.
</event>
<event>
 4    1  0.5025809E-002  0.4000000E+02  0.7546771E-02  0.1348030E+00
         11   -1    0    0    0    0  0.00000000000E+00  0.00000000000E+00  0.20000000000E+02  0.20000000000E+02  0.00000000000E+00 0. -1.
        -11   -1    0    0    0    0 -0.00000000000E+00 -0.00000000000E+00 -0.20000000000E+02  0.20000000000E+02  0.00000000000E+00 0.  1.
          5    1    1    2  501    0  0.12213360967E+02  0.55126914028E+00 -0.15114228932E+02  0.20000000000E+02  0.47000000000E+01 0.  1.
         -5    1    1    2    0  501 -0.12213360967E+02 -0.55126914028E+00  0.15114228932E+02  0.20000000000E+02  0.47000000000E+01 0. -1.
</event>
<event>
 4    1  0.5025809E-002  0.4000000E+02  0.7546771E-02  0.1348030E+00
         11   -1    0    0    0    0  0.00000000000E+00  0.00000000000E+00  0.20000000000E+02  0.20000000000E+02  0.00000000000E+00 0. -1.
        -11   -1    0    0    0    0 -0.00000000000E+00 -0.00000000000E+00 -0.20000000000E+02  0.20000000000E+02  0.00000000000E+00 0.  1.
          5    1    1    2  501    0  0.80083078647E+01 -0.17596509689E+02  0.20346626052E+01  0.20000000000E+02  0.47000000000E+01 0.  1.
         -5    1    1    2    0  501 -0.80083078647E+01  0.17596509689E+02 -0.20346626052E+01  0.20000000000E+02  0.47000000000E+01 0. -1.
</event>
<event>
 4    1  0.5025809E-002  0.4000000E+02  0.7546771E-02  0.1348030E+00
         11   -1    0    0    0    0  0.00000000000E+00  0.00000000000E+00  0.20000000000E+02  0.20000000000E+02  0.00000000000E+00 0. -1.
        -11   -1    0    0    0    0 -0.00000000000E+00 -0.00000000000E+00 -0.20000000000E+02  0.20000000000E+02  0.00000000000E+00 0.  1.
          5    1    1    2  501    0 -0.12163544590E+02  0.15018368691E+02  0.20992343517E+01  0.20000000000E+02  0.47000000000E+01 0. -1.
         -5    1    1    2    0  501  0.12163544590E+02 -0.15018368691E+02 -0.20992343517E+01  0.20000000000E+02  0.47000000000E+01 0.  1.
</event>
<event>
 4    1  0.5025809E-002  0.4000000E+02  0.7546771E-02  0.1348030E+00
         11   -1    0    0    0    0  0.00000000000E+00  0.00000000000E+00  0.20000000000E+02  0.20000000000E+02  0.00000000000E+00 0. -1.
        -11   -1    0    0    0    0 -0.00000000000E+00 -0.00000000000E+00 -0.20000000000E+02  0.20000000000E+02  0.00000000000E+00 0.  1.
          5    1    1    2  501    0  0.18453946971E+02  0.90182182273E+00 -0.60455403876E+01  0.20000000000E+02  0.47000000000E+01 0.  1.
         -5    1    1    2    0  501 -0.18453946971E+02 -0.90182182273E+00  0.60455403876E+01  0.20000000000E+02  0.47000000000E+01 0. -1.
</event>
<event>
 4    1  0.5025809E-002  0.4000000E+02  0.7546771E-02  0.1348030E+00
         11   -1    0    0    0    0  0.00000000000E+00  0.00000000000E+00  0.20000000000E+02  0.20000000000E+02  0.00000000000E+00 0.  1.
        -11   -1    0    0    0    0 -0.00000000000E+00 -0.00000000000E+00 -0.20000000000E+02  0.20000000000E+02  0.00000000000E+00 0. -1.
          5    1    1    2  501    0 -0.18663205590E+00 -0.17955915286E+02 -0.74471655501E+01  0.20000000000E+02  0.47000000000E+01 0. -1.
         -5    1    1    2    0  501  0.18663205590E+00  0.17955915286E+02  0.74471655501E+01  0.20000000000E+02  0.47000000000E+01 0.  1.
</event>
<event>
 4    1  0.5025809E-002  0.4000000E+02  0.7546771E-02  0.1348030E+00
         11   -1    0    0    0    0  0.00000000000E+00  0.00000000000E+00  0.20000000000E+02  0.20000000000E+02  0.00000000000E+00 0.  1.
        -11   -1    0    0    0    0 -0.00000000000E+00 -0.00000000000E+00 -0.20000000000E+02  0.20000000000E+02  0.00000000000E+00 0. -1.
          5    1    1    2  501    0  0.18342989688E+02 -0.54692857320E+01 -0.33958272735E+01  0.20000000000E+02  0.47000000000E+01 0.  1.
         -5    1    1    2    0  501 -0.18342989688E+02  0.54692857320E+01  0.33958272735E+01  0.20000000000E+02  0.47000000000E+01 0. -1.
</event>
<event>
 4    1  0.5025809E-002  0.4000000E+02  0.7546771E-02  0.1348030E+00
         11   -1    0    0    0    0  0.00000000000E+00  0.00000000000E+00  0.20000000000E+02  0.20000000000E+02  0.00000000000E+00 0.  1.
        -11   -1    0    0    0    0 -0.00000000000E+00 -0.00000000000E+00 -0.20000000000E+02  0.20000000000E+02  0.00000000000E+00 0. -1.
          5    1    1    2  501    0  0.71530964206E+01  0.21541188247E+01 -0.17947227744E+02  0.20000000000E+02  0.47000000000E+01 0. -1.
         -5    1    1    2    0  501 -0.71530964206E+01 -0.21541188247E+01  0.17947227744E+02  0.20000000000E+02  0.47000000000E+01 0.  1.
</event>
<event>
 4    1  0.5025809E-002  0.4000000E+02  0.7546771E-02  0.1348030E+00
         11   -1    0    0    0    0  0.00000000000E+00  0.00000000000E+00  0.20000000000E+02  0.20000000000E+02  0.00000000000E+00 0.  1.
        -11   -1    0    0    0    0 -0.00000000000E+00 -0.00000000000E+00 -0.20000000000E+02  0.20000000000E+02  0.00000000000E+00 0. -1.
          5    1    1    2  501    0  0.47355512224E+01  0.19476122855E+01 -0.18753435979E+02  0.20000000000E+02  0.47000000000E+01 0. -1.
         -5    1    1    2    0  501 -0.47355512224E+01 -0.19476122855E+01  0.18753435979E+02  0.20000000000E+02  0.47000000000E+01 0.  1.
</event>
<event>
 4    1  0.5025809E-002  0.4000000E+02  0.7546771E-02  0.1348030E+00
         11   -1    0    0    0    0  0.00000000000E+00  0.00000000000E+00  0.20000000000E+02  0.20000000000E+02  0.00000000000E+00 0. -1.
        -11   -1    0    0    0    0 -0.00000000000E+00 -0.00000000000E+00 -0.20000000000E+02  0.20000000000E+02  0.00000000000E+00 0.  1.
          5    1    1    2  501    0  0.93408859496E+01 -0.11954057406E+02 -0.12155589711E+02  0.20000000000E+02  0.47000000000E+01 0.  1.
         -5    1    1    2    0  501 -0.93408859496E+01  0.11954057406E+02  0.12155589711E+02  0.20000000000E+02  0.47000000000E+01 0. -1.
</event>
<event>
 4    1  0.5025809E-002  0.4000000E+02  0.7546771E-02  0.1348030E+00
         11   -1    0    0    0    0  0.00000000000E+00  0.00000000000E+00  0.20000000000E+02  0.20000000000E+02  0.00000000000E+00 0. -1.
        -11   -1    0    0    0    0 -0.00000000000E+00 -0.00000000000E+00 -0.20000000000E+02  0.20000000000E+02  0.00000000000E+00 0.  1.
          5    1    1    2  501    0  0.28911611430E+01 -0.19202499481E+02 -0.90288478420E+00  0.20000000000E+02  0.47000000000E+01 0.  1.
         -5    1    1    2    0  501 -0.28911611430E+01  0.19202499481E+02  0.90288478420E+00  0.20000000000E+02  0.47000000000E+01 0.  1.
</event>
<event>
 4    1  0.5025809E-002  0.4000000E+02  0.7546771E-02  0.1348030E+00
         11   -1    0    0    0    0  0.00000000000E+00  0.00000000000E+00  0.20000000000E+02  0.20000000000E+02  0.00000000000E+00 0.  1.
        -11   -1    0    0    0    0 -0.00000000000E+00 -0.00000000000E+00 -0.20000000000E+02  0.20000000000E+02  0.00000000000E+00 0. -1.
          5    1    1    2  501    0  0.18924984852E+02  0.29085997730E+01  0.33608028375E+01  0.20000000000E+02  0.47000000000E+01 0.  1.
         -5    1    1    2    0  501 -0.18924984852E+02 -0.29085997730E+01 -0.33608028375E+01  0.20000000000E+02  0.47000000000E+01 0. -1.
</event>
<event>
 4    1  0.5025809E-002  0.4000000E+02  0.7546771E-02  0.1348030E+00
         11   -1    0    0    0    0  0.00000000000E+00  0.00000000000E+00  0.20000000000E+02  0.20000000000E+02  0.00000000000E+00 0.  1.
        -11   -1    0    0    0    0 -0.00000000000E+00 -0.00000000000E+00 -0.20000000000E+02  0.20000000000E+02  0.00000000000E+00 0. -1.
          5    1    1    2  501    0  0.15944813059E+02 -0.10969295345E+02  0.18296163941E+01  0.20000000000E+02  0.47000000000E+01 0.  1.
         -5    1    1    2    0  501 -0.15944813059E+02  0.10969295345E+02 -0.18296163941E+01  0.20000000000E+02  0.47000000000E+01 0. -1.
</event>
<event>
 4    1  0.5025809E-002  0.4000000E+02  0.7546771E-02  0.1348030E+00
         11   -1    0    0    0    0  0.00000000000E+00  0.00000000000E+00  0.20000000000E+02  0.20000000000E+02  0.00000000000E+00 0.  1.
        -11   -1    0    0    0    0 -0.00000000000E+00 -0.00000000000E+00 -0.20000000000E+02  0.20000000000E+02  0.00000000000E+00 0. -1.
          5    1    1    2  501    0  0.15163649030E+02  0.60978343897E+01 -0.10525690659E+02  0.20000000000E+02  0.47000000000E+01 0. -1.
         -5    1    1    2    0  501 -0.15163649030E+02 -0.60978343897E+01  0.10525690659E+02  0.20000000000E+02  0.47000000000E+01 0.  1.
</event>
<event>
 4    1  0.5025809E-002  0.4000000E+02  0.7546771E-02  0.1348030E+00
         11   -1    0    0    0    0  0.00000000000E+00  0.00000000000E+00  0.20000000000E+02  0.20000000000E+02  0.00000000000E+00 0.  1.
        -11   -1    0    0    0    0 -0.00000000000E+00 -0.00000000000E+00 -0.20000000000E+02  0.20000000000E+02  0.00000000000E+00 0. -1.
          5    1    1    2  501    0  0.10363742512E+02 -0.16228498730E+02  0.26718289790E+01  0.20000000000E+02  0.47000000000E+01 0. -1.
         -5    1    1    2    0  501 -0.10363742512E+02  0.16228498730E+02 -0.26718289790E+01  0.20000000000E+02  0.47000000000E+01 0.  1.
</event>
<event>
 4    1  0.5025809E-002  0.4000000E+02  0.7546771E-02  0.1348030E+00
         11   -1    0    0    0    0  0.00000000000E+00  0.00000000000E+00  0.20000000000E+02  0.20000000000E+02  0.00000000000E+00 0.  1.
        -11   -1    0    0    0    0 -0.00000000000E+00 -0.00000000000E+00 -0.20000000000E+02  0.20000000000E+02  0.00000000000E+00 0. -1.
          5    1    1    2  501    0 -0.57447964757E+01 -0.52660298081E+01 -0.17809442538E+02  0.20000000000E+02  0.47000000000E+01 0. -1.
         -5    1    1    2    0  501  0.57447964757E+01  0.52660298081E+01  0.17809442538E+02  0.20000000000E+02  0.47000000000E+01 0.  1.
</event>
<event>
 4    1  0.5025809E-002  0.4000000E+02  0.7546771E-02  0.1348030E+00
         11   -1    0    0    0    0  0.00000000000E+00  0.00000000000E+00  0.20000000000E+02  0.20000000000E+02  0.00000000000E+00 0.  1.
        -11   -1    0    0    0    0 -0.00000000000E+00 -0.00000000000E+00 -0.20000000000E+02  0.20000000000E+02  0.00000000000E+00 0. -1.
          5    1    1    2  501    0  0.31823359398E+01  0.41219422685E+01 -0.18729450870E+02  0.20000000000E+02  0.47000000000E+01 0. -1.
         -5    1    1    2    0  501 -0.31823359398E+01 -0.41219422685E+01  0.18729450870E+02  0.20000000000E+02  0.47000000000E+01 0.  1.
</event>
<event>
 4    1  0.5025809E-002  0.4000000E+02  0.7546771E-02  0.1348030E+00
         11   -1    0    0    0    0  0.00000000000E+00  0.00000000000E+00  0.20000000000E+02  0.20000000000E+02  0.00000000000E+00 0. -1.
        -11   -1    0    0    0    0 -0.00000000000E+00 -0.00000000000E+00 -0.20000000000E+02  0.20000000000E+02  0.00000000000E+00 0.  1.
          5    1    1    2  501    0  0.14263953183E+02 -0.42557091074E+01 -0.12503542682E+02  0.20000000000E+02  0.47000000000E+01 0.  1.
         -5    1    1    2    0  501 -0.14263953183E+02  0.42557091074E+01  0.12503542682E+02  0.20000000000E+02  0.47000000000E+01 0. -1.
</event>
<event>
 4    1  0.5025809E-002  0.4000000E+02  0.7546771E-02  0.1348030E+00
         11   -1    0    0    0    0  0.00000000000E+00  0.00000000000E+00  0.20000000000E+02  0.20000000000E+02  0.00000000000E+00 0.  1.
        -11   -1    0    0    0    0 -0.00000000000E+00 -0.00000000000E+00 -0.20000000000E+02  0.20000000000E+02  0.00000000000E+00 0. -1.
          5    1    1    2  501    0  0.10252026312E+02  0.31657349349E+01 -0.16210616238E+02  0.20000000000E+02  0.47000000000E+01 0. -1.
         -5    1    1    2    0  501 -0.10252026312E+02 -0.31657349349E+01  0.16210616238E+02  0.20000000000E+02  0.47000000000E+01 0.  1.
</event>
<event>
 4    1  0.5025809E-002  0.4000000E+02  0.7546771E-02  0.1348030E+00
         11   -1    0    0    0    0  0.00000000000E+00  0.00000000000E+00  0.20000000000E+02  0.20000000000E+02  0.00000000000E+00 0.  1.
        -11   -1    0    0    0    0 -0.00000000000E+00 -0.00000000000E+00 -0.20000000000E+02  0.20000000000E+02  0.00000000000E+00 0. -1.
          5    1    1    2  501    0  0.45382747647E+01 -0.28762379383E+01 -0.18682647497E+02  0.20000000000E+02  0.47000000000E+01 0. -1.
         -5    1    1    2    0  501 -0.45382747647E+01  0.28762379383E+01  0.18682647497E+02  0.20000000000E+02  0.47000000000E+01 0.  1.
</event>
<event>
 4    1  0.5025809E-002  0.4000000E+02  0.7546771E-02  0.1348030E+00
         11   -1    0    0    0    0  0.00000000000E+00  0.00000000000E+00  0.20000000000E+02  0.20000000000E+02  0.00000000000E+00 0.  1.
        -11   -1    0    0    0    0 -0.00000000000E+00 -0.00000000000E+00 -0.20000000000E+02  0.20000000000E+02  0.00000000000E+00 0. -1.
          5    1    1    2  501    0  0.35834440197E+01 -0.12921406219E+02 -0.14075020081E+02  0.20000000000E+02  0.47000000000E+01 0. -1.
         -5    1    1    2    0  501 -0.35834440197E+01  0.12921406219E+02  0.14075020081E+02  0.20000000000E+02  0.47000000000E+01 0.  1.
</event>
<event>
 4    1  0.5025809E-002  0.4000000E+02  0.7546771E-02  0.1348030E+00
         11   -1    0    0    0    0  0.00000000000E+00  0.00000000000E+00  0.20000000000E+02  0.20000000000E+02  0.00000000000E+00 0.  1.
        -11   -1    0    0    0    0 -0.00000000000E+00 -0.00000000000E+00 -0.20000000000E+02  0.20000000000E+02  0.00000000000E+00 0. -1.
          5    1    1    2  501    0  0.18681219448E+02  0.33840520916E+01  0.41797405860E+01  0.20000000000E+02  0.47000000000E+01 0.  1.
         -5    1    1    2    0  501 -0.18681219448E+02 -0.33840520916E+01 -0.41797405860E+01  0.20000000000E+02  0.47000000000E+01 0. -1.
</event>
<event>
 4    1  0.5025809E-002  0.4000000E+02  0.7546771E-02  0.1348030E+00
         11   -1    0    0    0    0  0.00000000000E+00  0.00000000000E+00  0.20000000000E+02  0.20000000000E+02  0.00000000000E+00 0.  1.
        -11   -1    0    0    0    0 -0.00000000000E+00 -0.00000000000E+00 -0.20000000000E+02  0.20000000000E+02  0.00000000000E+00 0. -1.
          5    1    1    2  501    0 -0.13085912871E+01  0.24890972146E+01  0.19235435631E+02  0.20000000000E+02  0.47000000000E+01 0.  1.
         -5    1    1    2    0  501  0.13085912871E+01 -0.24890972146E+01 -0.19235435631E+02  0.20000000000E+02  0.47000000000E+01 0. -1.
</event>
<event>
 4    1  0.5025809E-002  0.4000000E+02  0.7546771E-02  0.1348030E+00
         11   -1    0    0    0    0  0.00000000000E+00  0.00000000000E+00  0.20000000000E+02  0.20000000000E+02  0.00000000000E+00 0.  1.
        -11   -1    0    0    0    0 -0.00000000000E+00 -0.00000000000E+00 -0.20000000000E+02  0.20000000000E+02  0.00000000000E+00 0. -1.
          5    1    1    2  501    0 -0.75220341324E+01  0.64467518908E+00 -0.17914055834E+02  0.20000000000E+02  0.47000000000E+01 0. -1.
         -5    1    1    2    0  501  0.75220341324E+01 -0.64467518908E+00  0.17914055834E+02  0.20000000000E+02  0.47000000000E+01 0.  1.
</event>
<event>
 4    1  0.5025809E-002  0.4000000E+02  0.7546771E-02  0.1348030E+00
         11   -1    0    0    0    0  0.00000000000E+00  0.00000000000E+00  0.20000000000E+02  0.20000000000E+02  0.00000000000E+00 0.  1.
        -11   -1    0    0    0    0 -0.00000000000E+00 -0.00000000000E+00 -0.20000000000E+02  0.20000000000E+02  0.00000000000E+00 0. -1.
          5    1    1    2  501    0  0.55425040101E+00  0.74897006214E+01 -0.17930621604E+02  0.20000000000E+02  0.47000000000E+01 0. -1.
         -5    1    1    2    0  501 -0.55425040101E+00 -0.74897006214E+01  0.17930621604E+02  0.20000000000E+02  0.47000000000E+01 0.  1.
</event>
<event>
 4    1  0.5025809E-002  0.4000000E+02  0.7546771E-02  0.1348030E+00
         11   -1    0    0    0    0  0.00000000000E+00  0.00000000000E+00  0.20000000000E+02  0.20000000000E+02  0.00000000000E+00 0. -1.
        -11   -1    0    0    0    0 -0.00000000000E+00 -0.00000000000E+00 -0.20000000000E+02  0.20000000000E+02  0.00000000000E+00 0.  1.
          5    1    1    2  501    0 -0.95862531297E+01 -0.13354370728E+02  0.10376634011E+02  0.20000000000E+02  0.47000000000E+01 0. -1.
         -5    1    1    2    0  501  0.95862531297E+01  0.13354370728E+02 -0.10376634011E+02  0.20000000000E+02  0.47000000000E+01 0. -1.
</event>
<event>
 4    1  0.5025809E-002  0.4000000E+02  0.7546771E-02  0.1348030E+00
         11   -1    0    0    0    0  0.00000000000E+00  0.00000000000E+00  0.20000000000E+02  0.20000000000E+02  0.00000000000E+00 0.  1.
        -11   -1    0    0    0    0 -0.00000000000E+00 -0.00000000000E+00 -0.20000000000E+02  0.20000000000E+02  0.00000000000E+00 0. -1.
          5    1    1    2  501    0  0.11404230517E+02  0.15515947667E+02  0.26662509828E+01  0.20000000000E+02  0.47000000000E+01 0. -1.
         -5    1    1    2    0  501 -0.11404230517E+02 -0.15515947667E+02 -0.26662509828E+01  0.20000000000E+02  0.47000000000E+01 0.  1.
</event>
<event>
 4    1  0.5025809E-002  0.4000000E+02  0.7546771E-02  0.1348030E+00
         11   -1    0    0    0    0  0.00000000000E+00  0.00000000000E+00  0.20000000000E+02  0.20000000000E+02  0.00000000000E+00 0.  1.
        -11   -1    0    0    0    0 -0.00000000000E+00 -0.00000000000E+00 -0.20000000000E+02  0.20000000000E+02  0.00000000000E+00 0. -1.
          5    1    1    2  501    0  0.48184690715E+01  0.18036949008E+02 -0.54185631214E+01  0.20000000000E+02  0.47000000000E+01 0.  1.
         -5    1    1    2    0  501 -0.48184690715E+01 -0.18036949008E+02  0.54185631214E+01  0.20000000000E+02  0.47000000000E+01 0. -1.
</event>
<event>
 4    1  0.5025809E-002  0.4000000E+02  0.7546771E-02  0.1348030E+00
         11   -1    0    0    0    0  0.00000000000E+00  0.00000000000E+00  0.20000000000E+02  0.20000000000E+02  0.00000000000E+00 0.  1.
        -11   -1    0    0    0    0 -0.00000000000E+00 -0.00000000000E+00 -0.20000000000E+02  0.20000000000E+02  0.00000000000E+00 0. -1.
          5    1    1    2  501    0  0.79087768665E+01 -0.15826594545E+02  0.80548217591E+01  0.20000000000E+02  0.47000000000E+01 0.  1.
         -5    1    1    2    0  501 -0.79087768665E+01  0.15826594545E+02 -0.80548217591E+01  0.20000000000E+02  0.47000000000E+01 0. -1.
</event>
<event>
 4    1  0.5025809E-002  0.4000000E+02  0.7546771E-02  0.1348030E+00
         11   -1    0    0    0    0  0.00000000000E+00  0.00000000000E+00  0.20000000000E+02  0.20000000000E+02  0.00000000000E+00 0.  1.
        -11   -1    0    0    0    0 -0.00000000000E+00 -0.00000000000E+00 -0.20000000000E+02  0.20000000000E+02  0.00000000000E+00 0. -1.
          5    1    1    2  501    0 -0.82969144710E+00 -0.47068656320E+01 -0.18843222337E+02  0.20000000000E+02  0.47000000000E+01 0. -1.
         -5    1    1    2    0  501  0.82969144710E+00  0.47068656320E+01  0.18843222337E+02  0.20000000000E+02  0.47000000000E+01 0.  1.
</event>
<event>
 4    1  0.5025809E-002  0.4000000E+02  0.7546771E-02  0.1348030E+00
         11   -1    0    0    0    0  0.00000000000E+00  0.00000000000E+00  0.20000000000E+02  0.20000000000E+02  0.00000000000E+00 0. -1.
        -11   -1    0    0    0    0 -0.00000000000E+00 -0.00000000000E+00 -0.20000000000E+02  0.20000000000E+02  0.00000000000E+00 0.  1.
          5    1    1    2  501    0  0.35643585539E+01  0.13038088497E+02  0.13971885930E+02  0.20000000000E+02  0.47000000000E+01 0. -1.
         -5    1    1    2    0  501 -0.35643585539E+01 -0.13038088497E+02 -0.13971885930E+02  0.20000000000E+02  0.47000000000E+01 0.  1.
</event>
<event>
 4    1  0.5025809E-002  0.4000000E+02  0.7546771E-02  0.1348030E+00
         11   -1    0    0    0    0  0.00000000000E+00  0.00000000000E+00  0.20000000000E+02  0.20000000000E+02  0.00000000000E+00 0.  1.
        -11   -1    0    0    0    0 -0.00000000000E+00 -0.00000000000E+00 -0.20000000000E+02  0.20000000000E+02  0.00000000000E+00 0. -1.
          5    1    1    2  501    0 -0.11673531290E+02 -0.15535679877E+02 -0.53039415784E+00  0.20000000000E+02  0.47000000000E+01 0. -1.
         -5    1    1    2    0  501  0.11673531290E+02  0.15535679877E+02  0.53039415784E+00  0.20000000000E+02  0.47000000000E+01 0.  1.
</event>
<event>
 4    1  0.5025809E-002  0.4000000E+02  0.7546771E-02  0.1348030E+00
         11   -1    0    0    0    0  0.00000000000E+00  0.00000000000E+00  0.20000000000E+02  0.20000000000E+02  0.00000000000E+00 0.  1.
        -11   -1    0    0    0    0 -0.00000000000E+00 -0.00000000000E+00 -0.20000000000E+02  0.20000000000E+02  0.00000000000E+00 0. -1.
          5    1    1    2  501    0  0.51203533198E+01 -0.13343039110E+02  0.13177833251E+02  0.20000000000E+02  0.47000000000E+01 0. -1.
         -5    1    1    2    0  501 -0.51203533198E+01  0.13343039110E+02 -0.13177833251E+02  0.20000000000E+02  0.47000000000E+01 0. -1.
</event>
<event>
 4    1  0.5025809E-002  0.4000000E+02  0.7546771E-02  0.1348030E+00
         11   -1    0    0    0    0  0.00000000000E+00  0.00000000000E+00  0.20000000000E+02  0.20000000000E+02  0.00000000000E+00 0.  1.
        -11   -1    0    0    0    0 -0.00000000000E+00 -0.00000000000E+00 -0.20000000000E+02  0.20000000000E+02  0.00000000000E+00 0. -1.
          5    1    1    2  501    0  0.53418111081E-01 -0.13278895588E+02 -0.14197819497E+02  0.20000000000E+02  0.47000000000E+01 0.  1.
         -5    1    1    2    0  501 -0.53418111081E-01  0.13278895588E+02  0.14197819497E+02  0.20000000000E+02  0.47000000000E+01 0. -1.
</event>
<event>
 4    1  0.5025809E-002  0.4000000E+02  0.7546771E-02  0.1348030E+00
         11   -1    0    0    0    0  0.00000000000E+00  0.00000000000E+00  0.20000000000E+02  0.20000000000E+02  0.00000000000E+00 0.  1.
        -11   -1    0    0    0    0 -0.00000000000E+00 -0.00000000000E+00 -0.20000000000E+02  0.20000000000E+02  0.00000000000E+00 0. -1.
          5    1    1    2  501    0 -0.13089993927E+02  0.84139598126E+01 -0.11651924273E+02  0.20000000000E+02  0.47000000000E+01 0. -1.
         -5    1    1    2    0  501  0.13089993927E+02 -0.84139598126E+01  0.11651924273E+02  0.20000000000E+02  0.47000000000E+01 0.  1.
</event>
<event>
 4    1  0.5025809E-002  0.4000000E+02  0.7546771E-02  0.1348030E+00
         11   -1    0    0    0    0  0.00000000000E+00  0.00000000000E+00  0.20000000000E+02  0.20000000000E+02  0.00000000000E+00 0.  1.
        -11   -1    0    0    0    0 -0.00000000000E+00 -0.00000000000E+00 -0.20000000000E+02  0.20000000000E+02  0.00000000000E+00 0. -1.
          5    1    1    2  501    0  0.61147927268E+01  0.23078463698E+01 -0.18308281051E+02  0.20000000000E+02  0.47000000000E+01 0. -1.
         -5    1    1    2    0  501 -0.61147927268E+01 -0.23078463698E+01  0.18308281051E+02  0.20000000000E+02  0.47000000000E+01 0.  1.
</event>
<event>
 4    1  0.5025809E-002  0.4000000E+02  0.7546771E-02  0.1348030E+00
         11   -1    0    0    0    0  0.00000000000E+00  0.00000000000E+00  0.20000000000E+02  0.20000000000E+02  0.00000000000E+00 0. -1.
        -11   -1    0    0    0    0 -0.00000000000E+00 -0.00000000000E+00 -0.20000000000E+02  0.20000000000E+02  0.00000000000E+00 0.  1.
          5    1    1    2  501    0 -0.95477602160E+01  0.10239391386E+02 -0.13487221318E+02  0.20000000000E+02  0.47000000000E+01 0.  1.
         -5    1    1    2    0  501  0.95477602160E+01 -0.10239391386E+02  0.13487221318E+02  0.20000000000E+02  0.47000000000E+01 0.  1.
</event>
<event>
 4    1  0.5025809E-002  0.4000000E+02  0.7546771E-02  0.1348030E+00
         11   -1    0    0    0    0  0.00000000000E+00  0.00000000000E+00  0.20000000000E+02  0.20000000000E+02  0.00000000000E+00 0.  1.
        -11   -1    0    0    0    0 -0.00000000000E+00 -0.00000000000E+00 -0.20000000000E+02  0.20000000000E+02  0.00000000000E+00 0. -1.
          5    1    1    2  501    0 -0.67727016767E+01 -0.26632089866E+01 -0.18026309381E+02  0.20000000000E+02  0.47000000000E+01 0. -1.
         -5    1    1    2    0  501  0.67727016767E+01  0.26632089866E+01  0.18026309381E+02  0.20000000000E+02  0.47000000000E+01 0.  1.
</event>
<event>
 4    1  0.5025809E-002  0.4000000E+02  0.7546771E-02  0.1348030E+00
         11   -1    0    0    0    0  0.00000000000E+00  0.00000000000E+00  0.20000000000E+02  0.20000000000E+02  0.00000000000E+00 0.  1.
        -11   -1    0    0    0    0 -0.00000000000E+00 -0.00000000000E+00 -0.20000000000E+02  0.20000000000E+02  0.00000000000E+00 0. -1.
          5    1    1    2  501    0 -0.71399020003E+01 -0.94552388328E+01 -0.15412016677E+02  0.20000000000E+02  0.47000000000E+01 0. -1.
         -5    1    1    2    0  501  0.71399020003E+01  0.94552388328E+01  0.15412016677E+02  0.20000000000E+02  0.47000000000E+01 0.  1.
</event>
<event>
 4    1  0.5025809E-002  0.4000000E+02  0.7546771E-02  0.1348030E+00
         11   -1    0    0    0    0  0.00000000000E+00  0.00000000000E+00  0.20000000000E+02  0.20000000000E+02  0.00000000000E+00 0.  1.
        -11   -1    0    0    0    0 -0.00000000000E+00 -0.00000000000E+00 -0.20000000000E+02  0.20000000000E+02  0.00000000000E+00 0. -1.
          5    1    1    2  501    0  0.19391330855E+02  0.75323136003E+00 -0.11484468581E+01  0.20000000000E+02  0.47000000000E+01 0. -1.
         -5    1    1    2    0  501 -0.19391330855E+02 -0.75323136003E+00  0.11484468581E+01  0.20000000000E+02  0.47000000000E+01 0.  1.
</event>
<event>
 4    1  0.5025809E-002  0.4000000E+02  0.7546771E-02  0.1348030E+00
         11   -1    0    0    0    0  0.00000000000E+00  0.00000000000E+00  0.20000000000E+02  0.20000000000E+02  0.00000000000E+00 0.  1.
        -11   -1    0    0    0    0 -0.00000000000E+00 -0.00000000000E+00 -0.20000000000E+02  0.20000000000E+02  0.00000000000E+00 0. -1.
          5    1    1    2  501    0  0.99066198030E+01  0.10022979181E+02  0.13390622555E+02  0.20000000000E+02  0.47000000000E+01 0.  1.
         -5    1    1    2    0  501 -0.99066198030E+01 -0.10022979181E+02 -0.13390622555E+02  0.20000000000E+02  0.47000000000E+01 0. -1.
</event>
<event>
 4    1  0.5025809E-002  0.4000000E+02  0.7546771E-02  0.1348030E+00
         11   -1    0    0    0    0  0.00000000000E+00  0.00000000000E+00  0.20000000000E+02  0.20000000000E+02  0.00000000000E+00 0.  1.
        -11   -1    0    0    0    0 -0.00000000000E+00 -0.00000000000E+00 -0.20000000000E+02  0.20000000000E+02  0.00000000000E+00 0. -1.
          5    1    1    2  501    0  0.23110832137E+01  0.70188939471E+01  0.17980656888E+02  0.20000000000E+02  0.47000000000E+01 0.  1.
         -5    1    1    2    0  501 -0.23110832137E+01 -0.70188939471E+01 -0.17980656888E+02  0.20000000000E+02  0.47000000000E+01 0. -1.
</event>
<event>
 4    1  0.5025809E-002  0.4000000E+02  0.7546771E-02  0.1348030E+00
         11   -1    0    0    0    0  0.00000000000E+00  0.00000000000E+00  0.20000000000E+02  0.20000000000E+02  0.00000000000E+00 0.  1.
        -11   -1    0    0    0    0 -0.00000000000E+00 -0.00000000000E+00 -0.20000000000E+02  0.20000000000E+02  0.00000000000E+00 0. -1.
          5    1    1    2  501    0 -0.12089036823E+02 -0.12786677004E+02 -0.82623289623E+01  0.20000000000E+02  0.47000000000E+01 0. -1.
         -5    1    1    2    0  501  0.12089036823E+02  0.12786677004E+02  0.82623289623E+01  0.20000000000E+02  0.47000000000E+01 0.  1.
</event>
<event>
 4    1  0.5025809E-002  0.4000000E+02  0.7546771E-02  0.1348030E+00
         11   -1    0    0    0    0  0.00000000000E+00  0.00000000000E+00  0.20000000000E+02  0.20000000000E+02  0.00000000000E+00 0.  1.
        -11   -1    0    0    0    0 -0.00000000000E+00 -0.00000000000E+00 -0.20000000000E+02  0.20000000000E+02  0.00000000000E+00 0. -1.
          5    1    1    2  501    0 -0.13597226893E+02  0.13822307132E+02  0.14032983897E+01  0.20000000000E+02  0.47000000000E+01 0. -1.
         -5    1    1    2    0  501  0.13597226893E+02 -0.13822307132E+02 -0.14032983897E+01  0.20000000000E+02  0.47000000000E+01 0.  1.
</event>
<event>
 4    1  0.5025809E-002  0.4000000E+02  0.7546771E-02  0.1348030E+00
         11   -1    0    0    0    0  0.00000000000E+00  0.00000000000E+00  0.20000000000E+02  0.20000000000E+02  0.00000000000E+00 0.  1.
        -11   -1    0    0    0    0 -0.00000000000E+00 -0.00000000000E+00 -0.20000000000E+02  0.20000000000E+02  0.00000000000E+00 0. -1.
          5    1    1    2  501    0 -0.10205138321E+02  0.16129098809E+02 -0.36901657773E+01  0.20000000000E+02  0.47000000000E+01 0.  1.
         -5    1    1    2    0  501  0.10205138321E+02 -0.16129098809E+02  0.36901657773E+01  0.20000000000E+02  0.47000000000E+01 0. -1.
</event>
<event>
 4    1  0.5025809E-002  0.4000000E+02  0.7546771E-02  0.1348030E+00
         11   -1    0    0    0    0  0.00000000000E+00  0.00000000000E+00  0.20000000000E+02  0.20000000000E+02  0.00000000000E+00 0. -1.
        -11   -1    0    0    0    0 -0.00000000000E+00 -0.00000000000E+00 -0.20000000000E+02  0.20000000000E+02  0.00000000000E+00 0.  1.
          5    1    1    2  501    0  0.65311881619E+00  0.15113966928E+02  0.12208662478E+02  0.20000000000E+02  0.47000000000E+01 0. -1.
         -5    1    1    2    0  501 -0.65311881619E+00 -0.15113966928E+02 -0.12208662478E+02  0.20000000000E+02  0.47000000000E+01 0. -1.
</event>
<event>
 4    1  0.5025809E-002  0.4000000E+02  0.7546771E-02  0.1348030E+00
         11   -1    0    0    0    0  0.00000000000E+00  0.00000000000E+00  0.20000000000E+02  0.20000000000E+02  0.00000000000E+00 0.  1.
        -11   -1    0    0    0    0 -0.00000000000E+00 -0.00000000000E+00 -0.20000000000E+02  0.20000000000E+02  0.00000000000E+00 0. -1.
          5    1    1    2  501    0 -0.11522193599E+02  0.14989517977E+02 -0.45236495749E+01  0.20000000000E+02  0.47000000000E+01 0. -1.
         -5    1    1    2    0  501  0.11522193599E+02 -0.14989517977E+02  0.45236495749E+01  0.20000000000E+02  0.47000000000E+01 0.  1.
</event>
<event>
 4    1  0.5025809E-002  0.4000000E+02  0.7546771E-02  0.1348030E+00
         11   -1    0    0    0    0  0.00000000000E+00  0.00000000000E+00  0.20000000000E+02  0.20000000000E+02  0.00000000000E+00 0.  1.
        -11   -1    0    0    0    0 -0.00000000000E+00 -0.00000000000E+00 -0.20000000000E+02  0.20000000000E+02  0.00000000000E+00 0. -1.
          5    1    1    2  501    0  0.16629750517E+02 -0.29936426697E+01 -0.96124659322E+01  0.20000000000E+02  0.47000000000E+01 0. -1.
         -5    1    1    2    0  501 -0.16629750517E+02  0.29936426697E+01  0.96124659322E+01  0.20000000000E+02  0.47000000000E+01 0.  1.
</event>
<event>
 4    1  0.5025809E-002  0.4000000E+02  0.7546771E-02  0.1348030E+00
         11   -1    0    0    0    0  0.00000000000E+00  0.00000000000E+00  0.20000000000E+02  0.20000000000E+02  0.00000000000E+00 0.  1.
        -11   -1    0    0    0    0 -0.00000000000E+00 -0.00000000000E+00 -0.20000000000E+02  0.20000000000E+02  0.00000000000E+00 0. -1.
          5    1    1    2  501    0  0.11066570997E+02  0.12955667348E+01 -0.15929925084E+02  0.20000000000E+02  0.47000000000E+01 0. -1.
         -5    1    1    2    0  501 -0.11066570997E+02 -0.12955667348E+01  0.15929925084E+02  0.20000000000E+02  0.47000000000E+01 0.  1.
</event>
<event>
 4    1  0.5025809E-002  0.4000000E+02  0.7546771E-02  0.1348030E+00
         11   -1    0    0    0    0  0.00000000000E+00  0.00000000000E+00  0.20000000000E+02  0.20000000000E+02  0.00000000000E+00 0.  1.
        -11   -1    0    0    0    0 -0.00000000000E+00 -0.00000000000E+00 -0.20000000000E+02  0.20000000000E+02  0.00000000000E+00 0. -1.
          5    1    1    2  501    0  0.12909926161E+02 -0.22985430782E+01 -0.14351324198E+02  0.20000000000E+02  0.47000000000E+01 0. -1.
         -5    1    1    2    0  501 -0.12909926161E+02  0.22985430782E+01  0.14351324198E+02  0.20000000000E+02  0.47000000000E+01 0.  1.
</event>
<event>
 4    1  0.5025809E-002  0.4000000E+02  0.7546771E-02  0.1348030E+00
         11   -1    0    0    0    0  0.00000000000E+00  0.00000000000E+00  0.20000000000E+02  0.20000000000E+02  0.00000000000E+00 0.  1.
        -11   -1    0    0    0    0 -0.00000000000E+00 -0.00000000000E+00 -0.20000000000E+02  0.20000000000E+02  0.00000000000E+00 0. -1.
          5    1    1    2  501    0 -0.16506456425E+02  0.66471603619E+01  0.78270144636E+01  0.20000000000E+02  0.47000000000E+01 0.  1.
         -5    1    1    2    0  501  0.16506456425E+02 -0.66471603619E+01 -0.78270144636E+01  0.20000000000E+02  0.47000000000E+01 0. -1.
</event>
<event>
 4    1  0.5025809E-002  0.4000000E+02  0.7546771E-02  0.1348030E+00
         11   -1    0    0    0    0  0.00000000000E+00  0.00000000000E+00  0.20000000000E+02  0.20000000000E+02  0.00000000000E+00 0. -1.
        -11   -1    0    0    0    0 -0.00000000000E+00 -0.00000000000E+00 -0.20000000000E+02  0.20000000000E+02  0.00000000000E+00 0.  1.
          5    1    1    2  501    0 -0.15019913061E+02 -0.12303995736E+02  0.96119747538E+00  0.20000000000E+02  0.47000000000E+01 0.  1.
         -5    1    1    2    0  501  0.15019913061E+02  0.12303995736E+02 -0.96119747538E+00  0.20000000000E+02  0.47000000000E+01 0. -1.
</event>
<event>
 4    1  0.5025809E-002  0.4000000E+02  0.7546771E-02  0.1348030E+00
         11   -1    0    0    0    0  0.00000000000E+00  0.00000000000E+00  0.20000000000E+02  0.20000000000E+02  0.00000000000E+00 0. -1.
        -11   -1    0    0    0    0 -0.00000000000E+00 -0.00000000000E+00 -0.20000000000E+02  0.20000000000E+02  0.00000000000E+00 0.  1.
          5    1    1    2  501    0 -0.15574102384E+02 -0.37405687579E+01 -0.11016600216E+02  0.20000000000E+02  0.47000000000E+01 0.  1.
         -5    1    1    2    0  501  0.15574102384E+02  0.37405687579E+01  0.11016600216E+02  0.20000000000E+02  0.47000000000E+01 0. -1.
</event>
<event>
 4    1  0.5025809E-002  0.4000000E+02  0.7546771E-02  0.1348030E+00
         11   -1    0    0    0    0  0.00000000000E+00  0.00000000000E+00  0.20000000000E+02  0.20000000000E+02  0.00000000000E+00 0.  1.
        -11   -1    0    0    0    0 -0.00000000000E+00 -0.00000000000E+00 -0.20000000000E+02  0.20000000000E+02  0.00000000000E+00 0. -1.
          5    1    1    2  501    0 -0.23544727681E+01 -0.69809945607E+01 -0.17989779680E+02  0.20000000000E+02  0.47000000000E+01 0. -1.
         -5    1    1    2    0  501  0.23544727681E+01  0.69809945607E+01  0.17989779680E+02  0.20000000000E+02  0.47000000000E+01 0.  1.
</event>
<event>
 4    1  0.5025809E-002  0.4000000E+02  0.7546771E-02  0.1348030E+00
         11   -1    0    0    0    0  0.00000000000E+00  0.00000000000E+00  0.20000000000E+02  0.20000000000E+02  0.00000000000E+00 0. -1.
        -11   -1    0    0    0    0 -0.00000000000E+00 -0.00000000000E+00 -0.20000000000E+02  0.20000000000E+02  0.00000000000E+00 0.  1.
          5    1    1    2  501    0 -0.15165399329E+02 -0.12040061106E+02  0.17197650342E+01  0.20000000000E+02  0.47000000000E+01 0.  1.
         -5    1    1    2    0  501  0.15165399329E+02  0.12040061106E+02 -0.17197650342E+01  0.20000000000E+02  0.47000000000E+01 0. -1.
</event>
<event>
 4    1  0.5025809E-002  0.4000000E+02  0.7546771E-02  0.1348030E+00
         11   -1    0    0    0    0  0.00000000000E+00  0.00000000000E+00  0.20000000000E+02  0.20000000000E+02  0.00000000000E+00 0.  1.
        -11   -1    0    0    0    0 -0.00000000000E+00 -0.00000000000E+00 -0.20000000000E+02  0.20000000000E+02  0.00000000000E+00 0. -1.
          5    1    1    2  501    0  0.12211560071E+02 -0.57507061706E+01 -0.13989895610E+02  0.20000000000E+02  0.47000000000E+01 0. -1.
         -5    1    1    2    0  501 -0.12211560071E+02  0.57507061706E+01  0.13989895610E+02  0.20000000000E+02  0.47000000000E+01 0.  1.
</event>
<event>
 4    1  0.5025809E-002  0.4000000E+02  0.7546771E-02  0.1348030E+00
         11   -1    0    0    0    0  0.00000000000E+00  0.00000000000E+00  0.20000000000E+02  0.20000000000E+02  0.00000000000E+00 0.  1.
        -11   -1    0    0    0    0 -0.00000000000E+00 -0.00000000000E+00 -0.20000000000E+02  0.20000000000E+02  0.00000000000E+00 0. -1.
          5    1    1    2  501    0 -0.95861642927E+01  0.15539264894E+02 -0.66743314812E+01  0.20000000000E+02  0.47000000000E+01 0. -1.
         -5    1    1    2    0  501  0.95861642927E+01 -0.15539264894E+02  0.66743314812E+01  0.20000000000E+02  0.47000000000E+01 0.  1.
</event>
<event>
 4    1  0.5025809E-002  0.4000000E+02  0.7546771E-02  0.1348030E+00
         11   -1    0    0    0    0  0.00000000000E+00  0.00000000000E+00  0.20000000000E+02  0.20000000000E+02  0.00000000000E+00 0. -1.
        -11   -1    0    0    0    0 -0.00000000000E+00 -0.00000000000E+00 -0.20000000000E+02  0.20000000000E+02  0.00000000000E+00 0.  1.
          5    1    1    2  501    0  0.45899020580E+01 -0.13521086027E+02 -0.13191778945E+02  0.20000000000E+02  0.47000000000E+01 0.  1.
         -5    1    1    2    0  501 -0.45899020580E+01  0.13521086027E+02  0.13191778945E+02  0.20000000000E+02  0.47000000000E+01 0. -1.
</event>
<event>
 4    1  0.5025809E-002  0.4000000E+02  0.7546771E-02  0.1348030E+00
         11   -1    0    0    0    0  0.00000000000E+00  0.00000000000E+00  0.20000000000E+02  0.20000000000E+02  0.00000000000E+00 0.  1.
        -11   -1    0    0    0    0 -0.00000000000E+00 -0.00000000000E+00 -0.20000000000E+02  0.20000000000E+02  0.00000000000E+00 0. -1.
          5    1    1    2  501    0  0.44837481636E+01 -0.96864447261E+01 -0.16247424134E+02  0.20000000000E+02  0.47000000000E+01 0. -1.
         -5    1    1    2    0  501 -0.44837481636E+01  0.96864447261E+01  0.16247424134E+02  0.20000000000E+02  0.47000000000E+01 0.  1.
</event>
<event>
 4    1  0.5025809E-002  0.4000000E+02  0.7546771E-02  0.1348030E+00
         11   -1    0    0    0    0  0.00000000000E+00  0.00000000000E+00  0.20000000000E+02  0.20000000000E+02  0.00000000000E+00 0.  1.
        -11   -1    0    0    0    0 -0.00000000000E+00 -0.00000000000E+00 -0.20000000000E+02  0.20000000000E+02  0.00000000000E+00 0. -1.
          5    1    1    2  501    0  0.96697737175E+00 -0.12377855118E+01 -0.19376347483E+02  0.20000000000E+02  0.47000000000E+01 0. -1.
         -5    1    1    2    0  501 -0.96697737175E+00  0.12377855118E+01  0.19376347483E+02  0.20000000000E+02  0.47000000000E+01 0.  1.
</event>
<event>
 4    1  0.5025809E-002  0.4000000E+02  0.7546771E-02  0.1348030E+00
         11   -1    0    0    0    0  0.00000000000E+00  0.00000000000E+00  0.20000000000E+02  0.20000000000E+02  0.00000000000E+00 0.  1.
        -11   -1    0    0    0    0 -0.00000000000E+00 -0.00000000000E+00 -0.20000000000E+02  0.20000000000E+02  0.00000000000E+00 0. -1.
          5    1    1    2  501    0  0.92741443369E+01  0.95393643114E+00 -0.17058436391E+02  0.20000000000E+02  0.47000000000E+01 0. -1.
         -5    1    1    2    0  501 -0.92741443369E+01 -0.95393643114E+00  0.17058436391E+02  0.20000000000E+02  0.47000000000E+01 0.  1.
</event>
<event>
 4    1  0.5025809E-002  0.4000000E+02  0.7546771E-02  0.1348030E+00
         11   -1    0    0    0    0  0.00000000000E+00  0.00000000000E+00  0.20000000000E+02  0.20000000000E+02  0.00000000000E+00 0.  1.
        -11   -1    0    0    0    0 -0.00000000000E+00 -0.00000000000E+00 -0.20000000000E+02  0.20000000000E+02  0.00000000000E+00 0. -1.
          5    1    1    2  501    0  0.17263173086E+01 -0.33388603081E+01 -0.19073065836E+02  0.20000000000E+02  0.47000000000E+01 0. -1.
         -5    1    1    2    0  501 -0.17263173086E+01  0.33388603081E+01  0.19073065836E+02  0.20000000000E+02  0.47000000000E+01 0.  1.
</event>
<event>
 4    1  0.5025809E-002  0.4000000E+02  0.7546771E-02  0.1348030E+00
         11   -1    0    0    0    0  0.00000000000E+00  0.00000000000E+00  0.20000000000E+02  0.20000000000E+02  0.00000000000E+00 0. -1.
        -11   -1    0    0    0    0 -0.00000000000E+00 -0.00000000000E+00 -0.20000000000E+02  0.20000000000E+02  0.00000000000E+00 0.  1.
          5    1    1    2  501    0  0.14026088625E+02  0.13054975362E+02  0.32781787924E+01  0.20000000000E+02  0.47000000000E+01 0.  1.
         -5    1    1    2    0  501 -0.14026088625E+02 -0.13054975362E+02 -0.32781787924E+01  0.20000000000E+02  0.47000000000E+01 0. -1.
</event>
<event>
 4    1  0.5025809E-002  0.4000000E+02  0.7546771E-02  0.1348030E+00
         11   -1    0    0    0    0  0.00000000000E+00  0.00000000000E+00  0.20000000000E+02  0.20000000000E+02  0.00000000000E+00 0. -1.
        -11   -1    0    0    0    0 -0.00000000000E+00 -0.00000000000E+00 -0.20000000000E+02  0.20000000000E+02  0.00000000000E+00 0.  1.
          5    1    1    2  501    0 -0.10323371684E+02 -0.12103718706E+02 -0.11173092255E+02  0.20000000000E+02  0.47000000000E+01 0.  1.
         -5    1    1    2    0  501  0.10323371684E+02  0.12103718706E+02  0.11173092255E+02  0.20000000000E+02  0.47000000000E+01 0. -1.
</event>
<event>
 4    1  0.5025809E-002  0.4000000E+02  0.7546771E-02  0.1348030E+00
         11   -1    0    0    0    0  0.00000000000E+00  0.00000000000E+00  0.20000000000E+02  0.20000000000E+02  0.00000000000E+00 0.  1.
        -11   -1    0    0    0    0 -0.00000000000E+00 -0.00000000000E+00 -0.20000000000E+02  0.20000000000E+02  0.00000000000E+00 0. -1.
          5    1    1    2  501    0 -0.21634358776E+01 -0.18028280815E+02  0.69433879371E+01  0.20000000000E+02  0.47000000000E+01 0. -1.
         -5    1    1    2    0  501  0.21634358776E+01  0.18028280815E+02 -0.69433879371E+01  0.20000000000E+02  0.47000000000E+01 0. -1.
</event>
<event>
 4    1  0.5025809E-002  0.4000000E+02  0.7546771E-02  0.1348030E+00
         11   -1    0    0    0    0  0.00000000000E+00  0.00000000000E+00  0.20000000000E+02  0.20000000000E+02  0.00000000000E+00 0.  1.
        -11   -1    0    0    0    0 -0.00000000000E+00 -0.00000000000E+00 -0.20000000000E+02  0.20000000000E+02  0.00000000000E+00 0. -1.
          5    1    1    2  501    0 -0.13023597990E+02  0.58882461463E+01 -0.13176663186E+02  0.20000000000E+02  0.47000000000E+01 0. -1.
         -5    1    1    2    0  501  0.13023597990E+02 -0.58882461463E+01  0.13176663186E+02  0.20000000000E+02  0.47000000000E+01 0.  1.
</event>
<event>
 4    1  0.5025809E-002  0.4000000E+02  0.7546771E-02  0.1348030E+00
         11   -1    0    0    0    0  0.00000000000E+00  0.00000000000E+00  0.20000000000E+02  0.20000000000E+02  0.00000000000E+00 0.  1.
        -11   -1    0    0    0    0 -0.00000000000E+00 -0.00000000000E+00 -0.20000000000E+02  0.20000000000E+02  0.00000000000E+00 0. -1.
          5    1    1    2  501    0  0.30997148344E+01 -0.19122950690E+02 -0.16169492378E+01  0.20000000000E+02  0.47000000000E+01 0. -1.
         -5    1    1    2    0  501 -0.30997148344E+01  0.19122950690E+02  0.16169492378E+01  0.20000000000E+02  0.47000000000E+01 0.  1.
</event>
<event>
 4    1  0.5025809E-002  0.4000000E+02  0.7546771E-02  0.1348030E+00
         11   -1    0    0    0    0  0.00000000000E+00  0.00000000000E+00  0.20000000000E+02  0.20000000000E+02  0.00000000000E+00 0.  1.
        -11   -1    0    0    0    0 -0.00000000000E+00 -0.00000000000E+00 -0.20000000000E+02  0.20000000000E+02  0.00000000000E+00 0. -1.
          5    1    1    2  501    0  0.17995523294E+01  0.27412492908E+01 -0.19161345562E+02  0.20000000000E+02  0.47000000000E+01 0. -1.
         -5    1    1    2    0  501 -0.17995523294E+01 -0.27412492908E+01  0.19161345562E+02  0.20000000000E+02  0.47000000000E+01 0.  1.
</event>
<event>
 4    1  0.5025809E-002  0.4000000E+02  0.7546771E-02  0.1348030E+00
         11   -1    0    0    0    0  0.00000000000E+00  0.00000000000E+00  0.20000000000E+02  0.20000000000E+02  0.00000000000E+00 0. -1.
        -11   -1    0    0    0    0 -0.00000000000E+00 -0.00000000000E+00 -0.20000000000E+02  0.20000000000E+02  0.00000000000E+00 0.  1.
          5    1    1    2  501    0  0.27932821233E+01  0.71675647964E+01  0.17853111490E+02  0.20000000000E+02  0.47000000000E+01 0. -1.
         -5    1    1    2    0  501 -0.27932821233E+01 -0.71675647964E+01 -0.17853111490E+02  0.20000000000E+02  0.47000000000E+01 0.  1.
</event>
<event>
 4    1  0.5025809E-002  0.4000000E+02  0.7546771E-02  0.1348030E+00
         11   -1    0    0    0    0  0.00000000000E+00  0.00000000000E+00  0.20000000000E+02  0.20000000000E+02  0.00000000000E+00 0.  1.
        -11   -1    0    0    0    0 -0.00000000000E+00 -0.00000000000E+00 -0.20000000000E+02  0.20000000000E+02  0.00000000000E+00 0. -1.
          5    1    1    2  501    0  0.34892104114E+01 -0.97202252849E+01 -0.16469748969E+02  0.20000000000E+02  0.47000000000E+01 0. -1.
         -5    1    1    2    0  501 -0.34892104114E+01  0.97202252849E+01  0.16469748969E+02  0.20000000000E+02  0.47000000000E+01 0.  1.
</event>
<event>
 4    1  0.5025809E-002  0.4000000E+02  0.7546771E-02  0.1348030E+00
         11   -1    0    0    0    0  0.00000000000E+00  0.00000000000E+00  0.20000000000E+02  0.20000000000E+02  0.00000000000E+00 0.  1.
        -11   -1    0    0    0    0 -0.00000000000E+00 -0.00000000000E+00 -0.20000000000E+02  0.20000000000E+02  0.00000000000E+00 0. -1.
          5    1    1    2  501    0 -0.46121638938E+01 -0.16723196107E+02 -0.87734061907E+01  0.20000000000E+02  0.47000000000E+01 0. -1.
         -5    1    1    2    0  501  0.46121638938E+01  0.16723196107E+02  0.87734061907E+01  0.20000000000E+02  0.47000000000E+01 0.  1.
</event>
<event>
 4    1  0.5025809E-002  0.4000000E+02  0.7546771E-02  0.1348030E+00
         11   -1    0    0    0    0  0.00000000000E+00  0.00000000000E+00  0.20000000000E+02  0.20000000000E+02  0.00000000000E+00 0. -1.
        -11   -1    0    0    0    0 -0.00000000000E+00 -0.00000000000E+00 -0.20000000000E+02  0.20000000000E+02  0.00000000000E+00 0.  1.
          5    1    1    2  501    0 -0.72009980755E+01  0.10347518261E+02 -0.14798124630E+02  0.20000000000E+02  0.47000000000E+01 0.  1.
         -5    1    1    2    0  501  0.72009980755E+01 -0.10347518261E+02  0.14798124630E+02  0.20000000000E+02  0.47000000000E+01 0. -1.
</event>
<event>
 4    1  0.5025809E-002  0.4000000E+02  0.7546771E-02  0.1348030E+00
         11   -1    0    0    0    0  0.00000000000E+00  0.00000000000E+00  0.20000000000E+02  0.20000000000E+02  0.00000000000E+00 0.  1.
        -11   -1    0    0    0    0 -0.00000000000E+00 -0.00000000000E+00 -0.20000000000E+02  0.20000000000E+02  0.00000000000E+00 0. -1.
          5    1    1    2  501    0 -0.66539778791E+01  0.17046604151E+02 -0.65610872052E+01  0.20000000000E+02  0.47000000000E+01 0. -1.
         -5    1    1    2    0  501  0.66539778791E+01 -0.17046604151E+02  0.65610872052E+01  0.20000000000E+02  0.47000000000E+01 0.  1.
</event>
<event>
 4    1  0.5025809E-002  0.4000000E+02  0.7546771E-02  0.1348030E+00
         11   -1    0    0    0    0  0.00000000000E+00  0.00000000000E+00  0.20000000000E+02  0.20000000000E+02  0.00000000000E+00 0. -1.
        -11   -1    0    0    0    0 -0.00000000000E+00 -0.00000000000E+00 -0.20000000000E+02  0.20000000000E+02  0.00000000000E+00 0.  1.
          5    1    1    2  501    0 -0.90456255681E+01  0.59826874181E+01 -0.16133632862E+02  0.20000000000E+02  0.47000000000E+01 0.  1.
         -5    1    1    2    0  501  0.90456255681E+01 -0.59826874181E+01  0.16133632862E+02  0.20000000000E+02  0.47000000000E+01 0. -1.
</event>
<event>
 4    1  0.5025809E-002  0.4000000E+02  0.7546771E-02  0.1348030E+00
         11   -1    0    0    0    0  0.00000000000E+00  0.00000000000E+00  0.20000000000E+02  0.20000000000E+02  0.00000000000E+00 0.  1.
        -11   -1    0    0    0    0 -0.00000000000E+00 -0.00000000000E+00 -0.20000000000E+02  0.20000000000E+02  0.00000000000E+00 0. -1.
          5    1    1    2  501    0  0.12976813276E+02 -0.29558468545E+01  0.14169519631E+02  0.20000000000E+02  0.47000000000E+01 0.  1.
         -5    1    1    2    0  501 -0.12976813276E+02  0.29558468545E+01 -0.14169519631E+02  0.20000000000E+02  0.47000000000E+01 0. -1.
</event>
<event>
 4    1  0.5025809E-002  0.4000000E+02  0.7546771E-02  0.1348030E+00
         11   -1    0    0    0    0  0.00000000000E+00  0.00000000000E+00  0.20000000000E+02  0.20000000000E+02  0.00000000000E+00 0.  1.
        -11   -1    0    0    0    0 -0.00000000000E+00 -0.00000000000E+00 -0.20000000000E+02  0.20000000000E+02  0.00000000000E+00 0. -1.
          5    1    1    2  501    0 -0.10082315814E+02 -0.13837750643E+02 -0.92072561049E+01  0.20000000000E+02  0.47000000000E+01 0. -1.
         -5    1    1    2    0  501  0.10082315814E+02  0.13837750643E+02  0.92072561049E+01  0.20000000000E+02  0.47000000000E+01 0.  1.
</event>
<event>
 4    1  0.5025809E-002  0.4000000E+02  0.7546771E-02  0.1348030E+00
         11   -1    0    0    0    0  0.00000000000E+00  0.00000000000E+00  0.20000000000E+02  0.20000000000E+02  0.00000000000E+00 0.  1.
        -11   -1    0    0    0    0 -0.00000000000E+00 -0.00000000000E+00 -0.20000000000E+02  0.20000000000E+02  0.00000000000E+00 0. -1.
          5    1    1    2  501    0  0.73290539931E+01 -0.55695391267E+01 -0.17122359694E+02  0.20000000000E+02  0.47000000000E+01 0. -1.
         -5    1    1    2    0  501 -0.73290539931E+01  0.55695391267E+01  0.17122359694E+02  0.20000000000E+02  0.47000000000E+01 0.  1.
</event>
<event>
 4    1  0.5025809E-002  0.4000000E+02  0.7546771E-02  0.1348030E+00
         11   -1    0    0    0    0  0.00000000000E+00  0.00000000000E+00  0.20000000000E+02  0.20000000000E+02  0.00000000000E+00 0. -1.
        -11   -1    0    0    0    0 -0.00000000000E+00 -0.00000000000E+00 -0.20000000000E+02  0.20000000000E+02  0.00000000000E+00 0.  1.
          5    1    1    2  501    0 -0.10775398249E+02  0.88789641767E+01 -0.13526447713E+02  0.20000000000E+02  0.47000000000E+01 0.  1.
         -5    1    1    2    0  501  0.10775398249E+02 -0.88789641767E+01  0.13526447713E+02  0.20000000000E+02  0.47000000000E+01 0. -1.
</event>
<event>
 4    1  0.5025809E-002  0.4000000E+02  0.7546771E-02  0.1348030E+00
         11   -1    0    0    0    0  0.00000000000E+00  0.00000000000E+00  0.20000000000E+02  0.20000000000E+02  0.00000000000E+00 0.  1.
        -11   -1    0    0    0    0 -0.00000000000E+00 -0.00000000000E+00 -0.20000000000E+02  0.20000000000E+02  0.00000000000E+00 0. -1.
          5    1    1    2  501    0  0.58998876857E+01  0.81093661831E+01 -0.16653513305E+02  0.20000000000E+02  0.47000000000E+01 0. -1.
         -5    1    1    2    0  501 -0.58998876857E+01 -0.81093661831E+01  0.16653513305E+02  0.20000000000E+02  0.47000000000E+01 0.  1.
</event>
<event>
 4    1  0.5025809E-002  0.4000000E+02  0.7546771E-02  0.1348030E+00
         11   -1    0    0    0    0  0.00000000000E+00  0.00000000000E+00  0.20000000000E+02  0.20000000000E+02  0.00000000000E+00 0.  1.
        -11   -1    0    0    0    0 -0.00000000000E+00 -0.00000000000E+00 -0.20000000000E+02  0.20000000000E+02  0.00000000000E+00 0. -1.
          5    1    1    2  501    0 -0.16330822674E+02  0.66638199230E+01 -0.81735998695E+01  0.20000000000E+02  0.47000000000E+01 0. -1.
         -5    1    1    2    0  501  0.16330822674E+02 -0.66638199230E+01  0.81735998695E+01  0.20000000000E+02  0.47000000000E+01 0.  1.
</event>
<event>
 4    1  0.5025809E-002  0.4000000E+02  0.7546771E-02  0.1348030E+00
         11   -1    0    0    0    0  0.00000000000E+00  0.00000000000E+00  0.20000000000E+02  0.20000000000E+02  0.00000000000E+00 0. -1.
        -11   -1    0    0    0    0 -0.00000000000E+00 -0.00000000000E+00 -0.20000000000E+02  0.20000000000E+02  0.00000000000E+00 0.  1.
          5    1    1    2  501    0  0.10707135195E+02  0.13491459363E+02 -0.90137550546E+01  0.20000000000E+02  0.47000000000E+01 0.  1.
         -5    1    1    2    0  501 -0.10707135195E+02 -0.13491459363E+02  0.90137550546E+01  0.20000000000E+02  0.47000000000E+01 0. -1.
</event>
<event>
 4    1  0.5025809E-002  0.4000000E+02  0.7546771E-02  0.1348030E+00
         11   -1    0    0    0    0  0.00000000000E+00  0.00000000000E+00  0.20000000000E+02  0.20000000000E+02  0.00000000000E+00 0. -1.
        -11   -1    0    0    0    0 -0.00000000000E+00 -0.00000000000E+00 -0.20000000000E+02  0.20000000000E+02  0.00000000000E+00 0.  1.
          5    1    1    2  501    0  0.96921864669E+01 -0.40969894398E+01 -0.16345831243E+02  0.20000000000E+02  0.47000000000E+01 0.  1.
         -5    1    1    2    0  501 -0.96921864669E+01  0.40969894398E+01  0.16345831243E+02  0.20000000000E+02  0.47000000000E+01 0. -1.
</event>
<event>
 4    1  0.5025809E-002  0.4000000E+02  0.7546771E-02  0.1348030E+00
         11   -1    0    0    0    0  0.00000000000E+00  0.00000000000E+00  0.20000000000E+02  0.20000000000E+02  0.00000000000E+00 0.  1.
        -11   -1    0    0    0    0 -0.00000000000E+00 -0.00000000000E+00 -0.20000000000E+02  0.20000000000E+02  0.00000000000E+00 0. -1.
          5    1    1    2  501    0  0.17664088932E+02  0.21624845805E+01 -0.78239135118E+01  0.20000000000E+02  0.47000000000E+01 0.  1.
         -5    1    1    2    0  501 -0.17664088932E+02 -0.21624845805E+01  0.78239135118E+01  0.20000000000E+02  0.47000000000E+01 0. -1.
</event>
<event>
 4    1  0.5025809E-002  0.4000000E+02  0.7546771E-02  0.1348030E+00
         11   -1    0    0    0    0  0.00000000000E+00  0.00000000000E+00  0.20000000000E+02  0.20000000000E+02  0.00000000000E+00 0. -1.
        -11   -1    0    0    0    0 -0.00000000000E+00 -0.00000000000E+00 -0.20000000000E+02  0.20000000000E+02  0.00000000000E+00 0.  1.
          5    1    1    2  501    0  0.15708634071E+01 -0.10204446702E+02 -0.16471540780E+02  0.20000000000E+02  0.47000000000E+01 0.  1.
         -5    1    1    2    0  501 -0.15708634071E+01  0.10204446702E+02  0.16471540780E+02  0.20000000000E+02  0.47000000000E+01 0. -1.
</event>
<event>
 4    1  0.5025809E-002  0.4000000E+02  0.7546771E-02  0.1348030E+00
         11   -1    0    0    0    0  0.00000000000E+00  0.00000000000E+00  0.20000000000E+02  0.20000000000E+02  0.00000000000E+00 0. -1.
        -11   -1    0    0    0    0 -0.00000000000E+00 -0.00000000000E+00 -0.20000000000E+02  0.20000000000E+02  0.00000000000E+00 0.  1.
          5    1    1    2  501    0 -0.70699471241E-01  0.12507119267E+02 -0.14882102312E+02  0.20000000000E+02  0.47000000000E+01 0.  1.
         -5    1    1    2    0  501  0.70699471241E-01 -0.12507119267E+02  0.14882102312E+02  0.20000000000E+02  0.47000000000E+01 0. -1.
</event>
<event>
 4    1  0.5025809E-002  0.4000000E+02  0.7546771E-02  0.1348030E+00
         11   -1    0    0    0    0  0.00000000000E+00  0.00000000000E+00  0.20000000000E+02  0.20000000000E+02  0.00000000000E+00 0. -1.
        -11   -1    0    0    0    0 -0.00000000000E+00 -0.00000000000E+00 -0.20000000000E+02  0.20000000000E+02  0.00000000000E+00 0.  1.
          5    1    1    2  501    0 -0.15499004740E+02  0.91702903735E+01 -0.73209716937E+01  0.20000000000E+02  0.47000000000E+01 0.  1.
         -5    1    1    2    0  501  0.15499004740E+02 -0.91702903735E+01  0.73209716937E+01  0.20000000000E+02  0.47000000000E+01 0. -1.
</event>
<event>
 4    1  0.5025809E-002  0.4000000E+02  0.7546771E-02  0.1348030E+00
         11   -1    0    0    0    0  0.00000000000E+00  0.00000000000E+00  0.20000000000E+02  0.20000000000E+02  0.00000000000E+00 0.  1.
        -11   -1    0    0    0    0 -0.00000000000E+00 -0.00000000000E+00 -0.20000000000E+02  0.20000000000E+02  0.00000000000E+00 0. -1.
          5    1    1    2  501    0 -0.45892349062E+01  0.77784927282E+01  0.17214644169E+02  0.20000000000E+02  0.47000000000E+01 0.  1.
         -5    1    1    2    0  501  0.45892349062E+01 -0.77784927282E+01 -0.17214644169E+02  0.20000000000E+02  0.47000000000E+01 0. -1.
</event>
<event>
 4    1  0.5025809E-002  0.4000000E+02  0.7546771E-02  0.1348030E+00
         11   -1    0    0    0    0  0.00000000000E+00  0.00000000000E+00  0.20000000000E+02  0.20000000000E+02  0.00000000000E+00 0.  1.
        -11   -1    0    0    0    0 -0.00000000000E+00 -0.00000000000E+00 -0.20000000000E+02  0.20000000000E+02  0.00000000000E+00 0. -1.
          5    1    1    2  501    0  0.99743643869E+01  0.81252267796E+01 -0.14574043531E+02  0.20000000000E+02  0.47000000000E+01 0. -1.
         -5    1    1    2    0  501 -0.99743643869E+01 -0.81252267796E+01  0.14574043531E+02  0.20000000000E+02  0.47000000000E+01 0.  1.
</event>
<event>
 4    1  0.5025809E-002  0.4000000E+02  0.7546771E-02  0.1348030E+00
         11   -1    0    0    0    0  0.00000000000E+00  0.00000000000E+00  0.20000000000E+02  0.20000000000E+02  0.00000000000E+00 0.  1.
        -11   -1    0    0    0    0 -0.00000000000E+00 -0.00000000000E+00 -0.20000000000E+02  0.20000000000E+02  0.00000000000E+00 0. -1.
          5    1    1    2  501    0  0.14102130396E+02  0.45688052729E+01 -0.12576403964E+02  0.20000000000E+02  0.47000000000E+01 0. -1.
         -5    1    1    2    0  501 -0.14102130396E+02 -0.45688052729E+01  0.12576403964E+02  0.20000000000E+02  0.47000000000E+01 0.  1.
</event>
<event>
 4    1  0.5025809E-002  0.4000000E+02  0.7546771E-02  0.1348030E+00
         11   -1    0    0    0    0  0.00000000000E+00  0.00000000000E+00  0.20000000000E+02  0.20000000000E+02  0.00000000000E+00 0. -1.
        -11   -1    0    0    0    0 -0.00000000000E+00 -0.00000000000E+00 -0.20000000000E+02  0.20000000000E+02  0.00000000000E+00 0.  1.
          5    1    1    2  501    0 -0.13872665439E+02 -0.32905501584E+01 -0.13214818700E+02  0.20000000000E+02  0.47000000000E+01 0.  1.
         -5    1    1    2    0  501  0.13872665439E+02  0.32905501584E+01  0.13214818700E+02  0.20000000000E+02  0.47000000000E+01 0. -1.
</event>
<event>
 4    1  0.5025809E-002  0.4000000E+02  0.7546771E-02  0.1348030E+00
         11   -1    0    0    0    0  0.00000000000E+00  0.00000000000E+00  0.20000000000E+02  0.20000000000E+02  0.00000000000E+00 0. -1.
        -11   -1    0    0    0    0 -0.00000000000E+00 -0.00000000000E+00 -0.20000000000E+02  0.20000000000E+02  0.00000000000E+00 0.  1.
          5    1    1    2  501    0 -0.75708414870E+01  0.10084507054E+02 -0.14795103131E+02  0.20000000000E+02  0.47000000000E+01 0.  1.
         -5    1    1    2    0  501  0.75708414870E+01 -0.10084507054E+02  0.14795103131E+02  0.20000000000E+02  0.47000000000E+01 0. -1.
</event>
<event>
 4    1  0.5025809E-002  0.4000000E+02  0.7546771E-02  0.1348030E+00
         11   -1    0    0    0    0  0.00000000000E+00  0.00000000000E+00  0.20000000000E+02  0.20000000000E+02  0.00000000000E+00 0.  1.
        -11   -1    0    0    0    0 -0.00000000000E+00 -0.00000000000E+00 -0.20000000000E+02  0.20000000000E+02  0.00000000000E+00 0. -1.
          5    1    1    2  501    0 -0.30838726876E+01  0.73191285924E+00 -0.19179781876E+02  0.20000000000E+02  0.47000000000E+01 0. -1.
         -5    1    1    2    0  501  0.30838726876E+01 -0.73191285924E+00  0.19179781876E+02  0.20000000000E+02  0.47000000000E+01 0.  1.
</event>
<event>
 4    1  0.5025809E-002  0.4000000E+02  0.7546771E-02  0.1348030E+00
         11   -1    0    0    0    0  0.00000000000E+00  0.00000000000E+00  0.20000000000E+02  0.20000000000E+02  0.00000000000E+00 0. -1.
        -11   -1    0    0    0    0 -0.00000000000E+00 -0.00000000000E+00 -0.20000000000E+02  0.20000000000E+02  0.00000000000E+00 0.  1.
          5    1    1    2  501    0 -0.57313712256E+01 -0.89705117774E+01  0.16266262703E+02  0.20000000000E+02  0.47000000000E+01 0. -1.
         -5    1    1    2    0  501  0.57313712256E+01  0.89705117774E+01 -0.16266262703E+02  0.20000000000E+02  0.47000000000E+01 0.  1.
</event>
<event>
 4    1  0.5025809E-002  0.4000000E+02  0.7546771E-02  0.1348030E+00
         11   -1    0    0    0    0  0.00000000000E+00  0.00000000000E+00  0.20000000000E+02  0.20000000000E+02  0.00000000000E+00 0.  1.
        -11   -1    0    0    0    0 -0.00000000000E+00 -0.00000000000E+00 -0.20000000000E+02  0.20000000000E+02  0.00000000000E+00 0. -1.
          5    1    1    2  501    0 -0.60630238832E+01  0.19335129826E+01 -0.18368757958E+02  0.20000000000E+02  0.47000000000E+01 0. -1.
         -5    1    1    2    0  501  0.60630238832E+01 -0.19335129826E+01  0.18368757958E+02  0.20000000000E+02  0.47000000000E+01 0.  1.
</event>
<event>
 4    1  0.5025809E-002  0.4000000E+02  0.7546771E-02  0.1348030E+00
         11   -1    0    0    0    0  0.00000000000E+00  0.00000000000E+00  0.20000000000E+02  0.20000000000E+02  0.00000000000E+00 0. -1.
        -11   -1    0    0    0    0 -0.00000000000E+00 -0.00000000000E+00 -0.20000000000E+02  0.20000000000E+02  0.00000000000E+00 0.  1.
          5    1    1    2  501    0  0.13137482053E+02 -0.36967897567E+00 -0.14324102163E+02  0.20000000000E+02  0.47000000000E+01 0.  1.
         -5    1    1    2    0  501 -0.13137482053E+02  0.36967897567E+00  0.14324102163E+02  0.20000000000E+02  0.47000000000E+01 0. -1.
</event>
<event>
 4    1  0.5025809E-002  0.4000000E+02  0.7546771E-02  0.1348030E+00
         11   -1    0    0    0    0  0.00000000000E+00  0.00000000000E+00  0.20000000000E+02  0.20000000000E+02  0.00000000000E+00 0.  1.
        -11   -1    0    0    0    0 -0.00000000000E+00 -0.00000000000E+00 -0.20000000000E+02  0.20000000000E+02  0.00000000000E+00 0. -1.
          5    1    1    2  501    0  0.11403566593E+02  0.12721720613E+02 -0.92750468241E+01  0.20000000000E+02  0.47000000000E+01 0. -1.
         -5    1    1    2    0  501 -0.11403566593E+02 -0.12721720613E+02  0.92750468241E+01  0.20000000000E+02  0.47000000000E+01 0.  1.
</event>
<event>
 4    1  0.5025809E-002  0.4000000E+02  0.7546771E-02  0.1348030E+00
         11   -1    0    0    0    0  0.00000000000E+00  0.00000000000E+00  0.20000000000E+02  0.20000000000E+02  0.00000000000E+00 0. -1.
        -11   -1    0    0    0    0 -0.00000000000E+00 -0.00000000000E+00 -0.20000000000E+02  0.20000000000E+02  0.00000000000E+00 0.  1.
          5    1    1    2  501    0  0.41298136363E+01  0.14356876842E+02  0.12439241402E+02  0.20000000000E+02  0.47000000000E+01 0. -1.
         -5    1    1    2    0  501 -0.41298136363E+01 -0.14356876842E+02 -0.12439241402E+02  0.20000000000E+02  0.47000000000E+01 0.  1.
</event>
<event>
 4    1  0.5025809E-002  0.4000000E+02  0.7546771E-02  0.1348030E+00
         11   -1    0    0    0    0  0.00000000000E+00  0.00000000000E+00  0.20000000000E+02  0.20000000000E+02  0.00000000000E+00 0.  1.
        -11   -1    0    0    0    0 -0.00000000000E+00 -0.00000000000E+00 -0.20000000000E+02  0.20000000000E+02  0.00000000000E+00 0. -1.
          5    1    1    2  501    0  0.55501670130E+01  0.92189316272E+01 -0.16190026120E+02  0.20000000000E+02  0.47000000000E+01 0. -1.
         -5    1    1    2    0  501 -0.55501670130E+01 -0.92189316272E+01  0.16190026120E+02  0.20000000000E+02  0.47000000000E+01 0.  1.
</event>
<event>
 4    1  0.5025809E-002  0.4000000E+02  0.7546771E-02  0.1348030E+00
         11   -1    0    0    0    0  0.00000000000E+00  0.00000000000E+00  0.20000000000E+02  0.20000000000E+02  0.00000000000E+00 0. -1.
        -11   -1    0    0    0    0 -0.00000000000E+00 -0.00000000000E+00 -0.20000000000E+02  0.20000000000E+02  0.00000000000E+00 0.  1.
          5    1    1    2  501    0 -0.37604692334E+01  0.61658756599E+01 -0.18048569154E+02  0.20000000000E+02  0.47000000000E+01 0.  1.
         -5    1    1    2    0  501  0.37604692334E+01 -0.61658756599E+01  0.18048569154E+02  0.20000000000E+02  0.47000000000E+01 0. -1.
</event>
<event>
 4    1  0.5025809E-002  0.4000000E+02  0.7546771E-02  0.1348030E+00
         11   -1    0    0    0    0  0.00000000000E+00  0.00000000000E+00  0.20000000000E+02  0.20000000000E+02  0.00000000000E+00 0.  1.
        -11   -1    0    0    0    0 -0.00000000000E+00 -0.00000000000E+00 -0.20000000000E+02  0.20000000000E+02  0.00000000000E+00 0. -1.
          5    1    1    2  501    0  0.14004294457E+02 -0.37954533427E+01 -0.12937707320E+02  0.20000000000E+02  0.47000000000E+01 0. -1.
         -5    1    1    2    0  501 -0.14004294457E+02  0.37954533427E+01  0.12937707320E+02  0.20000000000E+02  0.47000000000E+01 0.  1.
</event>
<event>
 4    1  0.5025809E-002  0.4000000E+02  0.7546771E-02  0.1348030E+00
         11   -1    0    0    0    0  0.00000000000E+00  0.00000000000E+00  0.20000000000E+02  0.20000000000E+02  0.00000000000E+00 0.  1.
        -11   -1    0    0    0    0 -0.00000000000E+00 -0.00000000000E+00 -0.20000000000E+02  0.20000000000E+02  0.00000000000E+00 0. -1.
          5    1    1    2  501    0 -0.85665037567E+00 -0.12262558368E+02  0.15060073453E+02  0.20000000000E+02  0.47000000000E+01 0.  1.
         -5    1    1    2    0  501  0.85665037567E+00  0.12262558368E+02 -0.15060073453E+02  0.20000000000E+02  0.47000000000E+01 0. -1.
</event>
<event>
 4    1  0.5025809E-002  0.4000000E+02  0.7546771E-02  0.1348030E+00
         11   -1    0    0    0    0  0.00000000000E+00  0.00000000000E+00  0.20000000000E+02  0.20000000000E+02  0.00000000000E+00 0.  1.
        -11   -1    0    0    0    0 -0.00000000000E+00 -0.00000000000E+00 -0.20000000000E+02  0.20000000000E+02  0.00000000000E+00 0. -1.
          5    1    1    2  501    0  0.74827330384E+01  0.86998308471E+01 -0.15691770120E+02  0.20000000000E+02  0.47000000000E+01 0. -1.
         -5    1    1    2    0  501 -0.74827330384E+01 -0.86998308471E+01  0.15691770120E+02  0.20000000000E+02  0.47000000000E+01 0.  1.
</event>
<event>
 4    1  0.5025809E-002  0.4000000E+02  0.7546771E-02  0.1348030E+00
         11   -1    0    0    0    0  0.00000000000E+00  0.00000000000E+00  0.20000000000E+02  0.20000000000E+02  0.00000000000E+00 0.  1.
        -11   -1    0    0    0    0 -0.00000000000E+00 -0.00000000000E+00 -0.20000000000E+02  0.20000000000E+02  0.00000000000E+00 0. -1.
          5    1    1    2  501    0 -0.11415839803E+01  0.33801463133E+01  0.19109719959E+02  0.20000000000E+02  0.47000000000E+01 0.  1.
         -5    1    1    2    0  501  0.11415839803E+01 -0.33801463133E+01 -0.19109719959E+02  0.20000000000E+02  0.47000000000E+01 0. -1.
</event>
<event>
 4    1  0.5025809E-002  0.4000000E+02  0.7546771E-02  0.1348030E+00
         11   -1    0    0    0    0  0.00000000000E+00  0.00000000000E+00  0.20000000000E+02  0.20000000000E+02  0.00000000000E+00 0.  1.
        -11   -1    0    0    0    0 -0.00000000000E+00 -0.00000000000E+00 -0.20000000000E+02  0.20000000000E+02  0.00000000000E+00 0. -1.
          5    1    1    2  501    0 -0.30674824519E+00  0.16143959119E+02 -0.10825363249E+02  0.20000000000E+02  0.47000000000E+01 0. -1.
         -5    1    1    2    0  501  0.30674824519E+00 -0.16143959119E+02  0.10825363249E+02  0.20000000000E+02  0.47000000000E+01 0.  1.
</event>
<event>
 4    1  0.5025809E-002  0.4000000E+02  0.7546771E-02  0.1348030E+00
         11   -1    0    0    0    0  0.00000000000E+00  0.00000000000E+00  0.20000000000E+02  0.20000000000E+02  0.00000000000E+00 0.  1.
        -11   -1    0    0    0    0 -0.00000000000E+00 -0.00000000000E+00 -0.20000000000E+02  0.20000000000E+02  0.00000000000E+00 0. -1.
          5    1    1    2  501    0  0.60275049951E+00  0.33931451855E+01  0.19131995651E+02  0.20000000000E+02  0.47000000000E+01 0.  1.
         -5    1    1    2    0  501 -0.60275049951E+00 -0.33931451855E+01 -0.19131995651E+02  0.20000000000E+02  0.47000000000E+01 0. -1.
</event>
<event>
 4    1  0.5025809E-002  0.4000000E+02  0.7546771E-02  0.1348030E+00
         11   -1    0    0    0    0  0.00000000000E+00  0.00000000000E+00  0.20000000000E+02  0.20000000000E+02  0.00000000000E+00 0.  1.
        -11   -1    0    0    0    0 -0.00000000000E+00 -0.00000000000E+00 -0.20000000000E+02  0.20000000000E+02  0.00000000000E+00 0. -1.
          5    1    1    2  501    0  0.63982450733E+01 -0.18263069735E+02 -0.18527665349E+01  0.20000000000E+02  0.47000000000E+01 0. -1.
         -5    1    1    2    0  501 -0.63982450733E+01  0.18263069735E+02  0.18527665349E+01  0.20000000000E+02  0.47000000000E+01 0.  1.
</event>
<event>
 4    1  0.5025809E-002  0.4000000E+02  0.7546771E-02  0.1348030E+00
         11   -1    0    0    0    0  0.00000000000E+00  0.00000000000E+00  0.20000000000E+02  0.20000000000E+02  0.00000000000E+00 0.  1.
        -11   -1    0    0    0    0 -0.00000000000E+00 -0.00000000000E+00 -0.20000000000E+02  0.20000000000E+02  0.00000000000E+00 0. -1.
          5    1    1    2  501    0 -0.10687958442E+02 -0.53161235602E+00  0.16229446468E+02  0.20000000000E+02  0.47000000000E+01 0.  1.
         -5    1    1    2    0  501  0.10687958442E+02  0.53161235602E+00 -0.16229446468E+02  0.20000000000E+02  0.47000000000E+01 0. -1.
</event>
<event>
 4    1  0.5025809E-002  0.4000000E+02  0.7546771E-02  0.1348030E+00
         11   -1    0    0    0    0  0.00000000000E+00  0.00000000000E+00  0.20000000000E+02  0.20000000000E+02  0.00000000000E+00 0. -1.
        -11   -1    0    0    0    0 -0.00000000000E+00 -0.00000000000E+00 -0.20000000000E+02  0.20000000000E+02  0.00000000000E+00 0.  1.
          5    1    1    2  501    0 -0.11804914731E+01 -0.16629729354E+02 -0.99984269503E+01  0.20000000000E+02  0.47000000000E+01 0.  1.
         -5    1    1    2    0  501  0.11804914731E+01  0.16629729354E+02  0.99984269503E+01  0.20000000000E+02  0.47000000000E+01 0. -1.
</event>
<event>
 4    1  0.5025809E-002  0.4000000E+02  0.7546771E-02  0.1348030E+00
         11   -1    0    0    0    0  0.00000000000E+00  0.00000000000E+00  0.20000000000E+02  0.20000000000E+02  0.00000000000E+00 0.  1.
        -11   -1    0    0    0    0 -0.00000000000E+00 -0.00000000000E+00 -0.20000000000E+02  0.20000000000E+02  0.00000000000E+00 0. -1.
          5    1    1    2  501    0  0.18128862725E+02 -0.11780951802E+01 -0.69185567879E+01  0.20000000000E+02  0.47000000000E+01 0. -1.
         -5    1    1    2    0  501 -0.18128862725E+02  0.11780951802E+01  0.69185567879E+01  0.20000000000E+02  0.47000000000E+01 0.  1.
</event>
<event>
 4    1  0.5025809E-002  0.4000000E+02  0.7546771E-02  0.1348030E+00
         11   -1    0    0    0    0  0.00000000000E+00  0.00000000000E+00  0.20000000000E+02  0.20000000000E+02  0.00000000000E+00 0.  1.
        -11   -1    0    0    0    0 -0.00000000000E+00 -0.00000000000E+00 -0.20000000000E+02  0.20000000000E+02  0.00000000000E+00 0. -1.
          5    1    1    2  501    0  0.18058054700E+02 -0.30608762754E+01 -0.65151897036E+01  0.20000000000E+02  0.47000000000E+01 0. -1.
         -5    1    1    2    0  501 -0.18058054700E+02  0.30608762754E+01  0.65151897036E+01  0.20000000000E+02  0.47000000000E+01 0.  1.
</event>
<event>
 4    1  0.5025809E-002  0.4000000E+02  0.7546771E-02  0.1348030E+00
         11   -1    0    0    0    0  0.00000000000E+00  0.00000000000E+00  0.20000000000E+02  0.20000000000E+02  0.00000000000E+00 0.  1.
        -11   -1    0    0    0    0 -0.00000000000E+00 -0.00000000000E+00 -0.20000000000E+02  0.20000000000E+02  0.00000000000E+00 0. -1.
          5    1    1    2  501    0  0.73846301268E+00  0.13945474281E+02 -0.13523624494E+02  0.20000000000E+02  0.47000000000E+01 0. -1.
         -5    1    1    2    0  501 -0.73846301268E+00 -0.13945474281E+02  0.13523624494E+02  0.20000000000E+02  0.47000000000E+01 0. -1.
</event>
<event>
 4    1  0.5025809E-002  0.4000000E+02  0.7546771E-02  0.1348030E+00
         11   -1    0    0    0    0  0.00000000000E+00  0.00000000000E+00  0.20000000000E+02  0.20000000000E+02  0.00000000000E+00 0. -1.
        -11   -1    0    0    0    0 -0.00000000000E+00 -0.00000000000E+00 -0.20000000000E+02  0.20000000000E+02  0.00000000000E+00 0.  1.
          5    1    1    2  501    0 -0.14226789939E+02  0.78903734693E+01 -0.10641919683E+02  0.20000000000E+02  0.47000000000E+01 0.  1.
         -5    1    1    2    0  501  0.14226789939E+02 -0.78903734693E+01  0.10641919683E+02  0.20000000000E+02  0.47000000000E+01 0. -1.
</event>
<event>
 4    1  0.5025809E-002  0.4000000E+02  0.7546771E-02  0.1348030E+00
         11   -1    0    0    0    0  0.00000000000E+00  0.00000000000E+00  0.20000000000E+02  0.20000000000E+02  0.00000000000E+00 0. -1.
        -11   -1    0    0    0    0 -0.00000000000E+00 -0.00000000000E+00 -0.20000000000E+02  0.20000000000E+02  0.00000000000E+00 0.  1.
          5    1    1    2  501    0  0.18279765627E+02 -0.43518387047E+01  0.49821349334E+01  0.20000000000E+02  0.47000000000E+01 0.  1.
         -5    1    1    2    0  501 -0.18279765627E+02  0.43518387047E+01 -0.49821349334E+01  0.20000000000E+02  0.47000000000E+01 0. -1.
</event>
<event>
 4    1  0.5025809E-002  0.4000000E+02  0.7546771E-02  0.1348030E+00
         11   -1    0    0    0    0  0.00000000000E+00  0.00000000000E+00  0.20000000000E+02  0.20000000000E+02  0.00000000000E+00 0.  1.
        -11   -1    0    0    0    0 -0.00000000000E+00 -0.00000000000E+00 -0.20000000000E+02  0.20000000000E+02  0.00000000000E+00 0. -1.
          5    1    1    2  501    0 -0.69141570883E+01 -0.12624311611E+02  0.13066414508E+02  0.20000000000E+02  0.47000000000E+01 0.  1.
         -5    1    1    2    0  501  0.69141570883E+01  0.12624311611E+02 -0.13066414508E+02  0.20000000000E+02  0.47000000000E+01 0. -1.
</event>
<event>
 4    1  0.5025809E-002  0.4000000E+02  0.7546771E-02  0.1348030E+00
         11   -1    0    0    0    0  0.00000000000E+00  0.00000000000E+00  0.20000000000E+02  0.20000000000E+02  0.00000000000E+00 0.  1.
        -11   -1    0    0    0    0 -0.00000000000E+00 -0.00000000000E+00 -0.20000000000E+02  0.20000000000E+02  0.00000000000E+00 0. -1.
          5    1    1    2  501    0  0.43241362679E+01 -0.67238843120E+01 -0.17720079720E+02  0.20000000000E+02  0.47000000000E+01 0. -1.
         -5    1    1    2    0  501 -0.43241362679E+01  0.67238843120E+01  0.17720079720E+02  0.20000000000E+02  0.47000000000E+01 0.  1.
</event>
<event>
 4    1  0.5025809E-002  0.4000000E+02  0.7546771E-02  0.1348030E+00
         11   -1    0    0    0    0  0.00000000000E+00  0.00000000000E+00  0.20000000000E+02  0.20000000000E+02  0.00000000000E+00 0. -1.
        -11   -1    0    0    0    0 -0.00000000000E+00 -0.00000000000E+00 -0.20000000000E+02  0.20000000000E+02  0.00000000000E+00 0.  1.
          5    1    1    2  501    0  0.16016831370E+02 -0.10964840114E+02 -0.10692960858E+01  0.20000000000E+02  0.47000000000E+01 0.  1.
         -5    1    1    2    0  501 -0.16016831370E+02  0.10964840114E+02  0.10692960858E+01  0.20000000000E+02  0.47000000000E+01 0. -1.
</event>
<event>
 4    1  0.5025809E-002  0.4000000E+02  0.7546771E-02  0.1348030E+00
         11   -1    0    0    0    0  0.00000000000E+00  0.00000000000E+00  0.20000000000E+02  0.20000000000E+02  0.00000000000E+00 0.  1.
        -11   -1    0    0    0    0 -0.00000000000E+00 -0.00000000000E+00 -0.20000000000E+02  0.20000000000E+02  0.00000000000E+00 0. -1.
          5    1    1    2  501    0  0.16367988369E+02  0.10401862341E+02  0.13417214961E+01  0.20000000000E+02  0.47000000000E+01 0. -1.
         -5    1    1    2    0  501 -0.16367988369E+02 -0.10401862341E+02 -0.13417214961E+01  0.20000000000E+02  0.47000000000E+01 0.  1.
</event>
<event>
 4    1  0.5025809E-002  0.4000000E+02  0.7546771E-02  0.1348030E+00
         11   -1    0    0    0    0  0.00000000000E+00  0.00000000000E+00  0.20000000000E+02  0.20000000000E+02  0.00000000000E+00 0.  1.
        -11   -1    0    0    0    0 -0.00000000000E+00 -0.00000000000E+00 -0.20000000000E+02  0.20000000000E+02  0.00000000000E+00 0. -1.
          5    1    1    2  501    0 -0.12134857551E+01 -0.10387497804E+02 -0.16387109009E+02  0.20000000000E+02  0.47000000000E+01 0. -1.
         -5    1    1    2    0  501  0.12134857551E+01  0.10387497804E+02  0.16387109009E+02  0.20000000000E+02  0.47000000000E+01 0.  1.
</event>
<event>
 4    1  0.5025809E-002  0.4000000E+02  0.7546771E-02  0.1348030E+00
         11   -1    0    0    0    0  0.00000000000E+00  0.00000000000E+00  0.20000000000E+02  0.20000000000E+02  0.00000000000E+00 0.  1.
        -11   -1    0    0    0    0 -0.00000000000E+00 -0.00000000000E+00 -0.20000000000E+02  0.20000000000E+02  0.00000000000E+00 0. -1.
          5    1    1    2  501    0 -0.41086818392E+01  0.12389479645E+02  0.14405885175E+02  0.20000000000E+02  0.47000000000E+01 0.  1.
         -5    1    1    2    0  501  0.41086818392E+01 -0.12389479645E+02 -0.14405885175E+02  0.20000000000E+02  0.47000000000E+01 0. -1.
</event>
<event>
 4    1  0.5025809E-002  0.4000000E+02  0.7546771E-02  0.1348030E+00
         11   -1    0    0    0    0  0.00000000000E+00  0.00000000000E+00  0.20000000000E+02  0.20000000000E+02  0.00000000000E+00 0.  1.
        -11   -1    0    0    0    0 -0.00000000000E+00 -0.00000000000E+00 -0.20000000000E+02  0.20000000000E+02  0.00000000000E+00 0. -1.
          5    1    1    2  501    0 -0.11115661188E+02  0.12128981490E+02  0.10355669190E+02  0.20000000000E+02  0.47000000000E+01 0.  1.
         -5    1    1    2    0  501  0.11115661188E+02 -0.12128981490E+02 -0.10355669190E+02  0.20000000000E+02  0.47000000000E+01 0. -1.
</event>
<event>
 4    1  0.5025809E-002  0.4000000E+02  0.7546771E-02  0.1348030E+00
         11   -1    0    0    0    0  0.00000000000E+00  0.00000000000E+00  0.20000000000E+02  0.20000000000E+02  0.00000000000E+00 0.  1.
        -11   -1    0    0    0    0 -0.00000000000E+00 -0.00000000000E+00 -0.20000000000E+02  0.20000000000E+02  0.00000000000E+00 0. -1.
          5    1    1    2  501    0  0.88847614187E+01  0.10229474386E+02 -0.13940188963E+02  0.20000000000E+02  0.47000000000E+01 0. -1.
         -5    1    1    2    0  501 -0.88847614187E+01 -0.10229474386E+02  0.13940188963E+02  0.20000000000E+02  0.47000000000E+01 0.  1.
</event>
<event>
 4    1  0.5025809E-002  0.4000000E+02  0.7546771E-02  0.1348030E+00
         11   -1    0    0    0    0  0.00000000000E+00  0.00000000000E+00  0.20000000000E+02  0.20000000000E+02  0.00000000000E+00 0. -1.
        -11   -1    0    0    0    0 -0.00000000000E+00 -0.00000000000E+00 -0.20000000000E+02  0.20000000000E+02  0.00000000000E+00 0.  1.
          5    1    1    2  501    0 -0.63174299388E+01 -0.94073084731E+01 -0.15795652132E+02  0.20000000000E+02  0.47000000000E+01 0.  1.
         -5    1    1    2    0  501  0.63174299388E+01  0.94073084731E+01  0.15795652132E+02  0.20000000000E+02  0.47000000000E+01 0. -1.
</event>
<event>
 4    1  0.5025809E-002  0.4000000E+02  0.7546771E-02  0.1348030E+00
         11   -1    0    0    0    0  0.00000000000E+00  0.00000000000E+00  0.20000000000E+02  0.20000000000E+02  0.00000000000E+00 0. -1.
        -11   -1    0    0    0    0 -0.00000000000E+00 -0.00000000000E+00 -0.20000000000E+02  0.20000000000E+02  0.00000000000E+00 0.  1.
          5    1    1    2  501    0 -0.26084847324E+01 -0.10760282285E+02 -0.15978802601E+02  0.20000000000E+02  0.47000000000E+01 0.  1.
         -5    1    1    2    0  501  0.26084847324E+01  0.10760282285E+02  0.15978802601E+02  0.20000000000E+02  0.47000000000E+01 0. -1.
</event>
<event>
 4    1  0.5025809E-002  0.4000000E+02  0.7546771E-02  0.1348030E+00
         11   -1    0    0    0    0  0.00000000000E+00  0.00000000000E+00  0.20000000000E+02  0.20000000000E+02  0.00000000000E+00 0.  1.
        -11   -1    0    0    0    0 -0.00000000000E+00 -0.00000000000E+00 -0.20000000000E+02  0.20000000000E+02  0.00000000000E+00 0. -1.
          5    1    1    2  501    0 -0.13299409815E+02 -0.52367196026E+01 -0.13176208346E+02  0.20000000000E+02  0.47000000000E+01 0. -1.
         -5    1    1    2    0  501  0.13299409815E+02  0.52367196026E+01  0.13176208346E+02  0.20000000000E+02  0.47000000000E+01 0.  1.
</event>
<event>
 4    1  0.5025809E-002  0.4000000E+02  0.7546771E-02  0.1348030E+00
         11   -1    0    0    0    0  0.00000000000E+00  0.00000000000E+00  0.20000000000E+02  0.20000000000E+02  0.00000000000E+00 0.  1.
        -11   -1    0    0    0    0 -0.00000000000E+00 -0.00000000000E+00 -0.20000000000E+02  0.20000000000E+02  0.00000000000E+00 0. -1.
          5    1    1    2  501    0  0.85232113547E+01  0.41206863630E+01 -0.16978952032E+02  0.20000000000E+02  0.47000000000E+01 0. -1.
         -5    1    1    2    0  501 -0.85232113547E+01 -0.41206863630E+01  0.16978952032E+02  0.20000000000E+02  0.47000000000E+01 0.  1.
</event>
<event>
 4    1  0.5025809E-002  0.4000000E+02  0.7546771E-02  0.1348030E+00
         11   -1    0    0    0    0  0.00000000000E+00  0.00000000000E+00  0.20000000000E+02  0.20000000000E+02  0.00000000000E+00 0.  1.
        -11   -1    0    0    0    0 -0.00000000000E+00 -0.00000000000E+00 -0.20000000000E+02  0.20000000000E+02  0.00000000000E+00 0. -1.
          5    1    1    2  501    0  0.14180944702E+02  0.76030770767E+01 -0.10908896660E+02  0.20000000000E+02  0.47000000000E+01 0. -1.
         -5    1    1    2    0  501 -0.14180944702E+02 -0.76030770767E+01  0.10908896660E+02  0.20000000000E+02  0.47000000000E+01 0.  1.
</event>
<event>
 4    1  0.5025809E-002  0.4000000E+02  0.7546771E-02  0.1348030E+00
         11   -1    0    0    0    0  0.00000000000E+00  0.00000000000E+00  0.20000000000E+02  0.20000000000E+02  0.00000000000E+00 0.  1.
        -11   -1    0    0    0    0 -0.00000000000E+00 -0.00000000000E+00 -0.20000000000E+02  0.20000000000E+02  0.00000000000E+00 0. -1.
          5    1    1    2  501    0 -0.87928920993E+01 -0.11313739928E+02 -0.13137516408E+02  0.20000000000E+02  0.47000000000E+01 0. -1.
         -5    1    1    2    0  501  0.87928920993E+01  0.11313739928E+02  0.13137516408E+02  0.20000000000E+02  0.47000000000E+01 0.  1.
</event>
<event>
 4    1  0.5025809E-002  0.4000000E+02  0.7546771E-02  0.1348030E+00
         11   -1    0    0    0    0  0.00000000000E+00  0.00000000000E+00  0.20000000000E+02  0.20000000000E+02  0.00000000000E+00 0.  1.
        -11   -1    0    0    0    0 -0.00000000000E+00 -0.00000000000E+00 -0.20000000000E+02  0.20000000000E+02  0.00000000000E+00 0. -1.
          5    1    1    2  501    0 -0.40004560909E+01  0.55732548467E+01  0.18189150103E+02  0.20000000000E+02  0.47000000000E+01 0.  1.
         -5    1    1    2    0  501  0.40004560909E+01 -0.55732548467E+01 -0.18189150103E+02  0.20000000000E+02  0.47000000000E+01 0. -1.
</event>
<event>
 4    1  0.5025809E-002  0.4000000E+02  0.7546771E-02  0.1348030E+00
         11   -1    0    0    0    0  0.00000000000E+00  0.00000000000E+00  0.20000000000E+02  0.20000000000E+02  0.00000000000E+00 0.  1.
        -11   -1    0    0    0    0 -0.00000000000E+00 -0.00000000000E+00 -0.20000000000E+02  0.20000000000E+02  0.00000000000E+00 0. -1.
          5    1    1    2  501    0 -0.81344627434E+01  0.86293776557E+01 -0.15403712447E+02  0.20000000000E+02  0.47000000000E+01 0. -1.
         -5    1    1    2    0  501  0.81344627434E+01 -0.86293776557E+01  0.15403712447E+02  0.20000000000E+02  0.47000000000E+01 0.  1.
</event>
<event>
 4    1  0.5025809E-002  0.4000000E+02  0.7546771E-02  0.1348030E+00
         11   -1    0    0    0    0  0.00000000000E+00  0.00000000000E+00  0.20000000000E+02  0.20000000000E+02  0.00000000000E+00 0.  1.
        -11   -1    0    0    0    0 -0.00000000000E+00 -0.00000000000E+00 -0.20000000000E+02  0.20000000000E+02  0.00000000000E+00 0. -1.
          5    1    1    2  501    0 -0.11663077279E+01  0.63980832954E+01 -0.18319777740E+02  0.20000000000E+02  0.47000000000E+01 0. -1.
         -5    1    1    2    0  501  0.11663077279E+01 -0.63980832954E+01  0.18319777740E+02  0.20000000000E+02  0.47000000000E+01 0.  1.
</event>
<event>
 4    1  0.5025809E-002  0.4000000E+02  0.7546771E-02  0.1348030E+00
         11   -1    0    0    0    0  0.00000000000E+00  0.00000000000E+00  0.20000000000E+02  0.20000000000E+02  0.00000000000E+00 0. -1.
        -11   -1    0    0    0    0 -0.00000000000E+00 -0.00000000000E+00 -0.20000000000E+02  0.20000000000E+02  0.00000000000E+00 0.  1.
          5    1    1    2  501    0  0.19010181042E+02  0.12924469839E+01  0.38539067914E+01  0.20000000000E+02  0.47000000000E+01 0. -1.
         -5    1    1    2    0  501 -0.19010181042E+02 -0.12924469839E+01 -0.38539067914E+01  0.20000000000E+02  0.47000000000E+01 0.  1.
</event>
<event>
 4    1  0.5025809E-002  0.4000000E+02  0.7546771E-02  0.1348030E+00
         11   -1    0    0    0    0  0.00000000000E+00  0.00000000000E+00  0.20000000000E+02  0.20000000000E+02  0.00000000000E+00 0.  1.
        -11   -1    0    0    0    0 -0.00000000000E+00 -0.00000000000E+00 -0.20000000000E+02  0.20000000000E+02  0.00000000000E+00 0. -1.
          5    1    1    2  501    0 -0.10652982504E+02  0.10460717811E+02  0.12449793036E+02  0.20000000000E+02  0.47000000000E+01 0.  1.
         -5    1    1    2    0  501  0.10652982504E+02 -0.10460717811E+02 -0.12449793036E+02  0.20000000000E+02  0.47000000000E+01 0. -1.
</event>
<event>
 4    1  0.5025809E-002  0.4000000E+02  0.7546771E-02  0.1348030E+00
         11   -1    0    0    0    0  0.00000000000E+00  0.00000000000E+00  0.20000000000E+02  0.20000000000E+02  0.00000000000E+00 0.  1.
        -11   -1    0    0    0    0 -0.00000000000E+00 -0.00000000000E+00 -0.20000000000E+02  0.20000000000E+02  0.00000000000E+00 0. -1.
          5    1    1    2  501    0 -0.16905353801E+02 -0.37260462071E+01 -0.88450886096E+01  0.20000000000E+02  0.47000000000E+01 0. -1.
         -5    1    1    2    0  501  0.16905353801E+02  0.37260462071E+01  0.88450886096E+01  0.20000000000E+02  0.47000000000E+01 0.  1.
</event>
<event>
 4    1  0.5025809E-002  0.4000000E+02  0.7546771E-02  0.1348030E+00
         11   -1    0    0    0    0  0.00000000000E+00  0.00000000000E+00  0.20000000000E+02  0.20000000000E+02  0.00000000000E+00 0.  1.
        -11   -1    0    0    0    0 -0.00000000000E+00 -0.00000000000E+00 -0.20000000000E+02  0.20000000000E+02  0.00000000000E+00 0. -1.
          5    1    1    2  501    0  0.81175614299E+01  0.16245350122E+02  0.69356900056E+01  0.20000000000E+02  0.47000000000E+01 0.  1.
         -5    1    1    2    0  501 -0.81175614299E+01 -0.16245350122E+02 -0.69356900056E+01  0.20000000000E+02  0.47000000000E+01 0. -1.
</event>
<event>
 4    1  0.5025809E-002  0.4000000E+02  0.7546771E-02  0.1348030E+00
         11   -1    0    0    0    0  0.00000000000E+00  0.00000000000E+00  0.20000000000E+02  0.20000000000E+02  0.00000000000E+00 0.  1.
        -11   -1    0    0    0    0 -0.00000000000E+00 -0.00000000000E+00 -0.20000000000E+02  0.20000000000E+02  0.00000000000E+00 0. -1.
          5    1    1    2  501    0 -0.17300978013E+02  0.54602839520E+01 -0.69836565604E+01  0.20000000000E+02  0.47000000000E+01 0.  1.
         -5    1    1    2    0  501  0.17300978013E+02 -0.54602839520E+01  0.69836565604E+01  0.20000000000E+02  0.47000000000E+01 0. -1.
</event>
<event>
 4    1  0.5025809E-002  0.4000000E+02  0.7546771E-02  0.1348030E+00
         11   -1    0    0    0    0  0.00000000000E+00  0.00000000000E+00  0.20000000000E+02  0.20000000000E+02  0.00000000000E+00 0. -1.
        -11   -1    0    0    0    0 -0.00000000000E+00 -0.00000000000E+00 -0.20000000000E+02  0.20000000000E+02  0.00000000000E+00 0.  1.
          5    1    1    2  501    0  0.44149300344E+01  0.21340798118E+01  0.18811275771E+02  0.20000000000E+02  0.47000000000E+01 0. -1.
         -5    1    1    2    0  501 -0.44149300344E+01 -0.21340798118E+01 -0.18811275771E+02  0.20000000000E+02  0.47000000000E+01 0.  1.
</event>
<event>
 4    1  0.5025809E-002  0.4000000E+02  0.7546771E-02  0.1348030E+00
         11   -1    0    0    0    0  0.00000000000E+00  0.00000000000E+00  0.20000000000E+02  0.20000000000E+02  0.00000000000E+00 0.  1.
        -11   -1    0    0    0    0 -0.00000000000E+00 -0.00000000000E+00 -0.20000000000E+02  0.20000000000E+02  0.00000000000E+00 0. -1.
          5    1    1    2  501    0 -0.28620901986E+01  0.32838150465E+01  0.18945579918E+02  0.20000000000E+02  0.47000000000E+01 0.  1.
         -5    1    1    2    0  501  0.28620901986E+01 -0.32838150465E+01 -0.18945579918E+02  0.20000000000E+02  0.47000000000E+01 0. -1.
</event>
<event>
 4    1  0.5025809E-002  0.4000000E+02  0.7546771E-02  0.1348030E+00
         11   -1    0    0    0    0  0.00000000000E+00  0.00000000000E+00  0.20000000000E+02  0.20000000000E+02  0.00000000000E+00 0. -1.
        -11   -1    0    0    0    0 -0.00000000000E+00 -0.00000000000E+00 -0.20000000000E+02  0.20000000000E+02  0.00000000000E+00 0.  1.
          5    1    1    2  501    0  0.19399065272E+02  0.10154468788E+01  0.74507327840E+00  0.20000000000E+02  0.47000000000E+01 0.  1.
         -5    1    1    2    0  501 -0.19399065272E+02 -0.10154468788E+01 -0.74507327840E+00  0.20000000000E+02  0.47000000000E+01 0. -1.
</event>
<event>
 4    1  0.5025809E-002  0.4000000E+02  0.7546771E-02  0.1348030E+00
         11   -1    0    0    0    0  0.00000000000E+00  0.00000000000E+00  0.20000000000E+02  0.20000000000E+02  0.00000000000E+00 0.  1.
        -11   -1    0    0    0    0 -0.00000000000E+00 -0.00000000000E+00 -0.20000000000E+02  0.20000000000E+02  0.00000000000E+00 0. -1.
          5    1    1    2  501    0  0.13724139452E+02 -0.57541267659E+01 -0.12507918350E+02  0.20000000000E+02  0.47000000000E+01 0. -1.
         -5    1    1    2    0  501 -0.13724139452E+02  0.57541267659E+01  0.12507918350E+02  0.20000000000E+02  0.47000000000E+01 0.  1.
</event>
<event>
 4    1  0.5025809E-002  0.4000000E+02  0.7546771E-02  0.1348030E+00
         11   -1    0    0    0    0  0.00000000000E+00  0.00000000000E+00  0.20000000000E+02  0.20000000000E+02  0.00000000000E+00 0. -1.
        -11   -1    0    0    0    0 -0.00000000000E+00 -0.00000000000E+00 -0.20000000000E+02  0.20000000000E+02  0.00000000000E+00 0.  1.
          5    1    1    2  501    0 -0.10173794410E+02  0.81854171938E+01 -0.14401487863E+02  0.20000000000E+02  0.47000000000E+01 0.  1.
         -5    1    1    2    0  501  0.10173794410E+02 -0.81854171938E+01  0.14401487863E+02  0.20000000000E+02  0.47000000000E+01 0. -1.
</event>
<event>
 4    1  0.5025809E-002  0.4000000E+02  0.7546771E-02  0.1348030E+00
         11   -1    0    0    0    0  0.00000000000E+00  0.00000000000E+00  0.20000000000E+02  0.20000000000E+02  0.00000000000E+00 0.  1.
        -11   -1    0    0    0    0 -0.00000000000E+00 -0.00000000000E+00 -0.20000000000E+02  0.20000000000E+02  0.00000000000E+00 0. -1.
          5    1    1    2  501    0 -0.12259616521E+02 -0.96282240502E+01 -0.11615037856E+02  0.20000000000E+02  0.47000000000E+01 0. -1.
         -5    1    1    2    0  501  0.12259616521E+02  0.96282240502E+01  0.11615037856E+02  0.20000000000E+02  0.47000000000E+01 0.  1.
</event>
<event>
 4    1  0.5025809E-002  0.4000000E+02  0.7546771E-02  0.1348030E+00
         11   -1    0    0    0    0  0.00000000000E+00  0.00000000000E+00  0.20000000000E+02  0.20000000000E+02  0.00000000000E+00 0.  1.
        -11   -1    0    0    0    0 -0.00000000000E+00 -0.00000000000E+00 -0.20000000000E+02  0.20000000000E+02  0.00000000000E+00 0. -1.
          5    1    1    2  501    0  0.17331147956E+02  0.44974778289E+01  0.75706012784E+01  0.20000000000E+02  0.47000000000E+01 0.  1.
         -5    1    1    2    0  501 -0.17331147956E+02 -0.44974778289E+01 -0.75706012784E+01  0.20000000000E+02  0.47000000000E+01 0. -1.
</event>
<event>
 4    1  0.5025809E-002  0.4000000E+02  0.7546771E-02  0.1348030E+00
         11   -1    0    0    0    0  0.00000000000E+00  0.00000000000E+00  0.20000000000E+02  0.20000000000E+02  0.00000000000E+00 0. -1.
        -11   -1    0    0    0    0 -0.00000000000E+00 -0.00000000000E+00 -0.20000000000E+02  0.20000000000E+02  0.00000000000E+00 0.  1.
          5    1    1    2  501    0  0.53197206634E+01 -0.11120562355E+02 -0.15031422586E+02  0.20000000000E+02  0.47000000000E+01 0.  1.
         -5    1    1    2    0  501 -0.53197206634E+01  0.11120562355E+02  0.15031422586E+02  0.20000000000E+02  0.47000000000E+01 0. -1.
</event>
<event>
 4    1  0.5025809E-002  0.4000000E+02  0.7546771E-02  0.1348030E+00
         11   -1    0    0    0    0  0.00000000000E+00  0.00000000000E+00  0.20000000000E+02  0.20000000000E+02  0.00000000000E+00 0.  1.
        -11   -1    0    0    0    0 -0.00000000000E+00 -0.00000000000E+00 -0.20000000000E+02  0.20000000000E+02  0.00000000000E+00 0. -1.
          5    1    1    2  501    0  0.11953838514E+02 -0.14543044779E+02  0.48492879204E+01  0.20000000000E+02  0.47000000000E+01 0. -1.
         -5    1    1    2    0  501 -0.11953838514E+02  0.14543044779E+02 -0.48492879204E+01  0.20000000000E+02  0.47000000000E+01 0.  1.
</event>
<event>
 4    1  0.5025809E-002  0.4000000E+02  0.7546771E-02  0.1348030E+00
         11   -1    0    0    0    0  0.00000000000E+00  0.00000000000E+00  0.20000000000E+02  0.20000000000E+02  0.00000000000E+00 0. -1.
        -11   -1    0    0    0    0 -0.00000000000E+00 -0.00000000000E+00 -0.20000000000E+02  0.20000000000E+02  0.00000000000E+00 0.  1.
          5    1    1    2  501    0 -0.14939262360E+02  0.11353127061E+02  0.50828088767E+01  0.20000000000E+02  0.47000000000E+01 0.  1.
         -5    1    1    2    0  501  0.14939262360E+02 -0.11353127061E+02 -0.50828088767E+01  0.20000000000E+02  0.47000000000E+01 0. -1.
</event>
<event>
 4    1  0.5025809E-002  0.4000000E+02  0.7546771E-02  0.1348030E+00
         11   -1    0    0    0    0  0.00000000000E+00  0.00000000000E+00  0.20000000000E+02  0.20000000000E+02  0.00000000000E+00 0.  1.
        -11   -1    0    0    0    0 -0.00000000000E+00 -0.00000000000E+00 -0.20000000000E+02  0.20000000000E+02  0.00000000000E+00 0. -1.
          5    1    1    2  501    0 -0.64694144416E+01  0.10825548558E+02  0.14794058781E+02  0.20000000000E+02  0.47000000000E+01 0.  1.
         -5    1    1    2    0  501  0.64694144416E+01 -0.10825548558E+02 -0.14794058781E+02  0.20000000000E+02  0.47000000000E+01 0. -1.
</event>
<event>
 4    1  0.5025809E-002  0.4000000E+02  0.7546771E-02  0.1348030E+00
         11   -1    0    0    0    0  0.00000000000E+00  0.00000000000E+00  0.20000000000E+02  0.20000000000E+02  0.00000000000E+00 0.  1.
        -11   -1    0    0    0    0 -0.00000000000E+00 -0.00000000000E+00 -0.20000000000E+02  0.20000000000E+02  0.00000000000E+00 0. -1.
          5    1    1    2  501    0 -0.79130695894E+01 -0.12614799923E+01 -0.17711634535E+02  0.20000000000E+02  0.47000000000E+01 0. -1.
         -5    1    1    2    0  501  0.79130695894E+01  0.12614799923E+01  0.17711634535E+02  0.20000000000E+02  0.47000000000E+01 0.  1.
</event>
<event>
 4    1  0.5025809E-002  0.4000000E+02  0.7546771E-02  0.1348030E+00
         11   -1    0    0    0    0  0.00000000000E+00  0.00000000000E+00  0.20000000000E+02  0.20000000000E+02  0.00000000000E+00 0.  1.
        -11   -1    0    0    0    0 -0.00000000000E+00 -0.00000000000E+00 -0.20000000000E+02  0.20000000000E+02  0.00000000000E+00 0. -1.
          5    1    1    2  501    0  0.14036203585E+02 -0.63131688951E+01  0.11875979431E+02  0.20000000000E+02  0.47000000000E+01 0.  1.
         -5    1    1    2    0  501 -0.14036203585E+02  0.63131688951E+01 -0.11875979431E+02  0.20000000000E+02  0.47000000000E+01 0. -1.
</event>
<event>
 4    1  0.5025809E-002  0.4000000E+02  0.7546771E-02  0.1348030E+00
         11   -1    0    0    0    0  0.00000000000E+00  0.00000000000E+00  0.20000000000E+02  0.20000000000E+02  0.00000000000E+00 0.  1.
        -11   -1    0    0    0    0 -0.00000000000E+00 -0.00000000000E+00 -0.20000000000E+02  0.20000000000E+02  0.00000000000E+00 0. -1.
          5    1    1    2  501    0  0.17846857975E+02  0.17965185355E+01 -0.74948103098E+01  0.20000000000E+02  0.47000000000E+01 0. -1.
         -5    1    1    2    0  501 -0.17846857975E+02 -0.17965185355E+01  0.74948103098E+01  0.20000000000E+02  0.47000000000E+01 0.  1.
</event>
<event>
 4    1  0.5025809E-002  0.4000000E+02  0.7546771E-02  0.1348030E+00
         11   -1    0    0    0    0  0.00000000000E+00  0.00000000000E+00  0.20000000000E+02  0.20000000000E+02  0.00000000000E+00 0.  1.
        -11   -1    0    0    0    0 -0.00000000000E+00 -0.00000000000E+00 -0.20000000000E+02  0.20000000000E+02  0.00000000000E+00 0. -1.
          5    1    1    2  501    0  0.17387901448E+02 -0.86818249658E+01 -0.44361976830E+00  0.20000000000E+02  0.47000000000E+01 0. -1.
         -5    1    1    2    0  501 -0.17387901448E+02  0.86818249658E+01  0.44361976830E+00  0.20000000000E+02  0.47000000000E+01 0.  1.
</event>
<event>
 4    1  0.5025809E-002  0.4000000E+02  0.7546771E-02  0.1348030E+00
         11   -1    0    0    0    0  0.00000000000E+00  0.00000000000E+00  0.20000000000E+02  0.20000000000E+02  0.00000000000E+00 0.  1.
        -11   -1    0    0    0    0 -0.00000000000E+00 -0.00000000000E+00 -0.20000000000E+02  0.20000000000E+02  0.00000000000E+00 0. -1.
          5    1    1    2  501    0 -0.10845740672E+02 -0.69297926441E+01 -0.14569072832E+02  0.20000000000E+02  0.47000000000E+01 0. -1.
         -5    1    1    2    0  501  0.10845740672E+02  0.69297926441E+01  0.14569072832E+02  0.20000000000E+02  0.47000000000E+01 0.  1.
</event>
<event>
 4    1  0.5025809E-002  0.4000000E+02  0.7546771E-02  0.1348030E+00
         11   -1    0    0    0    0  0.00000000000E+00  0.00000000000E+00  0.20000000000E+02  0.20000000000E+02  0.00000000000E+00 0.  1.
        -11   -1    0    0    0    0 -0.00000000000E+00 -0.00000000000E+00 -0.20000000000E+02  0.20000000000E+02  0.00000000000E+00 0. -1.
          5    1    1    2  501    0 -0.50304104305E+01  0.18167799170E+02  0.47472143648E+01  0.20000000000E+02  0.47000000000E+01 0.  1.
         -5    1    1    2    0  501  0.50304104305E+01 -0.18167799170E+02 -0.47472143648E+01  0.20000000000E+02  0.47000000000E+01 0. -1.
</event>
<event>
 4    1  0.5025809E-002  0.4000000E+02  0.7546771E-02  0.1348030E+00
         11   -1    0    0    0    0  0.00000000000E+00  0.00000000000E+00  0.20000000000E+02  0.20000000000E+02  0.00000000000E+00 0. -1.
        -11   -1    0    0    0    0 -0.00000000000E+00 -0.00000000000E+00 -0.20000000000E+02  0.20000000000E+02  0.00000000000E+00 0.  1.
          5    1    1    2  501    0  0.18642333817E+02 -0.18063383386E+01 -0.52067774738E+01  0.20000000000E+02  0.47000000000E+01 0.  1.
         -5    1    1    2    0  501 -0.18642333817E+02  0.18063383386E+01  0.52067774738E+01  0.20000000000E+02  0.47000000000E+01 0. -1.
</event>
<event>
 4    1  0.5025809E-002  0.4000000E+02  0.7546771E-02  0.1348030E+00
         11   -1    0    0    0    0  0.00000000000E+00  0.00000000000E+00  0.20000000000E+02  0.20000000000E+02  0.00000000000E+00 0.  1.
        -11   -1    0    0    0    0 -0.00000000000E+00 -0.00000000000E+00 -0.20000000000E+02  0.20000000000E+02  0.00000000000E+00 0. -1.
          5    1    1    2  501    0  0.17109250977E+02 -0.68948431821E+01  0.61355251193E+01  0.20000000000E+02  0.47000000000E+01 0. -1.
         -5    1    1    2    0  501 -0.17109250977E+02  0.68948431821E+01 -0.61355251193E+01  0.20000000000E+02  0.47000000000E+01 0.  1.
</event>
<event>
 4    1  0.5025809E-002  0.4000000E+02  0.7546771E-02  0.1348030E+00
         11   -1    0    0    0    0  0.00000000000E+00  0.00000000000E+00  0.20000000000E+02  0.20000000000E+02  0.00000000000E+00 0.  1.
        -11   -1    0    0    0    0 -0.00000000000E+00 -0.00000000000E+00 -0.20000000000E+02  0.20000000000E+02  0.00000000000E+00 0. -1.
          5    1    1    2  501    0  0.87499242133E+01 -0.16934870521E+02  0.38156240256E+01  0.20000000000E+02  0.47000000000E+01 0.  1.
         -5    1    1    2    0  501 -0.87499242133E+01  0.16934870521E+02 -0.38156240256E+01  0.20000000000E+02  0.47000000000E+01 0. -1.
</event>
<event>
 4    1  0.5025809E-002  0.4000000E+02  0.7546771E-02  0.1348030E+00
         11   -1    0    0    0    0  0.00000000000E+00  0.00000000000E+00  0.20000000000E+02  0.20000000000E+02  0.00000000000E+00 0. -1.
        -11   -1    0    0    0    0 -0.00000000000E+00 -0.00000000000E+00 -0.20000000000E+02  0.20000000000E+02  0.00000000000E+00 0.  1.
          5    1    1    2  501    0 -0.70141842505E+01 -0.17434221844E+02 -0.49758544981E+01  0.20000000000E+02  0.47000000000E+01 0. -1.
         -5    1    1    2    0  501  0.70141842505E+01  0.17434221844E+02  0.49758544981E+01  0.20000000000E+02  0.47000000000E+01 0.  1.
</event>
<event>
 4    1  0.5025809E-002  0.4000000E+02  0.7546771E-02  0.1348030E+00
         11   -1    0    0    0    0  0.00000000000E+00  0.00000000000E+00  0.20000000000E+02  0.20000000000E+02  0.00000000000E+00 0. -1.
        -11   -1    0    0    0    0 -0.00000000000E+00 -0.00000000000E+00 -0.20000000000E+02  0.20000000000E+02  0.00000000000E+00 0.  1.
          5    1    1    2  501    0 -0.52496318979E+00  0.19008667245E+02  0.40379429433E+01  0.20000000000E+02  0.47000000000E+01 0. -1.
         -5    1    1    2    0  501  0.52496318979E+00 -0.19008667245E+02 -0.40379429433E+01  0.20000000000E+02  0.47000000000E+01 0.  1.
</event>
<event>
 4    1  0.5025809E-002  0.4000000E+02  0.7546771E-02  0.1348030E+00
         11   -1    0    0    0    0  0.00000000000E+00  0.00000000000E+00  0.20000000000E+02  0.20000000000E+02  0.00000000000E+00 0.  1.
        -11   -1    0    0    0    0 -0.00000000000E+00 -0.00000000000E+00 -0.20000000000E+02  0.20000000000E+02  0.00000000000E+00 0. -1.
          5    1    1    2  501    0 -0.12326905890E+02 -0.98693403631E+01  0.11338144116E+02  0.20000000000E+02  0.47000000000E+01 0.  1.
         -5    1    1    2    0  501  0.12326905890E+02  0.98693403631E+01 -0.11338144116E+02  0.20000000000E+02  0.47000000000E+01 0. -1.
</event>
<event>
 4    1  0.5025809E-002  0.4000000E+02  0.7546771E-02  0.1348030E+00
         11   -1    0    0    0    0  0.00000000000E+00  0.00000000000E+00  0.20000000000E+02  0.20000000000E+02  0.00000000000E+00 0.  1.
        -11   -1    0    0    0    0 -0.00000000000E+00 -0.00000000000E+00 -0.20000000000E+02  0.20000000000E+02  0.00000000000E+00 0. -1.
          5    1    1    2  501    0  0.68518422117E+01 -0.15073501434E+01 -0.18129813950E+02  0.20000000000E+02  0.47000000000E+01 0. -1.
         -5    1    1    2    0  501 -0.68518422117E+01  0.15073501434E+01  0.18129813950E+02  0.20000000000E+02  0.47000000000E+01 0.  1.
</event>
<event>
 4    1  0.5025809E-002  0.4000000E+02  0.7546771E-02  0.1348030E+00
         11   -1    0    0    0    0  0.00000000000E+00  0.00000000000E+00  0.20000000000E+02  0.20000000000E+02  0.00000000000E+00 0.  1.
        -11   -1    0    0    0    0 -0.00000000000E+00 -0.00000000000E+00 -0.20000000000E+02  0.20000000000E+02  0.00000000000E+00 0. -1.
          5    1    1    2  501    0 -0.18301690793E+02 -0.40158341331E+01 -0.51798832357E+01  0.20000000000E+02  0.47000000000E+01 0. -1.
         -5    1    1    2    0  501  0.18301690793E+02  0.40158341331E+01  0.51798832357E+01  0.20000000000E+02  0.47000000000E+01 0.  1.
</event>
<event>
 4    1  0.5025809E-002  0.4000000E+02  0.7546771E-02  0.1348030E+00
         11   -1    0    0    0    0  0.00000000000E+00  0.00000000000E+00  0.20000000000E+02  0.20000000000E+02  0.00000000000E+00 0.  1.
        -11   -1    0    0    0    0 -0.00000000000E+00 -0.00000000000E+00 -0.20000000000E+02  0.20000000000E+02  0.00000000000E+00 0. -1.
          5    1    1    2  501    0  0.50098697007E+01  0.12279810549E+02 -0.14213284576E+02  0.20000000000E+02  0.47000000000E+01 0. -1.
         -5    1    1    2    0  501 -0.50098697007E+01 -0.12279810549E+02  0.14213284576E+02  0.20000000000E+02  0.47000000000E+01 0.  1.
</event>
<event>
 4    1  0.5025809E-002  0.4000000E+02  0.7546771E-02  0.1348030E+00
         11   -1    0    0    0    0  0.00000000000E+00  0.00000000000E+00  0.20000000000E+02  0.20000000000E+02  0.00000000000E+00 0.  1.
        -11   -1    0    0    0    0 -0.00000000000E+00 -0.00000000000E+00 -0.20000000000E+02  0.20000000000E+02  0.00000000000E+00 0. -1.
          5    1    1    2  501    0 -0.10503135692E+02 -0.49149439791E+01 -0.15602482697E+02  0.20000000000E+02  0.47000000000E+01 0. -1.
         -5    1    1    2    0  501  0.10503135692E+02  0.49149439791E+01  0.15602482697E+02  0.20000000000E+02  0.47000000000E+01 0.  1.
</event>
<event>
 4    1  0.5025809E-002  0.4000000E+02  0.7546771E-02  0.1348030E+00
         11   -1    0    0    0    0  0.00000000000E+00  0.00000000000E+00  0.20000000000E+02  0.20000000000E+02  0.00000000000E+00 0.  1.
        -11   -1    0    0    0    0 -0.00000000000E+00 -0.00000000000E+00 -0.20000000000E+02  0.20000000000E+02  0.00000000000E+00 0. -1.
          5    1    1    2  501    0  0.49264196304E+01 -0.15428394190E+02 -0.10751978532E+02  0.20000000000E+02  0.47000000000E+01 0. -1.
         -5    1    1    2    0  501 -0.49264196304E+01  0.15428394190E+02  0.10751978532E+02  0.20000000000E+02  0.47000000000E+01 0.  1.
</event>
<event>
 4    1  0.5025809E-002  0.4000000E+02  0.7546771E-02  0.1348030E+00
         11   -1    0    0    0    0  0.00000000000E+00  0.00000000000E+00  0.20000000000E+02  0.20000000000E+02  0.00000000000E+00 0.  1.
        -11   -1    0    0    0    0 -0.00000000000E+00 -0.00000000000E+00 -0.20000000000E+02  0.20000000000E+02  0.00000000000E+00 0. -1.
          5    1    1    2  501    0  0.14344711641E+02 -0.57693037487E+01 -0.11783648934E+02  0.20000000000E+02  0.47000000000E+01 0. -1.
         -5    1    1    2    0  501 -0.14344711641E+02  0.57693037487E+01  0.11783648934E+02  0.20000000000E+02  0.47000000000E+01 0.  1.
</event>
<event>
 4    1  0.5025809E-002  0.4000000E+02  0.7546771E-02  0.1348030E+00
         11   -1    0    0    0    0  0.00000000000E+00  0.00000000000E+00  0.20000000000E+02  0.20000000000E+02  0.00000000000E+00 0. -1.
        -11   -1    0    0    0    0 -0.00000000000E+00 -0.00000000000E+00 -0.20000000000E+02  0.20000000000E+02  0.00000000000E+00 0.  1.
          5    1    1    2  501    0  0.91104587945E-01 -0.94890775578E+01 -0.16966411142E+02  0.20000000000E+02  0.47000000000E+01 0.  1.
         -5    1    1    2    0  501 -0.91104587945E-01  0.94890775578E+01  0.16966411142E+02  0.20000000000E+02  0.47000000000E+01 0. -1.
</event>
<event>
 4    1  0.5025809E-002  0.4000000E+02  0.7546771E-02  0.1348030E+00
         11   -1    0    0    0    0  0.00000000000E+00  0.00000000000E+00  0.20000000000E+02  0.20000000000E+02  0.00000000000E+00 0. -1.
        -11   -1    0    0    0    0 -0.00000000000E+00 -0.00000000000E+00 -0.20000000000E+02  0.20000000000E+02  0.00000000000E+00 0.  1.
          5    1    1    2  501    0 -0.84535076126E+01 -0.14381698475E+02  0.99807293324E+01  0.20000000000E+02  0.47000000000E+01 0.  1.
         -5    1    1    2    0  501  0.84535076126E+01  0.14381698475E+02 -0.99807293324E+01  0.20000000000E+02  0.47000000000E+01 0. -1.
</event>
<event>
 4    1  0.5025809E-002  0.4000000E+02  0.7546771E-02  0.1348030E+00
         11   -1    0    0    0    0  0.00000000000E+00  0.00000000000E+00  0.20000000000E+02  0.20000000000E+02  0.00000000000E+00 0.  1.
        -11   -1    0    0    0    0 -0.00000000000E+00 -0.00000000000E+00 -0.20000000000E+02  0.20000000000E+02  0.00000000000E+00 0. -1.
          5    1    1    2  501    0 -0.61980734372E+01 -0.12024598696E+02  0.13960763298E+02  0.20000000000E+02  0.47000000000E+01 0.  1.
         -5    1    1    2    0  501  0.61980734372E+01  0.12024598696E+02 -0.13960763298E+02  0.20000000000E+02  0.47000000000E+01 0. -1.
</event>
<event>
 4    1  0.5025809E-002  0.4000000E+02  0.7546771E-02  0.1348030E+00
         11   -1    0    0    0    0  0.00000000000E+00  0.00000000000E+00  0.20000000000E+02  0.20000000000E+02  0.00000000000E+00 0. -1.
        -11   -1    0    0    0    0 -0.00000000000E+00 -0.00000000000E+00 -0.20000000000E+02  0.20000000000E+02  0.00000000000E+00 0.  1.
          5    1    1    2  501    0  0.12222650221E+02 -0.94811271823E+01 -0.11773913917E+02  0.20000000000E+02  0.47000000000E+01 0.  1.
         -5    1    1    2    0  501 -0.12222650221E+02  0.94811271823E+01  0.11773913917E+02  0.20000000000E+02  0.47000000000E+01 0. -1.
</event>
<event>
 4    1  0.5025809E-002  0.4000000E+02  0.7546771E-02  0.1348030E+00
         11   -1    0    0    0    0  0.00000000000E+00  0.00000000000E+00  0.20000000000E+02  0.20000000000E+02  0.00000000000E+00 0. -1.
        -11   -1    0    0    0    0 -0.00000000000E+00 -0.00000000000E+00 -0.20000000000E+02  0.20000000000E+02  0.00000000000E+00 0.  1.
          5    1    1    2  501    0  0.10802588144E+02  0.89658019041E+01 -0.13447248254E+02  0.20000000000E+02  0.47000000000E+01 0.  1.
         -5    1    1    2    0  501 -0.10802588144E+02 -0.89658019041E+01  0.13447248254E+02  0.20000000000E+02  0.47000000000E+01 0. -1.
</event>
<event>
 4    1  0.5025809E-002  0.4000000E+02  0.7546771E-02  0.1348030E+00
         11   -1    0    0    0    0  0.00000000000E+00  0.00000000000E+00  0.20000000000E+02  0.20000000000E+02  0.00000000000E+00 0.  1.
        -11   -1    0    0    0    0 -0.00000000000E+00 -0.00000000000E+00 -0.20000000000E+02  0.20000000000E+02  0.00000000000E+00 0. -1.
          5    1    1    2  501    0 -0.17392095148E+02 -0.67509227743E+01 -0.54635215819E+01  0.20000000000E+02  0.47000000000E+01 0. -1.
         -5    1    1    2    0  501  0.17392095148E+02  0.67509227743E+01  0.54635215819E+01  0.20000000000E+02  0.47000000000E+01 0.  1.
</event>
<event>
 4    1  0.5025809E-002  0.4000000E+02  0.7546771E-02  0.1348030E+00
         11   -1    0    0    0    0  0.00000000000E+00  0.00000000000E+00  0.20000000000E+02  0.20000000000E+02  0.00000000000E+00 0. -1.
        -11   -1    0    0    0    0 -0.00000000000E+00 -0.00000000000E+00 -0.20000000000E+02  0.20000000000E+02  0.00000000000E+00 0.  1.
          5    1    1    2  501    0  0.17211863600E+02 -0.14417748056E+01 -0.89209325080E+01  0.20000000000E+02  0.47000000000E+01 0.  1.
         -5    1    1    2    0  501 -0.17211863600E+02  0.14417748056E+01  0.89209325080E+01  0.20000000000E+02  0.47000000000E+01 0. -1.
</event>
<event>
 4    1  0.5025809E-002  0.4000000E+02  0.7546771E-02  0.1348030E+00
         11   -1    0    0    0    0  0.00000000000E+00  0.00000000000E+00  0.20000000000E+02  0.20000000000E+02  0.00000000000E+00 0.  1.
        -11   -1    0    0    0    0 -0.00000000000E+00 -0.00000000000E+00 -0.20000000000E+02  0.20000000000E+02  0.00000000000E+00 0. -1.
          5    1    1    2  501    0  0.10862642250E+02 -0.13781733372E+02 -0.83652153954E+01  0.20000000000E+02  0.47000000000E+01 0. -1.
         -5    1    1    2    0  501 -0.10862642250E+02  0.13781733372E+02  0.83652153954E+01  0.20000000000E+02  0.47000000000E+01 0.  1.
</event>
<event>
 4    1  0.5025809E-002  0.4000000E+02  0.7546771E-02  0.1348030E+00
         11   -1    0    0    0    0  0.00000000000E+00  0.00000000000E+00  0.20000000000E+02  0.20000000000E+02  0.00000000000E+00 0.  1.
        -11   -1    0    0    0    0 -0.00000000000E+00 -0.00000000000E+00 -0.20000000000E+02  0.20000000000E+02  0.00000000000E+00 0. -1.
          5    1    1    2  501    0  0.69511743367E+01 -0.13314346296E+02 -0.12341772889E+02  0.20000000000E+02  0.47000000000E+01 0. -1.
         -5    1    1    2    0  501 -0.69511743367E+01  0.13314346296E+02  0.12341772889E+02  0.20000000000E+02  0.47000000000E+01 0.  1.
</event>
<event>
 4    1  0.5025809E-002  0.4000000E+02  0.7546771E-02  0.1348030E+00
         11   -1    0    0    0    0  0.00000000000E+00  0.00000000000E+00  0.20000000000E+02  0.20000000000E+02  0.00000000000E+00 0.  1.
        -11   -1    0    0    0    0 -0.00000000000E+00 -0.00000000000E+00 -0.20000000000E+02  0.20000000000E+02  0.00000000000E+00 0. -1.
          5    1    1    2  501    0  0.81728292874E+01  0.16815543335E+02  0.53246937731E+01  0.20000000000E+02  0.47000000000E+01 0. -1.
         -5    1    1    2    0  501 -0.81728292874E+01 -0.16815543335E+02 -0.53246937731E+01  0.20000000000E+02  0.47000000000E+01 0.  1.
</event>
<event>
 4    1  0.5025809E-002  0.4000000E+02  0.7546771E-02  0.1348030E+00
         11   -1    0    0    0    0  0.00000000000E+00  0.00000000000E+00  0.20000000000E+02  0.20000000000E+02  0.00000000000E+00 0.  1.
        -11   -1    0    0    0    0 -0.00000000000E+00 -0.00000000000E+00 -0.20000000000E+02  0.20000000000E+02  0.00000000000E+00 0. -1.
          5    1    1    2  501    0  0.36044619818E+01 -0.13340624393E+02 -0.13672804929E+02  0.20000000000E+02  0.47000000000E+01 0. -1.
         -5    1    1    2    0  501 -0.36044619818E+01  0.13340624393E+02  0.13672804929E+02  0.20000000000E+02  0.47000000000E+01 0.  1.
</event>
<event>
 4    1  0.5025809E-002  0.4000000E+02  0.7546771E-02  0.1348030E+00
         11   -1    0    0    0    0  0.00000000000E+00  0.00000000000E+00  0.20000000000E+02  0.20000000000E+02  0.00000000000E+00 0.  1.
        -11   -1    0    0    0    0 -0.00000000000E+00 -0.00000000000E+00 -0.20000000000E+02  0.20000000000E+02  0.00000000000E+00 0. -1.
          5    1    1    2  501    0  0.65810788041E+01  0.17177309658E+02  0.62880390175E+01  0.20000000000E+02  0.47000000000E+01 0. -1.
         -5    1    1    2    0  501 -0.65810788041E+01 -0.17177309658E+02 -0.62880390175E+01  0.20000000000E+02  0.47000000000E+01 0.  1.
</event>
<event>
 4    1  0.5025809E-002  0.4000000E+02  0.7546771E-02  0.1348030E+00
         11   -1    0    0    0    0  0.00000000000E+00  0.00000000000E+00  0.20000000000E+02  0.20000000000E+02  0.00000000000E+00 0.  1.
        -11   -1    0    0    0    0 -0.00000000000E+00 -0.00000000000E+00 -0.20000000000E+02  0.20000000000E+02  0.00000000000E+00 0. -1.
          5    1    1    2  501    0 -0.59079986029E+01  0.68993312629E+01 -0.17187343618E+02  0.20000000000E+02  0.47000000000E+01 0. -1.
         -5    1    1    2    0  501  0.59079986029E+01 -0.68993312629E+01  0.17187343618E+02  0.20000000000E+02  0.47000000000E+01 0.  1.
</event>
<event>
 4    1  0.5025809E-002  0.4000000E+02  0.7546771E-02  0.1348030E+00
         11   -1    0    0    0    0  0.00000000000E+00  0.00000000000E+00  0.20000000000E+02  0.20000000000E+02  0.00000000000E+00 0. -1.
        -11   -1    0    0    0    0 -0.00000000000E+00 -0.00000000000E+00 -0.20000000000E+02  0.20000000000E+02  0.00000000000E+00 0.  1.
          5    1    1    2  501    0 -0.40824148312E+01 -0.14296492105E+02 -0.12524144786E+02  0.20000000000E+02  0.47000000000E+01 0.  1.
         -5    1    1    2    0  501  0.40824148312E+01  0.14296492105E+02  0.12524144786E+02  0.20000000000E+02  0.47000000000E+01 0. -1.
</event>
<event>
 4    1  0.5025809E-002  0.4000000E+02  0.7546771E-02  0.1348030E+00
         11   -1    0    0    0    0  0.00000000000E+00  0.00000000000E+00  0.20000000000E+02  0.20000000000E+02  0.00000000000E+00 0. -1.
        -11   -1    0    0    0    0 -0.00000000000E+00 -0.00000000000E+00 -0.20000000000E+02  0.20000000000E+02  0.00000000000E+00 0.  1.
          5    1    1    2  501    0 -0.14289790036E+02  0.53814907028E+01 -0.12031270031E+02  0.20000000000E+02  0.47000000000E+01 0.  1.
         -5    1    1    2    0  501  0.14289790036E+02 -0.53814907028E+01  0.12031270031E+02  0.20000000000E+02  0.47000000000E+01 0. -1.
</event>
<event>
 4    1  0.5025809E-002  0.4000000E+02  0.7546771E-02  0.1348030E+00
         11   -1    0    0    0    0  0.00000000000E+00  0.00000000000E+00  0.20000000000E+02  0.20000000000E+02  0.00000000000E+00 0. -1.
        -11   -1    0    0    0    0 -0.00000000000E+00 -0.00000000000E+00 -0.20000000000E+02  0.20000000000E+02  0.00000000000E+00 0.  1.
          5    1    1    2  501    0 -0.13162291549E+02 -0.14086714132E+02 -0.24957095470E+01  0.20000000000E+02  0.47000000000E+01 0. -1.
         -5    1    1    2    0  501  0.13162291549E+02  0.14086714132E+02  0.24957095470E+01  0.20000000000E+02  0.47000000000E+01 0.  1.
</event>
<event>
 4    1  0.5025809E-002  0.4000000E+02  0.7546771E-02  0.1348030E+00
         11   -1    0    0    0    0  0.00000000000E+00  0.00000000000E+00  0.20000000000E+02  0.20000000000E+02  0.00000000000E+00 0.  1.
        -11   -1    0    0    0    0 -0.00000000000E+00 -0.00000000000E+00 -0.20000000000E+02  0.20000000000E+02  0.00000000000E+00 0. -1.
          5    1    1    2  501    0 -0.40260549548E+01 -0.15629879516E+02 -0.10835485582E+02  0.20000000000E+02  0.47000000000E+01 0. -1.
         -5    1    1    2    0  501  0.40260549548E+01  0.15629879516E+02  0.10835485582E+02  0.20000000000E+02  0.47000000000E+01 0.  1.
</event>
<event>
 4    1  0.5025809E-002  0.4000000E+02  0.7546771E-02  0.1348030E+00
         11   -1    0    0    0    0  0.00000000000E+00  0.00000000000E+00  0.20000000000E+02  0.20000000000E+02  0.00000000000E+00 0. -1.
        -11   -1    0    0    0    0 -0.00000000000E+00 -0.00000000000E+00 -0.20000000000E+02  0.20000000000E+02  0.00000000000E+00 0.  1.
          5    1    1    2  501    0 -0.74342127580E+01  0.57450308913E+01 -0.17018727941E+02  0.20000000000E+02  0.47000000000E+01 0.  1.
         -5    1    1    2    0  501  0.74342127580E+01 -0.57450308913E+01  0.17018727941E+02  0.20000000000E+02  0.47000000000E+01 0. -1.
</event>
<event>
 4    1  0.5025809E-002  0.4000000E+02  0.7546771E-02  0.1348030E+00
         11   -1    0    0    0    0  0.00000000000E+00  0.00000000000E+00  0.20000000000E+02  0.20000000000E+02  0.00000000000E+00 0.  1.
        -11   -1    0    0    0    0 -0.00000000000E+00 -0.00000000000E+00 -0.20000000000E+02  0.20000000000E+02  0.00000000000E+00 0. -1.
          5    1    1    2  501    0 -0.14231971464E+02  0.11342778757E+02 -0.68339123739E+01  0.20000000000E+02  0.47000000000E+01 0. -1.
         -5    1    1    2    0  501  0.14231971464E+02 -0.11342778757E+02  0.68339123739E+01  0.20000000000E+02  0.47000000000E+01 0.  1.
</event>
<event>
 4    1  0.5025809E-002  0.4000000E+02  0.7546771E-02  0.1348030E+00
         11   -1    0    0    0    0  0.00000000000E+00  0.00000000000E+00  0.20000000000E+02  0.20000000000E+02  0.00000000000E+00 0.  1.
        -11   -1    0    0    0    0 -0.00000000000E+00 -0.00000000000E+00 -0.20000000000E+02  0.20000000000E+02  0.00000000000E+00 0. -1.
          5    1    1    2  501    0  0.18990967376E+02 -0.23869209002E+01  0.33993774075E+01  0.20000000000E+02  0.47000000000E+01 0.  1.
         -5    1    1    2    0  501 -0.18990967376E+02  0.23869209002E+01 -0.33993774075E+01  0.20000000000E+02  0.47000000000E+01 0. -1.
</event>
<event>
 4    1  0.5025809E-002  0.4000000E+02  0.7546771E-02  0.1348030E+00
         11   -1    0    0    0    0  0.00000000000E+00  0.00000000000E+00  0.20000000000E+02  0.20000000000E+02  0.00000000000E+00 0. -1.
        -11   -1    0    0    0    0 -0.00000000000E+00 -0.00000000000E+00 -0.20000000000E+02  0.20000000000E+02  0.00000000000E+00 0.  1.
          5    1    1    2  501    0  0.14449606511E+02  0.12226335997E+02 -0.44312052297E+01  0.20000000000E+02  0.47000000000E+01 0.  1.
         -5    1    1    2    0  501 -0.14449606511E+02 -0.12226335997E+02  0.44312052297E+01  0.20000000000E+02  0.47000000000E+01 0. -1.
</event>
<event>
 4    1  0.5025809E-002  0.4000000E+02  0.7546771E-02  0.1348030E+00
         11   -1    0    0    0    0  0.00000000000E+00  0.00000000000E+00  0.20000000000E+02  0.20000000000E+02  0.00000000000E+00 0. -1.
        -11   -1    0    0    0    0 -0.00000000000E+00 -0.00000000000E+00 -0.20000000000E+02  0.20000000000E+02  0.00000000000E+00 0.  1.
          5    1    1    2  501    0  0.18181005945E+02 -0.46467955510E+01  0.50762499867E+01  0.20000000000E+02  0.47000000000E+01 0.  1.
         -5    1    1    2    0  501 -0.18181005945E+02  0.46467955510E+01 -0.50762499867E+01  0.20000000000E+02  0.47000000000E+01 0. -1.
</event>
<event>
 4    1  0.5025809E-002  0.4000000E+02  0.7546771E-02  0.1348030E+00
         11   -1    0    0    0    0  0.00000000000E+00  0.00000000000E+00  0.20000000000E+02  0.20000000000E+02  0.00000000000E+00 0. -1.
        -11   -1    0    0    0    0 -0.00000000000E+00 -0.00000000000E+00 -0.20000000000E+02  0.20000000000E+02  0.00000000000E+00 0.  1.
          5    1    1    2  501    0  0.53510384513E+01 -0.18599670267E+02  0.18244597665E+01  0.20000000000E+02  0.47000000000E+01 0.  1.
         -5    1    1    2    0  501 -0.53510384513E+01  0.18599670267E+02 -0.18244597665E+01  0.20000000000E+02  0.47000000000E+01 0. -1.
</event>
<event>
 4    1  0.5025809E-002  0.4000000E+02  0.7546771E-02  0.1348030E+00
         11   -1    0    0    0    0  0.00000000000E+00  0.00000000000E+00  0.20000000000E+02  0.20000000000E+02  0.00000000000E+00 0. -1.
        -11   -1    0    0    0    0 -0.00000000000E+00 -0.00000000000E+00 -0.20000000000E+02  0.20000000000E+02  0.00000000000E+00 0.  1.
          5    1    1    2  501    0 -0.13927103168E+02  0.37559123580E+01 -0.13032226199E+02  0.20000000000E+02  0.47000000000E+01 0.  1.
         -5    1    1    2    0  501  0.13927103168E+02 -0.37559123580E+01  0.13032226199E+02  0.20000000000E+02  0.47000000000E+01 0. -1.
</event>
<event>
 4    1  0.5025809E-002  0.4000000E+02  0.7546771E-02  0.1348030E+00
         11   -1    0    0    0    0  0.00000000000E+00  0.00000000000E+00  0.20000000000E+02  0.20000000000E+02  0.00000000000E+00 0.  1.
        -11   -1    0    0    0    0 -0.00000000000E+00 -0.00000000000E+00 -0.20000000000E+02  0.20000000000E+02  0.00000000000E+00 0. -1.
          5    1    1    2  501    0  0.37007256234E+01  0.12841992236E+02 -0.14117289586E+02  0.20000000000E+02  0.47000000000E+01 0. -1.
         -5    1    1    2    0  501 -0.37007256234E+01 -0.12841992236E+02  0.14117289586E+02  0.20000000000E+02  0.47000000000E+01 0.  1.
</event>
<event>
 4    1  0.5025809E-002  0.4000000E+02  0.7546771E-02  0.1348030E+00
         11   -1    0    0    0    0  0.00000000000E+00  0.00000000000E+00  0.20000000000E+02  0.20000000000E+02  0.00000000000E+00 0. -1.
        -11   -1    0    0    0    0 -0.00000000000E+00 -0.00000000000E+00 -0.20000000000E+02  0.20000000000E+02  0.00000000000E+00 0.  1.
          5    1    1    2  501    0  0.94041606461E+01 -0.15818640997E+01 -0.16940173214E+02  0.20000000000E+02  0.47000000000E+01 0.  1.
         -5    1    1    2    0  501 -0.94041606461E+01  0.15818640997E+01  0.16940173214E+02  0.20000000000E+02  0.47000000000E+01 0. -1.
</event>
<event>
 4    1  0.5025809E-002  0.4000000E+02  0.7546771E-02  0.1348030E+00
         11   -1    0    0    0    0  0.00000000000E+00  0.00000000000E+00  0.20000000000E+02  0.20000000000E+02  0.00000000000E+00 0.  1.
        -11   -1    0    0    0    0 -0.00000000000E+00 -0.00000000000E+00 -0.20000000000E+02  0.20000000000E+02  0.00000000000E+00 0. -1.
          5    1    1    2  501    0 -0.82846982069E+01  0.17356058576E+02 -0.28356668229E+01  0.20000000000E+02  0.47000000000E+01 0. -1.
         -5    1    1    2    0  501  0.82846982069E+01 -0.17356058576E+02  0.28356668229E+01  0.20000000000E+02  0.47000000000E+01 0.  1.
</event>
<event>
 4    1  0.5025809E-002  0.4000000E+02  0.7546771E-02  0.1348030E+00
         11   -1    0    0    0    0  0.00000000000E+00  0.00000000000E+00  0.20000000000E+02  0.20000000000E+02  0.00000000000E+00 0.  1.
        -11   -1    0    0    0    0 -0.00000000000E+00 -0.00000000000E+00 -0.20000000000E+02  0.20000000000E+02  0.00000000000E+00 0. -1.
          5    1    1    2  501    0 -0.62822343448E+01  0.12750635065E+02 -0.13261404039E+02  0.20000000000E+02  0.47000000000E+01 0. -1.
         -5    1    1    2    0  501  0.62822343448E+01 -0.12750635065E+02  0.13261404039E+02  0.20000000000E+02  0.47000000000E+01 0.  1.
</event>
<event>
 4    1  0.5025809E-002  0.4000000E+02  0.7546771E-02  0.1348030E+00
         11   -1    0    0    0    0  0.00000000000E+00  0.00000000000E+00  0.20000000000E+02  0.20000000000E+02  0.00000000000E+00 0.  1.
        -11   -1    0    0    0    0 -0.00000000000E+00 -0.00000000000E+00 -0.20000000000E+02  0.20000000000E+02  0.00000000000E+00 0. -1.
          5    1    1    2  501    0  0.38633133470E+01 -0.11615999615E+02 -0.15101435790E+02  0.20000000000E+02  0.47000000000E+01 0. -1.
         -5    1    1    2    0  501 -0.38633133470E+01  0.11615999615E+02  0.15101435790E+02  0.20000000000E+02  0.47000000000E+01 0.  1.
</event>
<event>
 4    1  0.5025809E-002  0.4000000E+02  0.7546771E-02  0.1348030E+00
         11   -1    0    0    0    0  0.00000000000E+00  0.00000000000E+00  0.20000000000E+02  0.20000000000E+02  0.00000000000E+00 0.  1.
        -11   -1    0    0    0    0 -0.00000000000E+00 -0.00000000000E+00 -0.20000000000E+02  0.20000000000E+02  0.00000000000E+00 0. -1.
          5    1    1    2  501    0  0.19365222743E+02 -0.12625977879E+00  0.16977062744E+01  0.20000000000E+02  0.47000000000E+01 0.  1.
         -5    1    1    2    0  501 -0.19365222743E+02  0.12625977879E+00 -0.16977062744E+01  0.20000000000E+02  0.47000000000E+01 0. -1.
</event>
<event>
 4    1  0.5025809E-002  0.4000000E+02  0.7546771E-02  0.1348030E+00
         11   -1    0    0    0    0  0.00000000000E+00  0.00000000000E+00  0.20000000000E+02  0.20000000000E+02  0.00000000000E+00 0.  1.
        -11   -1    0    0    0    0 -0.00000000000E+00 -0.00000000000E+00 -0.20000000000E+02  0.20000000000E+02  0.00000000000E+00 0. -1.
          5    1    1    2  501    0 -0.16234536656E+02 -0.96707408995E+01  0.45636158938E+01  0.20000000000E+02  0.47000000000E+01 0.  1.
         -5    1    1    2    0  501  0.16234536656E+02  0.96707408995E+01 -0.45636158938E+01  0.20000000000E+02  0.47000000000E+01 0. -1.
</event>
<event>
 4    1  0.5025809E-002  0.4000000E+02  0.7546771E-02  0.1348030E+00
         11   -1    0    0    0    0  0.00000000000E+00  0.00000000000E+00  0.20000000000E+02  0.20000000000E+02  0.00000000000E+00 0.  1.
        -11   -1    0    0    0    0 -0.00000000000E+00 -0.00000000000E+00 -0.20000000000E+02  0.20000000000E+02  0.00000000000E+00 0. -1.
          5    1    1    2  501    0  0.14851155538E+02 -0.99467978858E+01  0.76429307857E+01  0.20000000000E+02  0.47000000000E+01 0. -1.
         -5    1    1    2    0  501 -0.14851155538E+02  0.99467978858E+01 -0.76429307857E+01  0.20000000000E+02  0.47000000000E+01 0.  1.
</event>
<event>
 4    1  0.5025809E-002  0.4000000E+02  0.7546771E-02  0.1348030E+00
         11   -1    0    0    0    0  0.00000000000E+00  0.00000000000E+00  0.20000000000E+02  0.20000000000E+02  0.00000000000E+00 0.  1.
        -11   -1    0    0    0    0 -0.00000000000E+00 -0.00000000000E+00 -0.20000000000E+02  0.20000000000E+02  0.00000000000E+00 0. -1.
          5    1    1    2  501    0 -0.14680647141E+02  0.77384969057E+01  0.10124439004E+02  0.20000000000E+02  0.47000000000E+01 0. -1.
         -5    1    1    2    0  501  0.14680647141E+02 -0.77384969057E+01 -0.10124439004E+02  0.20000000000E+02  0.47000000000E+01 0.  1.
</event>
<event>
 4    1  0.5025809E-002  0.4000000E+02  0.7546771E-02  0.1348030E+00
         11   -1    0    0    0    0  0.00000000000E+00  0.00000000000E+00  0.20000000000E+02  0.20000000000E+02  0.00000000000E+00 0.  1.
        -11   -1    0    0    0    0 -0.00000000000E+00 -0.00000000000E+00 -0.20000000000E+02  0.20000000000E+02  0.00000000000E+00 0. -1.
          5    1    1    2  501    0  0.17318056180E+02  0.72158486928E+01  0.50918029981E+01  0.20000000000E+02  0.47000000000E+01 0. -1.
         -5    1    1    2    0  501 -0.17318056180E+02 -0.72158486928E+01 -0.50918029981E+01  0.20000000000E+02  0.47000000000E+01 0.  1.
</event>
<event>
 4    1  0.5025809E-002  0.4000000E+02  0.7546771E-02  0.1348030E+00
         11   -1    0    0    0    0  0.00000000000E+00  0.00000000000E+00  0.20000000000E+02  0.20000000000E+02  0.00000000000E+00 0.  1.
        -11   -1    0    0    0    0 -0.00000000000E+00 -0.00000000000E+00 -0.20000000000E+02  0.20000000000E+02  0.00000000000E+00 0. -1.
          5    1    1    2  501    0  0.26578174421E+01 -0.20749722493E+01 -0.19145247363E+02  0.20000000000E+02  0.47000000000E+01 0. -1.
         -5    1    1    2    0  501 -0.26578174421E+01  0.20749722493E+01  0.19145247363E+02  0.20000000000E+02  0.47000000000E+01 0.  1.
</event>
<event>
 4    1  0.5025809E-002  0.4000000E+02  0.7546771E-02  0.1348030E+00
         11   -1    0    0    0    0  0.00000000000E+00  0.00000000000E+00  0.20000000000E+02  0.20000000000E+02  0.00000000000E+00 0. -1.
        -11   -1    0    0    0    0 -0.00000000000E+00 -0.00000000000E+00 -0.20000000000E+02  0.20000000000E+02  0.00000000000E+00 0.  1.
          5    1    1    2  501    0 -0.78818611193E+01 -0.19804383561E+01  0.17659675230E+02  0.20000000000E+02  0.47000000000E+01 0. -1.
         -5    1    1    2    0  501  0.78818611193E+01  0.19804383561E+01 -0.17659675230E+02  0.20000000000E+02  0.47000000000E+01 0.  1.
</event>
<event>
 4    1  0.5025809E-002  0.4000000E+02  0.7546771E-02  0.1348030E+00
         11   -1    0    0    0    0  0.00000000000E+00  0.00000000000E+00  0.20000000000E+02  0.20000000000E+02  0.00000000000E+00 0.  1.
        -11   -1    0    0    0    0 -0.00000000000E+00 -0.00000000000E+00 -0.20000000000E+02  0.20000000000E+02  0.00000000000E+00 0. -1.
          5    1    1    2  501    0 -0.18818909903E+02  0.60420906849E+00  0.48366891002E+01  0.20000000000E+02  0.47000000000E+01 0. -1.
         -5    1    1    2    0  501  0.18818909903E+02 -0.60420906849E+00 -0.48366891002E+01  0.20000000000E+02  0.47000000000E+01 0.  1.
</event>
<event>
 4    1  0.5025809E-002  0.4000000E+02  0.7546771E-02  0.1348030E+00
         11   -1    0    0    0    0  0.00000000000E+00  0.00000000000E+00  0.20000000000E+02  0.20000000000E+02  0.00000000000E+00 0.  1.
        -11   -1    0    0    0    0 -0.00000000000E+00 -0.00000000000E+00 -0.20000000000E+02  0.20000000000E+02  0.00000000000E+00 0. -1.
          5    1    1    2  501    0  0.23223816749E+01  0.18445820782E+02 -0.56805139772E+01  0.20000000000E+02  0.47000000000E+01 0. -1.
         -5    1    1    2    0  501 -0.23223816749E+01 -0.18445820782E+02  0.56805139772E+01  0.20000000000E+02  0.47000000000E+01 0.  1.
</event>
<event>
 4    1  0.5025809E-002  0.4000000E+02  0.7546771E-02  0.1348030E+00
         11   -1    0    0    0    0  0.00000000000E+00  0.00000000000E+00  0.20000000000E+02  0.20000000000E+02  0.00000000000E+00 0.  1.
        -11   -1    0    0    0    0 -0.00000000000E+00 -0.00000000000E+00 -0.20000000000E+02  0.20000000000E+02  0.00000000000E+00 0. -1.
          5    1    1    2  501    0 -0.11870783369E+02  0.15229333267E+02 -0.22498689892E+01  0.20000000000E+02  0.47000000000E+01 0.  1.
         -5    1    1    2    0  501  0.11870783369E+02 -0.15229333267E+02  0.22498689892E+01  0.20000000000E+02  0.47000000000E+01 0. -1.
</event>
<event>
 4    1  0.5025809E-002  0.4000000E+02  0.7546771E-02  0.1348030E+00
         11   -1    0    0    0    0  0.00000000000E+00  0.00000000000E+00  0.20000000000E+02  0.20000000000E+02  0.00000000000E+00 0. -1.
        -11   -1    0    0    0    0 -0.00000000000E+00 -0.00000000000E+00 -0.20000000000E+02  0.20000000000E+02  0.00000000000E+00 0.  1.
          5    1    1    2  501    0 -0.12216130925E+02 -0.20239601953E+00  0.15120687190E+02  0.20000000000E+02  0.47000000000E+01 0. -1.
         -5    1    1    2    0  501  0.12216130925E+02  0.20239601953E+00 -0.15120687190E+02  0.20000000000E+02  0.47000000000E+01 0.  1.
</event>
<event>
 4    1  0.5025809E-002  0.4000000E+02  0.7546771E-02  0.1348030E+00
         11   -1    0    0    0    0  0.00000000000E+00  0.00000000000E+00  0.20000000000E+02  0.20000000000E+02  0.00000000000E+00 0. -1.
        -11   -1    0    0    0    0 -0.00000000000E+00 -0.00000000000E+00 -0.20000000000E+02  0.20000000000E+02  0.00000000000E+00 0.  1.
          5    1    1    2  501    0 -0.13129920335E+02 -0.45258494917E+01 -0.13602642330E+02  0.20000000000E+02  0.47000000000E+01 0.  1.
         -5    1    1    2    0  501  0.13129920335E+02  0.45258494917E+01  0.13602642330E+02  0.20000000000E+02  0.47000000000E+01 0. -1.
</event>
<event>
 4    1  0.5025809E-002  0.4000000E+02  0.7546771E-02  0.1348030E+00
         11   -1    0    0    0    0  0.00000000000E+00  0.00000000000E+00  0.20000000000E+02  0.20000000000E+02  0.00000000000E+00 0.  1.
        -11   -1    0    0    0    0 -0.00000000000E+00 -0.00000000000E+00 -0.20000000000E+02  0.20000000000E+02  0.00000000000E+00 0. -1.
          5    1    1    2  501    0  0.17826403820E+02 -0.74336626562E+00 -0.77185965970E+01  0.20000000000E+02  0.47000000000E+01 0. -1.
         -5    1    1    2    0  501 -0.17826403820E+02  0.74336626562E+00  0.77185965970E+01  0.20000000000E+02  0.47000000000E+01 0.  1.
</event>
<event>
 4    1  0.5025809E-002  0.4000000E+02  0.7546771E-02  0.1348030E+00
         11   -1    0    0    0    0  0.00000000000E+00  0.00000000000E+00  0.20000000000E+02  0.20000000000E+02  0.00000000000E+00 0.  1.
        -11   -1    0    0    0    0 -0.00000000000E+00 -0.00000000000E+00 -0.20000000000E+02  0.20000000000E+02  0.00000000000E+00 0. -1.
          5    1    1    2  501    0 -0.18629839608E+01  0.21123505474E+00  0.19349280878E+02  0.20000000000E+02  0.47000000000E+01 0.  1.
         -5    1    1    2    0  501  0.18629839608E+01 -0.21123505474E+00 -0.19349280878E+02  0.20000000000E+02  0.47000000000E+01 0. -1.
</event>
<event>
 4    1  0.5025809E-002  0.4000000E+02  0.7546771E-02  0.1348030E+00
         11   -1    0    0    0    0  0.00000000000E+00  0.00000000000E+00  0.20000000000E+02  0.20000000000E+02  0.00000000000E+00 0.  1.
        -11   -1    0    0    0    0 -0.00000000000E+00 -0.00000000000E+00 -0.20000000000E+02  0.20000000000E+02  0.00000000000E+00 0. -1.
          5    1    1    2  501    0  0.79380524700E+01  0.12472583479E+02  0.12622677384E+02  0.20000000000E+02  0.47000000000E+01 0.  1.
         -5    1    1    2    0  501 -0.79380524700E+01 -0.12472583479E+02 -0.12622677384E+02  0.20000000000E+02  0.47000000000E+01 0. -1.
</event>
<event>
 4    1  0.5025809E-002  0.4000000E+02  0.7546771E-02  0.1348030E+00
         11   -1    0    0    0    0  0.00000000000E+00  0.00000000000E+00  0.20000000000E+02  0.20000000000E+02  0.00000000000E+00 0.  1.
        -11   -1    0    0    0    0 -0.00000000000E+00 -0.00000000000E+00 -0.20000000000E+02  0.20000000000E+02  0.00000000000E+00 0. -1.
          5    1    1    2  501    0 -0.13299154855E+02  0.12810472253E+02 -0.60773580433E+01  0.20000000000E+02  0.47000000000E+01 0. -1.
         -5    1    1    2    0  501  0.13299154855E+02 -0.12810472253E+02  0.60773580433E+01  0.20000000000E+02  0.47000000000E+01 0.  1.
</event>
<event>
 4    1  0.5025809E-002  0.4000000E+02  0.7546771E-02  0.1348030E+00
         11   -1    0    0    0    0  0.00000000000E+00  0.00000000000E+00  0.20000000000E+02  0.20000000000E+02  0.00000000000E+00 0.  1.
        -11   -1    0    0    0    0 -0.00000000000E+00 -0.00000000000E+00 -0.20000000000E+02  0.20000000000E+02  0.00000000000E+00 0. -1.
          5    1    1    2  501    0 -0.39671795508E+00  0.14931137362E+02 -0.12442417448E+02  0.20000000000E+02  0.47000000000E+01 0. -1.
         -5    1    1    2    0  501  0.39671795508E+00 -0.14931137362E+02  0.12442417448E+02  0.20000000000E+02  0.47000000000E+01 0.  1.
</event>
<event>
 4    1  0.5025809E-002  0.4000000E+02  0.7546771E-02  0.1348030E+00
         11   -1    0    0    0    0  0.00000000000E+00  0.00000000000E+00  0.20000000000E+02  0.20000000000E+02  0.00000000000E+00 0.  1.
        -11   -1    0    0    0    0 -0.00000000000E+00 -0.00000000000E+00 -0.20000000000E+02  0.20000000000E+02  0.00000000000E+00 0. -1.
          5    1    1    2  501    0  0.50628850577E+01  0.10676581821E+02 -0.15436573308E+02  0.20000000000E+02  0.47000000000E+01 0. -1.
         -5    1    1    2    0  501 -0.50628850577E+01 -0.10676581821E+02  0.15436573308E+02  0.20000000000E+02  0.47000000000E+01 0.  1.
</event>
<event>
 4    1  0.5025809E-002  0.4000000E+02  0.7546771E-02  0.1348030E+00
         11   -1    0    0    0    0  0.00000000000E+00  0.00000000000E+00  0.20000000000E+02  0.20000000000E+02  0.00000000000E+00 0. -1.
        -11   -1    0    0    0    0 -0.00000000000E+00 -0.00000000000E+00 -0.20000000000E+02  0.20000000000E+02  0.00000000000E+00 0.  1.
          5    1    1    2  501    0  0.99348832780E+01  0.71338447875E+01  0.15110140727E+02  0.20000000000E+02  0.47000000000E+01 0. -1.
         -5    1    1    2    0  501 -0.99348832780E+01 -0.71338447875E+01 -0.15110140727E+02  0.20000000000E+02  0.47000000000E+01 0.  1.
</event>
<event>
 4    1  0.5025809E-002  0.4000000E+02  0.7546771E-02  0.1348030E+00
         11   -1    0    0    0    0  0.00000000000E+00  0.00000000000E+00  0.20000000000E+02  0.20000000000E+02  0.00000000000E+00 0.  1.
        -11   -1    0    0    0    0 -0.00000000000E+00 -0.00000000000E+00 -0.20000000000E+02  0.20000000000E+02  0.00000000000E+00 0. -1.
          5    1    1    2  501    0 -0.16309155468E+01 -0.14443967148E+02 -0.12908211631E+02  0.20000000000E+02  0.47000000000E+01 0. -1.
         -5    1    1    2    0  501  0.16309155468E+01  0.14443967148E+02  0.12908211631E+02  0.20000000000E+02  0.47000000000E+01 0.  1.
</event>
<event>
 4    1  0.5025809E-002  0.4000000E+02  0.7546771E-02  0.1348030E+00
         11   -1    0    0    0    0  0.00000000000E+00  0.00000000000E+00  0.20000000000E+02  0.20000000000E+02  0.00000000000E+00 0.  1.
        -11   -1    0    0    0    0 -0.00000000000E+00 -0.00000000000E+00 -0.20000000000E+02  0.20000000000E+02  0.00000000000E+00 0. -1.
          5    1    1    2  501    0  0.10465316746E+00 -0.68016836343E+01  0.18210879920E+02  0.20000000000E+02  0.47000000000E+01 0. -1.
         -5    1    1    2    0  501 -0.10465316746E+00  0.68016836343E+01 -0.18210879920E+02  0.20000000000E+02  0.47000000000E+01 0. -1.
</event>
<event>
 4    1  0.5025809E-002  0.4000000E+02  0.7546771E-02  0.1348030E+00
         11   -1    0    0    0    0  0.00000000000E+00  0.00000000000E+00  0.20000000000E+02  0.20000000000E+02  0.00000000000E+00 0.  1.
        -11   -1    0    0    0    0 -0.00000000000E+00 -0.00000000000E+00 -0.20000000000E+02  0.20000000000E+02  0.00000000000E+00 0. -1.
          5    1    1    2  501    0 -0.87001999111E+01 -0.11670736144E+02 -0.12884503846E+02  0.20000000000E+02  0.47000000000E+01 0. -1.
         -5    1    1    2    0  501  0.87001999111E+01  0.11670736144E+02  0.12884503846E+02  0.20000000000E+02  0.47000000000E+01 0.  1.
</event>
<event>
 4    1  0.5025809E-002  0.4000000E+02  0.7546771E-02  0.1348030E+00
         11   -1    0    0    0    0  0.00000000000E+00  0.00000000000E+00  0.20000000000E+02  0.20000000000E+02  0.00000000000E+00 0.  1.
        -11   -1    0    0    0    0 -0.00000000000E+00 -0.00000000000E+00 -0.20000000000E+02  0.20000000000E+02  0.00000000000E+00 0. -1.
          5    1    1    2  501    0 -0.67973223992E+00 -0.92908912766E+01  0.17062453029E+02  0.20000000000E+02  0.47000000000E+01 0.  1.
         -5    1    1    2    0  501  0.67973223992E+00  0.92908912766E+01 -0.17062453029E+02  0.20000000000E+02  0.47000000000E+01 0. -1.
</event>
<event>
 4    1  0.5025809E-002  0.4000000E+02  0.7546771E-02  0.1348030E+00
         11   -1    0    0    0    0  0.00000000000E+00  0.00000000000E+00  0.20000000000E+02  0.20000000000E+02  0.00000000000E+00 0.  1.
        -11   -1    0    0    0    0 -0.00000000000E+00 -0.00000000000E+00 -0.20000000000E+02  0.20000000000E+02  0.00000000000E+00 0. -1.
          5    1    1    2  501    0 -0.18677824486E+02 -0.40943326906E+01 -0.35050409799E+01  0.20000000000E+02  0.47000000000E+01 0. -1.
         -5    1    1    2    0  501  0.18677824486E+02  0.40943326906E+01  0.35050409799E+01  0.20000000000E+02  0.47000000000E+01 0.  1.
</event>
<event>
 4    1  0.5025809E-002  0.4000000E+02  0.7546771E-02  0.1348030E+00
         11   -1    0    0    0    0  0.00000000000E+00  0.00000000000E+00  0.20000000000E+02  0.20000000000E+02  0.00000000000E+00 0.  1.
        -11   -1    0    0    0    0 -0.00000000000E+00 -0.00000000000E+00 -0.20000000000E+02  0.20000000000E+02  0.00000000000E+00 0. -1.
          5    1    1    2  501    0 -0.68017647692E+01 -0.42832513396E+01 -0.17700275534E+02  0.20000000000E+02  0.47000000000E+01 0. -1.
         -5    1    1    2    0  501  0.68017647692E+01  0.42832513396E+01  0.17700275534E+02  0.20000000000E+02  0.47000000000E+01 0.  1.
</event>
<event>
 4    1  0.5025809E-002  0.4000000E+02  0.7546771E-02  0.1348030E+00
         11   -1    0    0    0    0  0.00000000000E+00  0.00000000000E+00  0.20000000000E+02  0.20000000000E+02  0.00000000000E+00 0.  1.
        -11   -1    0    0    0    0 -0.00000000000E+00 -0.00000000000E+00 -0.20000000000E+02  0.20000000000E+02  0.00000000000E+00 0. -1.
          5    1    1    2  501    0 -0.88545591000E+01 -0.10314845963E+02 -0.13896428890E+02  0.20000000000E+02  0.47000000000E+01 0. -1.
         -5    1    1    2    0  501  0.88545591000E+01  0.10314845963E+02  0.13896428890E+02  0.20000000000E+02  0.47000000000E+01 0.  1.
</event>
<event>
 4    1  0.5025809E-002  0.4000000E+02  0.7546771E-02  0.1348030E+00
         11   -1    0    0    0    0  0.00000000000E+00  0.00000000000E+00  0.20000000000E+02  0.20000000000E+02  0.00000000000E+00 0.  1.
        -11   -1    0    0    0    0 -0.00000000000E+00 -0.00000000000E+00 -0.20000000000E+02  0.20000000000E+02  0.00000000000E+00 0. -1.
          5    1    1    2  501    0  0.78429801528E+01  0.40514875967E+01  0.17320020513E+02  0.20000000000E+02  0.47000000000E+01 0.  1.
         -5    1    1    2    0  501 -0.78429801528E+01 -0.40514875967E+01 -0.17320020513E+02  0.20000000000E+02  0.47000000000E+01 0. -1.
</event>
<event>
 4    1  0.5025809E-002  0.4000000E+02  0.7546771E-02  0.1348030E+00
         11   -1    0    0    0    0  0.00000000000E+00  0.00000000000E+00  0.20000000000E+02  0.20000000000E+02  0.00000000000E+00 0.  1.
        -11   -1    0    0    0    0 -0.00000000000E+00 -0.00000000000E+00 -0.20000000000E+02  0.20000000000E+02  0.00000000000E+00 0. -1.
          5    1    1    2  501    0 -0.79476293192E+01 -0.53685146290E+01 -0.16909294453E+02  0.20000000000E+02  0.47000000000E+01 0. -1.
         -5    1    1    2    0  501  0.79476293192E+01  0.53685146290E+01  0.16909294453E+02  0.20000000000E+02  0.47000000000E+01 0.  1.
</event>
<event>
 4    1  0.5025809E-002  0.4000000E+02  0.7546771E-02  0.1348030E+00
         11   -1    0    0    0    0  0.00000000000E+00  0.00000000000E+00  0.20000000000E+02  0.20000000000E+02  0.00000000000E+00 0.  1.
        -11   -1    0    0    0    0 -0.00000000000E+00 -0.00000000000E+00 -0.20000000000E+02  0.20000000000E+02  0.00000000000E+00 0. -1.
          5    1    1    2  501    0 -0.25629018990E+01  0.16942396357E+02  0.91813255879E+01  0.20000000000E+02  0.47000000000E+01 0. -1.
         -5    1    1    2    0  501  0.25629018990E+01 -0.16942396357E+02 -0.91813255879E+01  0.20000000000E+02  0.47000000000E+01 0.  1.
</event>
<event>
 4    1  0.5025809E-002  0.4000000E+02  0.7546771E-02  0.1348030E+00
         11   -1    0    0    0    0  0.00000000000E+00  0.00000000000E+00  0.20000000000E+02  0.20000000000E+02  0.00000000000E+00 0.  1.
        -11   -1    0    0    0    0 -0.00000000000E+00 -0.00000000000E+00 -0.20000000000E+02  0.20000000000E+02  0.00000000000E+00 0. -1.
          5    1    1    2  501    0  0.15474328593E+02  0.74541663455E+01 -0.91044252251E+01  0.20000000000E+02  0.47000000000E+01 0. -1.
         -5    1    1    2    0  501 -0.15474328593E+02 -0.74541663455E+01  0.91044252251E+01  0.20000000000E+02  0.47000000000E+01 0.  1.
</event>
<event>
 4    1  0.5025809E-002  0.4000000E+02  0.7546771E-02  0.1348030E+00
         11   -1    0    0    0    0  0.00000000000E+00  0.00000000000E+00  0.20000000000E+02  0.20000000000E+02  0.00000000000E+00 0.  1.
        -11   -1    0    0    0    0 -0.00000000000E+00 -0.00000000000E+00 -0.20000000000E+02  0.20000000000E+02  0.00000000000E+00 0. -1.
          5    1    1    2  501    0 -0.10714552333E+02  0.88713033521E+01 -0.13579703426E+02  0.20000000000E+02  0.47000000000E+01 0. -1.
         -5    1    1    2    0  501  0.10714552333E+02 -0.88713033521E+01  0.13579703426E+02  0.20000000000E+02  0.47000000000E+01 0.  1.
</event>
<event>
 4    1  0.5025809E-002  0.4000000E+02  0.7546771E-02  0.1348030E+00
         11   -1    0    0    0    0  0.00000000000E+00  0.00000000000E+00  0.20000000000E+02  0.20000000000E+02  0.00000000000E+00 0. -1.
        -11   -1    0    0    0    0 -0.00000000000E+00 -0.00000000000E+00 -0.20000000000E+02  0.20000000000E+02  0.00000000000E+00 0.  1.
          5    1    1    2  501    0 -0.11756828158E+02  0.38014473364E+01 -0.15007864265E+02  0.20000000000E+02  0.47000000000E+01 0.  1.
         -5    1    1    2    0  501  0.11756828158E+02 -0.38014473364E+01  0.15007864265E+02  0.20000000000E+02  0.47000000000E+01 0. -1.
</event>
<event>
 4    1  0.5025809E-002  0.4000000E+02  0.7546771E-02  0.1348030E+00
         11   -1    0    0    0    0  0.00000000000E+00  0.00000000000E+00  0.20000000000E+02  0.20000000000E+02  0.00000000000E+00 0.  1.
        -11   -1    0    0    0    0 -0.00000000000E+00 -0.00000000000E+00 -0.20000000000E+02  0.20000000000E+02  0.00000000000E+00 0. -1.
          5    1    1    2  501    0  0.14467338356E+02 -0.10282203732E+02 -0.79298428293E+01  0.20000000000E+02  0.47000000000E+01 0. -1.
         -5    1    1    2    0  501 -0.14467338356E+02  0.10282203732E+02  0.79298428293E+01  0.20000000000E+02  0.47000000000E+01 0. -1.
</event>
<event>
 4    1  0.5025809E-002  0.4000000E+02  0.7546771E-02  0.1348030E+00
         11   -1    0    0    0    0  0.00000000000E+00  0.00000000000E+00  0.20000000000E+02  0.20000000000E+02  0.00000000000E+00 0.  1.
        -11   -1    0    0    0    0 -0.00000000000E+00 -0.00000000000E+00 -0.20000000000E+02  0.20000000000E+02  0.00000000000E+00 0. -1.
          5    1    1    2  501    0  0.96059334775E+01  0.80395624588E+01  0.14866118441E+02  0.20000000000E+02  0.47000000000E+01 0.  1.
         -5    1    1    2    0  501 -0.96059334775E+01 -0.80395624588E+01 -0.14866118441E+02  0.20000000000E+02  0.47000000000E+01 0. -1.
</event>
<event>
 4    1  0.5025809E-002  0.4000000E+02  0.7546771E-02  0.1348030E+00
         11   -1    0    0    0    0  0.00000000000E+00  0.00000000000E+00  0.20000000000E+02  0.20000000000E+02  0.00000000000E+00 0. -1.
        -11   -1    0    0    0    0 -0.00000000000E+00 -0.00000000000E+00 -0.20000000000E+02  0.20000000000E+02  0.00000000000E+00 0.  1.
          5    1    1    2  501    0 -0.92051820936E+01 -0.23175074656E+01 -0.16964780628E+02  0.20000000000E+02  0.47000000000E+01 0.  1.
         -5    1    1    2    0  501  0.92051820936E+01  0.23175074656E+01  0.16964780628E+02  0.20000000000E+02  0.47000000000E+01 0. -1.
</event>
<event>
 4    1  0.5025809E-002  0.4000000E+02  0.7546771E-02  0.1348030E+00
         11   -1    0    0    0    0  0.00000000000E+00  0.00000000000E+00  0.20000000000E+02  0.20000000000E+02  0.00000000000E+00 0.  1.
        -11   -1    0    0    0    0 -0.00000000000E+00 -0.00000000000E+00 -0.20000000000E+02  0.20000000000E+02  0.00000000000E+00 0. -1.
          5    1    1    2  501    0  0.42653048395E+00  0.17377212086E+02  0.87040549094E+01  0.20000000000E+02  0.47000000000E+01 0.  1.
         -5    1    1    2    0  501 -0.42653048395E+00 -0.17377212086E+02 -0.87040549094E+01  0.20000000000E+02  0.47000000000E+01 0. -1.
</event>
<event>
 4    1  0.5025809E-002  0.4000000E+02  0.7546771E-02  0.1348030E+00
         11   -1    0    0    0    0  0.00000000000E+00  0.00000000000E+00  0.20000000000E+02  0.20000000000E+02  0.00000000000E+00 0.  1.
        -11   -1    0    0    0    0 -0.00000000000E+00 -0.00000000000E+00 -0.20000000000E+02  0.20000000000E+02  0.00000000000E+00 0. -1.
          5    1    1    2  501    0  0.31647903286E+00 -0.18766239140E+02 -0.50634088884E+01  0.20000000000E+02  0.47000000000E+01 0. -1.
         -5    1    1    2    0  501 -0.31647903286E+00  0.18766239140E+02  0.50634088884E+01  0.20000000000E+02  0.47000000000E+01 0.  1.
</event>
<event>
 4    1  0.5025809E-002  0.4000000E+02  0.7546771E-02  0.1348030E+00
         11   -1    0    0    0    0  0.00000000000E+00  0.00000000000E+00  0.20000000000E+02  0.20000000000E+02  0.00000000000E+00 0. -1.
        -11   -1    0    0    0    0 -0.00000000000E+00 -0.00000000000E+00 -0.20000000000E+02  0.20000000000E+02  0.00000000000E+00 0.  1.
          5    1    1    2  501    0  0.73916985575E+01 -0.14905209783E+02 -0.10055223208E+02  0.20000000000E+02  0.47000000000E+01 0.  1.
         -5    1    1    2    0  501 -0.73916985575E+01  0.14905209783E+02  0.10055223208E+02  0.20000000000E+02  0.47000000000E+01 0. -1.
</event>
<event>
 4    1  0.5025809E-002  0.4000000E+02  0.7546771E-02  0.1348030E+00
         11   -1    0    0    0    0  0.00000000000E+00  0.00000000000E+00  0.20000000000E+02  0.20000000000E+02  0.00000000000E+00 0. -1.
        -11   -1    0    0    0    0 -0.00000000000E+00 -0.00000000000E+00 -0.20000000000E+02  0.20000000000E+02  0.00000000000E+00 0.  1.
          5    1    1    2  501    0 -0.86978133875E+01 -0.17286670681E+02 -0.18517718665E+01  0.20000000000E+02  0.47000000000E+01 0.  1.
         -5    1    1    2    0  501  0.86978133875E+01  0.17286670681E+02  0.18517718665E+01  0.20000000000E+02  0.47000000000E+01 0. -1.
</event>
<event>
 4    1  0.5025809E-002  0.4000000E+02  0.7546771E-02  0.1348030E+00
         11   -1    0    0    0    0  0.00000000000E+00  0.00000000000E+00  0.20000000000E+02  0.20000000000E+02  0.00000000000E+00 0. -1.
        -11   -1    0    0    0    0 -0.00000000000E+00 -0.00000000000E+00 -0.20000000000E+02  0.20000000000E+02  0.00000000000E+00 0.  1.
          5    1    1    2  501    0  0.37328151824E+01  0.14147226351E+02 -0.12799690519E+02  0.20000000000E+02  0.47000000000E+01 0.  1.
         -5    1    1    2    0  501 -0.37328151824E+01 -0.14147226351E+02  0.12799690519E+02  0.20000000000E+02  0.47000000000E+01 0. -1.
</event>
<event>
 4    1  0.5025809E-002  0.4000000E+02  0.7546771E-02  0.1348030E+00
         11   -1    0    0    0    0  0.00000000000E+00  0.00000000000E+00  0.20000000000E+02  0.20000000000E+02  0.00000000000E+00 0.  1.
        -11   -1    0    0    0    0 -0.00000000000E+00 -0.00000000000E+00 -0.20000000000E+02  0.20000000000E+02  0.00000000000E+00 0. -1.
          5    1    1    2  501    0 -0.15086968576E+02 -0.39462003954E+01 -0.11606932481E+02  0.20000000000E+02  0.47000000000E+01 0. -1.
         -5    1    1    2    0  501  0.15086968576E+02  0.39462003954E+01  0.11606932481E+02  0.20000000000E+02  0.47000000000E+01 0.  1.
</event>
<event>
 4    1  0.5025809E-002  0.4000000E+02  0.7546771E-02  0.1348030E+00
         11   -1    0    0    0    0  0.00000000000E+00  0.00000000000E+00  0.20000000000E+02  0.20000000000E+02  0.00000000000E+00 0.  1.
        -11   -1    0    0    0    0 -0.00000000000E+00 -0.00000000000E+00 -0.20000000000E+02  0.20000000000E+02  0.00000000000E+00 0. -1.
          5    1    1    2  501    0  0.63415397000E+01 -0.14584063807E+02 -0.11180337969E+02  0.20000000000E+02  0.47000000000E+01 0. -1.
         -5    1    1    2    0  501 -0.63415397000E+01  0.14584063807E+02  0.11180337969E+02  0.20000000000E+02  0.47000000000E+01 0.  1.
</event>
<event>
 4    1  0.5025809E-002  0.4000000E+02  0.7546771E-02  0.1348030E+00
         11   -1    0    0    0    0  0.00000000000E+00  0.00000000000E+00  0.20000000000E+02  0.20000000000E+02  0.00000000000E+00 0.  1.
        -11   -1    0    0    0    0 -0.00000000000E+00 -0.00000000000E+00 -0.20000000000E+02  0.20000000000E+02  0.00000000000E+00 0. -1.
          5    1    1    2  501    0 -0.16808653358E+02 -0.65901703721E+01  0.72075534520E+01  0.20000000000E+02  0.47000000000E+01 0. -1.
         -5    1    1    2    0  501  0.16808653358E+02  0.65901703721E+01 -0.72075534520E+01  0.20000000000E+02  0.47000000000E+01 0.  1.
</event>
<event>
 4    1  0.5025809E-002  0.4000000E+02  0.7546771E-02  0.1348030E+00
         11   -1    0    0    0    0  0.00000000000E+00  0.00000000000E+00  0.20000000000E+02  0.20000000000E+02  0.00000000000E+00 0. -1.
        -11   -1    0    0    0    0 -0.00000000000E+00 -0.00000000000E+00 -0.20000000000E+02  0.20000000000E+02  0.00000000000E+00 0.  1.
          5    1    1    2  501    0  0.12891883551E+01 -0.12889004644E+02 -0.14495570105E+02  0.20000000000E+02  0.47000000000E+01 0.  1.
         -5    1    1    2    0  501 -0.12891883551E+01  0.12889004644E+02  0.14495570105E+02  0.20000000000E+02  0.47000000000E+01 0. -1.
</event>
<event>
 4    1  0.5025809E-002  0.4000000E+02  0.7546771E-02  0.1348030E+00
         11   -1    0    0    0    0  0.00000000000E+00  0.00000000000E+00  0.20000000000E+02  0.20000000000E+02  0.00000000000E+00 0.  1.
        -11   -1    0    0    0    0 -0.00000000000E+00 -0.00000000000E+00 -0.20000000000E+02  0.20000000000E+02  0.00000000000E+00 0. -1.
          5    1    1    2  501    0 -0.11848868780E+02 -0.36176982064E+01  0.14980873417E+02  0.20000000000E+02  0.47000000000E+01 0.  1.
         -5    1    1    2    0  501  0.11848868780E+02  0.36176982064E+01 -0.14980873417E+02  0.20000000000E+02  0.47000000000E+01 0. -1.
</event>
<event>
 4    1  0.5025809E-002  0.4000000E+02  0.7546771E-02  0.1348030E+00
         11   -1    0    0    0    0  0.00000000000E+00  0.00000000000E+00  0.20000000000E+02  0.20000000000E+02  0.00000000000E+00 0.  1.
        -11   -1    0    0    0    0 -0.00000000000E+00 -0.00000000000E+00 -0.20000000000E+02  0.20000000000E+02  0.00000000000E+00 0. -1.
          5    1    1    2  501    0 -0.99670533624E+01 -0.15550309746E+02 -0.60626490961E+01  0.20000000000E+02  0.47000000000E+01 0. -1.
         -5    1    1    2    0  501  0.99670533624E+01  0.15550309746E+02  0.60626490961E+01  0.20000000000E+02  0.47000000000E+01 0.  1.
</event>
<event>
 4    1  0.5025809E-002  0.4000000E+02  0.7546771E-02  0.1348030E+00
         11   -1    0    0    0    0  0.00000000000E+00  0.00000000000E+00  0.20000000000E+02  0.20000000000E+02  0.00000000000E+00 0. -1.
        -11   -1    0    0    0    0 -0.00000000000E+00 -0.00000000000E+00 -0.20000000000E+02  0.20000000000E+02  0.00000000000E+00 0.  1.
          5    1    1    2  501    0 -0.53929531331E+01  0.28144000994E+01 -0.18463618513E+02  0.20000000000E+02  0.47000000000E+01 0.  1.
         -5    1    1    2    0  501  0.53929531331E+01 -0.28144000994E+01  0.18463618513E+02  0.20000000000E+02  0.47000000000E+01 0. -1.
</event>
<event>
 4    1  0.5025809E-002  0.4000000E+02  0.7546771E-02  0.1348030E+00
         11   -1    0    0    0    0  0.00000000000E+00  0.00000000000E+00  0.20000000000E+02  0.20000000000E+02  0.00000000000E+00 0.  1.
        -11   -1    0    0    0    0 -0.00000000000E+00 -0.00000000000E+00 -0.20000000000E+02  0.20000000000E+02  0.00000000000E+00 0. -1.
          5    1    1    2  501    0  0.91354337392E+01  0.16792061751E+02 -0.35327768904E+01  0.20000000000E+02  0.47000000000E+01 0.  1.
         -5    1    1    2    0  501 -0.91354337392E+01 -0.16792061751E+02  0.35327768904E+01  0.20000000000E+02  0.47000000000E+01 0. -1.
</event>
<event>
 4    1  0.5025809E-002  0.4000000E+02  0.7546771E-02  0.1348030E+00
         11   -1    0    0    0    0  0.00000000000E+00  0.00000000000E+00  0.20000000000E+02  0.20000000000E+02  0.00000000000E+00 0.  1.
        -11   -1    0    0    0    0 -0.00000000000E+00 -0.00000000000E+00 -0.20000000000E+02  0.20000000000E+02  0.00000000000E+00 0. -1.
          5    1    1    2  501    0  0.81169285693E+01  0.13843747463E+02 -0.10971605479E+02  0.20000000000E+02  0.47000000000E+01 0. -1.
         -5    1    1    2    0  501 -0.81169285693E+01 -0.13843747463E+02  0.10971605479E+02  0.20000000000E+02  0.47000000000E+01 0.  1.
</event>
<event>
 4    1  0.5025809E-002  0.4000000E+02  0.7546771E-02  0.1348030E+00
         11   -1    0    0    0    0  0.00000000000E+00  0.00000000000E+00  0.20000000000E+02  0.20000000000E+02  0.00000000000E+00 0.  1.
        -11   -1    0    0    0    0 -0.00000000000E+00 -0.00000000000E+00 -0.20000000000E+02  0.20000000000E+02  0.00000000000E+00 0. -1.
          5    1    1    2  501    0  0.60405114158E+01 -0.55928698090E+01  0.17610849756E+02  0.20000000000E+02  0.47000000000E+01 0.  1.
         -5    1    1    2    0  501 -0.60405114158E+01  0.55928698090E+01 -0.17610849756E+02  0.20000000000E+02  0.47000000000E+01 0. -1.
</event>
<event>
 4    1  0.5025809E-002  0.4000000E+02  0.7546771E-02  0.1348030E+00
         11   -1    0    0    0    0  0.00000000000E+00  0.00000000000E+00  0.20000000000E+02  0.20000000000E+02  0.00000000000E+00 0. -1.
        -11   -1    0    0    0    0 -0.00000000000E+00 -0.00000000000E+00 -0.20000000000E+02  0.20000000000E+02  0.00000000000E+00 0.  1.
          5    1    1    2  501    0  0.63198801668E+01 -0.61860348427E+01 -0.17311905949E+02  0.20000000000E+02  0.47000000000E+01 0.  1.
         -5    1    1    2    0  501 -0.63198801668E+01  0.61860348427E+01  0.17311905949E+02  0.20000000000E+02  0.47000000000E+01 0. -1.
</event>
<event>
 4    1  0.5025809E-002  0.4000000E+02  0.7546771E-02  0.1348030E+00
         11   -1    0    0    0    0  0.00000000000E+00  0.00000000000E+00  0.20000000000E+02  0.20000000000E+02  0.00000000000E+00 0. -1.
        -11   -1    0    0    0    0 -0.00000000000E+00 -0.00000000000E+00 -0.20000000000E+02  0.20000000000E+02  0.00000000000E+00 0.  1.
          5    1    1    2  501    0 -0.17774196291E+02  0.99127158198E+00 -0.78105906857E+01  0.20000000000E+02  0.47000000000E+01 0.  1.
         -5    1    1    2    0  501  0.17774196291E+02 -0.99127158198E+00  0.78105906857E+01  0.20000000000E+02  0.47000000000E+01 0. -1.
</event>
<event>
 4    1  0.5025809E-002  0.4000000E+02  0.7546771E-02  0.1348030E+00
         11   -1    0    0    0    0  0.00000000000E+00  0.00000000000E+00  0.20000000000E+02  0.20000000000E+02  0.00000000000E+00 0. -1.
        -11   -1    0    0    0    0 -0.00000000000E+00 -0.00000000000E+00 -0.20000000000E+02  0.20000000000E+02  0.00000000000E+00 0.  1.
          5    1    1    2  501    0 -0.12376630603E+02  0.14720799565E+02 -0.28332093260E+01  0.20000000000E+02  0.47000000000E+01 0.  1.
         -5    1    1    2    0  501  0.12376630603E+02 -0.14720799565E+02  0.28332093260E+01  0.20000000000E+02  0.47000000000E+01 0. -1.
</event>
<event>
 4    1  0.5025809E-002  0.4000000E+02  0.7546771E-02  0.1348030E+00
         11   -1    0    0    0    0  0.00000000000E+00  0.00000000000E+00  0.20000000000E+02  0.20000000000E+02  0.00000000000E+00 0.  1.
        -11   -1    0    0    0    0 -0.00000000000E+00 -0.00000000000E+00 -0.20000000000E+02  0.20000000000E+02  0.00000000000E+00 0. -1.
          5    1    1    2  501    0 -0.14904790619E+02  0.11199937489E+02  0.55062343623E+01  0.20000000000E+02  0.47000000000E+01 0.  1.
         -5    1    1    2    0  501  0.14904790619E+02 -0.11199937489E+02 -0.55062343623E+01  0.20000000000E+02  0.47000000000E+01 0. -1.
</event>
<event>
 4    1  0.5025809E-002  0.4000000E+02  0.7546771E-02  0.1348030E+00
         11   -1    0    0    0    0  0.00000000000E+00  0.00000000000E+00  0.20000000000E+02  0.20000000000E+02  0.00000000000E+00 0.  1.
        -11   -1    0    0    0    0 -0.00000000000E+00 -0.00000000000E+00 -0.20000000000E+02  0.20000000000E+02  0.00000000000E+00 0. -1.
          5    1    1    2  501    0  0.19305140273E+02 -0.12309493870E+01 -0.19251811978E+01  0.20000000000E+02  0.47000000000E+01 0. -1.
         -5    1    1    2    0  501 -0.19305140273E+02  0.12309493870E+01  0.19251811978E+01  0.20000000000E+02  0.47000000000E+01 0.  1.
</event>
<event>
 4    1  0.5025809E-002  0.4000000E+02  0.7546771E-02  0.1348030E+00
         11   -1    0    0    0    0  0.00000000000E+00  0.00000000000E+00  0.20000000000E+02  0.20000000000E+02  0.00000000000E+00 0.  1.
        -11   -1    0    0    0    0 -0.00000000000E+00 -0.00000000000E+00 -0.20000000000E+02  0.20000000000E+02  0.00000000000E+00 0. -1.
          5    1    1    2  501    0 -0.15305605532E+02 -0.12077310242E+01 -0.11924337511E+02  0.20000000000E+02  0.47000000000E+01 0. -1.
         -5    1    1    2    0  501  0.15305605532E+02  0.12077310242E+01  0.11924337511E+02  0.20000000000E+02  0.47000000000E+01 0.  1.
</event>
<event>
 4    1  0.5025809E-002  0.4000000E+02  0.7546771E-02  0.1348030E+00
         11   -1    0    0    0    0  0.00000000000E+00  0.00000000000E+00  0.20000000000E+02  0.20000000000E+02  0.00000000000E+00 0. -1.
        -11   -1    0    0    0    0 -0.00000000000E+00 -0.00000000000E+00 -0.20000000000E+02  0.20000000000E+02  0.00000000000E+00 0.  1.
          5    1    1    2  501    0 -0.15094122236E+02  0.10044890012E+02 -0.70126784167E+01  0.20000000000E+02  0.47000000000E+01 0.  1.
         -5    1    1    2    0  501  0.15094122236E+02 -0.10044890012E+02  0.70126784167E+01  0.20000000000E+02  0.47000000000E+01 0. -1.
</event>
<event>
 4    1  0.5025809E-002  0.4000000E+02  0.7546771E-02  0.1348030E+00
         11   -1    0    0    0    0  0.00000000000E+00  0.00000000000E+00  0.20000000000E+02  0.20000000000E+02  0.00000000000E+00 0.  1.
        -11   -1    0    0    0    0 -0.00000000000E+00 -0.00000000000E+00 -0.20000000000E+02  0.20000000000E+02  0.00000000000E+00 0. -1.
          5    1    1    2  501    0 -0.64134877737E+01  0.16945651309E+02  0.70442938811E+01  0.20000000000E+02  0.47000000000E+01 0.  1.
         -5    1    1    2    0  501  0.64134877737E+01 -0.16945651309E+02 -0.70442938811E+01  0.20000000000E+02  0.47000000000E+01 0. -1.
</event>
<event>
 4    1  0.5025809E-002  0.4000000E+02  0.7546771E-02  0.1348030E+00
         11   -1    0    0    0    0  0.00000000000E+00  0.00000000000E+00  0.20000000000E+02  0.20000000000E+02  0.00000000000E+00 0.  1.
        -11   -1    0    0    0    0 -0.00000000000E+00 -0.00000000000E+00 -0.20000000000E+02  0.20000000000E+02  0.00000000000E+00 0. -1.
          5    1    1    2  501    0 -0.72271987597E+01  0.15746614189E+02 -0.88159934019E+01  0.20000000000E+02  0.47000000000E+01 0. -1.
         -5    1    1    2    0  501  0.72271987597E+01 -0.15746614189E+02  0.88159934019E+01  0.20000000000E+02  0.47000000000E+01 0.  1.
</event>
<event>
 4    1  0.5025809E-002  0.4000000E+02  0.7546771E-02  0.1348030E+00
         11   -1    0    0    0    0  0.00000000000E+00  0.00000000000E+00  0.20000000000E+02  0.20000000000E+02  0.00000000000E+00 0.  1.
        -11   -1    0    0    0    0 -0.00000000000E+00 -0.00000000000E+00 -0.20000000000E+02  0.20000000000E+02  0.00000000000E+00 0. -1.
          5    1    1    2  501    0 -0.88474131447E+01  0.73024090955E+01 -0.15694206003E+02  0.20000000000E+02  0.47000000000E+01 0. -1.
         -5    1    1    2    0  501  0.88474131447E+01 -0.73024090955E+01  0.15694206003E+02  0.20000000000E+02  0.47000000000E+01 0.  1.
</event>
<event>
 4    1  0.5025809E-002  0.4000000E+02  0.7546771E-02  0.1348030E+00
         11   -1    0    0    0    0  0.00000000000E+00  0.00000000000E+00  0.20000000000E+02  0.20000000000E+02  0.00000000000E+00 0.  1.
        -11   -1    0    0    0    0 -0.00000000000E+00 -0.00000000000E+00 -0.20000000000E+02  0.20000000000E+02  0.00000000000E+00 0. -1.
          5    1    1    2  501    0 -0.26513234178E+01 -0.41106340788E+01  0.18814440507E+02  0.20000000000E+02  0.47000000000E+01 0.  1.
         -5    1    1    2    0  501  0.26513234178E+01  0.41106340788E+01 -0.18814440507E+02  0.20000000000E+02  0.47000000000E+01 0. -1.
</event>
<event>
 4    1  0.5025809E-002  0.4000000E+02  0.7546771E-02  0.1348030E+00
         11   -1    0    0    0    0  0.00000000000E+00  0.00000000000E+00  0.20000000000E+02  0.20000000000E+02  0.00000000000E+00 0.  1.
        -11   -1    0    0    0    0 -0.00000000000E+00 -0.00000000000E+00 -0.20000000000E+02  0.20000000000E+02  0.00000000000E+00 0. -1.
          5    1    1    2  501    0  0.13022986643E+02  0.14213538069E+02 -0.25074198784E+01  0.20000000000E+02  0.47000000000E+01 0. -1.
         -5    1    1    2    0  501 -0.13022986643E+02 -0.14213538069E+02  0.25074198784E+01  0.20000000000E+02  0.47000000000E+01 0.  1.
</event>
<event>
 4    1  0.5025809E-002  0.4000000E+02  0.7546771E-02  0.1348030E+00
         11   -1    0    0    0    0  0.00000000000E+00  0.00000000000E+00  0.20000000000E+02  0.20000000000E+02  0.00000000000E+00 0.  1.
        -11   -1    0    0    0    0 -0.00000000000E+00 -0.00000000000E+00 -0.20000000000E+02  0.20000000000E+02  0.00000000000E+00 0. -1.
          5    1    1    2  501    0 -0.82796153762E+01 -0.17511422636E+02  0.16456143230E+01  0.20000000000E+02  0.47000000000E+01 0. -1.
         -5    1    1    2    0  501  0.82796153762E+01  0.17511422636E+02 -0.16456143230E+01  0.20000000000E+02  0.47000000000E+01 0.  1.
</event>
<event>
 4    1  0.5025809E-002  0.4000000E+02  0.7546771E-02  0.1348030E+00
         11   -1    0    0    0    0  0.00000000000E+00  0.00000000000E+00  0.20000000000E+02  0.20000000000E+02  0.00000000000E+00 0.  1.
        -11   -1    0    0    0    0 -0.00000000000E+00 -0.00000000000E+00 -0.20000000000E+02  0.20000000000E+02  0.00000000000E+00 0. -1.
          5    1    1    2  501    0 -0.25709150775E+01 -0.85821136121E+01  0.17252470015E+02  0.20000000000E+02  0.47000000000E+01 0.  1.
         -5    1    1    2    0  501  0.25709150775E+01  0.85821136121E+01 -0.17252470015E+02  0.20000000000E+02  0.47000000000E+01 0. -1.
</event>
<event>
 4    1  0.5025809E-002  0.4000000E+02  0.7546771E-02  0.1348030E+00
         11   -1    0    0    0    0  0.00000000000E+00  0.00000000000E+00  0.20000000000E+02  0.20000000000E+02  0.00000000000E+00 0.  1.
        -11   -1    0    0    0    0 -0.00000000000E+00 -0.00000000000E+00 -0.20000000000E+02  0.20000000000E+02  0.00000000000E+00 0. -1.
          5    1    1    2  501    0  0.63529448314E+01 -0.12804006033E+02 -0.13176020700E+02  0.20000000000E+02  0.47000000000E+01 0. -1.
         -5    1    1    2    0  501 -0.63529448314E+01  0.12804006033E+02  0.13176020700E+02  0.20000000000E+02  0.47000000000E+01 0.  1.
</event>
<event>
 4    1  0.5025809E-002  0.4000000E+02  0.7546771E-02  0.1348030E+00
         11   -1    0    0    0    0  0.00000000000E+00  0.00000000000E+00  0.20000000000E+02  0.20000000000E+02  0.00000000000E+00 0.  1.
        -11   -1    0    0    0    0 -0.00000000000E+00 -0.00000000000E+00 -0.20000000000E+02  0.20000000000E+02  0.00000000000E+00 0. -1.
          5    1    1    2  501    0 -0.67397945835E+01  0.29125927974E+01  0.18000054782E+02  0.20000000000E+02  0.47000000000E+01 0.  1.
         -5    1    1    2    0  501  0.67397945835E+01 -0.29125927974E+01 -0.18000054782E+02  0.20000000000E+02  0.47000000000E+01 0. -1.
</event>
<event>
 4    1  0.5025809E-002  0.4000000E+02  0.7546771E-02  0.1348030E+00
         11   -1    0    0    0    0  0.00000000000E+00  0.00000000000E+00  0.20000000000E+02  0.20000000000E+02  0.00000000000E+00 0.  1.
        -11   -1    0    0    0    0 -0.00000000000E+00 -0.00000000000E+00 -0.20000000000E+02  0.20000000000E+02  0.00000000000E+00 0. -1.
          5    1    1    2  501    0  0.91104351415E+01  0.13396973035E+02 -0.10743885938E+02  0.20000000000E+02  0.47000000000E+01 0. -1.
         -5    1    1    2    0  501 -0.91104351415E+01 -0.13396973035E+02  0.10743885938E+02  0.20000000000E+02  0.47000000000E+01 0.  1.
</event>
<event>
 4    1  0.5025809E-002  0.4000000E+02  0.7546771E-02  0.1348030E+00
         11   -1    0    0    0    0  0.00000000000E+00  0.00000000000E+00  0.20000000000E+02  0.20000000000E+02  0.00000000000E+00 0. -1.
        -11   -1    0    0    0    0 -0.00000000000E+00 -0.00000000000E+00 -0.20000000000E+02  0.20000000000E+02  0.00000000000E+00 0.  1.
          5    1    1    2  501    0 -0.60000701293E+01 -0.65893426999E+01 -0.17276855073E+02  0.20000000000E+02  0.47000000000E+01 0.  1.
         -5    1    1    2    0  501  0.60000701293E+01  0.65893426999E+01  0.17276855073E+02  0.20000000000E+02  0.47000000000E+01 0. -1.
</event>
<event>
 4    1  0.5025809E-002  0.4000000E+02  0.7546771E-02  0.1348030E+00
         11   -1    0    0    0    0  0.00000000000E+00  0.00000000000E+00  0.20000000000E+02  0.20000000000E+02  0.00000000000E+00 0. -1.
        -11   -1    0    0    0    0 -0.00000000000E+00 -0.00000000000E+00 -0.20000000000E+02  0.20000000000E+02  0.00000000000E+00 0.  1.
          5    1    1    2  501    0 -0.11874703198E+02  0.22086329985E+01  0.15232313161E+02  0.20000000000E+02  0.47000000000E+01 0. -1.
         -5    1    1    2    0  501  0.11874703198E+02 -0.22086329985E+01 -0.15232313161E+02  0.20000000000E+02  0.47000000000E+01 0.  1.
</event>
<event>
 4    1  0.5025809E-002  0.4000000E+02  0.7546771E-02  0.1348030E+00
         11   -1    0    0    0    0  0.00000000000E+00  0.00000000000E+00  0.20000000000E+02  0.20000000000E+02  0.00000000000E+00 0.  1.
        -11   -1    0    0    0    0 -0.00000000000E+00 -0.00000000000E+00 -0.20000000000E+02  0.20000000000E+02  0.00000000000E+00 0. -1.
          5    1    1    2  501    0  0.90203393383E+01 -0.16841546612E+02 -0.35924623789E+01  0.20000000000E+02  0.47000000000E+01 0. -1.
         -5    1    1    2    0  501 -0.90203393383E+01  0.16841546612E+02  0.35924623789E+01  0.20000000000E+02  0.47000000000E+01 0.  1.
</event>
<event>
 4    1  0.5025809E-002  0.4000000E+02  0.7546771E-02  0.1348030E+00
         11   -1    0    0    0    0  0.00000000000E+00  0.00000000000E+00  0.20000000000E+02  0.20000000000E+02  0.00000000000E+00 0.  1.
        -11   -1    0    0    0    0 -0.00000000000E+00 -0.00000000000E+00 -0.20000000000E+02  0.20000000000E+02  0.00000000000E+00 0. -1.
          5    1    1    2  501    0 -0.91920078559E+01  0.95380017273E+01  0.14228264639E+02  0.20000000000E+02  0.47000000000E+01 0.  1.
         -5    1    1    2    0  501  0.91920078559E+01 -0.95380017273E+01 -0.14228264639E+02  0.20000000000E+02  0.47000000000E+01 0. -1.
</event>
<event>
 4    1  0.5025809E-002  0.4000000E+02  0.7546771E-02  0.1348030E+00
         11   -1    0    0    0    0  0.00000000000E+00  0.00000000000E+00  0.20000000000E+02  0.20000000000E+02  0.00000000000E+00 0.  1.
        -11   -1    0    0    0    0 -0.00000000000E+00 -0.00000000000E+00 -0.20000000000E+02  0.20000000000E+02  0.00000000000E+00 0. -1.
          5    1    1    2  501    0 -0.14225195942E+02  0.12613806563E+02 -0.40553279034E+01  0.20000000000E+02  0.47000000000E+01 0. -1.
         -5    1    1    2    0  501  0.14225195942E+02 -0.12613806563E+02  0.40553279034E+01  0.20000000000E+02  0.47000000000E+01 0.  1.
</event>
<event>
 4    1  0.5025809E-002  0.4000000E+02  0.7546771E-02  0.1348030E+00
         11   -1    0    0    0    0  0.00000000000E+00  0.00000000000E+00  0.20000000000E+02  0.20000000000E+02  0.00000000000E+00 0.  1.
        -11   -1    0    0    0    0 -0.00000000000E+00 -0.00000000000E+00 -0.20000000000E+02  0.20000000000E+02  0.00000000000E+00 0. -1.
          5    1    1    2  501    0  0.40812439780E+01  0.17391227127E+02 -0.76680288608E+01  0.20000000000E+02  0.47000000000E+01 0. -1.
         -5    1    1    2    0  501 -0.40812439780E+01 -0.17391227127E+02  0.76680288608E+01  0.20000000000E+02  0.47000000000E+01 0.  1.
</event>
<event>
 4    1  0.5025809E-002  0.4000000E+02  0.7546771E-02  0.1348030E+00
         11   -1    0    0    0    0  0.00000000000E+00  0.00000000000E+00  0.20000000000E+02  0.20000000000E+02  0.00000000000E+00 0.  1.
        -11   -1    0    0    0    0 -0.00000000000E+00 -0.00000000000E+00 -0.20000000000E+02  0.20000000000E+02  0.00000000000E+00 0. -1.
          5    1    1    2  501    0 -0.46889922289E+01 -0.18454168569E+02  0.39200783543E+01  0.20000000000E+02  0.47000000000E+01 0.  1.
         -5    1    1    2    0  501  0.46889922289E+01  0.18454168569E+02 -0.39200783543E+01  0.20000000000E+02  0.47000000000E+01 0. -1.
</event>
<event>
 4    1  0.5025809E-002  0.4000000E+02  0.7546771E-02  0.1348030E+00
         11   -1    0    0    0    0  0.00000000000E+00  0.00000000000E+00  0.20000000000E+02  0.20000000000E+02  0.00000000000E+00 0.  1.
        -11   -1    0    0    0    0 -0.00000000000E+00 -0.00000000000E+00 -0.20000000000E+02  0.20000000000E+02  0.00000000000E+00 0. -1.
          5    1    1    2  501    0  0.19054970562E+02 -0.33134736756E+01  0.19593338318E+01  0.20000000000E+02  0.47000000000E+01 0.  1.
         -5    1    1    2    0  501 -0.19054970562E+02  0.33134736756E+01 -0.19593338318E+01  0.20000000000E+02  0.47000000000E+01 0. -1.
</event>
<event>
 4    1  0.5025809E-002  0.4000000E+02  0.7546771E-02  0.1348030E+00
         11   -1    0    0    0    0  0.00000000000E+00  0.00000000000E+00  0.20000000000E+02  0.20000000000E+02  0.00000000000E+00 0.  1.
        -11   -1    0    0    0    0 -0.00000000000E+00 -0.00000000000E+00 -0.20000000000E+02  0.20000000000E+02  0.00000000000E+00 0. -1.
          5    1    1    2  501    0  0.45665167256E+01  0.77521181924E+00 -0.18880041622E+02  0.20000000000E+02  0.47000000000E+01 0. -1.
         -5    1    1    2    0  501 -0.45665167256E+01 -0.77521181924E+00  0.18880041622E+02  0.20000000000E+02  0.47000000000E+01 0.  1.
</event>
<event>
 4    1  0.5025809E-002  0.4000000E+02  0.7546771E-02  0.1348030E+00
         11   -1    0    0    0    0  0.00000000000E+00  0.00000000000E+00  0.20000000000E+02  0.20000000000E+02  0.00000000000E+00 0. -1.
        -11   -1    0    0    0    0 -0.00000000000E+00 -0.00000000000E+00 -0.20000000000E+02  0.20000000000E+02  0.00000000000E+00 0.  1.
          5    1    1    2  501    0 -0.15086186538E+02 -0.11208998166E+02 -0.49674274896E+01  0.20000000000E+02  0.47000000000E+01 0.  1.
         -5    1    1    2    0  501  0.15086186538E+02  0.11208998166E+02  0.49674274896E+01  0.20000000000E+02  0.47000000000E+01 0. -1.
</event>
<event>
 4    1  0.5025809E-002  0.4000000E+02  0.7546771E-02  0.1348030E+00
         11   -1    0    0    0    0  0.00000000000E+00  0.00000000000E+00  0.20000000000E+02  0.20000000000E+02  0.00000000000E+00 0.  1.
        -11   -1    0    0    0    0 -0.00000000000E+00 -0.00000000000E+00 -0.20000000000E+02  0.20000000000E+02  0.00000000000E+00 0. -1.
          5    1    1    2  501    0 -0.38725782143E+01  0.18900854456E+02  0.23813523062E+01  0.20000000000E+02  0.47000000000E+01 0.  1.
         -5    1    1    2    0  501  0.38725782143E+01 -0.18900854456E+02 -0.23813523062E+01  0.20000000000E+02  0.47000000000E+01 0. -1.
</event>
<event>
 4    1  0.5025809E-002  0.4000000E+02  0.7546771E-02  0.1348030E+00
         11   -1    0    0    0    0  0.00000000000E+00  0.00000000000E+00  0.20000000000E+02  0.20000000000E+02  0.00000000000E+00 0.  1.
        -11   -1    0    0    0    0 -0.00000000000E+00 -0.00000000000E+00 -0.20000000000E+02  0.20000000000E+02  0.00000000000E+00 0. -1.
          5    1    1    2  501    0  0.10770721427E+02 -0.11744052499E+02 -0.11134576366E+02  0.20000000000E+02  0.47000000000E+01 0. -1.
         -5    1    1    2    0  501 -0.10770721427E+02  0.11744052499E+02  0.11134576366E+02  0.20000000000E+02  0.47000000000E+01 0.  1.
</event>
<event>
 4    1  0.5025809E-002  0.4000000E+02  0.7546771E-02  0.1348030E+00
         11   -1    0    0    0    0  0.00000000000E+00  0.00000000000E+00  0.20000000000E+02  0.20000000000E+02  0.00000000000E+00 0.  1.
        -11   -1    0    0    0    0 -0.00000000000E+00 -0.00000000000E+00 -0.20000000000E+02  0.20000000000E+02  0.00000000000E+00 0. -1.
          5    1    1    2  501    0 -0.17767965333E+02  0.60211339899E+01  0.50946396737E+01  0.20000000000E+02  0.47000000000E+01 0.  1.
         -5    1    1    2    0  501  0.17767965333E+02 -0.60211339899E+01 -0.50946396737E+01  0.20000000000E+02  0.47000000000E+01 0. -1.
</event>
<event>
 4    1  0.5025809E-002  0.4000000E+02  0.7546771E-02  0.1348030E+00
         11   -1    0    0    0    0  0.00000000000E+00  0.00000000000E+00  0.20000000000E+02  0.20000000000E+02  0.00000000000E+00 0. -1.
        -11   -1    0    0    0    0 -0.00000000000E+00 -0.00000000000E+00 -0.20000000000E+02  0.20000000000E+02  0.00000000000E+00 0.  1.
          5    1    1    2  501    0  0.57789409965E+01  0.18461832064E+02 -0.19169240490E+01  0.20000000000E+02  0.47000000000E+01 0.  1.
         -5    1    1    2    0  501 -0.57789409965E+01 -0.18461832064E+02  0.19169240490E+01  0.20000000000E+02  0.47000000000E+01 0. -1.
</event>
<event>
 4    1  0.5025809E-002  0.4000000E+02  0.7546771E-02  0.1348030E+00
         11   -1    0    0    0    0  0.00000000000E+00  0.00000000000E+00  0.20000000000E+02  0.20000000000E+02  0.00000000000E+00 0.  1.
        -11   -1    0    0    0    0 -0.00000000000E+00 -0.00000000000E+00 -0.20000000000E+02  0.20000000000E+02  0.00000000000E+00 0. -1.
          5    1    1    2  501    0  0.14331821359E+02 -0.13131656237E+02  0.26172694408E+00  0.20000000000E+02  0.47000000000E+01 0. -1.
         -5    1    1    2    0  501 -0.14331821359E+02  0.13131656237E+02 -0.26172694408E+00  0.20000000000E+02  0.47000000000E+01 0.  1.
</event>
<event>
 4    1  0.5025809E-002  0.4000000E+02  0.7546771E-02  0.1348030E+00
         11   -1    0    0    0    0  0.00000000000E+00  0.00000000000E+00  0.20000000000E+02  0.20000000000E+02  0.00000000000E+00 0.  1.
        -11   -1    0    0    0    0 -0.00000000000E+00 -0.00000000000E+00 -0.20000000000E+02  0.20000000000E+02  0.00000000000E+00 0. -1.
          5    1    1    2  501    0  0.79483602370E+01  0.64647811215E+01 -0.16520901144E+02  0.20000000000E+02  0.47000000000E+01 0. -1.
         -5    1    1    2    0  501 -0.79483602370E+01 -0.64647811215E+01  0.16520901144E+02  0.20000000000E+02  0.47000000000E+01 0.  1.
</event>
<event>
 4    1  0.5025809E-002  0.4000000E+02  0.7546771E-02  0.1348030E+00
         11   -1    0    0    0    0  0.00000000000E+00  0.00000000000E+00  0.20000000000E+02  0.20000000000E+02  0.00000000000E+00 0.  1.
        -11   -1    0    0    0    0 -0.00000000000E+00 -0.00000000000E+00 -0.20000000000E+02  0.20000000000E+02  0.00000000000E+00 0. -1.
          5    1    1    2  501    0  0.80424079564E+01 -0.11138071662E+02 -0.13754018828E+02  0.20000000000E+02  0.47000000000E+01 0. -1.
         -5    1    1    2    0  501 -0.80424079564E+01  0.11138071662E+02  0.13754018828E+02  0.20000000000E+02  0.47000000000E+01 0.  1.
</event>
<event>
 4    1  0.5025809E-002  0.4000000E+02  0.7546771E-02  0.1348030E+00
         11   -1    0    0    0    0  0.00000000000E+00  0.00000000000E+00  0.20000000000E+02  0.20000000000E+02  0.00000000000E+00 0.  1.
        -11   -1    0    0    0    0 -0.00000000000E+00 -0.00000000000E+00 -0.20000000000E+02  0.20000000000E+02  0.00000000000E+00 0. -1.
          5    1    1    2  501    0  0.21531982198E+01  0.17276543437E+02 -0.86483977880E+01  0.20000000000E+02  0.47000000000E+01 0. -1.
         -5    1    1    2    0  501 -0.21531982198E+01 -0.17276543437E+02  0.86483977880E+01  0.20000000000E+02  0.47000000000E+01 0.  1.
</event>
<event>
 4    1  0.5025809E-002  0.4000000E+02  0.7546771E-02  0.1348030E+00
         11   -1    0    0    0    0  0.00000000000E+00  0.00000000000E+00  0.20000000000E+02  0.20000000000E+02  0.00000000000E+00 0.  1.
        -11   -1    0    0    0    0 -0.00000000000E+00 -0.00000000000E+00 -0.20000000000E+02  0.20000000000E+02  0.00000000000E+00 0. -1.
          5    1    1    2  501    0 -0.30531451108E+01 -0.16111658169E+02 -0.10440439454E+02  0.20000000000E+02  0.47000000000E+01 0. -1.
         -5    1    1    2    0  501  0.30531451108E+01  0.16111658169E+02  0.10440439454E+02  0.20000000000E+02  0.47000000000E+01 0.  1.
</event>
<event>
 4    1  0.5025809E-002  0.4000000E+02  0.7546771E-02  0.1348030E+00
         11   -1    0    0    0    0  0.00000000000E+00  0.00000000000E+00  0.20000000000E+02  0.20000000000E+02  0.00000000000E+00 0.  1.
        -11   -1    0    0    0    0 -0.00000000000E+00 -0.00000000000E+00 -0.20000000000E+02  0.20000000000E+02  0.00000000000E+00 0. -1.
          5    1    1    2  501    0 -0.45174859934E+01 -0.56901364639E+01 -0.18031213695E+02  0.20000000000E+02  0.47000000000E+01 0. -1.
         -5    1    1    2    0  501  0.45174859934E+01  0.56901364639E+01  0.18031213695E+02  0.20000000000E+02  0.47000000000E+01 0.  1.
</event>
<event>
 4    1  0.5025809E-002  0.4000000E+02  0.7546771E-02  0.1348030E+00
         11   -1    0    0    0    0  0.00000000000E+00  0.00000000000E+00  0.20000000000E+02  0.20000000000E+02  0.00000000000E+00 0.  1.
        -11   -1    0    0    0    0 -0.00000000000E+00 -0.00000000000E+00 -0.20000000000E+02  0.20000000000E+02  0.00000000000E+00 0. -1.
          5    1    1    2  501    0  0.92913062663E+01 -0.14363805343E+02  0.92337816702E+01  0.20000000000E+02  0.47000000000E+01 0.  1.
         -5    1    1    2    0  501 -0.92913062663E+01  0.14363805343E+02 -0.92337816702E+01  0.20000000000E+02  0.47000000000E+01 0. -1.
</event>
<event>
 4    1  0.5025809E-002  0.4000000E+02  0.7546771E-02  0.1348030E+00
         11   -1    0    0    0    0  0.00000000000E+00  0.00000000000E+00  0.20000000000E+02  0.20000000000E+02  0.00000000000E+00 0.  1.
        -11   -1    0    0    0    0 -0.00000000000E+00 -0.00000000000E+00 -0.20000000000E+02  0.20000000000E+02  0.00000000000E+00 0. -1.
          5    1    1    2  501    0 -0.33040574812E+01 -0.84613190320E+01 -0.17187183725E+02  0.20000000000E+02  0.47000000000E+01 0. -1.
         -5    1    1    2    0  501  0.33040574812E+01  0.84613190320E+01  0.17187183725E+02  0.20000000000E+02  0.47000000000E+01 0.  1.
</event>
<event>
 4    1  0.5025809E-002  0.4000000E+02  0.7546771E-02  0.1348030E+00
         11   -1    0    0    0    0  0.00000000000E+00  0.00000000000E+00  0.20000000000E+02  0.20000000000E+02  0.00000000000E+00 0.  1.
        -11   -1    0    0    0    0 -0.00000000000E+00 -0.00000000000E+00 -0.20000000000E+02  0.20000000000E+02  0.00000000000E+00 0. -1.
          5    1    1    2  501    0 -0.83084521420E+01  0.14828794695E+02  0.94332640644E+01  0.20000000000E+02  0.47000000000E+01 0. -1.
         -5    1    1    2    0  501  0.83084521420E+01 -0.14828794695E+02 -0.94332640644E+01  0.20000000000E+02  0.47000000000E+01 0.  1.
</event>
<event>
 4    1  0.5025809E-002  0.4000000E+02  0.7546771E-02  0.1348030E+00
         11   -1    0    0    0    0  0.00000000000E+00  0.00000000000E+00  0.20000000000E+02  0.20000000000E+02  0.00000000000E+00 0.  1.
        -11   -1    0    0    0    0 -0.00000000000E+00 -0.00000000000E+00 -0.20000000000E+02  0.20000000000E+02  0.00000000000E+00 0. -1.
          5    1    1    2  501    0  0.13787655287E+02 -0.47772100534E+00  0.13696070397E+02  0.20000000000E+02  0.47000000000E+01 0.  1.
         -5    1    1    2    0  501 -0.13787655287E+02  0.47772100534E+00 -0.13696070397E+02  0.20000000000E+02  0.47000000000E+01 0. -1.
</event>
<event>
 4    1  0.5025809E-002  0.4000000E+02  0.7546771E-02  0.1348030E+00
         11   -1    0    0    0    0  0.00000000000E+00  0.00000000000E+00  0.20000000000E+02  0.20000000000E+02  0.00000000000E+00 0. -1.
        -11   -1    0    0    0    0 -0.00000000000E+00 -0.00000000000E+00 -0.20000000000E+02  0.20000000000E+02  0.00000000000E+00 0.  1.
          5    1    1    2  501    0  0.13986700580E+02 -0.13484660760E+02 -0.66793044220E+00  0.20000000000E+02  0.47000000000E+01 0.  1.
         -5    1    1    2    0  501 -0.13986700580E+02  0.13484660760E+02  0.66793044220E+00  0.20000000000E+02  0.47000000000E+01 0. -1.
</event>
<event>
 4    1  0.5025809E-002  0.4000000E+02  0.7546771E-02  0.1348030E+00
         11   -1    0    0    0    0  0.00000000000E+00  0.00000000000E+00  0.20000000000E+02  0.20000000000E+02  0.00000000000E+00 0.  1.
        -11   -1    0    0    0    0 -0.00000000000E+00 -0.00000000000E+00 -0.20000000000E+02  0.20000000000E+02  0.00000000000E+00 0. -1.
          5    1    1    2  501    0  0.17693620594E+02 -0.66966971374E+01 -0.44721401712E+01  0.20000000000E+02  0.47000000000E+01 0. -1.
         -5    1    1    2    0  501 -0.17693620594E+02  0.66966971374E+01  0.44721401712E+01  0.20000000000E+02  0.47000000000E+01 0.  1.
</event>
<event>
 4    1  0.5025809E-002  0.4000000E+02  0.7546771E-02  0.1348030E+00
         11   -1    0    0    0    0  0.00000000000E+00  0.00000000000E+00  0.20000000000E+02  0.20000000000E+02  0.00000000000E+00 0.  1.
        -11   -1    0    0    0    0 -0.00000000000E+00 -0.00000000000E+00 -0.20000000000E+02  0.20000000000E+02  0.00000000000E+00 0. -1.
          5    1    1    2  501    0  0.18306757653E+02  0.48418433144E+01  0.43964960522E+01  0.20000000000E+02  0.47000000000E+01 0. -1.
         -5    1    1    2    0  501 -0.18306757653E+02 -0.48418433144E+01 -0.43964960522E+01  0.20000000000E+02  0.47000000000E+01 0.  1.
</event>
<event>
 4    1  0.5025809E-002  0.4000000E+02  0.7546771E-02  0.1348030E+00
         11   -1    0    0    0    0  0.00000000000E+00  0.00000000000E+00  0.20000000000E+02  0.20000000000E+02  0.00000000000E+00 0.  1.
        -11   -1    0    0    0    0 -0.00000000000E+00 -0.00000000000E+00 -0.20000000000E+02  0.20000000000E+02  0.00000000000E+00 0. -1.
          5    1    1    2  501    0  0.12936382222E+02  0.13646301946E+02 -0.49334022961E+01  0.20000000000E+02  0.47000000000E+01 0. -1.
         -5    1    1    2    0  501 -0.12936382222E+02 -0.13646301946E+02  0.49334022961E+01  0.20000000000E+02  0.47000000000E+01 0.  1.
</event>
<event>
 4    1  0.5025809E-002  0.4000000E+02  0.7546771E-02  0.1348030E+00
         11   -1    0    0    0    0  0.00000000000E+00  0.00000000000E+00  0.20000000000E+02  0.20000000000E+02  0.00000000000E+00 0.  1.
        -11   -1    0    0    0    0 -0.00000000000E+00 -0.00000000000E+00 -0.20000000000E+02  0.20000000000E+02  0.00000000000E+00 0. -1.
          5    1    1    2  501    0 -0.41251837188E+01 -0.49960291023E+01 -0.18328462906E+02  0.20000000000E+02  0.47000000000E+01 0. -1.
         -5    1    1    2    0  501  0.41251837188E+01  0.49960291023E+01  0.18328462906E+02  0.20000000000E+02  0.47000000000E+01 0.  1.
</event>
<event>
 4    1  0.5025809E-002  0.4000000E+02  0.7546771E-02  0.1348030E+00
         11   -1    0    0    0    0  0.00000000000E+00  0.00000000000E+00  0.20000000000E+02  0.20000000000E+02  0.00000000000E+00 0.  1.
        -11   -1    0    0    0    0 -0.00000000000E+00 -0.00000000000E+00 -0.20000000000E+02  0.20000000000E+02  0.00000000000E+00 0. -1.
          5    1    1    2  501    0 -0.13459340271E+02 -0.77379283880E+01 -0.11699599298E+02  0.20000000000E+02  0.47000000000E+01 0. -1.
         -5    1    1    2    0  501  0.13459340271E+02  0.77379283880E+01  0.11699599298E+02  0.20000000000E+02  0.47000000000E+01 0.  1.
</event>
<event>
 4    1  0.5025809E-002  0.4000000E+02  0.7546771E-02  0.1348030E+00
         11   -1    0    0    0    0  0.00000000000E+00  0.00000000000E+00  0.20000000000E+02  0.20000000000E+02  0.00000000000E+00 0. -1.
        -11   -1    0    0    0    0 -0.00000000000E+00 -0.00000000000E+00 -0.20000000000E+02  0.20000000000E+02  0.00000000000E+00 0.  1.
          5    1    1    2  501    0  0.14160935600E+02 -0.12327970056E+02 -0.50397477358E+01  0.20000000000E+02  0.47000000000E+01 0.  1.
         -5    1    1    2    0  501 -0.14160935600E+02  0.12327970056E+02  0.50397477358E+01  0.20000000000E+02  0.47000000000E+01 0. -1.
</event>
<event>
 4    1  0.5025809E-002  0.4000000E+02  0.7546771E-02  0.1348030E+00
         11   -1    0    0    0    0  0.00000000000E+00  0.00000000000E+00  0.20000000000E+02  0.20000000000E+02  0.00000000000E+00 0.  1.
        -11   -1    0    0    0    0 -0.00000000000E+00 -0.00000000000E+00 -0.20000000000E+02  0.20000000000E+02  0.00000000000E+00 0. -1.
          5    1    1    2  501    0  0.16171182480E+02 -0.10147080067E+02  0.36660091817E+01  0.20000000000E+02  0.47000000000E+01 0. -1.
         -5    1    1    2    0  501 -0.16171182480E+02  0.10147080067E+02 -0.36660091817E+01  0.20000000000E+02  0.47000000000E+01 0.  1.
</event>
<event>
 4    1  0.5025809E-002  0.4000000E+02  0.7546771E-02  0.1348030E+00
         11   -1    0    0    0    0  0.00000000000E+00  0.00000000000E+00  0.20000000000E+02  0.20000000000E+02  0.00000000000E+00 0.  1.
        -11   -1    0    0    0    0 -0.00000000000E+00 -0.00000000000E+00 -0.20000000000E+02  0.20000000000E+02  0.00000000000E+00 0. -1.
          5    1    1    2  501    0  0.14777015747E+02  0.78361651132E+01 -0.99067816138E+01  0.20000000000E+02  0.47000000000E+01 0. -1.
         -5    1    1    2    0  501 -0.14777015747E+02 -0.78361651132E+01  0.99067816138E+01  0.20000000000E+02  0.47000000000E+01 0.  1.
</event>
<event>
 4    1  0.5025809E-002  0.4000000E+02  0.7546771E-02  0.1348030E+00
         11   -1    0    0    0    0  0.00000000000E+00  0.00000000000E+00  0.20000000000E+02  0.20000000000E+02  0.00000000000E+00 0.  1.
        -11   -1    0    0    0    0 -0.00000000000E+00 -0.00000000000E+00 -0.20000000000E+02  0.20000000000E+02  0.00000000000E+00 0. -1.
          5    1    1    2  501    0  0.40692368622E+01 -0.24733528579E+01 -0.18847648050E+02  0.20000000000E+02  0.47000000000E+01 0. -1.
         -5    1    1    2    0  501 -0.40692368622E+01  0.24733528579E+01  0.18847648050E+02  0.20000000000E+02  0.47000000000E+01 0.  1.
</event>
<event>
 4    1  0.5025809E-002  0.4000000E+02  0.7546771E-02  0.1348030E+00
         11   -1    0    0    0    0  0.00000000000E+00  0.00000000000E+00  0.20000000000E+02  0.20000000000E+02  0.00000000000E+00 0.  1.
        -11   -1    0    0    0    0 -0.00000000000E+00 -0.00000000000E+00 -0.20000000000E+02  0.20000000000E+02  0.00000000000E+00 0. -1.
          5    1    1    2  501    0 -0.28643591440E+01 -0.86119857043E+01 -0.17191252105E+02  0.20000000000E+02  0.47000000000E+01 0. -1.
         -5    1    1    2    0  501  0.28643591440E+01  0.86119857043E+01  0.17191252105E+02  0.20000000000E+02  0.47000000000E+01 0.  1.
</event>
<event>
 4    1  0.5025809E-002  0.4000000E+02  0.7546771E-02  0.1348030E+00
         11   -1    0    0    0    0  0.00000000000E+00  0.00000000000E+00  0.20000000000E+02  0.20000000000E+02  0.00000000000E+00 0.  1.
        -11   -1    0    0    0    0 -0.00000000000E+00 -0.00000000000E+00 -0.20000000000E+02  0.20000000000E+02  0.00000000000E+00 0. -1.
          5    1    1    2  501    0  0.12849451965E+02  0.13728179744E+02 -0.49334232653E+01  0.20000000000E+02  0.47000000000E+01 0. -1.
         -5    1    1    2    0  501 -0.12849451965E+02 -0.13728179744E+02  0.49334232653E+01  0.20000000000E+02  0.47000000000E+01 0.  1.
</event>
<event>
 4    1  0.5025809E-002  0.4000000E+02  0.7546771E-02  0.1348030E+00
         11   -1    0    0    0    0  0.00000000000E+00  0.00000000000E+00  0.20000000000E+02  0.20000000000E+02  0.00000000000E+00 0. -1.
        -11   -1    0    0    0    0 -0.00000000000E+00 -0.00000000000E+00 -0.20000000000E+02  0.20000000000E+02  0.00000000000E+00 0.  1.
          5    1    1    2  501    0 -0.14199285262E+01  0.65534172305E+01 -0.18246822342E+02  0.20000000000E+02  0.47000000000E+01 0.  1.
         -5    1    1    2    0  501  0.14199285262E+01 -0.65534172305E+01  0.18246822342E+02  0.20000000000E+02  0.47000000000E+01 0. -1.
</event>
<event>
 4    1  0.5025809E-002  0.4000000E+02  0.7546771E-02  0.1348030E+00
         11   -1    0    0    0    0  0.00000000000E+00  0.00000000000E+00  0.20000000000E+02  0.20000000000E+02  0.00000000000E+00 0.  1.
        -11   -1    0    0    0    0 -0.00000000000E+00 -0.00000000000E+00 -0.20000000000E+02  0.20000000000E+02  0.00000000000E+00 0. -1.
          5    1    1    2  501    0  0.25502468299E+00  0.37282375417E+01  0.19077348014E+02  0.20000000000E+02  0.47000000000E+01 0.  1.
         -5    1    1    2    0  501 -0.25502468299E+00 -0.37282375417E+01 -0.19077348014E+02  0.20000000000E+02  0.47000000000E+01 0. -1.
</event>
<event>
 4    1  0.5025809E-002  0.4000000E+02  0.7546771E-02  0.1348030E+00
         11   -1    0    0    0    0  0.00000000000E+00  0.00000000000E+00  0.20000000000E+02  0.20000000000E+02  0.00000000000E+00 0. -1.
        -11   -1    0    0    0    0 -0.00000000000E+00 -0.00000000000E+00 -0.20000000000E+02  0.20000000000E+02  0.00000000000E+00 0.  1.
          5    1    1    2  501    0  0.37260046346E+01  0.12453303170E+02 -0.14454830667E+02  0.20000000000E+02  0.47000000000E+01 0.  1.
         -5    1    1    2    0  501 -0.37260046346E+01 -0.12453303170E+02  0.14454830667E+02  0.20000000000E+02  0.47000000000E+01 0. -1.
</event>
<event>
 4    1  0.5025809E-002  0.4000000E+02  0.7546771E-02  0.1348030E+00
         11   -1    0    0    0    0  0.00000000000E+00  0.00000000000E+00  0.20000000000E+02  0.20000000000E+02  0.00000000000E+00 0.  1.
        -11   -1    0    0    0    0 -0.00000000000E+00 -0.00000000000E+00 -0.20000000000E+02  0.20000000000E+02  0.00000000000E+00 0. -1.
          5    1    1    2  501    0  0.86511128875E+00 -0.12907305682E+02 -0.14510790554E+02  0.20000000000E+02  0.47000000000E+01 0. -1.
         -5    1    1    2    0  501 -0.86511128875E+00  0.12907305682E+02  0.14510790554E+02  0.20000000000E+02  0.47000000000E+01 0.  1.
</event>
<event>
 4    1  0.5025809E-002  0.4000000E+02  0.7546771E-02  0.1348030E+00
         11   -1    0    0    0    0  0.00000000000E+00  0.00000000000E+00  0.20000000000E+02  0.20000000000E+02  0.00000000000E+00 0.  1.
        -11   -1    0    0    0    0 -0.00000000000E+00 -0.00000000000E+00 -0.20000000000E+02  0.20000000000E+02  0.00000000000E+00 0. -1.
          5    1    1    2  501    0 -0.14086052697E+02  0.13387524725E+02  0.51701174849E+00  0.20000000000E+02  0.47000000000E+01 0. -1.
         -5    1    1    2    0  501  0.14086052697E+02 -0.13387524725E+02 -0.51701174849E+00  0.20000000000E+02  0.47000000000E+01 0. -1.
</event>
<event>
 4    1  0.5025809E-002  0.4000000E+02  0.7546771E-02  0.1348030E+00
         11   -1    0    0    0    0  0.00000000000E+00  0.00000000000E+00  0.20000000000E+02  0.20000000000E+02  0.00000000000E+00 0. -1.
        -11   -1    0    0    0    0 -0.00000000000E+00 -0.00000000000E+00 -0.20000000000E+02  0.20000000000E+02  0.00000000000E+00 0.  1.
          5    1    1    2  501    0  0.13244604030E+01  0.86961147596E+01  0.17335898959E+02  0.20000000000E+02  0.47000000000E+01 0. -1.
         -5    1    1    2    0  501 -0.13244604030E+01 -0.86961147596E+01 -0.17335898959E+02  0.20000000000E+02  0.47000000000E+01 0.  1.
</event>
<event>
 4    1  0.5025809E-002  0.4000000E+02  0.7546771E-02  0.1348030E+00
         11   -1    0    0    0    0  0.00000000000E+00  0.00000000000E+00  0.20000000000E+02  0.20000000000E+02  0.00000000000E+00 0.  1.
        -11   -1    0    0    0    0 -0.00000000000E+00 -0.00000000000E+00 -0.20000000000E+02  0.20000000000E+02  0.00000000000E+00 0. -1.
          5    1    1    2  501    0 -0.11354802546E+02  0.78929323988E+01 -0.13663091791E+02  0.20000000000E+02  0.47000000000E+01 0. -1.
         -5    1    1    2    0  501  0.11354802546E+02 -0.78929323988E+01  0.13663091791E+02  0.20000000000E+02  0.47000000000E+01 0.  1.
</event>
<event>
 4    1  0.5025809E-002  0.4000000E+02  0.7546771E-02  0.1348030E+00
         11   -1    0    0    0    0  0.00000000000E+00  0.00000000000E+00  0.20000000000E+02  0.20000000000E+02  0.00000000000E+00 0. -1.
        -11   -1    0    0    0    0 -0.00000000000E+00 -0.00000000000E+00 -0.20000000000E+02  0.20000000000E+02  0.00000000000E+00 0.  1.
          5    1    1    2  501    0 -0.30377167159E+01  0.92819337695E+01 -0.16808568727E+02  0.20000000000E+02  0.47000000000E+01 0.  1.
         -5    1    1    2    0  501  0.30377167159E+01 -0.92819337695E+01  0.16808568727E+02  0.20000000000E+02  0.47000000000E+01 0. -1.
</event>
<event>
 4    1  0.5025809E-002  0.4000000E+02  0.7546771E-02  0.1348030E+00
         11   -1    0    0    0    0  0.00000000000E+00  0.00000000000E+00  0.20000000000E+02  0.20000000000E+02  0.00000000000E+00 0.  1.
        -11   -1    0    0    0    0 -0.00000000000E+00 -0.00000000000E+00 -0.20000000000E+02  0.20000000000E+02  0.00000000000E+00 0. -1.
          5    1    1    2  501    0  0.18012969238E+02 -0.49722247626E+01  0.53590969517E+01  0.20000000000E+02  0.47000000000E+01 0.  1.
         -5    1    1    2    0  501 -0.18012969238E+02  0.49722247626E+01 -0.53590969517E+01  0.20000000000E+02  0.47000000000E+01 0. -1.
</event>
<event>
 4    1  0.5025809E-002  0.4000000E+02  0.7546771E-02  0.1348030E+00
         11   -1    0    0    0    0  0.00000000000E+00  0.00000000000E+00  0.20000000000E+02  0.20000000000E+02  0.00000000000E+00 0. -1.
        -11   -1    0    0    0    0 -0.00000000000E+00 -0.00000000000E+00 -0.20000000000E+02  0.20000000000E+02  0.00000000000E+00 0.  1.
          5    1    1    2  501    0 -0.15066280537E+01 -0.18595021562E+02 -0.54649103402E+01  0.20000000000E+02  0.47000000000E+01 0.  1.
         -5    1    1    2    0  501  0.15066280537E+01  0.18595021562E+02  0.54649103402E+01  0.20000000000E+02  0.47000000000E+01 0. -1.
</event>
<event>
 4    1  0.5025809E-002  0.4000000E+02  0.7546771E-02  0.1348030E+00
         11   -1    0    0    0    0  0.00000000000E+00  0.00000000000E+00  0.20000000000E+02  0.20000000000E+02  0.00000000000E+00 0. -1.
        -11   -1    0    0    0    0 -0.00000000000E+00 -0.00000000000E+00 -0.20000000000E+02  0.20000000000E+02  0.00000000000E+00 0.  1.
          5    1    1    2  501    0 -0.98387904433E+01 -0.12638071233E+02 -0.11017593118E+02  0.20000000000E+02  0.47000000000E+01 0.  1.
         -5    1    1    2    0  501  0.98387904433E+01  0.12638071233E+02  0.11017593118E+02  0.20000000000E+02  0.47000000000E+01 0. -1.
</event>
<event>
 4    1  0.5025809E-002  0.4000000E+02  0.7546771E-02  0.1348030E+00
         11   -1    0    0    0    0  0.00000000000E+00  0.00000000000E+00  0.20000000000E+02  0.20000000000E+02  0.00000000000E+00 0.  1.
        -11   -1    0    0    0    0 -0.00000000000E+00 -0.00000000000E+00 -0.20000000000E+02  0.20000000000E+02  0.00000000000E+00 0. -1.
          5    1    1    2  501    0  0.17953990174E+02 -0.98528848382E+00 -0.73887376069E+01  0.20000000000E+02  0.47000000000E+01 0. -1.
         -5    1    1    2    0  501 -0.17953990174E+02  0.98528848382E+00  0.73887376069E+01  0.20000000000E+02  0.47000000000E+01 0.  1.
</event>
<event>
 4    1  0.5025809E-002  0.4000000E+02  0.7546771E-02  0.1348030E+00
         11   -1    0    0    0    0  0.00000000000E+00  0.00000000000E+00  0.20000000000E+02  0.20000000000E+02  0.00000000000E+00 0. -1.
        -11   -1    0    0    0    0 -0.00000000000E+00 -0.00000000000E+00 -0.20000000000E+02  0.20000000000E+02  0.00000000000E+00 0.  1.
          5    1    1    2  501    0  0.15858500934E+02 -0.14643503023E+01 -0.11147808140E+02  0.20000000000E+02  0.47000000000E+01 0.  1.
         -5    1    1    2    0  501 -0.15858500934E+02  0.14643503023E+01  0.11147808140E+02  0.20000000000E+02  0.47000000000E+01 0. -1.
</event>
<event>
 4    1  0.5025809E-002  0.4000000E+02  0.7546771E-02  0.1348030E+00
         11   -1    0    0    0    0  0.00000000000E+00  0.00000000000E+00  0.20000000000E+02  0.20000000000E+02  0.00000000000E+00 0.  1.
        -11   -1    0    0    0    0 -0.00000000000E+00 -0.00000000000E+00 -0.20000000000E+02  0.20000000000E+02  0.00000000000E+00 0. -1.
          5    1    1    2  501    0  0.13472858831E+01  0.19372915865E+02  0.88597495405E+00  0.20000000000E+02  0.47000000000E+01 0.  1.
         -5    1    1    2    0  501 -0.13472858831E+01 -0.19372915865E+02 -0.88597495405E+00  0.20000000000E+02  0.47000000000E+01 0. -1.
</event>
<event>
 4    1  0.5025809E-002  0.4000000E+02  0.7546771E-02  0.1348030E+00
         11   -1    0    0    0    0  0.00000000000E+00  0.00000000000E+00  0.20000000000E+02  0.20000000000E+02  0.00000000000E+00 0. -1.
        -11   -1    0    0    0    0 -0.00000000000E+00 -0.00000000000E+00 -0.20000000000E+02  0.20000000000E+02  0.00000000000E+00 0.  1.
          5    1    1    2  501    0  0.86282635835E+01 -0.14695825556E+02 -0.93539178291E+01  0.20000000000E+02  0.47000000000E+01 0.  1.
         -5    1    1    2    0  501 -0.86282635835E+01  0.14695825556E+02  0.93539178291E+01  0.20000000000E+02  0.47000000000E+01 0. -1.
</event>
<event>
 4    1  0.5025809E-002  0.4000000E+02  0.7546771E-02  0.1348030E+00
         11   -1    0    0    0    0  0.00000000000E+00  0.00000000000E+00  0.20000000000E+02  0.20000000000E+02  0.00000000000E+00 0.  1.
        -11   -1    0    0    0    0 -0.00000000000E+00 -0.00000000000E+00 -0.20000000000E+02  0.20000000000E+02  0.00000000000E+00 0. -1.
          5    1    1    2  501    0 -0.24683850409E+01  0.70036574786E+01 -0.17965685548E+02  0.20000000000E+02  0.47000000000E+01 0. -1.
         -5    1    1    2    0  501  0.24683850409E+01 -0.70036574786E+01  0.17965685548E+02  0.20000000000E+02  0.47000000000E+01 0.  1.
</event>
<event>
 4    1  0.5025809E-002  0.4000000E+02  0.7546771E-02  0.1348030E+00
         11   -1    0    0    0    0  0.00000000000E+00  0.00000000000E+00  0.20000000000E+02  0.20000000000E+02  0.00000000000E+00 0.  1.
        -11   -1    0    0    0    0 -0.00000000000E+00 -0.00000000000E+00 -0.20000000000E+02  0.20000000000E+02  0.00000000000E+00 0. -1.
          5    1    1    2  501    0  0.10331057575E+02  0.44426956524E+01 -0.15856913468E+02  0.20000000000E+02  0.47000000000E+01 0. -1.
         -5    1    1    2    0  501 -0.10331057575E+02 -0.44426956524E+01  0.15856913468E+02  0.20000000000E+02  0.47000000000E+01 0.  1.
</event>
<event>
 4    1  0.5025809E-002  0.4000000E+02  0.7546771E-02  0.1348030E+00
         11   -1    0    0    0    0  0.00000000000E+00  0.00000000000E+00  0.20000000000E+02  0.20000000000E+02  0.00000000000E+00 0.  1.
        -11   -1    0    0    0    0 -0.00000000000E+00 -0.00000000000E+00 -0.20000000000E+02  0.20000000000E+02  0.00000000000E+00 0. -1.
          5    1    1    2  501    0 -0.25180323806E+01  0.17513794878E+02 -0.80521116431E+01  0.20000000000E+02  0.47000000000E+01 0. -1.
         -5    1    1    2    0  501  0.25180323806E+01 -0.17513794878E+02  0.80521116431E+01  0.20000000000E+02  0.47000000000E+01 0.  1.
</event>
<event>
 4    1  0.5025809E-002  0.4000000E+02  0.7546771E-02  0.1348030E+00
         11   -1    0    0    0    0  0.00000000000E+00  0.00000000000E+00  0.20000000000E+02  0.20000000000E+02  0.00000000000E+00 0.  1.
        -11   -1    0    0    0    0 -0.00000000000E+00 -0.00000000000E+00 -0.20000000000E+02  0.20000000000E+02  0.00000000000E+00 0. -1.
          5    1    1    2  501    0 -0.16008229641E+02 -0.10228944115E+02  0.41249589150E+01  0.20000000000E+02  0.47000000000E+01 0. -1.
         -5    1    1    2    0  501  0.16008229641E+02  0.10228944115E+02 -0.41249589150E+01  0.20000000000E+02  0.47000000000E+01 0.  1.
</event>
<event>
 4    1  0.5025809E-002  0.4000000E+02  0.7546771E-02  0.1348030E+00
         11   -1    0    0    0    0  0.00000000000E+00  0.00000000000E+00  0.20000000000E+02  0.20000000000E+02  0.00000000000E+00 0. -1.
        -11   -1    0    0    0    0 -0.00000000000E+00 -0.00000000000E+00 -0.20000000000E+02  0.20000000000E+02  0.00000000000E+00 0.  1.
          5    1    1    2  501    0 -0.14068504206E+02  0.13342810467E+02  0.13987845603E+01  0.20000000000E+02  0.47000000000E+01 0.  1.
         -5    1    1    2    0  501  0.14068504206E+02 -0.13342810467E+02 -0.13987845603E+01  0.20000000000E+02  0.47000000000E+01 0. -1.
</event>
<event>
 4    1  0.5025809E-002  0.4000000E+02  0.7546771E-02  0.1348030E+00
         11   -1    0    0    0    0  0.00000000000E+00  0.00000000000E+00  0.20000000000E+02  0.20000000000E+02  0.00000000000E+00 0.  1.
        -11   -1    0    0    0    0 -0.00000000000E+00 -0.00000000000E+00 -0.20000000000E+02  0.20000000000E+02  0.00000000000E+00 0. -1.
          5    1    1    2  501    0  0.16823023264E+02 -0.59369819806E+01 -0.77232203910E+01  0.20000000000E+02  0.47000000000E+01 0. -1.
         -5    1    1    2    0  501 -0.16823023264E+02  0.59369819806E+01  0.77232203910E+01  0.20000000000E+02  0.47000000000E+01 0.  1.
</event>
<event>
 4    1  0.5025809E-002  0.4000000E+02  0.7546771E-02  0.1348030E+00
         11   -1    0    0    0    0  0.00000000000E+00  0.00000000000E+00  0.20000000000E+02  0.20000000000E+02  0.00000000000E+00 0.  1.
        -11   -1    0    0    0    0 -0.00000000000E+00 -0.00000000000E+00 -0.20000000000E+02  0.20000000000E+02  0.00000000000E+00 0. -1.
          5    1    1    2  501    0 -0.14629606284E+02 -0.30370941007E+01 -0.12436264688E+02  0.20000000000E+02  0.47000000000E+01 0. -1.
         -5    1    1    2    0  501  0.14629606284E+02  0.30370941007E+01  0.12436264688E+02  0.20000000000E+02  0.47000000000E+01 0.  1.
</event>
<event>
 4    1  0.5025809E-002  0.4000000E+02  0.7546771E-02  0.1348030E+00
         11   -1    0    0    0    0  0.00000000000E+00  0.00000000000E+00  0.20000000000E+02  0.20000000000E+02  0.00000000000E+00 0. -1.
        -11   -1    0    0    0    0 -0.00000000000E+00 -0.00000000000E+00 -0.20000000000E+02  0.20000000000E+02  0.00000000000E+00 0.  1.
          5    1    1    2  501    0  0.12971895482E+01  0.41832312589E+01 -0.18940112870E+02  0.20000000000E+02  0.47000000000E+01 0.  1.
         -5    1    1    2    0  501 -0.12971895482E+01 -0.41832312589E+01  0.18940112870E+02  0.20000000000E+02  0.47000000000E+01 0. -1.
</event>
<event>
 4    1  0.5025809E-002  0.4000000E+02  0.7546771E-02  0.1348030E+00
         11   -1    0    0    0    0  0.00000000000E+00  0.00000000000E+00  0.20000000000E+02  0.20000000000E+02  0.00000000000E+00 0.  1.
        -11   -1    0    0    0    0 -0.00000000000E+00 -0.00000000000E+00 -0.20000000000E+02  0.20000000000E+02  0.00000000000E+00 0. -1.
          5    1    1    2  501    0 -0.11939089705E+02  0.10278797363E+02 -0.11389225689E+02  0.20000000000E+02  0.47000000000E+01 0. -1.
         -5    1    1    2    0  501  0.11939089705E+02 -0.10278797363E+02  0.11389225689E+02  0.20000000000E+02  0.47000000000E+01 0.  1.
</event>
<event>
 4    1  0.5025809E-002  0.4000000E+02  0.7546771E-02  0.1348030E+00
         11   -1    0    0    0    0  0.00000000000E+00  0.00000000000E+00  0.20000000000E+02  0.20000000000E+02  0.00000000000E+00 0.  1.
        -11   -1    0    0    0    0 -0.00000000000E+00 -0.00000000000E+00 -0.20000000000E+02  0.20000000000E+02  0.00000000000E+00 0. -1.
          5    1    1    2  501    0  0.17320833533E+02 -0.58934973567E+01 -0.65700391641E+01  0.20000000000E+02  0.47000000000E+01 0. -1.
         -5    1    1    2    0  501 -0.17320833533E+02  0.58934973567E+01  0.65700391641E+01  0.20000000000E+02  0.47000000000E+01 0.  1.
</event>
<event>
 4    1  0.5025809E-002  0.4000000E+02  0.7546771E-02  0.1348030E+00
         11   -1    0    0    0    0  0.00000000000E+00  0.00000000000E+00  0.20000000000E+02  0.20000000000E+02  0.00000000000E+00 0.  1.
        -11   -1    0    0    0    0 -0.00000000000E+00 -0.00000000000E+00 -0.20000000000E+02  0.20000000000E+02  0.00000000000E+00 0. -1.
          5    1    1    2  501    0 -0.75652300106E+01 -0.15821948409E+02 -0.83870878987E+01  0.20000000000E+02  0.47000000000E+01 0. -1.
         -5    1    1    2    0  501  0.75652300106E+01  0.15821948409E+02  0.83870878987E+01  0.20000000000E+02  0.47000000000E+01 0.  1.
</event>
<event>
 4    1  0.5025809E-002  0.4000000E+02  0.7546771E-02  0.1348030E+00
         11   -1    0    0    0    0  0.00000000000E+00  0.00000000000E+00  0.20000000000E+02  0.20000000000E+02  0.00000000000E+00 0.  1.
        -11   -1    0    0    0    0 -0.00000000000E+00 -0.00000000000E+00 -0.20000000000E+02  0.20000000000E+02  0.00000000000E+00 0. -1.
          5    1    1    2  501    0  0.66116381242E+01 -0.16635143273E+02  0.75807815949E+01  0.20000000000E+02  0.47000000000E+01 0.  1.
         -5    1    1    2    0  501 -0.66116381242E+01  0.16635143273E+02 -0.75807815949E+01  0.20000000000E+02  0.47000000000E+01 0. -1.
</event>
<event>
 4    1  0.5025809E-002  0.4000000E+02  0.7546771E-02  0.1348030E+00
         11   -1    0    0    0    0  0.00000000000E+00  0.00000000000E+00  0.20000000000E+02  0.20000000000E+02  0.00000000000E+00 0.  1.
        -11   -1    0    0    0    0 -0.00000000000E+00 -0.00000000000E+00 -0.20000000000E+02  0.20000000000E+02  0.00000000000E+00 0. -1.
          5    1    1    2  501    0  0.82616473079E+01  0.12880839118E+02 -0.11989127048E+02  0.20000000000E+02  0.47000000000E+01 0. -1.
         -5    1    1    2    0  501 -0.82616473079E+01 -0.12880839118E+02  0.11989127048E+02  0.20000000000E+02  0.47000000000E+01 0.  1.
</event>
<event>
 4    1  0.5025809E-002  0.4000000E+02  0.7546771E-02  0.1348030E+00
         11   -1    0    0    0    0  0.00000000000E+00  0.00000000000E+00  0.20000000000E+02  0.20000000000E+02  0.00000000000E+00 0. -1.
        -11   -1    0    0    0    0 -0.00000000000E+00 -0.00000000000E+00 -0.20000000000E+02  0.20000000000E+02  0.00000000000E+00 0.  1.
          5    1    1    2  501    0  0.11904526488E+02 -0.54905451261E+01 -0.14354308179E+02  0.20000000000E+02  0.47000000000E+01 0.  1.
         -5    1    1    2    0  501 -0.11904526488E+02  0.54905451261E+01  0.14354308179E+02  0.20000000000E+02  0.47000000000E+01 0. -1.
</event>
<event>
 4    1  0.5025809E-002  0.4000000E+02  0.7546771E-02  0.1348030E+00
         11   -1    0    0    0    0  0.00000000000E+00  0.00000000000E+00  0.20000000000E+02  0.20000000000E+02  0.00000000000E+00 0.  1.
        -11   -1    0    0    0    0 -0.00000000000E+00 -0.00000000000E+00 -0.20000000000E+02  0.20000000000E+02  0.00000000000E+00 0. -1.
          5    1    1    2  501    0 -0.64108849078E+01  0.12204304020E+02 -0.13706404272E+02  0.20000000000E+02  0.47000000000E+01 0. -1.
         -5    1    1    2    0  501  0.64108849078E+01 -0.12204304020E+02  0.13706404272E+02  0.20000000000E+02  0.47000000000E+01 0.  1.
</event>
<event>
 4    1  0.5025809E-002  0.4000000E+02  0.7546771E-02  0.1348030E+00
         11   -1    0    0    0    0  0.00000000000E+00  0.00000000000E+00  0.20000000000E+02  0.20000000000E+02  0.00000000000E+00 0.  1.
        -11   -1    0    0    0    0 -0.00000000000E+00 -0.00000000000E+00 -0.20000000000E+02  0.20000000000E+02  0.00000000000E+00 0. -1.
          5    1    1    2  501    0 -0.77665021565E+01  0.14482870411E+02  0.10384503306E+02  0.20000000000E+02  0.47000000000E+01 0.  1.
         -5    1    1    2    0  501  0.77665021565E+01 -0.14482870411E+02 -0.10384503306E+02  0.20000000000E+02  0.47000000000E+01 0. -1.
</event>
<event>
 4    1  0.5025809E-002  0.4000000E+02  0.7546771E-02  0.1348030E+00
         11   -1    0    0    0    0  0.00000000000E+00  0.00000000000E+00  0.20000000000E+02  0.20000000000E+02  0.00000000000E+00 0.  1.
        -11   -1    0    0    0    0 -0.00000000000E+00 -0.00000000000E+00 -0.20000000000E+02  0.20000000000E+02  0.00000000000E+00 0. -1.
          5    1    1    2  501    0 -0.77714891934E-01 -0.10262458587E+02 -0.16510175776E+02  0.20000000000E+02  0.47000000000E+01 0. -1.
         -5    1    1    2    0  501  0.77714891934E-01  0.10262458587E+02  0.16510175776E+02  0.20000000000E+02  0.47000000000E+01 0.  1.
</event>
<event>
 4    1  0.5025809E-002  0.4000000E+02  0.7546771E-02  0.1348030E+00
         11   -1    0    0    0    0  0.00000000000E+00  0.00000000000E+00  0.20000000000E+02  0.20000000000E+02  0.00000000000E+00 0.  1.
        -11   -1    0    0    0    0 -0.00000000000E+00 -0.00000000000E+00 -0.20000000000E+02  0.20000000000E+02  0.00000000000E+00 0. -1.
          5    1    1    2  501    0 -0.23338989964E+01  0.17842654692E+02 -0.73554462158E+01  0.20000000000E+02  0.47000000000E+01 0. -1.
         -5    1    1    2    0  501  0.23338989964E+01 -0.17842654692E+02  0.73554462158E+01  0.20000000000E+02  0.47000000000E+01 0.  1.
</event>
<event>
 4    1  0.5025809E-002  0.4000000E+02  0.7546771E-02  0.1348030E+00
         11   -1    0    0    0    0  0.00000000000E+00  0.00000000000E+00  0.20000000000E+02  0.20000000000E+02  0.00000000000E+00 0.  1.
        -11   -1    0    0    0    0 -0.00000000000E+00 -0.00000000000E+00 -0.20000000000E+02  0.20000000000E+02  0.00000000000E+00 0. -1.
          5    1    1    2  501    0  0.13824256472E+01  0.11661288218E+02 -0.15492361228E+02  0.20000000000E+02  0.47000000000E+01 0. -1.
         -5    1    1    2    0  501 -0.13824256472E+01 -0.11661288218E+02  0.15492361228E+02  0.20000000000E+02  0.47000000000E+01 0.  1.
</event>
<event>
 4    1  0.5025809E-002  0.4000000E+02  0.7546771E-02  0.1348030E+00
         11   -1    0    0    0    0  0.00000000000E+00  0.00000000000E+00  0.20000000000E+02  0.20000000000E+02  0.00000000000E+00 0. -1.
        -11   -1    0    0    0    0 -0.00000000000E+00 -0.00000000000E+00 -0.20000000000E+02  0.20000000000E+02  0.00000000000E+00 0.  1.
          5    1    1    2  501    0 -0.76733832424E+01  0.39634783574E+01 -0.17416085350E+02  0.20000000000E+02  0.47000000000E+01 0.  1.
         -5    1    1    2    0  501  0.76733832424E+01 -0.39634783574E+01  0.17416085350E+02  0.20000000000E+02  0.47000000000E+01 0. -1.
</event>
<event>
 4    1  0.5025809E-002  0.4000000E+02  0.7546771E-02  0.1348030E+00
         11   -1    0    0    0    0  0.00000000000E+00  0.00000000000E+00  0.20000000000E+02  0.20000000000E+02  0.00000000000E+00 0.  1.
        -11   -1    0    0    0    0 -0.00000000000E+00 -0.00000000000E+00 -0.20000000000E+02  0.20000000000E+02  0.00000000000E+00 0. -1.
          5    1    1    2  501    0  0.10621701500E+02 -0.15359936551E+02 -0.54001672553E+01  0.20000000000E+02  0.47000000000E+01 0.  1.
         -5    1    1    2    0  501 -0.10621701500E+02  0.15359936551E+02  0.54001672553E+01  0.20000000000E+02  0.47000000000E+01 0. -1.
</event>
<event>
 4    1  0.5025809E-002  0.4000000E+02  0.7546771E-02  0.1348030E+00
         11   -1    0    0    0    0  0.00000000000E+00  0.00000000000E+00  0.20000000000E+02  0.20000000000E+02  0.00000000000E+00 0.  1.
        -11   -1    0    0    0    0 -0.00000000000E+00 -0.00000000000E+00 -0.20000000000E+02  0.20000000000E+02  0.00000000000E+00 0. -1.
          5    1    1    2  501    0 -0.69309375826E+00  0.10696401841E+02  0.16217786800E+02  0.20000000000E+02  0.47000000000E+01 0.  1.
         -5    1    1    2    0  501  0.69309375826E+00 -0.10696401841E+02 -0.16217786800E+02  0.20000000000E+02  0.47000000000E+01 0. -1.
</event>
<event>
 4    1  0.5025809E-002  0.4000000E+02  0.7546771E-02  0.1348030E+00
         11   -1    0    0    0    0  0.00000000000E+00  0.00000000000E+00  0.20000000000E+02  0.20000000000E+02  0.00000000000E+00 0.  1.
        -11   -1    0    0    0    0 -0.00000000000E+00 -0.00000000000E+00 -0.20000000000E+02  0.20000000000E+02  0.00000000000E+00 0. -1.
          5    1    1    2  501    0  0.13942337204E+02  0.88948989421E+01 -0.10217729988E+02  0.20000000000E+02  0.47000000000E+01 0. -1.
         -5    1    1    2    0  501 -0.13942337204E+02 -0.88948989421E+01  0.10217729988E+02  0.20000000000E+02  0.47000000000E+01 0.  1.
</event>
<event>
 4    1  0.5025809E-002  0.4000000E+02  0.7546771E-02  0.1348030E+00
         11   -1    0    0    0    0  0.00000000000E+00  0.00000000000E+00  0.20000000000E+02  0.20000000000E+02  0.00000000000E+00 0.  1.
        -11   -1    0    0    0    0 -0.00000000000E+00 -0.00000000000E+00 -0.20000000000E+02  0.20000000000E+02  0.00000000000E+00 0. -1.
          5    1    1    2  501    0 -0.61756306015E+01  0.40395804401E+01 -0.17984809605E+02  0.20000000000E+02  0.47000000000E+01 0. -1.
         -5    1    1    2    0  501  0.61756306015E+01 -0.40395804401E+01  0.17984809605E+02  0.20000000000E+02  0.47000000000E+01 0.  1.
</event>
<event>
 4    1  0.5025809E-002  0.4000000E+02  0.7546771E-02  0.1348030E+00
         11   -1    0    0    0    0  0.00000000000E+00  0.00000000000E+00  0.20000000000E+02  0.20000000000E+02  0.00000000000E+00 0.  1.
        -11   -1    0    0    0    0 -0.00000000000E+00 -0.00000000000E+00 -0.20000000000E+02  0.20000000000E+02  0.00000000000E+00 0. -1.
          5    1    1    2  501    0  0.14005006851E+02  0.30768287552E+00 -0.13478691121E+02  0.20000000000E+02  0.47000000000E+01 0. -1.
         -5    1    1    2    0  501 -0.14005006851E+02 -0.30768287552E+00  0.13478691121E+02  0.20000000000E+02  0.47000000000E+01 0.  1.
</event>
<event>
 4    1  0.5025809E-002  0.4000000E+02  0.7546771E-02  0.1348030E+00
         11   -1    0    0    0    0  0.00000000000E+00  0.00000000000E+00  0.20000000000E+02  0.20000000000E+02  0.00000000000E+00 0.  1.
        -11   -1    0    0    0    0 -0.00000000000E+00 -0.00000000000E+00 -0.20000000000E+02  0.20000000000E+02  0.00000000000E+00 0. -1.
          5    1    1    2  501    0  0.91283469301E+01  0.16625122936E+02 -0.42648059387E+01  0.20000000000E+02  0.47000000000E+01 0. -1.
         -5    1    1    2    0  501 -0.91283469301E+01 -0.16625122936E+02  0.42648059387E+01  0.20000000000E+02  0.47000000000E+01 0.  1.
</event>
<event>
 4    1  0.5025809E-002  0.4000000E+02  0.7546771E-02  0.1348030E+00
         11   -1    0    0    0    0  0.00000000000E+00  0.00000000000E+00  0.20000000000E+02  0.20000000000E+02  0.00000000000E+00 0. -1.
        -11   -1    0    0    0    0 -0.00000000000E+00 -0.00000000000E+00 -0.20000000000E+02  0.20000000000E+02  0.00000000000E+00 0.  1.
          5    1    1    2  501    0 -0.17804610761E+02  0.44510826637E+00 -0.77915155306E+01  0.20000000000E+02  0.47000000000E+01 0. -1.
         -5    1    1    2    0  501  0.17804610761E+02 -0.44510826637E+00  0.77915155306E+01  0.20000000000E+02  0.47000000000E+01 0.  1.
</event>
<event>
 4    1  0.5025809E-002  0.4000000E+02  0.7546771E-02  0.1348030E+00
         11   -1    0    0    0    0  0.00000000000E+00  0.00000000000E+00  0.20000000000E+02  0.20000000000E+02  0.00000000000E+00 0.  1.
        -11   -1    0    0    0    0 -0.00000000000E+00 -0.00000000000E+00 -0.20000000000E+02  0.20000000000E+02  0.00000000000E+00 0. -1.
          5    1    1    2  501    0  0.44675876346E+01  0.36368910350E+01 -0.18566735963E+02  0.20000000000E+02  0.47000000000E+01 0. -1.
         -5    1    1    2    0  501 -0.44675876346E+01 -0.36368910350E+01  0.18566735963E+02  0.20000000000E+02  0.47000000000E+01 0.  1.
</event>
<event>
 4    1  0.5025809E-002  0.4000000E+02  0.7546771E-02  0.1348030E+00
         11   -1    0    0    0    0  0.00000000000E+00  0.00000000000E+00  0.20000000000E+02  0.20000000000E+02  0.00000000000E+00 0.  1.
        -11   -1    0    0    0    0 -0.00000000000E+00 -0.00000000000E+00 -0.20000000000E+02  0.20000000000E+02  0.00000000000E+00 0. -1.
          5    1    1    2  501    0 -0.90186050422E+00  0.70023567906E+00  0.19406347354E+02  0.20000000000E+02  0.47000000000E+01 0.  1.
         -5    1    1    2    0  501  0.90186050422E+00 -0.70023567906E+00 -0.19406347354E+02  0.20000000000E+02  0.47000000000E+01 0. -1.
</event>
<event>
 4    1  0.5025809E-002  0.4000000E+02  0.7546771E-02  0.1348030E+00
         11   -1    0    0    0    0  0.00000000000E+00  0.00000000000E+00  0.20000000000E+02  0.20000000000E+02  0.00000000000E+00 0.  1.
        -11   -1    0    0    0    0 -0.00000000000E+00 -0.00000000000E+00 -0.20000000000E+02  0.20000000000E+02  0.00000000000E+00 0. -1.
          5    1    1    2  501    0 -0.89956453643E+01 -0.15895491526E+02 -0.66574554918E+01  0.20000000000E+02  0.47000000000E+01 0. -1.
         -5    1    1    2    0  501  0.89956453643E+01  0.15895491526E+02  0.66574554918E+01  0.20000000000E+02  0.47000000000E+01 0.  1.
</event>
<event>
 4    1  0.5025809E-002  0.4000000E+02  0.7546771E-02  0.1348030E+00
         11   -1    0    0    0    0  0.00000000000E+00  0.00000000000E+00  0.20000000000E+02  0.20000000000E+02  0.00000000000E+00 0.  1.
        -11   -1    0    0    0    0 -0.00000000000E+00 -0.00000000000E+00 -0.20000000000E+02  0.20000000000E+02  0.00000000000E+00 0. -1.
          5    1    1    2  501    0 -0.12578043984E+01  0.13534999053E+02 -0.13897184201E+02  0.20000000000E+02  0.47000000000E+01 0. -1.
         -5    1    1    2    0  501  0.12578043984E+01 -0.13534999053E+02  0.13897184201E+02  0.20000000000E+02  0.47000000000E+01 0.  1.
</event>
<event>
 4    1  0.5025809E-002  0.4000000E+02  0.7546771E-02  0.1348030E+00
         11   -1    0    0    0    0  0.00000000000E+00  0.00000000000E+00  0.20000000000E+02  0.20000000000E+02  0.00000000000E+00 0.  1.
        -11   -1    0    0    0    0 -0.00000000000E+00 -0.00000000000E+00 -0.20000000000E+02  0.20000000000E+02  0.00000000000E+00 0. -1.
          5    1    1    2  501    0  0.41297898355E+00  0.14590353884E+02 -0.12839821724E+02  0.20000000000E+02  0.47000000000E+01 0. -1.
         -5    1    1    2    0  501 -0.41297898355E+00 -0.14590353884E+02  0.12839821724E+02  0.20000000000E+02  0.47000000000E+01 0.  1.
</event>
<event>
 4    1  0.5025809E-002  0.4000000E+02  0.7546771E-02  0.1348030E+00
         11   -1    0    0    0    0  0.00000000000E+00  0.00000000000E+00  0.20000000000E+02  0.20000000000E+02  0.00000000000E+00 0.  1.
        -11   -1    0    0    0    0 -0.00000000000E+00 -0.00000000000E+00 -0.20000000000E+02  0.20000000000E+02  0.00000000000E+00 0. -1.
          5    1    1    2  501    0 -0.12499003500E+02 -0.45057453675E+01 -0.14190953816E+02  0.20000000000E+02  0.47000000000E+01 0. -1.
         -5    1    1    2    0  501  0.12499003500E+02  0.45057453675E+01  0.14190953816E+02  0.20000000000E+02  0.47000000000E+01 0.  1.
</event>
<event>
 4    1  0.5025809E-002  0.4000000E+02  0.7546771E-02  0.1348030E+00
         11   -1    0    0    0    0  0.00000000000E+00  0.00000000000E+00  0.20000000000E+02  0.20000000000E+02  0.00000000000E+00 0.  1.
        -11   -1    0    0    0    0 -0.00000000000E+00 -0.00000000000E+00 -0.20000000000E+02  0.20000000000E+02  0.00000000000E+00 0. -1.
          5    1    1    2  501    0  0.10057098030E+02  0.15534783028E+02 -0.59527552850E+01  0.20000000000E+02  0.47000000000E+01 0.  1.
         -5    1    1    2    0  501 -0.10057098030E+02 -0.15534783028E+02  0.59527552850E+01  0.20000000000E+02  0.47000000000E+01 0. -1.
</event>
<event>
 4    1  0.5025809E-002  0.4000000E+02  0.7546771E-02  0.1348030E+00
         11   -1    0    0    0    0  0.00000000000E+00  0.00000000000E+00  0.20000000000E+02  0.20000000000E+02  0.00000000000E+00 0.  1.
        -11   -1    0    0    0    0 -0.00000000000E+00 -0.00000000000E+00 -0.20000000000E+02  0.20000000000E+02  0.00000000000E+00 0. -1.
          5    1    1    2  501    0  0.24623562580E+01  0.68480693245E+00 -0.19271166055E+02  0.20000000000E+02  0.47000000000E+01 0. -1.
         -5    1    1    2    0  501 -0.24623562580E+01 -0.68480693245E+00  0.19271166055E+02  0.20000000000E+02  0.47000000000E+01 0.  1.
</event>
<event>
 4    1  0.5025809E-002  0.4000000E+02  0.7546771E-02  0.1348030E+00
         11   -1    0    0    0    0  0.00000000000E+00  0.00000000000E+00  0.20000000000E+02  0.20000000000E+02  0.00000000000E+00 0. -1.
        -11   -1    0    0    0    0 -0.00000000000E+00 -0.00000000000E+00 -0.20000000000E+02  0.20000000000E+02  0.00000000000E+00 0.  1.
          5    1    1    2  501    0  0.66776054796E+01 -0.69892810063E+01 -0.16866224713E+02  0.20000000000E+02  0.47000000000E+01 0.  1.
         -5    1    1    2    0  501 -0.66776054796E+01  0.69892810063E+01  0.16866224713E+02  0.20000000000E+02  0.47000000000E+01 0. -1.
</event>
<event>
 4    1  0.5025809E-002  0.4000000E+02  0.7546771E-02  0.1348030E+00
         11   -1    0    0    0    0  0.00000000000E+00  0.00000000000E+00  0.20000000000E+02  0.20000000000E+02  0.00000000000E+00 0.  1.
        -11   -1    0    0    0    0 -0.00000000000E+00 -0.00000000000E+00 -0.20000000000E+02  0.20000000000E+02  0.00000000000E+00 0. -1.
          5    1    1    2  501    0  0.85848099334E+01 -0.13447613309E+02 -0.11107327974E+02  0.20000000000E+02  0.47000000000E+01 0. -1.
         -5    1    1    2    0  501 -0.85848099334E+01  0.13447613309E+02  0.11107327974E+02  0.20000000000E+02  0.47000000000E+01 0.  1.
</event>
<event>
 4    1  0.5025809E-002  0.4000000E+02  0.7546771E-02  0.1348030E+00
         11   -1    0    0    0    0  0.00000000000E+00  0.00000000000E+00  0.20000000000E+02  0.20000000000E+02  0.00000000000E+00 0. -1.
        -11   -1    0    0    0    0 -0.00000000000E+00 -0.00000000000E+00 -0.20000000000E+02  0.20000000000E+02  0.00000000000E+00 0.  1.
          5    1    1    2  501    0  0.50780115925E+01  0.18190608877E+02  0.46071191579E+01  0.20000000000E+02  0.47000000000E+01 0.  1.
         -5    1    1    2    0  501 -0.50780115925E+01 -0.18190608877E+02 -0.46071191579E+01  0.20000000000E+02  0.47000000000E+01 0. -1.
</event>
<event>
 4    1  0.5025809E-002  0.4000000E+02  0.7546771E-02  0.1348030E+00
         11   -1    0    0    0    0  0.00000000000E+00  0.00000000000E+00  0.20000000000E+02  0.20000000000E+02  0.00000000000E+00 0.  1.
        -11   -1    0    0    0    0 -0.00000000000E+00 -0.00000000000E+00 -0.20000000000E+02  0.20000000000E+02  0.00000000000E+00 0. -1.
          5    1    1    2  501    0 -0.14560607958E+02  0.87020486228E+01  0.94959489075E+01  0.20000000000E+02  0.47000000000E+01 0.  1.
         -5    1    1    2    0  501  0.14560607958E+02 -0.87020486228E+01 -0.94959489075E+01  0.20000000000E+02  0.47000000000E+01 0. -1.
</event>
<event>
 4    1  0.5025809E-002  0.4000000E+02  0.7546771E-02  0.1348030E+00
         11   -1    0    0    0    0  0.00000000000E+00  0.00000000000E+00  0.20000000000E+02  0.20000000000E+02  0.00000000000E+00 0.  1.
        -11   -1    0    0    0    0 -0.00000000000E+00 -0.00000000000E+00 -0.20000000000E+02  0.20000000000E+02  0.00000000000E+00 0. -1.
          5    1    1    2  501    0  0.14233753435E+02  0.70175802042E+01  0.11227815069E+02  0.20000000000E+02  0.47000000000E+01 0.  1.
         -5    1    1    2    0  501 -0.14233753435E+02 -0.70175802042E+01 -0.11227815069E+02  0.20000000000E+02  0.47000000000E+01 0. -1.
</event>
<event>
 4    1  0.5025809E-002  0.4000000E+02  0.7546771E-02  0.1348030E+00
         11   -1    0    0    0    0  0.00000000000E+00  0.00000000000E+00  0.20000000000E+02  0.20000000000E+02  0.00000000000E+00 0.  1.
        -11   -1    0    0    0    0 -0.00000000000E+00 -0.00000000000E+00 -0.20000000000E+02  0.20000000000E+02  0.00000000000E+00 0. -1.
          5    1    1    2  501    0  0.15855735538E+02  0.74314451660E+01 -0.84427053296E+01  0.20000000000E+02  0.47000000000E+01 0. -1.
         -5    1    1    2    0  501 -0.15855735538E+02 -0.74314451660E+01  0.84427053296E+01  0.20000000000E+02  0.47000000000E+01 0.  1.
</event>
<event>
 4    1  0.5025809E-002  0.4000000E+02  0.7546771E-02  0.1348030E+00
         11   -1    0    0    0    0  0.00000000000E+00  0.00000000000E+00  0.20000000000E+02  0.20000000000E+02  0.00000000000E+00 0.  1.
        -11   -1    0    0    0    0 -0.00000000000E+00 -0.00000000000E+00 -0.20000000000E+02  0.20000000000E+02  0.00000000000E+00 0. -1.
          5    1    1    2  501    0 -0.86891689469E+00 -0.12292018626E+02 -0.15035333768E+02  0.20000000000E+02  0.47000000000E+01 0. -1.
         -5    1    1    2    0  501  0.86891689469E+00  0.12292018626E+02  0.15035333768E+02  0.20000000000E+02  0.47000000000E+01 0.  1.
</event>
<event>
 4    1  0.5025809E-002  0.4000000E+02  0.7546771E-02  0.1348030E+00
         11   -1    0    0    0    0  0.00000000000E+00  0.00000000000E+00  0.20000000000E+02  0.20000000000E+02  0.00000000000E+00 0.  1.
        -11   -1    0    0    0    0 -0.00000000000E+00 -0.00000000000E+00 -0.20000000000E+02  0.20000000000E+02  0.00000000000E+00 0. -1.
          5    1    1    2  501    0 -0.15483093934E+02  0.74901659060E+01  0.90598684835E+01  0.20000000000E+02  0.47000000000E+01 0.  1.
         -5    1    1    2    0  501  0.15483093934E+02 -0.74901659060E+01 -0.90598684835E+01  0.20000000000E+02  0.47000000000E+01 0. -1.
</event>
<event>
 4    1  0.5025809E-002  0.4000000E+02  0.7546771E-02  0.1348030E+00
         11   -1    0    0    0    0  0.00000000000E+00  0.00000000000E+00  0.20000000000E+02  0.20000000000E+02  0.00000000000E+00 0.  1.
        -11   -1    0    0    0    0 -0.00000000000E+00 -0.00000000000E+00 -0.20000000000E+02  0.20000000000E+02  0.00000000000E+00 0. -1.
          5    1    1    2  501    0 -0.52538206063E+01 -0.11369266936E+02  0.14867654098E+02  0.20000000000E+02  0.47000000000E+01 0.  1.
         -5    1    1    2    0  501  0.52538206063E+01  0.11369266936E+02 -0.14867654098E+02  0.20000000000E+02  0.47000000000E+01 0. -1.
</event>
<event>
 4    1  0.5025809E-002  0.4000000E+02  0.7546771E-02  0.1348030E+00
         11   -1    0    0    0    0  0.00000000000E+00  0.00000000000E+00  0.20000000000E+02  0.20000000000E+02  0.00000000000E+00 0.  1.
        -11   -1    0    0    0    0 -0.00000000000E+00 -0.00000000000E+00 -0.20000000000E+02  0.20000000000E+02  0.00000000000E+00 0. -1.
          5    1    1    2  501    0  0.53270775332E+01 -0.14148893547E+02 -0.12220517843E+02  0.20000000000E+02  0.47000000000E+01 0. -1.
         -5    1    1    2    0  501 -0.53270775332E+01  0.14148893547E+02  0.12220517843E+02  0.20000000000E+02  0.47000000000E+01 0.  1.
</event>
<event>
 4    1  0.5025809E-002  0.4000000E+02  0.7546771E-02  0.1348030E+00
         11   -1    0    0    0    0  0.00000000000E+00  0.00000000000E+00  0.20000000000E+02  0.20000000000E+02  0.00000000000E+00 0.  1.
        -11   -1    0    0    0    0 -0.00000000000E+00 -0.00000000000E+00 -0.20000000000E+02  0.20000000000E+02  0.00000000000E+00 0. -1.
          5    1    1    2  501    0  0.64948277974E+00 -0.12052657017E+02 -0.15238819868E+02  0.20000000000E+02  0.47000000000E+01 0. -1.
         -5    1    1    2    0  501 -0.64948277974E+00  0.12052657017E+02  0.15238819868E+02  0.20000000000E+02  0.47000000000E+01 0.  1.
</event>
<event>
 4    1  0.5025809E-002  0.4000000E+02  0.7546771E-02  0.1348030E+00
         11   -1    0    0    0    0  0.00000000000E+00  0.00000000000E+00  0.20000000000E+02  0.20000000000E+02  0.00000000000E+00 0.  1.
        -11   -1    0    0    0    0 -0.00000000000E+00 -0.00000000000E+00 -0.20000000000E+02  0.20000000000E+02  0.00000000000E+00 0. -1.
          5    1    1    2  501    0  0.51307296157E+01  0.33325406670E+01 -0.18452094361E+02  0.20000000000E+02  0.47000000000E+01 0. -1.
         -5    1    1    2    0  501 -0.51307296157E+01 -0.33325406670E+01  0.18452094361E+02  0.20000000000E+02  0.47000000000E+01 0.  1.
</event>
<event>
 4    1  0.5025809E-002  0.4000000E+02  0.7546771E-02  0.1348030E+00
         11   -1    0    0    0    0  0.00000000000E+00  0.00000000000E+00  0.20000000000E+02  0.20000000000E+02  0.00000000000E+00 0.  1.
        -11   -1    0    0    0    0 -0.00000000000E+00 -0.00000000000E+00 -0.20000000000E+02  0.20000000000E+02  0.00000000000E+00 0. -1.
          5    1    1    2  501    0 -0.29870762187E+01 -0.11191977305E+02 -0.15611759019E+02  0.20000000000E+02  0.47000000000E+01 0. -1.
         -5    1    1    2    0  501  0.29870762187E+01  0.11191977305E+02  0.15611759019E+02  0.20000000000E+02  0.47000000000E+01 0.  1.
</event>
<event>
 4    1  0.5025809E-002  0.4000000E+02  0.7546771E-02  0.1348030E+00
         11   -1    0    0    0    0  0.00000000000E+00  0.00000000000E+00  0.20000000000E+02  0.20000000000E+02  0.00000000000E+00 0.  1.
        -11   -1    0    0    0    0 -0.00000000000E+00 -0.00000000000E+00 -0.20000000000E+02  0.20000000000E+02  0.00000000000E+00 0. -1.
          5    1    1    2  501    0 -0.72778318171E+01  0.14717563258E+02 -0.10408481915E+02  0.20000000000E+02  0.47000000000E+01 0. -1.
         -5    1    1    2    0  501  0.72778318171E+01 -0.14717563258E+02  0.10408481915E+02  0.20000000000E+02  0.47000000000E+01 0.  1.
</event>
<event>
 4    1  0.5025809E-002  0.4000000E+02  0.7546771E-02  0.1348030E+00
         11   -1    0    0    0    0  0.00000000000E+00  0.00000000000E+00  0.20000000000E+02  0.20000000000E+02  0.00000000000E+00 0. -1.
        -11   -1    0    0    0    0 -0.00000000000E+00 -0.00000000000E+00 -0.20000000000E+02  0.20000000000E+02  0.00000000000E+00 0.  1.
          5    1    1    2  501    0  0.12641414613E+02  0.96388578416E+01 -0.11189149034E+02  0.20000000000E+02  0.47000000000E+01 0.  1.
         -5    1    1    2    0  501 -0.12641414613E+02 -0.96388578416E+01  0.11189149034E+02  0.20000000000E+02  0.47000000000E+01 0. -1.
</event>
<event>
 4    1  0.5025809E-002  0.4000000E+02  0.7546771E-02  0.1348030E+00
         11   -1    0    0    0    0  0.00000000000E+00  0.00000000000E+00  0.20000000000E+02  0.20000000000E+02  0.00000000000E+00 0.  1.
        -11   -1    0    0    0    0 -0.00000000000E+00 -0.00000000000E+00 -0.20000000000E+02  0.20000000000E+02  0.00000000000E+00 0. -1.
          5    1    1    2  501    0  0.91448876290E+01 -0.14187258447E+02 -0.96437922006E+01  0.20000000000E+02  0.47000000000E+01 0. -1.
         -5    1    1    2    0  501 -0.91448876290E+01  0.14187258447E+02  0.96437922006E+01  0.20000000000E+02  0.47000000000E+01 0. -1.
</event>
<event>
 4    1  0.5025809E-002  0.4000000E+02  0.7546771E-02  0.1348030E+00
         11   -1    0    0    0    0  0.00000000000E+00  0.00000000000E+00  0.20000000000E+02  0.20000000000E+02  0.00000000000E+00 0.  1.
        -11   -1    0    0    0    0 -0.00000000000E+00 -0.00000000000E+00 -0.20000000000E+02  0.20000000000E+02  0.00000000000E+00 0. -1.
          5    1    1    2  501    0  0.55990062546E+01 -0.80735459195E+01 -0.16774354988E+02  0.20000000000E+02  0.47000000000E+01 0. -1.
         -5    1    1    2    0  501 -0.55990062546E+01  0.80735459195E+01  0.16774354988E+02  0.20000000000E+02  0.47000000000E+01 0.  1.
</event>
<event>
 4    1  0.5025809E-002  0.4000000E+02  0.7546771E-02  0.1348030E+00
         11   -1    0    0    0    0  0.00000000000E+00  0.00000000000E+00  0.20000000000E+02  0.20000000000E+02  0.00000000000E+00 0. -1.
        -11   -1    0    0    0    0 -0.00000000000E+00 -0.00000000000E+00 -0.20000000000E+02  0.20000000000E+02  0.00000000000E+00 0.  1.
          5    1    1    2  501    0  0.52967277811E+01 -0.11135456286E+02 -0.15028515832E+02  0.20000000000E+02  0.47000000000E+01 0.  1.
         -5    1    1    2    0  501 -0.52967277811E+01  0.11135456286E+02  0.15028515832E+02  0.20000000000E+02  0.47000000000E+01 0. -1.
</event>
<event>
 4    1  0.5025809E-002  0.4000000E+02  0.7546771E-02  0.1348030E+00
         11   -1    0    0    0    0  0.00000000000E+00  0.00000000000E+00  0.20000000000E+02  0.20000000000E+02  0.00000000000E+00 0. -1.
        -11   -1    0    0    0    0 -0.00000000000E+00 -0.00000000000E+00 -0.20000000000E+02  0.20000000000E+02  0.00000000000E+00 0.  1.
          5    1    1    2  501    0  0.17975802564E+02 -0.77932143172E-01 -0.74009762043E+01  0.20000000000E+02  0.47000000000E+01 0.  1.
         -5    1    1    2    0  501 -0.17975802564E+02  0.77932143172E-01  0.74009762043E+01  0.20000000000E+02  0.47000000000E+01 0. -1.
</event>
<event>
 4    1  0.5025809E-002  0.4000000E+02  0.7546771E-02  0.1348030E+00
         11   -1    0    0    0    0  0.00000000000E+00  0.00000000000E+00  0.20000000000E+02  0.20000000000E+02  0.00000000000E+00 0.  1.
        -11   -1    0    0    0    0 -0.00000000000E+00 -0.00000000000E+00 -0.20000000000E+02  0.20000000000E+02  0.00000000000E+00 0. -1.
          5    1    1    2  501    0 -0.11958876456E+02  0.65270234714E+01 -0.13866983757E+02  0.20000000000E+02  0.47000000000E+01 0. -1.
         -5    1    1    2    0  501  0.11958876456E+02 -0.65270234714E+01  0.13866983757E+02  0.20000000000E+02  0.47000000000E+01 0.  1.
</event>
<event>
 4    1  0.5025809E-002  0.4000000E+02  0.7546771E-02  0.1348030E+00
         11   -1    0    0    0    0  0.00000000000E+00  0.00000000000E+00  0.20000000000E+02  0.20000000000E+02  0.00000000000E+00 0. -1.
        -11   -1    0    0    0    0 -0.00000000000E+00 -0.00000000000E+00 -0.20000000000E+02  0.20000000000E+02  0.00000000000E+00 0.  1.
          5    1    1    2  501    0 -0.25436775472E+01  0.18752102718E+02  0.44495334815E+01  0.20000000000E+02  0.47000000000E+01 0.  1.
         -5    1    1    2    0  501  0.25436775472E+01 -0.18752102718E+02 -0.44495334815E+01  0.20000000000E+02  0.47000000000E+01 0. -1.
</event>
<event>
 4    1  0.5025809E-002  0.4000000E+02  0.7546771E-02  0.1348030E+00
         11   -1    0    0    0    0  0.00000000000E+00  0.00000000000E+00  0.20000000000E+02  0.20000000000E+02  0.00000000000E+00 0.  1.
        -11   -1    0    0    0    0 -0.00000000000E+00 -0.00000000000E+00 -0.20000000000E+02  0.20000000000E+02  0.00000000000E+00 0. -1.
          5    1    1    2  501    0  0.64894308190E+01 -0.60393061417E+01  0.17300984624E+02  0.20000000000E+02  0.47000000000E+01 0.  1.
         -5    1    1    2    0  501 -0.64894308190E+01  0.60393061417E+01 -0.17300984624E+02  0.20000000000E+02  0.47000000000E+01 0. -1.
</event>
<event>
 4    1  0.5025809E-002  0.4000000E+02  0.7546771E-02  0.1348030E+00
         11   -1    0    0    0    0  0.00000000000E+00  0.00000000000E+00  0.20000000000E+02  0.20000000000E+02  0.00000000000E+00 0. -1.
        -11   -1    0    0    0    0 -0.00000000000E+00 -0.00000000000E+00 -0.20000000000E+02  0.20000000000E+02  0.00000000000E+00 0.  1.
          5    1    1    2  501    0  0.17516773425E+02 -0.12495388084E+01 -0.83373437938E+01  0.20000000000E+02  0.47000000000E+01 0.  1.
         -5    1    1    2    0  501 -0.17516773425E+02  0.12495388084E+01  0.83373437938E+01  0.20000000000E+02  0.47000000000E+01 0.  1.
</event>
<event>
 4    1  0.5025809E-002  0.4000000E+02  0.7546771E-02  0.1348030E+00
         11   -1    0    0    0    0  0.00000000000E+00  0.00000000000E+00  0.20000000000E+02  0.20000000000E+02  0.00000000000E+00 0.  1.
        -11   -1    0    0    0    0 -0.00000000000E+00 -0.00000000000E+00 -0.20000000000E+02  0.20000000000E+02  0.00000000000E+00 0. -1.
          5    1    1    2  501    0 -0.19293182126E+02  0.21477880433E+01  0.10344708611E+01  0.20000000000E+02  0.47000000000E+01 0. -1.
         -5    1    1    2    0  501  0.19293182126E+02 -0.21477880433E+01 -0.10344708611E+01  0.20000000000E+02  0.47000000000E+01 0.  1.
</event>
<event>
 4    1  0.5025809E-002  0.4000000E+02  0.7546771E-02  0.1348030E+00
         11   -1    0    0    0    0  0.00000000000E+00  0.00000000000E+00  0.20000000000E+02  0.20000000000E+02  0.00000000000E+00 0. -1.
        -11   -1    0    0    0    0 -0.00000000000E+00 -0.00000000000E+00 -0.20000000000E+02  0.20000000000E+02  0.00000000000E+00 0.  1.
          5    1    1    2  501    0 -0.34580470306E+01  0.51329424217E+01 -0.18428369782E+02  0.20000000000E+02  0.47000000000E+01 0.  1.
         -5    1    1    2    0  501  0.34580470306E+01 -0.51329424217E+01  0.18428369782E+02  0.20000000000E+02  0.47000000000E+01 0. -1.
</event>
<event>
 4    1  0.5025809E-002  0.4000000E+02  0.7546771E-02  0.1348030E+00
         11   -1    0    0    0    0  0.00000000000E+00  0.00000000000E+00  0.20000000000E+02  0.20000000000E+02  0.00000000000E+00 0. -1.
        -11   -1    0    0    0    0 -0.00000000000E+00 -0.00000000000E+00 -0.20000000000E+02  0.20000000000E+02  0.00000000000E+00 0.  1.
          5    1    1    2  501    0  0.58897974711E+01  0.11973292431E+02 -0.14137204608E+02  0.20000000000E+02  0.47000000000E+01 0.  1.
         -5    1    1    2    0  501 -0.58897974711E+01 -0.11973292431E+02  0.14137204608E+02  0.20000000000E+02  0.47000000000E+01 0. -1.
</event>
<event>
 4    1  0.5025809E-002  0.4000000E+02  0.7546771E-02  0.1348030E+00
         11   -1    0    0    0    0  0.00000000000E+00  0.00000000000E+00  0.20000000000E+02  0.20000000000E+02  0.00000000000E+00 0.  1.
        -11   -1    0    0    0    0 -0.00000000000E+00 -0.00000000000E+00 -0.20000000000E+02  0.20000000000E+02  0.00000000000E+00 0. -1.
          5    1    1    2  501    0  0.11986960933E+01 -0.80766410214E+01 -0.17642023622E+02  0.20000000000E+02  0.47000000000E+01 0. -1.
         -5    1    1    2    0  501 -0.11986960933E+01  0.80766410214E+01  0.17642023622E+02  0.20000000000E+02  0.47000000000E+01 0.  1.
</event>
<event>
 4    1  0.5025809E-002  0.4000000E+02  0.7546771E-02  0.1348030E+00
         11   -1    0    0    0    0  0.00000000000E+00  0.00000000000E+00  0.20000000000E+02  0.20000000000E+02  0.00000000000E+00 0.  1.
        -11   -1    0    0    0    0 -0.00000000000E+00 -0.00000000000E+00 -0.20000000000E+02  0.20000000000E+02  0.00000000000E+00 0. -1.
          5    1    1    2  501    0 -0.21020069594E+01 -0.29244216851E+01  0.19103385159E+02  0.20000000000E+02  0.47000000000E+01 0.  1.
         -5    1    1    2    0  501  0.21020069594E+01  0.29244216851E+01 -0.19103385159E+02  0.20000000000E+02  0.47000000000E+01 0. -1.
</event>
<event>
 4    1  0.5025809E-002  0.4000000E+02  0.7546771E-02  0.1348030E+00
         11   -1    0    0    0    0  0.00000000000E+00  0.00000000000E+00  0.20000000000E+02  0.20000000000E+02  0.00000000000E+00 0.  1.
        -11   -1    0    0    0    0 -0.00000000000E+00 -0.00000000000E+00 -0.20000000000E+02  0.20000000000E+02  0.00000000000E+00 0. -1.
          5    1    1    2  501    0 -0.13438303636E+02 -0.11287109198E+02 -0.83620070169E+01  0.20000000000E+02  0.47000000000E+01 0. -1.
         -5    1    1    2    0  501  0.13438303636E+02  0.11287109198E+02  0.83620070169E+01  0.20000000000E+02  0.47000000000E+01 0.  1.
</event>
<event>
 4    1  0.5025809E-002  0.4000000E+02  0.7546771E-02  0.1348030E+00
         11   -1    0    0    0    0  0.00000000000E+00  0.00000000000E+00  0.20000000000E+02  0.20000000000E+02  0.00000000000E+00 0. -1.
        -11   -1    0    0    0    0 -0.00000000000E+00 -0.00000000000E+00 -0.20000000000E+02  0.20000000000E+02  0.00000000000E+00 0.  1.
          5    1    1    2  501    0  0.84763474879E+01 -0.15601120462E+02 -0.79162221790E+01  0.20000000000E+02  0.47000000000E+01 0.  1.
         -5    1    1    2    0  501 -0.84763474879E+01  0.15601120462E+02  0.79162221790E+01  0.20000000000E+02  0.47000000000E+01 0. -1.
</event>
<event>
 4    1  0.5025809E-002  0.4000000E+02  0.7546771E-02  0.1348030E+00
         11   -1    0    0    0    0  0.00000000000E+00  0.00000000000E+00  0.20000000000E+02  0.20000000000E+02  0.00000000000E+00 0. -1.
        -11   -1    0    0    0    0 -0.00000000000E+00 -0.00000000000E+00 -0.20000000000E+02  0.20000000000E+02  0.00000000000E+00 0.  1.
          5    1    1    2  501    0 -0.15833868590E+02 -0.43634874368E+00  0.11269791713E+02  0.20000000000E+02  0.47000000000E+01 0. -1.
         -5    1    1    2    0  501  0.15833868590E+02  0.43634874368E+00 -0.11269791713E+02  0.20000000000E+02  0.47000000000E+01 0.  1.
</event>
<event>
 4    1  0.5025809E-002  0.4000000E+02  0.7546771E-02  0.1348030E+00
         11   -1    0    0    0    0  0.00000000000E+00  0.00000000000E+00  0.20000000000E+02  0.20000000000E+02  0.00000000000E+00 0.  1.
        -11   -1    0    0    0    0 -0.00000000000E+00 -0.00000000000E+00 -0.20000000000E+02  0.20000000000E+02  0.00000000000E+00 0. -1.
          5    1    1    2  501    0  0.61042774750E+01 -0.25857442622E+01  0.18274619644E+02  0.20000000000E+02  0.47000000000E+01 0.  1.
         -5    1    1    2    0  501 -0.61042774750E+01  0.25857442622E+01 -0.18274619644E+02  0.20000000000E+02  0.47000000000E+01 0. -1.
</event>
<event>
 4    1  0.5025809E-002  0.4000000E+02  0.7546771E-02  0.1348030E+00
         11   -1    0    0    0    0  0.00000000000E+00  0.00000000000E+00  0.20000000000E+02  0.20000000000E+02  0.00000000000E+00 0.  1.
        -11   -1    0    0    0    0 -0.00000000000E+00 -0.00000000000E+00 -0.20000000000E+02  0.20000000000E+02  0.00000000000E+00 0. -1.
          5    1    1    2  501    0  0.12132560833E+02 -0.13724483573E+02  0.65076507508E+01  0.20000000000E+02  0.47000000000E+01 0.  1.
         -5    1    1    2    0  501 -0.12132560833E+02  0.13724483573E+02 -0.65076507508E+01  0.20000000000E+02  0.47000000000E+01 0. -1.
</event>
<event>
 4    1  0.5025809E-002  0.4000000E+02  0.7546771E-02  0.1348030E+00
         11   -1    0    0    0    0  0.00000000000E+00  0.00000000000E+00  0.20000000000E+02  0.20000000000E+02  0.00000000000E+00 0.  1.
        -11   -1    0    0    0    0 -0.00000000000E+00 -0.00000000000E+00 -0.20000000000E+02  0.20000000000E+02  0.00000000000E+00 0. -1.
          5    1    1    2  501    0  0.93595074052E+01  0.95686841787E+01 -0.14097868783E+02  0.20000000000E+02  0.47000000000E+01 0. -1.
         -5    1    1    2    0  501 -0.93595074052E+01 -0.95686841787E+01  0.14097868783E+02  0.20000000000E+02  0.47000000000E+01 0.  1.
</event>
<event>
 4    1  0.5025809E-002  0.4000000E+02  0.7546771E-02  0.1348030E+00
         11   -1    0    0    0    0  0.00000000000E+00  0.00000000000E+00  0.20000000000E+02  0.20000000000E+02  0.00000000000E+00 0.  1.
        -11   -1    0    0    0    0 -0.00000000000E+00 -0.00000000000E+00 -0.20000000000E+02  0.20000000000E+02  0.00000000000E+00 0. -1.
          5    1    1    2  501    0 -0.16145769033E+02  0.10823892051E+02 -0.25981379219E+00  0.20000000000E+02  0.47000000000E+01 0. -1.
         -5    1    1    2    0  501  0.16145769033E+02 -0.10823892051E+02  0.25981379219E+00  0.20000000000E+02  0.47000000000E+01 0.  1.
</event>
<event>
 4    1  0.5025809E-002  0.4000000E+02  0.7546771E-02  0.1348030E+00
         11   -1    0    0    0    0  0.00000000000E+00  0.00000000000E+00  0.20000000000E+02  0.20000000000E+02  0.00000000000E+00 0.  1.
        -11   -1    0    0    0    0 -0.00000000000E+00 -0.00000000000E+00 -0.20000000000E+02  0.20000000000E+02  0.00000000000E+00 0. -1.
          5    1    1    2  501    0  0.21406312208E+01  0.12432117046E+02 -0.14790881101E+02  0.20000000000E+02  0.47000000000E+01 0. -1.
         -5    1    1    2    0  501 -0.21406312208E+01 -0.12432117046E+02  0.14790881101E+02  0.20000000000E+02  0.47000000000E+01 0.  1.
</event>
<event>
 4    1  0.5025809E-002  0.4000000E+02  0.7546771E-02  0.1348030E+00
         11   -1    0    0    0    0  0.00000000000E+00  0.00000000000E+00  0.20000000000E+02  0.20000000000E+02  0.00000000000E+00 0.  1.
        -11   -1    0    0    0    0 -0.00000000000E+00 -0.00000000000E+00 -0.20000000000E+02  0.20000000000E+02  0.00000000000E+00 0. -1.
          5    1    1    2  501    0  0.54433434038E+01  0.72388422126E+01 -0.17201138800E+02  0.20000000000E+02  0.47000000000E+01 0. -1.
         -5    1    1    2    0  501 -0.54433434038E+01 -0.72388422126E+01  0.17201138800E+02  0.20000000000E+02  0.47000000000E+01 0.  1.
</event>
<event>
 4    1  0.5025809E-002  0.4000000E+02  0.7546771E-02  0.1348030E+00
         11   -1    0    0    0    0  0.00000000000E+00  0.00000000000E+00  0.20000000000E+02  0.20000000000E+02  0.00000000000E+00 0. -1.
        -11   -1    0    0    0    0 -0.00000000000E+00 -0.00000000000E+00 -0.20000000000E+02  0.20000000000E+02  0.00000000000E+00 0.  1.
          5    1    1    2  501    0 -0.17737630622E+02  0.46988621859E+01 -0.64192798727E+01  0.20000000000E+02  0.47000000000E+01 0.  1.
         -5    1    1    2    0  501  0.17737630622E+02 -0.46988621859E+01  0.64192798727E+01  0.20000000000E+02  0.47000000000E+01 0. -1.
</event>
<event>
 4    1  0.5025809E-002  0.4000000E+02  0.7546771E-02  0.1348030E+00
         11   -1    0    0    0    0  0.00000000000E+00  0.00000000000E+00  0.20000000000E+02  0.20000000000E+02  0.00000000000E+00 0.  1.
        -11   -1    0    0    0    0 -0.00000000000E+00 -0.00000000000E+00 -0.20000000000E+02  0.20000000000E+02  0.00000000000E+00 0. -1.
          5    1    1    2  501    0  0.66296113095E+01  0.74815669186E+01 -0.16672864491E+02  0.20000000000E+02  0.47000000000E+01 0. -1.
         -5    1    1    2    0  501 -0.66296113095E+01 -0.74815669186E+01  0.16672864491E+02  0.20000000000E+02  0.47000000000E+01 0.  1.
</event>
<event>
 4    1  0.5025809E-002  0.4000000E+02  0.7546771E-02  0.1348030E+00
         11   -1    0    0    0    0  0.00000000000E+00  0.00000000000E+00  0.20000000000E+02  0.20000000000E+02  0.00000000000E+00 0.  1.
        -11   -1    0    0    0    0 -0.00000000000E+00 -0.00000000000E+00 -0.20000000000E+02  0.20000000000E+02  0.00000000000E+00 0. -1.
          5    1    1    2  501    0  0.18349430078E+02  0.57281766927E+01 -0.28976555363E+01  0.20000000000E+02  0.47000000000E+01 0. -1.
         -5    1    1    2    0  501 -0.18349430078E+02 -0.57281766927E+01  0.28976555363E+01  0.20000000000E+02  0.47000000000E+01 0.  1.
</event>
<event>
 4    1  0.5025809E-002  0.4000000E+02  0.7546771E-02  0.1348030E+00
         11   -1    0    0    0    0  0.00000000000E+00  0.00000000000E+00  0.20000000000E+02  0.20000000000E+02  0.00000000000E+00 0.  1.
        -11   -1    0    0    0    0 -0.00000000000E+00 -0.00000000000E+00 -0.20000000000E+02  0.20000000000E+02  0.00000000000E+00 0. -1.
          5    1    1    2  501    0 -0.40079859468E+01  0.14918784912E+02  0.11801521317E+02  0.20000000000E+02  0.47000000000E+01 0. -1.
         -5    1    1    2    0  501  0.40079859468E+01 -0.14918784912E+02 -0.11801521317E+02  0.20000000000E+02  0.47000000000E+01 0. -1.
</event>
<event>
 4    1  0.5025809E-002  0.4000000E+02  0.7546771E-02  0.1348030E+00
         11   -1    0    0    0    0  0.00000000000E+00  0.00000000000E+00  0.20000000000E+02  0.20000000000E+02  0.00000000000E+00 0.  1.
        -11   -1    0    0    0    0 -0.00000000000E+00 -0.00000000000E+00 -0.20000000000E+02  0.20000000000E+02  0.00000000000E+00 0. -1.
          5    1    1    2  501    0  0.50601958923E+01 -0.54761269853E+01 -0.17953173836E+02  0.20000000000E+02  0.47000000000E+01 0. -1.
         -5    1    1    2    0  501 -0.50601958923E+01  0.54761269853E+01  0.17953173836E+02  0.20000000000E+02  0.47000000000E+01 0.  1.
</event>
<event>
 4    1  0.5025809E-002  0.4000000E+02  0.7546771E-02  0.1348030E+00
         11   -1    0    0    0    0  0.00000000000E+00  0.00000000000E+00  0.20000000000E+02  0.20000000000E+02  0.00000000000E+00 0.  1.
        -11   -1    0    0    0    0 -0.00000000000E+00 -0.00000000000E+00 -0.20000000000E+02  0.20000000000E+02  0.00000000000E+00 0. -1.
          5    1    1    2  501    0 -0.88676637548E+01  0.11424014786E+02 -0.12991013267E+02  0.20000000000E+02  0.47000000000E+01 0. -1.
         -5    1    1    2    0  501  0.88676637548E+01 -0.11424014786E+02  0.12991013267E+02  0.20000000000E+02  0.47000000000E+01 0.  1.
</event>
<event>
 4    1  0.5025809E-002  0.4000000E+02  0.7546771E-02  0.1348030E+00
         11   -1    0    0    0    0  0.00000000000E+00  0.00000000000E+00  0.20000000000E+02  0.20000000000E+02  0.00000000000E+00 0.  1.
        -11   -1    0    0    0    0 -0.00000000000E+00 -0.00000000000E+00 -0.20000000000E+02  0.20000000000E+02  0.00000000000E+00 0. -1.
          5    1    1    2  501    0 -0.10737342969E+01  0.19263112636E+02  0.23852853567E+01  0.20000000000E+02  0.47000000000E+01 0. -1.
         -5    1    1    2    0  501  0.10737342969E+01 -0.19263112636E+02 -0.23852853567E+01  0.20000000000E+02  0.47000000000E+01 0.  1.
</event>
<event>
 4    1  0.5025809E-002  0.4000000E+02  0.7546771E-02  0.1348030E+00
         11   -1    0    0    0    0  0.00000000000E+00  0.00000000000E+00  0.20000000000E+02  0.20000000000E+02  0.00000000000E+00 0.  1.
        -11   -1    0    0    0    0 -0.00000000000E+00 -0.00000000000E+00 -0.20000000000E+02  0.20000000000E+02  0.00000000000E+00 0. -1.
          5    1    1    2  501    0  0.54817066171E+01  0.12977394483E+02 -0.13395824909E+02  0.20000000000E+02  0.47000000000E+01 0. -1.
         -5    1    1    2    0  501 -0.54817066171E+01 -0.12977394483E+02  0.13395824909E+02  0.20000000000E+02  0.47000000000E+01 0.  1.
</event>
<event>
 4    1  0.5025809E-002  0.4000000E+02  0.7546771E-02  0.1348030E+00
         11   -1    0    0    0    0  0.00000000000E+00  0.00000000000E+00  0.20000000000E+02  0.20000000000E+02  0.00000000000E+00 0. -1.
        -11   -1    0    0    0    0 -0.00000000000E+00 -0.00000000000E+00 -0.20000000000E+02  0.20000000000E+02  0.00000000000E+00 0.  1.
          5    1    1    2  501    0 -0.17202350454E+02 -0.48584282845E+01 -0.76409955803E+01  0.20000000000E+02  0.47000000000E+01 0.  1.
         -5    1    1    2    0  501  0.17202350454E+02  0.48584282845E+01  0.76409955803E+01  0.20000000000E+02  0.47000000000E+01 0. -1.
</event>
<event>
 4    1  0.5025809E-002  0.4000000E+02  0.7546771E-02  0.1348030E+00
         11   -1    0    0    0    0  0.00000000000E+00  0.00000000000E+00  0.20000000000E+02  0.20000000000E+02  0.00000000000E+00 0.  1.
        -11   -1    0    0    0    0 -0.00000000000E+00 -0.00000000000E+00 -0.20000000000E+02  0.20000000000E+02  0.00000000000E+00 0. -1.
          5    1    1    2  501    0  0.43963086389E+01  0.75216867272E+01  0.17378339942E+02  0.20000000000E+02  0.47000000000E+01 0.  1.
         -5    1    1    2    0  501 -0.43963086389E+01 -0.75216867272E+01 -0.17378339942E+02  0.20000000000E+02  0.47000000000E+01 0. -1.
</event>
<event>
 4    1  0.5025809E-002  0.4000000E+02  0.7546771E-02  0.1348030E+00
         11   -1    0    0    0    0  0.00000000000E+00  0.00000000000E+00  0.20000000000E+02  0.20000000000E+02  0.00000000000E+00 0. -1.
        -11   -1    0    0    0    0 -0.00000000000E+00 -0.00000000000E+00 -0.20000000000E+02  0.20000000000E+02  0.00000000000E+00 0.  1.
          5    1    1    2  501    0  0.57332556153E+00 -0.16810946446E+02 -0.97454285384E+01  0.20000000000E+02  0.47000000000E+01 0.  1.
         -5    1    1    2    0  501 -0.57332556153E+00  0.16810946446E+02  0.97454285384E+01  0.20000000000E+02  0.47000000000E+01 0. -1.
</event>
<event>
 4    1  0.5025809E-002  0.4000000E+02  0.7546771E-02  0.1348030E+00
         11   -1    0    0    0    0  0.00000000000E+00  0.00000000000E+00  0.20000000000E+02  0.20000000000E+02  0.00000000000E+00 0.  1.
        -11   -1    0    0    0    0 -0.00000000000E+00 -0.00000000000E+00 -0.20000000000E+02  0.20000000000E+02  0.00000000000E+00 0. -1.
          5    1    1    2  501    0 -0.11336219257E+00 -0.19166139964E+02 -0.32490349199E+01  0.20000000000E+02  0.47000000000E+01 0.  1.
         -5    1    1    2    0  501  0.11336219257E+00  0.19166139964E+02  0.32490349199E+01  0.20000000000E+02  0.47000000000E+01 0. -1.
</event>
<event>
 4    1  0.5025809E-002  0.4000000E+02  0.7546771E-02  0.1348030E+00
         11   -1    0    0    0    0  0.00000000000E+00  0.00000000000E+00  0.20000000000E+02  0.20000000000E+02  0.00000000000E+00 0.  1.
        -11   -1    0    0    0    0 -0.00000000000E+00 -0.00000000000E+00 -0.20000000000E+02  0.20000000000E+02  0.00000000000E+00 0. -1.
          5    1    1    2  501    0  0.94681486585E+01  0.15870874264E+02  0.60315430088E+01  0.20000000000E+02  0.47000000000E+01 0.  1.
         -5    1    1    2    0  501 -0.94681486585E+01 -0.15870874264E+02 -0.60315430088E+01  0.20000000000E+02  0.47000000000E+01 0. -1.
</event>
<event>
 4    1  0.5025809E-002  0.4000000E+02  0.7546771E-02  0.1348030E+00
         11   -1    0    0    0    0  0.00000000000E+00  0.00000000000E+00  0.20000000000E+02  0.20000000000E+02  0.00000000000E+00 0.  1.
        -11   -1    0    0    0    0 -0.00000000000E+00 -0.00000000000E+00 -0.20000000000E+02  0.20000000000E+02  0.00000000000E+00 0. -1.
          5    1    1    2  501    0 -0.44006663982E+01 -0.10584190479E+02 -0.15700925042E+02  0.20000000000E+02  0.47000000000E+01 0. -1.
         -5    1    1    2    0  501  0.44006663982E+01  0.10584190479E+02  0.15700925042E+02  0.20000000000E+02  0.47000000000E+01 0.  1.
</event>
<event>
 4    1  0.5025809E-002  0.4000000E+02  0.7546771E-02  0.1348030E+00
         11   -1    0    0    0    0  0.00000000000E+00  0.00000000000E+00  0.20000000000E+02  0.20000000000E+02  0.00000000000E+00 0.  1.
        -11   -1    0    0    0    0 -0.00000000000E+00 -0.00000000000E+00 -0.20000000000E+02  0.20000000000E+02  0.00000000000E+00 0. -1.
          5    1    1    2  501    0  0.77661315089E+01  0.17539386985E+02 -0.31570723093E+01  0.20000000000E+02  0.47000000000E+01 0. -1.
         -5    1    1    2    0  501 -0.77661315089E+01 -0.17539386985E+02  0.31570723093E+01  0.20000000000E+02  0.47000000000E+01 0.  1.
</event>
<event>
 4    1  0.5025809E-002  0.4000000E+02  0.7546771E-02  0.1348030E+00
         11   -1    0    0    0    0  0.00000000000E+00  0.00000000000E+00  0.20000000000E+02  0.20000000000E+02  0.00000000000E+00 0. -1.
        -11   -1    0    0    0    0 -0.00000000000E+00 -0.00000000000E+00 -0.20000000000E+02  0.20000000000E+02  0.00000000000E+00 0.  1.
          5    1    1    2  501    0  0.93341276845E+01 -0.87748707286E+01 -0.14621412519E+02  0.20000000000E+02  0.47000000000E+01 0.  1.
         -5    1    1    2    0  501 -0.93341276845E+01  0.87748707286E+01  0.14621412519E+02  0.20000000000E+02  0.47000000000E+01 0. -1.
</event>
<event>
 4    1  0.5025809E-002  0.4000000E+02  0.7546771E-02  0.1348030E+00
         11   -1    0    0    0    0  0.00000000000E+00  0.00000000000E+00  0.20000000000E+02  0.20000000000E+02  0.00000000000E+00 0.  1.
        -11   -1    0    0    0    0 -0.00000000000E+00 -0.00000000000E+00 -0.20000000000E+02  0.20000000000E+02  0.00000000000E+00 0. -1.
          5    1    1    2  501    0  0.19409285995E+01  0.16964235262E+02  0.92928745907E+01  0.20000000000E+02  0.47000000000E+01 0.  1.
         -5    1    1    2    0  501 -0.19409285995E+01 -0.16964235262E+02 -0.92928745907E+01  0.20000000000E+02  0.47000000000E+01 0. -1.
</event>
<event>
 4    1  0.5025809E-002  0.4000000E+02  0.7546771E-02  0.1348030E+00
         11   -1    0    0    0    0  0.00000000000E+00  0.00000000000E+00  0.20000000000E+02  0.20000000000E+02  0.00000000000E+00 0. -1.
        -11   -1    0    0    0    0 -0.00000000000E+00 -0.00000000000E+00 -0.20000000000E+02  0.20000000000E+02  0.00000000000E+00 0.  1.
          5    1    1    2  501    0 -0.88722945714E+01  0.76678324840E+01  0.15504732633E+02  0.20000000000E+02  0.47000000000E+01 0. -1.
         -5    1    1    2    0  501  0.88722945714E+01 -0.76678324840E+01 -0.15504732633E+02  0.20000000000E+02  0.47000000000E+01 0.  1.
</event>
<event>
 4    1  0.5025809E-002  0.4000000E+02  0.7546771E-02  0.1348030E+00
         11   -1    0    0    0    0  0.00000000000E+00  0.00000000000E+00  0.20000000000E+02  0.20000000000E+02  0.00000000000E+00 0.  1.
        -11   -1    0    0    0    0 -0.00000000000E+00 -0.00000000000E+00 -0.20000000000E+02  0.20000000000E+02  0.00000000000E+00 0. -1.
          5    1    1    2  501    0  0.10745624796E+02  0.39392685779E+01 -0.15713806375E+02  0.20000000000E+02  0.47000000000E+01 0. -1.
         -5    1    1    2    0  501 -0.10745624796E+02 -0.39392685779E+01  0.15713806375E+02  0.20000000000E+02  0.47000000000E+01 0.  1.
</event>
<event>
 4    1  0.5025809E-002  0.4000000E+02  0.7546771E-02  0.1348030E+00
         11   -1    0    0    0    0  0.00000000000E+00  0.00000000000E+00  0.20000000000E+02  0.20000000000E+02  0.00000000000E+00 0.  1.
        -11   -1    0    0    0    0 -0.00000000000E+00 -0.00000000000E+00 -0.20000000000E+02  0.20000000000E+02  0.00000000000E+00 0. -1.
          5    1    1    2  501    0  0.17584545559E+02 -0.60192470350E+01  0.56975804165E+01  0.20000000000E+02  0.47000000000E+01 0.  1.
         -5    1    1    2    0  501 -0.17584545559E+02  0.60192470350E+01 -0.56975804165E+01  0.20000000000E+02  0.47000000000E+01 0. -1.
</event>
<event>
 4    1  0.5025809E-002  0.4000000E+02  0.7546771E-02  0.1348030E+00
         11   -1    0    0    0    0  0.00000000000E+00  0.00000000000E+00  0.20000000000E+02  0.20000000000E+02  0.00000000000E+00 0. -1.
        -11   -1    0    0    0    0 -0.00000000000E+00 -0.00000000000E+00 -0.20000000000E+02  0.20000000000E+02  0.00000000000E+00 0.  1.
          5    1    1    2  501    0 -0.36939802386E+01  0.15543138383E+02  0.11075890898E+02  0.20000000000E+02  0.47000000000E+01 0. -1.
         -5    1    1    2    0  501  0.36939802386E+01 -0.15543138383E+02 -0.11075890898E+02  0.20000000000E+02  0.47000000000E+01 0. -1.
</event>
<event>
 4    1  0.5025809E-002  0.4000000E+02  0.7546771E-02  0.1348030E+00
         11   -1    0    0    0    0  0.00000000000E+00  0.00000000000E+00  0.20000000000E+02  0.20000000000E+02  0.00000000000E+00 0. -1.
        -11   -1    0    0    0    0 -0.00000000000E+00 -0.00000000000E+00 -0.20000000000E+02  0.20000000000E+02  0.00000000000E+00 0.  1.
          5    1    1    2  501    0  0.17633446384E+02  0.74248095902E+01 -0.34414780497E+01  0.20000000000E+02  0.47000000000E+01 0.  1.
         -5    1    1    2    0  501 -0.17633446384E+02 -0.74248095902E+01  0.34414780497E+01  0.20000000000E+02  0.47000000000E+01 0. -1.
</event>
<event>
 4    1  0.5025809E-002  0.4000000E+02  0.7546771E-02  0.1348030E+00
         11   -1    0    0    0    0  0.00000000000E+00  0.00000000000E+00  0.20000000000E+02  0.20000000000E+02  0.00000000000E+00 0.  1.
        -11   -1    0    0    0    0 -0.00000000000E+00 -0.00000000000E+00 -0.20000000000E+02  0.20000000000E+02  0.00000000000E+00 0. -1.
          5    1    1    2  501    0 -0.19062240331E+02  0.33201298737E+01  0.18755615615E+01  0.20000000000E+02  0.47000000000E+01 0. -1.
         -5    1    1    2    0  501  0.19062240331E+02 -0.33201298737E+01 -0.18755615615E+01  0.20000000000E+02  0.47000000000E+01 0.  1.
</event>
<event>
 4    1  0.5025809E-002  0.4000000E+02  0.7546771E-02  0.1348030E+00
         11   -1    0    0    0    0  0.00000000000E+00  0.00000000000E+00  0.20000000000E+02  0.20000000000E+02  0.00000000000E+00 0.  1.
        -11   -1    0    0    0    0 -0.00000000000E+00 -0.00000000000E+00 -0.20000000000E+02  0.20000000000E+02  0.00000000000E+00 0. -1.
          5    1    1    2  501    0 -0.19972501325E+01 -0.86813940294E+01  0.17278726504E+02  0.20000000000E+02  0.47000000000E+01 0.  1.
         -5    1    1    2    0  501  0.19972501325E+01  0.86813940294E+01 -0.17278726504E+02  0.20000000000E+02  0.47000000000E+01 0. -1.
</event>
<event>
 4    1  0.5025809E-002  0.4000000E+02  0.7546771E-02  0.1348030E+00
         11   -1    0    0    0    0  0.00000000000E+00  0.00000000000E+00  0.20000000000E+02  0.20000000000E+02  0.00000000000E+00 0.  1.
        -11   -1    0    0    0    0 -0.00000000000E+00 -0.00000000000E+00 -0.20000000000E+02  0.20000000000E+02  0.00000000000E+00 0. -1.
          5    1    1    2  501    0 -0.57926855119E+01  0.99008303320E+01  0.15694851172E+02  0.20000000000E+02  0.47000000000E+01 0.  1.
         -5    1    1    2    0  501  0.57926855119E+01 -0.99008303320E+01 -0.15694851172E+02  0.20000000000E+02  0.47000000000E+01 0. -1.
</event>
<event>
 4    1  0.5025809E-002  0.4000000E+02  0.7546771E-02  0.1348030E+00
         11   -1    0    0    0    0  0.00000000000E+00  0.00000000000E+00  0.20000000000E+02  0.20000000000E+02  0.00000000000E+00 0.  1.
        -11   -1    0    0    0    0 -0.00000000000E+00 -0.00000000000E+00 -0.20000000000E+02  0.20000000000E+02  0.00000000000E+00 0. -1.
          5    1    1    2  501    0  0.12199394089E+01  0.21986992252E+01 -0.19276604202E+02  0.20000000000E+02  0.47000000000E+01 0. -1.
         -5    1    1    2    0  501 -0.12199394089E+01 -0.21986992252E+01  0.19276604202E+02  0.20000000000E+02  0.47000000000E+01 0.  1.
</event>
<event>
 4    1  0.5025809E-002  0.4000000E+02  0.7546771E-02  0.1348030E+00
         11   -1    0    0    0    0  0.00000000000E+00  0.00000000000E+00  0.20000000000E+02  0.20000000000E+02  0.00000000000E+00 0.  1.
        -11   -1    0    0    0    0 -0.00000000000E+00 -0.00000000000E+00 -0.20000000000E+02  0.20000000000E+02  0.00000000000E+00 0. -1.
          5    1    1    2  501    0 -0.10037659843E+02  0.13266048803E+01 -0.16595044573E+02  0.20000000000E+02  0.47000000000E+01 0. -1.
         -5    1    1    2    0  501  0.10037659843E+02 -0.13266048803E+01  0.16595044573E+02  0.20000000000E+02  0.47000000000E+01 0.  1.
</event>
