<event>
 5    1  0.7959189E-002  0.6000000E+02  0.7546771E-02  0.1259629E+00
         11   -1    0    0    0    0  0.00000000000E+00  0.00000000000E+00  0.30000000000E+02  0.30000000000E+02  0.00000000000E+00 0.  1.
        -11   -1    0    0    0    0 -0.00000000000E+00 -0.00000000000E+00 -0.30000000000E+02  0.30000000000E+02  0.00000000000E+00 0. -1.
         23    2    1    2    0    0  0.00000000000E+00  0.00000000000E+00  0.00000000000E+00  0.60000000000E+02  0.60000000000E+02 0.  0.
          5    1    3    3  501    0 -0.25714212006E+02  0.72232430517E+01 -0.12826303471E+02  0.30000000000E+02  0.47000000000E+01 0. -1.
         -5    1    3    3    0  501  0.25714212006E+02 -0.72232430517E+01  0.12826303471E+02  0.30000000000E+02  0.47000000000E+01 0.  1.
</event>
<event>
 5    1  0.7959189E-002  0.6000000E+02  0.7546771E-02  0.1259629E+00
         11   -1    0    0    0    0  0.00000000000E+00  0.00000000000E+00  0.30000000000E+02  0.30000000000E+02  0.00000000000E+00 0.  1.
        -11   -1    0    0    0    0 -0.00000000000E+00 -0.00000000000E+00 -0.30000000000E+02  0.30000000000E+02  0.00000000000E+00 0. -1.
         23    2    1    2    0    0  0.00000000000E+00  0.00000000000E+00  0.00000000000E+00  0.60000000000E+02  0.60000000000E+02 0.  0.
          5    1    3    3  501    0  0.37988898312E+01 -0.17467076346E+02 -0.23630058823E+02  0.30000000000E+02  0.47000000000E+01 0. -1.
         -5    1    3    3    0  501 -0.37988898312E+01  0.17467076346E+02  0.23630058823E+02  0.30000000000E+02  0.47000000000E+01 0.  1.
</event>
<event>
 5    1  0.7959189E-002  0.6000000E+02  0.7546771E-02  0.1259629E+00
         11   -1    0    0    0    0  0.00000000000E+00  0.00000000000E+00  0.30000000000E+02  0.30000000000E+02  0.00000000000E+00 0.  1.
        -11   -1    0    0    0    0 -0.00000000000E+00 -0.00000000000E+00 -0.30000000000E+02  0.30000000000E+02  0.00000000000E+00 0. -1.
         23    2    1    2    0    0  0.00000000000E+00  0.00000000000E+00  0.00000000000E+00  0.60000000000E+02  0.60000000000E+02 0.  0.
          5    1    3    3  501    0  0.18531740140E+02 -0.36720918516E+01 -0.22825432062E+02  0.30000000000E+02  0.47000000000E+01 0. -1.
         -5    1    3    3    0  501 -0.18531740140E+02  0.36720918516E+01  0.22825432062E+02  0.30000000000E+02  0.47000000000E+01 0.  1.
</event>
<event>
 5    1  0.7959189E-002  0.6000000E+02  0.7546771E-02  0.1259629E+00
         11   -1    0    0    0    0  0.00000000000E+00  0.00000000000E+00  0.30000000000E+02  0.30000000000E+02  0.00000000000E+00 0. -1.
        -11   -1    0    0    0    0 -0.00000000000E+00 -0.00000000000E+00 -0.30000000000E+02  0.30000000000E+02  0.00000000000E+00 0.  1.
         23    2    1    2    0    0  0.00000000000E+00  0.00000000000E+00  0.00000000000E+00  0.60000000000E+02  0.60000000000E+02 0.  0.
          5    1    3    3  501    0  0.25728373321E+02  0.82169939954E+01 -0.12183670052E+02  0.30000000000E+02  0.47000000000E+01 0.  1.
         -5    1    3    3    0  501 -0.25728373321E+02 -0.82169939954E+01  0.12183670052E+02  0.30000000000E+02  0.47000000000E+01 0. -1.
</event>
<event>
 5    1  0.7959189E-002  0.6000000E+02  0.7546771E-02  0.1259629E+00
         11   -1    0    0    0    0  0.00000000000E+00  0.00000000000E+00  0.30000000000E+02  0.30000000000E+02  0.00000000000E+00 0.  1.
        -11   -1    0    0    0    0 -0.00000000000E+00 -0.00000000000E+00 -0.30000000000E+02  0.30000000000E+02  0.00000000000E+00 0. -1.
         23    2    1    2    0    0  0.00000000000E+00  0.00000000000E+00  0.00000000000E+00  0.60000000000E+02  0.60000000000E+02 0.  0.
          5    1    3    3  501    0 -0.30365861507E+01  0.14129160007E+02 -0.25866116485E+02  0.30000000000E+02  0.47000000000E+01 0. -1.
         -5    1    3    3    0  501  0.30365861507E+01 -0.14129160007E+02  0.25866116485E+02  0.30000000000E+02  0.47000000000E+01 0.  1.
</event>
<event>
 5    1  0.7959189E-002  0.6000000E+02  0.7546771E-02  0.1259629E+00
         11   -1    0    0    0    0  0.00000000000E+00  0.00000000000E+00  0.30000000000E+02  0.30000000000E+02  0.00000000000E+00 0.  1.
        -11   -1    0    0    0    0 -0.00000000000E+00 -0.00000000000E+00 -0.30000000000E+02  0.30000000000E+02  0.00000000000E+00 0. -1.
         23    2    1    2    0    0  0.00000000000E+00  0.00000000000E+00  0.00000000000E+00  0.60000000000E+02  0.60000000000E+02 0.  0.
          5    1    3    3  501    0  0.19050909837E+02  0.63291886898E+01 -0.21792526355E+02  0.30000000000E+02  0.47000000000E+01 0. -1.
         -5    1    3    3    0  501 -0.19050909837E+02 -0.63291886898E+01  0.21792526355E+02  0.30000000000E+02  0.47000000000E+01 0.  1.
</event>
<event>
 5    1  0.7959189E-002  0.6000000E+02  0.7546771E-02  0.1259629E+00
         11   -1    0    0    0    0  0.00000000000E+00  0.00000000000E+00  0.30000000000E+02  0.30000000000E+02  0.00000000000E+00 0. -1.
        -11   -1    0    0    0    0 -0.00000000000E+00 -0.00000000000E+00 -0.30000000000E+02  0.30000000000E+02  0.00000000000E+00 0.  1.
         23    2    1    2    0    0  0.00000000000E+00  0.00000000000E+00  0.00000000000E+00  0.60000000000E+02  0.60000000000E+02 0.  0.
          5    1    3    3  501    0 -0.21947424905E+02  0.24143329372E+01 -0.19758328283E+02  0.30000000000E+02  0.47000000000E+01 0.  1.
         -5    1    3    3    0  501  0.21947424905E+02 -0.24143329372E+01  0.19758328283E+02  0.30000000000E+02  0.47000000000E+01 0. -1.
</event>
<event>
 5    1  0.7959189E-002  0.6000000E+02  0.7546771E-02  0.1259629E+00
         11   -1    0    0    0    0  0.00000000000E+00  0.00000000000E+00  0.30000000000E+02  0.30000000000E+02  0.00000000000E+00 0.  1.
        -11   -1    0    0    0    0 -0.00000000000E+00 -0.00000000000E+00 -0.30000000000E+02  0.30000000000E+02  0.00000000000E+00 0. -1.
         23    2    1    2    0    0  0.00000000000E+00  0.00000000000E+00  0.00000000000E+00  0.60000000000E+02  0.60000000000E+02 0.  0.
          5    1    3    3  501    0  0.23664072384E+02 -0.82953981723E+01 -0.15783157079E+02  0.30000000000E+02  0.47000000000E+01 0. -1.
         -5    1    3    3    0  501 -0.23664072384E+02  0.82953981723E+01  0.15783157079E+02  0.30000000000E+02  0.47000000000E+01 0.  1.
</event>
<event>
 5    1  0.7959189E-002  0.6000000E+02  0.7546771E-02  0.1259629E+00
         11   -1    0    0    0    0  0.00000000000E+00  0.00000000000E+00  0.30000000000E+02  0.30000000000E+02  0.00000000000E+00 0.  1.
        -11   -1    0    0    0    0 -0.00000000000E+00 -0.00000000000E+00 -0.30000000000E+02  0.30000000000E+02  0.00000000000E+00 0. -1.
         23    2    1    2    0    0  0.00000000000E+00  0.00000000000E+00  0.00000000000E+00  0.60000000000E+02  0.60000000000E+02 0.  0.
          5    1    3    3  501    0  0.93557747645E+01 -0.15030056584E+01 -0.28073483085E+02  0.30000000000E+02  0.47000000000E+01 0. -1.
         -5    1    3    3    0  501 -0.93557747645E+01  0.15030056584E+01  0.28073483085E+02  0.30000000000E+02  0.47000000000E+01 0.  1.
</event>
<event>
 5    1  0.7959189E-002  0.6000000E+02  0.7546771E-02  0.1259629E+00
         11   -1    0    0    0    0  0.00000000000E+00  0.00000000000E+00  0.30000000000E+02  0.30000000000E+02  0.00000000000E+00 0.  1.
        -11   -1    0    0    0    0 -0.00000000000E+00 -0.00000000000E+00 -0.30000000000E+02  0.30000000000E+02  0.00000000000E+00 0. -1.
         23    2    1    2    0    0  0.00000000000E+00  0.00000000000E+00  0.00000000000E+00  0.60000000000E+02  0.60000000000E+02 0.  0.
          5    1    3    3  501    0  0.21845689455E+02  0.18793756093E+02  0.68898899952E+01  0.30000000000E+02  0.47000000000E+01 0. -1.
         -5    1    3    3    0  501 -0.21845689455E+02 -0.18793756093E+02 -0.68898899952E+01  0.30000000000E+02  0.47000000000E+01 0.  1.
</event>
<event>
 5    1  0.7959189E-002  0.6000000E+02  0.7546771E-02  0.1259629E+00
         11   -1    0    0    0    0  0.00000000000E+00  0.00000000000E+00  0.30000000000E+02  0.30000000000E+02  0.00000000000E+00 0.  1.
        -11   -1    0    0    0    0 -0.00000000000E+00 -0.00000000000E+00 -0.30000000000E+02  0.30000000000E+02  0.00000000000E+00 0. -1.
         23    2    1    2    0    0  0.00000000000E+00  0.00000000000E+00  0.00000000000E+00  0.60000000000E+02  0.60000000000E+02 0.  0.
          5    1    3    3  501    0  0.22559691425E+02  0.15582068770E+02 -0.11232517780E+02  0.30000000000E+02  0.47000000000E+01 0. -1.
         -5    1    3    3    0  501 -0.22559691425E+02 -0.15582068770E+02  0.11232517780E+02  0.30000000000E+02  0.47000000000E+01 0.  1.
</event>
<event>
 5    1  0.7959189E-002  0.6000000E+02  0.7546771E-02  0.1259629E+00
         11   -1    0    0    0    0  0.00000000000E+00  0.00000000000E+00  0.30000000000E+02  0.30000000000E+02  0.00000000000E+00 0.  1.
        -11   -1    0    0    0    0 -0.00000000000E+00 -0.00000000000E+00 -0.30000000000E+02  0.30000000000E+02  0.00000000000E+00 0. -1.
         23    2    1    2    0    0  0.00000000000E+00  0.00000000000E+00  0.00000000000E+00  0.60000000000E+02  0.60000000000E+02 0.  0.
          5    1    3    3  501    0 -0.12591044357E+02  0.21829087518E+02 -0.15584175952E+02  0.30000000000E+02  0.47000000000E+01 0. -1.
         -5    1    3    3    0  501  0.12591044357E+02 -0.21829087518E+02  0.15584175952E+02  0.30000000000E+02  0.47000000000E+01 0.  1.
</event>
<event>
 5    1  0.7959189E-002  0.6000000E+02  0.7546771E-02  0.1259629E+00
         11   -1    0    0    0    0  0.00000000000E+00  0.00000000000E+00  0.30000000000E+02  0.30000000000E+02  0.00000000000E+00 0.  1.
        -11   -1    0    0    0    0 -0.00000000000E+00 -0.00000000000E+00 -0.30000000000E+02  0.30000000000E+02  0.00000000000E+00 0. -1.
         23    2    1    2    0    0  0.00000000000E+00  0.00000000000E+00  0.00000000000E+00  0.60000000000E+02  0.60000000000E+02 0.  0.
          5    1    3    3  501    0  0.87754875966E+01  0.19873445868E+02 -0.20148125639E+02  0.30000000000E+02  0.47000000000E+01 0. -1.
         -5    1    3    3    0  501 -0.87754875966E+01 -0.19873445868E+02  0.20148125639E+02  0.30000000000E+02  0.47000000000E+01 0.  1.
</event>
<event>
 5    1  0.7959189E-002  0.6000000E+02  0.7546771E-02  0.1259629E+00
         11   -1    0    0    0    0  0.00000000000E+00  0.00000000000E+00  0.30000000000E+02  0.30000000000E+02  0.00000000000E+00 0.  1.
        -11   -1    0    0    0    0 -0.00000000000E+00 -0.00000000000E+00 -0.30000000000E+02  0.30000000000E+02  0.00000000000E+00 0. -1.
         23    2    1    2    0    0  0.00000000000E+00  0.00000000000E+00  0.00000000000E+00  0.60000000000E+02  0.60000000000E+02 0.  0.
          5    1    3    3  501    0  0.31121170748E+01  0.19342840431E+02 -0.22227893543E+02  0.30000000000E+02  0.47000000000E+01 0. -1.
         -5    1    3    3    0  501 -0.31121170748E+01 -0.19342840431E+02  0.22227893543E+02  0.30000000000E+02  0.47000000000E+01 0.  1.
</event>
<event>
 5    1  0.7959189E-002  0.6000000E+02  0.7546771E-02  0.1259629E+00
         11   -1    0    0    0    0  0.00000000000E+00  0.00000000000E+00  0.30000000000E+02  0.30000000000E+02  0.00000000000E+00 0.  1.
        -11   -1    0    0    0    0 -0.00000000000E+00 -0.00000000000E+00 -0.30000000000E+02  0.30000000000E+02  0.00000000000E+00 0. -1.
         23    2    1    2    0    0  0.00000000000E+00  0.00000000000E+00  0.00000000000E+00  0.60000000000E+02  0.60000000000E+02 0.  0.
          5    1    3    3  501    0  0.20095003322E+02 -0.91583763034E+01 -0.19754113116E+02  0.30000000000E+02  0.47000000000E+01 0. -1.
         -5    1    3    3    0  501 -0.20095003322E+02  0.91583763034E+01  0.19754113116E+02  0.30000000000E+02  0.47000000000E+01 0.  1.
</event>
<event>
 5    1  0.7959189E-002  0.6000000E+02  0.7546771E-02  0.1259629E+00
         11   -1    0    0    0    0  0.00000000000E+00  0.00000000000E+00  0.30000000000E+02  0.30000000000E+02  0.00000000000E+00 0.  1.
        -11   -1    0    0    0    0 -0.00000000000E+00 -0.00000000000E+00 -0.30000000000E+02  0.30000000000E+02  0.00000000000E+00 0. -1.
         23    2    1    2    0    0  0.00000000000E+00  0.00000000000E+00  0.00000000000E+00  0.60000000000E+02  0.60000000000E+02 0.  0.
          5    1    3    3  501    0  0.28778216208E+02 -0.40204546831E+01  0.57931179883E+01  0.30000000000E+02  0.47000000000E+01 0. -1.
         -5    1    3    3    0  501 -0.28778216208E+02  0.40204546831E+01 -0.57931179883E+01  0.30000000000E+02  0.47000000000E+01 0.  1.
</event>
<event>
 5    1  0.7959189E-002  0.6000000E+02  0.7546771E-02  0.1259629E+00
         11   -1    0    0    0    0  0.00000000000E+00  0.00000000000E+00  0.30000000000E+02  0.30000000000E+02  0.00000000000E+00 0.  1.
        -11   -1    0    0    0    0 -0.00000000000E+00 -0.00000000000E+00 -0.30000000000E+02  0.30000000000E+02  0.00000000000E+00 0. -1.
         23    2    1    2    0    0  0.00000000000E+00  0.00000000000E+00  0.00000000000E+00  0.60000000000E+02  0.60000000000E+02 0.  0.
          5    1    3    3  501    0  0.28518116718E+02  0.12754770420E+01 -0.79372650924E+01  0.30000000000E+02  0.47000000000E+01 0. -1.
         -5    1    3    3    0  501 -0.28518116718E+02 -0.12754770420E+01  0.79372650924E+01  0.30000000000E+02  0.47000000000E+01 0.  1.
</event>
<event>
 5    1  0.7959189E-002  0.6000000E+02  0.7546771E-02  0.1259629E+00
         11   -1    0    0    0    0  0.00000000000E+00  0.00000000000E+00  0.30000000000E+02  0.30000000000E+02  0.00000000000E+00 0.  1.
        -11   -1    0    0    0    0 -0.00000000000E+00 -0.00000000000E+00 -0.30000000000E+02  0.30000000000E+02  0.00000000000E+00 0. -1.
         23    2    1    2    0    0  0.00000000000E+00  0.00000000000E+00  0.00000000000E+00  0.60000000000E+02  0.60000000000E+02 0.  0.
          5    1    3    3  501    0 -0.78902980317E+01 -0.22568400352E+01 -0.28470333156E+02  0.30000000000E+02  0.47000000000E+01 0. -1.
         -5    1    3    3    0  501  0.78902980317E+01  0.22568400352E+01  0.28470333156E+02  0.30000000000E+02  0.47000000000E+01 0.  1.
</event>
<event>
 5    1  0.7959189E-002  0.6000000E+02  0.7546771E-02  0.1259629E+00
         11   -1    0    0    0    0  0.00000000000E+00  0.00000000000E+00  0.30000000000E+02  0.30000000000E+02  0.00000000000E+00 0.  1.
        -11   -1    0    0    0    0 -0.00000000000E+00 -0.00000000000E+00 -0.30000000000E+02  0.30000000000E+02  0.00000000000E+00 0. -1.
         23    2    1    2    0    0  0.00000000000E+00  0.00000000000E+00  0.00000000000E+00  0.60000000000E+02  0.60000000000E+02 0.  0.
          5    1    3    3  501    0  0.57494516422E+01  0.92227869801E+01 -0.27564361160E+02  0.30000000000E+02  0.47000000000E+01 0. -1.
         -5    1    3    3    0  501 -0.57494516422E+01 -0.92227869801E+01  0.27564361160E+02  0.30000000000E+02  0.47000000000E+01 0.  1.
</event>
<event>
 5    1  0.7959189E-002  0.6000000E+02  0.7546771E-02  0.1259629E+00
         11   -1    0    0    0    0  0.00000000000E+00  0.00000000000E+00  0.30000000000E+02  0.30000000000E+02  0.00000000000E+00 0.  1.
        -11   -1    0    0    0    0 -0.00000000000E+00 -0.00000000000E+00 -0.30000000000E+02  0.30000000000E+02  0.00000000000E+00 0. -1.
         23    2    1    2    0    0  0.00000000000E+00  0.00000000000E+00  0.00000000000E+00  0.60000000000E+02  0.60000000000E+02 0.  0.
          5    1    3    3  501    0 -0.93589469765E+01  0.24850305569E+02 -0.13144672861E+02  0.30000000000E+02  0.47000000000E+01 0. -1.
         -5    1    3    3    0  501  0.93589469765E+01 -0.24850305569E+02  0.13144672861E+02  0.30000000000E+02  0.47000000000E+01 0.  1.
</event>
<event>
 5    1  0.7959189E-002  0.6000000E+02  0.7546771E-02  0.1259629E+00
         11   -1    0    0    0    0  0.00000000000E+00  0.00000000000E+00  0.30000000000E+02  0.30000000000E+02  0.00000000000E+00 0.  1.
        -11   -1    0    0    0    0 -0.00000000000E+00 -0.00000000000E+00 -0.30000000000E+02  0.30000000000E+02  0.00000000000E+00 0. -1.
         23    2    1    2    0    0  0.00000000000E+00  0.00000000000E+00  0.00000000000E+00  0.60000000000E+02  0.60000000000E+02 0.  0.
          5    1    3    3  501    0 -0.35744447285E+00  0.73067695041E+01 -0.28712250919E+02  0.30000000000E+02  0.47000000000E+01 0. -1.
         -5    1    3    3    0  501  0.35744447285E+00 -0.73067695041E+01  0.28712250919E+02  0.30000000000E+02  0.47000000000E+01 0.  1.
</event>
<event>
 5    1  0.7959189E-002  0.6000000E+02  0.7546771E-02  0.1259629E+00
         11   -1    0    0    0    0  0.00000000000E+00  0.00000000000E+00  0.30000000000E+02  0.30000000000E+02  0.00000000000E+00 0.  1.
        -11   -1    0    0    0    0 -0.00000000000E+00 -0.00000000000E+00 -0.30000000000E+02  0.30000000000E+02  0.00000000000E+00 0. -1.
         23    2    1    2    0    0  0.00000000000E+00  0.00000000000E+00  0.00000000000E+00  0.60000000000E+02  0.60000000000E+02 0.  0.
          5    1    3    3  501    0  0.57647326693E+01 -0.54587390815E+01 -0.28546103498E+02  0.30000000000E+02  0.47000000000E+01 0. -1.
         -5    1    3    3    0  501 -0.57647326693E+01  0.54587390815E+01  0.28546103498E+02  0.30000000000E+02  0.47000000000E+01 0.  1.
</event>
<event>
 5    1  0.7959189E-002  0.6000000E+02  0.7546771E-02  0.1259629E+00
         11   -1    0    0    0    0  0.00000000000E+00  0.00000000000E+00  0.30000000000E+02  0.30000000000E+02  0.00000000000E+00 0.  1.
        -11   -1    0    0    0    0 -0.00000000000E+00 -0.00000000000E+00 -0.30000000000E+02  0.30000000000E+02  0.00000000000E+00 0. -1.
         23    2    1    2    0    0  0.00000000000E+00  0.00000000000E+00  0.00000000000E+00  0.60000000000E+02  0.60000000000E+02 0.  0.
          5    1    3    3  501    0 -0.10588630447E+02  0.25725925745E+02 -0.10196452806E+02  0.30000000000E+02  0.47000000000E+01 0. -1.
         -5    1    3    3    0  501  0.10588630447E+02 -0.25725925745E+02  0.10196452806E+02  0.30000000000E+02  0.47000000000E+01 0.  1.
</event>
<event>
 5    1  0.7959189E-002  0.6000000E+02  0.7546771E-02  0.1259629E+00
         11   -1    0    0    0    0  0.00000000000E+00  0.00000000000E+00  0.30000000000E+02  0.30000000000E+02  0.00000000000E+00 0.  1.
        -11   -1    0    0    0    0 -0.00000000000E+00 -0.00000000000E+00 -0.30000000000E+02  0.30000000000E+02  0.00000000000E+00 0. -1.
         23    2    1    2    0    0  0.00000000000E+00  0.00000000000E+00  0.00000000000E+00  0.60000000000E+02  0.60000000000E+02 0.  0.
          5    1    3    3  501    0 -0.12021625594E+02 -0.25730449260E+02 -0.84459753102E+01  0.30000000000E+02  0.47000000000E+01 0. -1.
         -5    1    3    3    0  501  0.12021625594E+02  0.25730449260E+02  0.84459753102E+01  0.30000000000E+02  0.47000000000E+01 0.  1.
</event>
<event>
 5    1  0.7959189E-002  0.6000000E+02  0.7546771E-02  0.1259629E+00
         11   -1    0    0    0    0  0.00000000000E+00  0.00000000000E+00  0.30000000000E+02  0.30000000000E+02  0.00000000000E+00 0.  1.
        -11   -1    0    0    0    0 -0.00000000000E+00 -0.00000000000E+00 -0.30000000000E+02  0.30000000000E+02  0.00000000000E+00 0. -1.
         23    2    1    2    0    0  0.00000000000E+00  0.00000000000E+00  0.00000000000E+00  0.60000000000E+02  0.60000000000E+02 0.  0.
          5    1    3    3  501    0 -0.20880999721E+02  0.12690688376E+02 -0.16758289865E+02  0.30000000000E+02  0.47000000000E+01 0. -1.
         -5    1    3    3    0  501  0.20880999721E+02 -0.12690688376E+02  0.16758289865E+02  0.30000000000E+02  0.47000000000E+01 0.  1.
</event>
<event>
 5    1  0.7959189E-002  0.6000000E+02  0.7546771E-02  0.1259629E+00
         11   -1    0    0    0    0  0.00000000000E+00  0.00000000000E+00  0.30000000000E+02  0.30000000000E+02  0.00000000000E+00 0.  1.
        -11   -1    0    0    0    0 -0.00000000000E+00 -0.00000000000E+00 -0.30000000000E+02  0.30000000000E+02  0.00000000000E+00 0. -1.
         23    2    1    2    0    0  0.00000000000E+00  0.00000000000E+00  0.00000000000E+00  0.60000000000E+02  0.60000000000E+02 0.  0.
          5    1    3    3  501    0  0.38208021411E+01  0.73905297328E+01 -0.28437502374E+02  0.30000000000E+02  0.47000000000E+01 0. -1.
         -5    1    3    3    0  501 -0.38208021411E+01 -0.73905297328E+01  0.28437502374E+02  0.30000000000E+02  0.47000000000E+01 0.  1.
</event>
<event>
 5    1  0.7959189E-002  0.6000000E+02  0.7546771E-02  0.1259629E+00
         11   -1    0    0    0    0  0.00000000000E+00  0.00000000000E+00  0.30000000000E+02  0.30000000000E+02  0.00000000000E+00 0.  1.
        -11   -1    0    0    0    0 -0.00000000000E+00 -0.00000000000E+00 -0.30000000000E+02  0.30000000000E+02  0.00000000000E+00 0. -1.
         23    2    1    2    0    0  0.00000000000E+00  0.00000000000E+00  0.00000000000E+00  0.60000000000E+02  0.60000000000E+02 0.  0.
          5    1    3    3  501    0  0.39791424407E+01 -0.26010641670E+02  0.13620680797E+02  0.30000000000E+02  0.47000000000E+01 0. -1.
         -5    1    3    3    0  501 -0.39791424407E+01  0.26010641670E+02 -0.13620680797E+02  0.30000000000E+02  0.47000000000E+01 0.  1.
</event>
<event>
 5    1  0.7959189E-002  0.6000000E+02  0.7546771E-02  0.1259629E+00
         11   -1    0    0    0    0  0.00000000000E+00  0.00000000000E+00  0.30000000000E+02  0.30000000000E+02  0.00000000000E+00 0.  1.
        -11   -1    0    0    0    0 -0.00000000000E+00 -0.00000000000E+00 -0.30000000000E+02  0.30000000000E+02  0.00000000000E+00 0. -1.
         23    2    1    2    0    0  0.00000000000E+00  0.00000000000E+00  0.00000000000E+00  0.60000000000E+02  0.60000000000E+02 0.  0.
          5    1    3    3  501    0 -0.25851664963E+02  0.14053531254E+02 -0.34784591296E+01  0.30000000000E+02  0.47000000000E+01 0. -1.
         -5    1    3    3    0  501  0.25851664963E+02 -0.14053531254E+02  0.34784591296E+01  0.30000000000E+02  0.47000000000E+01 0.  1.
</event>
<event>
 5    1  0.7959189E-002  0.6000000E+02  0.7546771E-02  0.1259629E+00
         11   -1    0    0    0    0  0.00000000000E+00  0.00000000000E+00  0.30000000000E+02  0.30000000000E+02  0.00000000000E+00 0.  1.
        -11   -1    0    0    0    0 -0.00000000000E+00 -0.00000000000E+00 -0.30000000000E+02  0.30000000000E+02  0.00000000000E+00 0. -1.
         23    2    1    2    0    0  0.00000000000E+00  0.00000000000E+00  0.00000000000E+00  0.60000000000E+02  0.60000000000E+02 0.  0.
          5    1    3    3  501    0  0.86024086253E+01  0.10744714644E+02 -0.26238515069E+02  0.30000000000E+02  0.47000000000E+01 0. -1.
         -5    1    3    3    0  501 -0.86024086253E+01 -0.10744714644E+02  0.26238515069E+02  0.30000000000E+02  0.47000000000E+01 0.  1.
</event>
<event>
 5    1  0.7959189E-002  0.6000000E+02  0.7546771E-02  0.1259629E+00
         11   -1    0    0    0    0  0.00000000000E+00  0.00000000000E+00  0.30000000000E+02  0.30000000000E+02  0.00000000000E+00 0.  1.
        -11   -1    0    0    0    0 -0.00000000000E+00 -0.00000000000E+00 -0.30000000000E+02  0.30000000000E+02  0.00000000000E+00 0. -1.
         23    2    1    2    0    0  0.00000000000E+00  0.00000000000E+00  0.00000000000E+00  0.60000000000E+02  0.60000000000E+02 0.  0.
          5    1    3    3  501    0 -0.12435307202E+02  0.16586966933E+02 -0.21169451168E+02  0.30000000000E+02  0.47000000000E+01 0. -1.
         -5    1    3    3    0  501  0.12435307202E+02 -0.16586966933E+02  0.21169451168E+02  0.30000000000E+02  0.47000000000E+01 0.  1.
</event>
<event>
 5    1  0.7959189E-002  0.6000000E+02  0.7546771E-02  0.1259629E+00
         11   -1    0    0    0    0  0.00000000000E+00  0.00000000000E+00  0.30000000000E+02  0.30000000000E+02  0.00000000000E+00 0.  1.
        -11   -1    0    0    0    0 -0.00000000000E+00 -0.00000000000E+00 -0.30000000000E+02  0.30000000000E+02  0.00000000000E+00 0. -1.
         23    2    1    2    0    0  0.00000000000E+00  0.00000000000E+00  0.00000000000E+00  0.60000000000E+02  0.60000000000E+02 0.  0.
          5    1    3    3  501    0  0.47269238335E+01  0.17159995069E+02 -0.23687565521E+02  0.30000000000E+02  0.47000000000E+01 0. -1.
         -5    1    3    3    0  501 -0.47269238335E+01 -0.17159995069E+02  0.23687565521E+02  0.30000000000E+02  0.47000000000E+01 0.  1.
</event>
<event>
 5    1  0.7959189E-002  0.6000000E+02  0.7546771E-02  0.1259629E+00
         11   -1    0    0    0    0  0.00000000000E+00  0.00000000000E+00  0.30000000000E+02  0.30000000000E+02  0.00000000000E+00 0. -1.
        -11   -1    0    0    0    0 -0.00000000000E+00 -0.00000000000E+00 -0.30000000000E+02  0.30000000000E+02  0.00000000000E+00 0.  1.
         23    2    1    2    0    0  0.00000000000E+00  0.00000000000E+00  0.00000000000E+00  0.60000000000E+02  0.60000000000E+02 0.  0.
          5    1    3    3  501    0 -0.26113449733E+01 -0.23446438811E+02 -0.17926387938E+02  0.30000000000E+02  0.47000000000E+01 0.  1.
         -5    1    3    3    0  501  0.26113449733E+01  0.23446438811E+02  0.17926387938E+02  0.30000000000E+02  0.47000000000E+01 0. -1.
</event>
<event>
 5    1  0.7959189E-002  0.6000000E+02  0.7546771E-02  0.1259629E+00
         11   -1    0    0    0    0  0.00000000000E+00  0.00000000000E+00  0.30000000000E+02  0.30000000000E+02  0.00000000000E+00 0.  1.
        -11   -1    0    0    0    0 -0.00000000000E+00 -0.00000000000E+00 -0.30000000000E+02  0.30000000000E+02  0.00000000000E+00 0. -1.
         23    2    1    2    0    0  0.00000000000E+00  0.00000000000E+00  0.00000000000E+00  0.60000000000E+02  0.60000000000E+02 0.  0.
          5    1    3    3  501    0 -0.26275917983E+02  0.23666020161E+00  0.13690512266E+02  0.30000000000E+02  0.47000000000E+01 0.  1.
         -5    1    3    3    0  501  0.26275917983E+02 -0.23666020161E+00 -0.13690512266E+02  0.30000000000E+02  0.47000000000E+01 0. -1.
</event>
<event>
 5    1  0.7959189E-002  0.6000000E+02  0.7546771E-02  0.1259629E+00
         11   -1    0    0    0    0  0.00000000000E+00  0.00000000000E+00  0.30000000000E+02  0.30000000000E+02  0.00000000000E+00 0.  1.
        -11   -1    0    0    0    0 -0.00000000000E+00 -0.00000000000E+00 -0.30000000000E+02  0.30000000000E+02  0.00000000000E+00 0. -1.
         23    2    1    2    0    0  0.00000000000E+00  0.00000000000E+00  0.00000000000E+00  0.60000000000E+02  0.60000000000E+02 0.  0.
          5    1    3    3  501    0 -0.78818945653E+01 -0.16787971320E-03 -0.28561963133E+02  0.30000000000E+02  0.47000000000E+01 0. -1.
         -5    1    3    3    0  501  0.78818945653E+01  0.16787971320E-03  0.28561963133E+02  0.30000000000E+02  0.47000000000E+01 0.  1.
</event>
<event>
 5    1  0.7959189E-002  0.6000000E+02  0.7546771E-02  0.1259629E+00
         11   -1    0    0    0    0  0.00000000000E+00  0.00000000000E+00  0.30000000000E+02  0.30000000000E+02  0.00000000000E+00 0.  1.
        -11   -1    0    0    0    0 -0.00000000000E+00 -0.00000000000E+00 -0.30000000000E+02  0.30000000000E+02  0.00000000000E+00 0. -1.
         23    2    1    2    0    0  0.00000000000E+00  0.00000000000E+00  0.00000000000E+00  0.60000000000E+02  0.60000000000E+02 0.  0.
          5    1    3    3  501    0 -0.23622781768E+01  0.25360921372E+02 -0.15137810573E+02  0.30000000000E+02  0.47000000000E+01 0. -1.
         -5    1    3    3    0  501  0.23622781768E+01 -0.25360921372E+02  0.15137810573E+02  0.30000000000E+02  0.47000000000E+01 0.  1.
</event>
<event>
 5    1  0.7959189E-002  0.6000000E+02  0.7546771E-02  0.1259629E+00
         11   -1    0    0    0    0  0.00000000000E+00  0.00000000000E+00  0.30000000000E+02  0.30000000000E+02  0.00000000000E+00 0. -1.
        -11   -1    0    0    0    0 -0.00000000000E+00 -0.00000000000E+00 -0.30000000000E+02  0.30000000000E+02  0.00000000000E+00 0.  1.
         23    2    1    2    0    0  0.00000000000E+00  0.00000000000E+00  0.00000000000E+00  0.60000000000E+02  0.60000000000E+02 0.  0.
          5    1    3    3  501    0  0.19390568278E+02  0.94576234670E+01 -0.20309338251E+02  0.30000000000E+02  0.47000000000E+01 0.  1.
         -5    1    3    3    0  501 -0.19390568278E+02 -0.94576234670E+01  0.20309338251E+02  0.30000000000E+02  0.47000000000E+01 0. -1.
</event>
<event>
 5    1  0.7959189E-002  0.6000000E+02  0.7546771E-02  0.1259629E+00
         11   -1    0    0    0    0  0.00000000000E+00  0.00000000000E+00  0.30000000000E+02  0.30000000000E+02  0.00000000000E+00 0.  1.
        -11   -1    0    0    0    0 -0.00000000000E+00 -0.00000000000E+00 -0.30000000000E+02  0.30000000000E+02  0.00000000000E+00 0. -1.
         23    2    1    2    0    0  0.00000000000E+00  0.00000000000E+00  0.00000000000E+00  0.60000000000E+02  0.60000000000E+02 0.  0.
          5    1    3    3  501    0  0.74548518625E+01  0.21616558370E+02 -0.18843024915E+02  0.30000000000E+02  0.47000000000E+01 0. -1.
         -5    1    3    3    0  501 -0.74548518625E+01 -0.21616558370E+02  0.18843024915E+02  0.30000000000E+02  0.47000000000E+01 0.  1.
</event>
<event>
 5    1  0.7959189E-002  0.6000000E+02  0.7546771E-02  0.1259629E+00
         11   -1    0    0    0    0  0.00000000000E+00  0.00000000000E+00  0.30000000000E+02  0.30000000000E+02  0.00000000000E+00 0. -1.
        -11   -1    0    0    0    0 -0.00000000000E+00 -0.00000000000E+00 -0.30000000000E+02  0.30000000000E+02  0.00000000000E+00 0.  1.
         23    2    1    2    0    0  0.00000000000E+00  0.00000000000E+00  0.00000000000E+00  0.60000000000E+02  0.60000000000E+02 0.  0.
          5    1    3    3  501    0 -0.25777413729E+01 -0.29482983679E+02 -0.14208880320E+01  0.30000000000E+02  0.47000000000E+01 0.  1.
         -5    1    3    3    0  501  0.25777413729E+01  0.29482983679E+02  0.14208880320E+01  0.30000000000E+02  0.47000000000E+01 0. -1.
</event>
<event>
 5    1  0.7959189E-002  0.6000000E+02  0.7546771E-02  0.1259629E+00
         11   -1    0    0    0    0  0.00000000000E+00  0.00000000000E+00  0.30000000000E+02  0.30000000000E+02  0.00000000000E+00 0.  1.
        -11   -1    0    0    0    0 -0.00000000000E+00 -0.00000000000E+00 -0.30000000000E+02  0.30000000000E+02  0.00000000000E+00 0. -1.
         23    2    1    2    0    0  0.00000000000E+00  0.00000000000E+00  0.00000000000E+00  0.60000000000E+02  0.60000000000E+02 0.  0.
          5    1    3    3  501    0 -0.26160784657E+02 -0.36472657986E+01  0.13424634011E+02  0.30000000000E+02  0.47000000000E+01 0. -1.
         -5    1    3    3    0  501  0.26160784657E+02  0.36472657986E+01 -0.13424634011E+02  0.30000000000E+02  0.47000000000E+01 0.  1.
</event>
<event>
 5    1  0.7959189E-002  0.6000000E+02  0.7546771E-02  0.1259629E+00
         11   -1    0    0    0    0  0.00000000000E+00  0.00000000000E+00  0.30000000000E+02  0.30000000000E+02  0.00000000000E+00 0.  1.
        -11   -1    0    0    0    0 -0.00000000000E+00 -0.00000000000E+00 -0.30000000000E+02  0.30000000000E+02  0.00000000000E+00 0. -1.
         23    2    1    2    0    0  0.00000000000E+00  0.00000000000E+00  0.00000000000E+00  0.60000000000E+02  0.60000000000E+02 0.  0.
          5    1    3    3  501    0 -0.12170788106E+01 -0.21575825929E+02 -0.20270975671E+02  0.30000000000E+02  0.47000000000E+01 0. -1.
         -5    1    3    3    0  501  0.12170788106E+01  0.21575825929E+02  0.20270975671E+02  0.30000000000E+02  0.47000000000E+01 0.  1.
</event>
<event>
 5    1  0.7959189E-002  0.6000000E+02  0.7546771E-02  0.1259629E+00
         11   -1    0    0    0    0  0.00000000000E+00  0.00000000000E+00  0.30000000000E+02  0.30000000000E+02  0.00000000000E+00 0.  1.
        -11   -1    0    0    0    0 -0.00000000000E+00 -0.00000000000E+00 -0.30000000000E+02  0.30000000000E+02  0.00000000000E+00 0. -1.
         23    2    1    2    0    0  0.00000000000E+00  0.00000000000E+00  0.00000000000E+00  0.60000000000E+02  0.60000000000E+02 0.  0.
          5    1    3    3  501    0 -0.26507747423E+02  0.99515259284E+01 -0.87302037912E+01  0.30000000000E+02  0.47000000000E+01 0. -1.
         -5    1    3    3    0  501  0.26507747423E+02 -0.99515259284E+01  0.87302037912E+01  0.30000000000E+02  0.47000000000E+01 0.  1.
</event>
<event>
 5    1  0.7959189E-002  0.6000000E+02  0.7546771E-02  0.1259629E+00
         11   -1    0    0    0    0  0.00000000000E+00  0.00000000000E+00  0.30000000000E+02  0.30000000000E+02  0.00000000000E+00 0.  1.
        -11   -1    0    0    0    0 -0.00000000000E+00 -0.00000000000E+00 -0.30000000000E+02  0.30000000000E+02  0.00000000000E+00 0. -1.
         23    2    1    2    0    0  0.00000000000E+00  0.00000000000E+00  0.00000000000E+00  0.60000000000E+02  0.60000000000E+02 0.  0.
          5    1    3    3  501    0  0.16699506404E+01  0.98863613458E+01 -0.27881555269E+02  0.30000000000E+02  0.47000000000E+01 0. -1.
         -5    1    3    3    0  501 -0.16699506404E+01 -0.98863613458E+01  0.27881555269E+02  0.30000000000E+02  0.47000000000E+01 0.  1.
</event>
<event>
 5    1  0.7959189E-002  0.6000000E+02  0.7546771E-02  0.1259629E+00
         11   -1    0    0    0    0  0.00000000000E+00  0.00000000000E+00  0.30000000000E+02  0.30000000000E+02  0.00000000000E+00 0.  1.
        -11   -1    0    0    0    0 -0.00000000000E+00 -0.00000000000E+00 -0.30000000000E+02  0.30000000000E+02  0.00000000000E+00 0. -1.
         23    2    1    2    0    0  0.00000000000E+00  0.00000000000E+00  0.00000000000E+00  0.60000000000E+02  0.60000000000E+02 0.  0.
          5    1    3    3  501    0  0.21400745759E+01 -0.28315474687E+02  0.84595492827E+01  0.30000000000E+02  0.47000000000E+01 0. -1.
         -5    1    3    3    0  501 -0.21400745759E+01  0.28315474687E+02 -0.84595492827E+01  0.30000000000E+02  0.47000000000E+01 0.  1.
</event>
<event>
 5    1  0.7959189E-002  0.6000000E+02  0.7546771E-02  0.1259629E+00
         11   -1    0    0    0    0  0.00000000000E+00  0.00000000000E+00  0.30000000000E+02  0.30000000000E+02  0.00000000000E+00 0. -1.
        -11   -1    0    0    0    0 -0.00000000000E+00 -0.00000000000E+00 -0.30000000000E+02  0.30000000000E+02  0.00000000000E+00 0.  1.
         23    2    1    2    0    0  0.00000000000E+00  0.00000000000E+00  0.00000000000E+00  0.60000000000E+02  0.60000000000E+02 0.  0.
          5    1    3    3  501    0 -0.23156417610E+02  0.54576422540E+00  0.18476808840E+02  0.30000000000E+02  0.47000000000E+01 0. -1.
         -5    1    3    3    0  501  0.23156417610E+02 -0.54576422540E+00 -0.18476808840E+02  0.30000000000E+02  0.47000000000E+01 0.  1.
</event>
<event>
 5    1  0.7959189E-002  0.6000000E+02  0.7546771E-02  0.1259629E+00
         11   -1    0    0    0    0  0.00000000000E+00  0.00000000000E+00  0.30000000000E+02  0.30000000000E+02  0.00000000000E+00 0.  1.
        -11   -1    0    0    0    0 -0.00000000000E+00 -0.00000000000E+00 -0.30000000000E+02  0.30000000000E+02  0.00000000000E+00 0. -1.
         23    2    1    2    0    0  0.00000000000E+00  0.00000000000E+00  0.00000000000E+00  0.60000000000E+02  0.60000000000E+02 0.  0.
          5    1    3    3  501    0 -0.89107468437E+01 -0.15773415903E+02 -0.23445851263E+02  0.30000000000E+02  0.47000000000E+01 0. -1.
         -5    1    3    3    0  501  0.89107468437E+01  0.15773415903E+02  0.23445851263E+02  0.30000000000E+02  0.47000000000E+01 0.  1.
</event>
<event>
 5    1  0.7959189E-002  0.6000000E+02  0.7546771E-02  0.1259629E+00
         11   -1    0    0    0    0  0.00000000000E+00  0.00000000000E+00  0.30000000000E+02  0.30000000000E+02  0.00000000000E+00 0.  1.
        -11   -1    0    0    0    0 -0.00000000000E+00 -0.00000000000E+00 -0.30000000000E+02  0.30000000000E+02  0.00000000000E+00 0. -1.
         23    2    1    2    0    0  0.00000000000E+00  0.00000000000E+00  0.00000000000E+00  0.60000000000E+02  0.60000000000E+02 0.  0.
          5    1    3    3  501    0  0.25774534664E+02 -0.13136671403E+02 -0.64040008822E+01  0.30000000000E+02  0.47000000000E+01 0. -1.
         -5    1    3    3    0  501 -0.25774534664E+02  0.13136671403E+02  0.64040008822E+01  0.30000000000E+02  0.47000000000E+01 0.  1.
</event>
<event>
 5    1  0.7959189E-002  0.6000000E+02  0.7546771E-02  0.1259629E+00
         11   -1    0    0    0    0  0.00000000000E+00  0.00000000000E+00  0.30000000000E+02  0.30000000000E+02  0.00000000000E+00 0.  1.
        -11   -1    0    0    0    0 -0.00000000000E+00 -0.00000000000E+00 -0.30000000000E+02  0.30000000000E+02  0.00000000000E+00 0. -1.
         23    2    1    2    0    0  0.00000000000E+00  0.00000000000E+00  0.00000000000E+00  0.60000000000E+02  0.60000000000E+02 0.  0.
          5    1    3    3  501    0  0.67941419779E+01 -0.92547904100E+01 -0.27314803482E+02  0.30000000000E+02  0.47000000000E+01 0. -1.
         -5    1    3    3    0  501 -0.67941419779E+01  0.92547904100E+01  0.27314803482E+02  0.30000000000E+02  0.47000000000E+01 0.  1.
</event>
<event>
 5    1  0.7959189E-002  0.6000000E+02  0.7546771E-02  0.1259629E+00
         11   -1    0    0    0    0  0.00000000000E+00  0.00000000000E+00  0.30000000000E+02  0.30000000000E+02  0.00000000000E+00 0.  1.
        -11   -1    0    0    0    0 -0.00000000000E+00 -0.00000000000E+00 -0.30000000000E+02  0.30000000000E+02  0.00000000000E+00 0. -1.
         23    2    1    2    0    0  0.00000000000E+00  0.00000000000E+00  0.00000000000E+00  0.60000000000E+02  0.60000000000E+02 0.  0.
          5    1    3    3  501    0  0.16552240792E+02 -0.24243495317E+02 -0.40232150780E+01  0.30000000000E+02  0.47000000000E+01 0. -1.
         -5    1    3    3    0  501 -0.16552240792E+02  0.24243495317E+02  0.40232150780E+01  0.30000000000E+02  0.47000000000E+01 0.  1.
</event>
<event>
 5    1  0.7959189E-002  0.6000000E+02  0.7546771E-02  0.1259629E+00
         11   -1    0    0    0    0  0.00000000000E+00  0.00000000000E+00  0.30000000000E+02  0.30000000000E+02  0.00000000000E+00 0.  1.
        -11   -1    0    0    0    0 -0.00000000000E+00 -0.00000000000E+00 -0.30000000000E+02  0.30000000000E+02  0.00000000000E+00 0. -1.
         23    2    1    2    0    0  0.00000000000E+00  0.00000000000E+00  0.00000000000E+00  0.60000000000E+02  0.60000000000E+02 0.  0.
          5    1    3    3  501    0  0.17711094189E+02 -0.68682549634E+01 -0.22738826188E+02  0.30000000000E+02  0.47000000000E+01 0. -1.
         -5    1    3    3    0  501 -0.17711094189E+02  0.68682549634E+01  0.22738826188E+02  0.30000000000E+02  0.47000000000E+01 0.  1.
</event>
<event>
 5    1  0.7959189E-002  0.6000000E+02  0.7546771E-02  0.1259629E+00
         11   -1    0    0    0    0  0.00000000000E+00  0.00000000000E+00  0.30000000000E+02  0.30000000000E+02  0.00000000000E+00 0.  1.
        -11   -1    0    0    0    0 -0.00000000000E+00 -0.00000000000E+00 -0.30000000000E+02  0.30000000000E+02  0.00000000000E+00 0. -1.
         23    2    1    2    0    0  0.00000000000E+00  0.00000000000E+00  0.00000000000E+00  0.60000000000E+02  0.60000000000E+02 0.  0.
          5    1    3    3  501    0 -0.54199584995E+01 -0.26908783940E+02  0.11155778625E+02  0.30000000000E+02  0.47000000000E+01 0. -1.
         -5    1    3    3    0  501  0.54199584995E+01  0.26908783940E+02 -0.11155778625E+02  0.30000000000E+02  0.47000000000E+01 0.  1.
</event>
<event>
 5    1  0.7959189E-002  0.6000000E+02  0.7546771E-02  0.1259629E+00
         11   -1    0    0    0    0  0.00000000000E+00  0.00000000000E+00  0.30000000000E+02  0.30000000000E+02  0.00000000000E+00 0.  1.
        -11   -1    0    0    0    0 -0.00000000000E+00 -0.00000000000E+00 -0.30000000000E+02  0.30000000000E+02  0.00000000000E+00 0. -1.
         23    2    1    2    0    0  0.00000000000E+00  0.00000000000E+00  0.00000000000E+00  0.60000000000E+02  0.60000000000E+02 0.  0.
          5    1    3    3  501    0 -0.20902880597E+02  0.11028509634E+02 -0.17870410125E+02  0.30000000000E+02  0.47000000000E+01 0. -1.
         -5    1    3    3    0  501  0.20902880597E+02 -0.11028509634E+02  0.17870410125E+02  0.30000000000E+02  0.47000000000E+01 0.  1.
</event>
<event>
 5    1  0.7959189E-002  0.6000000E+02  0.7546771E-02  0.1259629E+00
         11   -1    0    0    0    0  0.00000000000E+00  0.00000000000E+00  0.30000000000E+02  0.30000000000E+02  0.00000000000E+00 0.  1.
        -11   -1    0    0    0    0 -0.00000000000E+00 -0.00000000000E+00 -0.30000000000E+02  0.30000000000E+02  0.00000000000E+00 0. -1.
         23    2    1    2    0    0  0.00000000000E+00  0.00000000000E+00  0.00000000000E+00  0.60000000000E+02  0.60000000000E+02 0.  0.
          5    1    3    3  501    0 -0.99070821120E+01 -0.24515032561E+02  0.13370598437E+02  0.30000000000E+02  0.47000000000E+01 0. -1.
         -5    1    3    3    0  501  0.99070821120E+01  0.24515032561E+02 -0.13370598437E+02  0.30000000000E+02  0.47000000000E+01 0.  1.
</event>
<event>
 5    1  0.7959189E-002  0.6000000E+02  0.7546771E-02  0.1259629E+00
         11   -1    0    0    0    0  0.00000000000E+00  0.00000000000E+00  0.30000000000E+02  0.30000000000E+02  0.00000000000E+00 0. -1.
        -11   -1    0    0    0    0 -0.00000000000E+00 -0.00000000000E+00 -0.30000000000E+02  0.30000000000E+02  0.00000000000E+00 0.  1.
         23    2    1    2    0    0  0.00000000000E+00  0.00000000000E+00  0.00000000000E+00  0.60000000000E+02  0.60000000000E+02 0.  0.
          5    1    3    3  501    0 -0.12566894380E+02 -0.87372334085E+00  0.26818273120E+02  0.30000000000E+02  0.47000000000E+01 0.  1.
         -5    1    3    3    0  501  0.12566894380E+02  0.87372334085E+00 -0.26818273120E+02  0.30000000000E+02  0.47000000000E+01 0. -1.
</event>
<event>
 5    1  0.7959189E-002  0.6000000E+02  0.7546771E-02  0.1259629E+00
         11   -1    0    0    0    0  0.00000000000E+00  0.00000000000E+00  0.30000000000E+02  0.30000000000E+02  0.00000000000E+00 0.  1.
        -11   -1    0    0    0    0 -0.00000000000E+00 -0.00000000000E+00 -0.30000000000E+02  0.30000000000E+02  0.00000000000E+00 0. -1.
         23    2    1    2    0    0  0.00000000000E+00  0.00000000000E+00  0.00000000000E+00  0.60000000000E+02  0.60000000000E+02 0.  0.
          5    1    3    3  501    0  0.24091122924E+02  0.43221468650E+01  0.16698707817E+02  0.30000000000E+02  0.47000000000E+01 0. -1.
         -5    1    3    3    0  501 -0.24091122924E+02 -0.43221468650E+01 -0.16698707817E+02  0.30000000000E+02  0.47000000000E+01 0.  1.
</event>
<event>
 5    1  0.7959189E-002  0.6000000E+02  0.7546771E-02  0.1259629E+00
         11   -1    0    0    0    0  0.00000000000E+00  0.00000000000E+00  0.30000000000E+02  0.30000000000E+02  0.00000000000E+00 0.  1.
        -11   -1    0    0    0    0 -0.00000000000E+00 -0.00000000000E+00 -0.30000000000E+02  0.30000000000E+02  0.00000000000E+00 0. -1.
         23    2    1    2    0    0  0.00000000000E+00  0.00000000000E+00  0.00000000000E+00  0.60000000000E+02  0.60000000000E+02 0.  0.
          5    1    3    3  501    0 -0.13345538858E+02  0.18941229721E+02 -0.18467171121E+02  0.30000000000E+02  0.47000000000E+01 0. -1.
         -5    1    3    3    0  501  0.13345538858E+02 -0.18941229721E+02  0.18467171121E+02  0.30000000000E+02  0.47000000000E+01 0.  1.
</event>
<event>
 5    1  0.7959189E-002  0.6000000E+02  0.7546771E-02  0.1259629E+00
         11   -1    0    0    0    0  0.00000000000E+00  0.00000000000E+00  0.30000000000E+02  0.30000000000E+02  0.00000000000E+00 0.  1.
        -11   -1    0    0    0    0 -0.00000000000E+00 -0.00000000000E+00 -0.30000000000E+02  0.30000000000E+02  0.00000000000E+00 0. -1.
         23    2    1    2    0    0  0.00000000000E+00  0.00000000000E+00  0.00000000000E+00  0.60000000000E+02  0.60000000000E+02 0.  0.
          5    1    3    3  501    0  0.24118492303E+01 -0.29146808466E+02 -0.47493725427E+01  0.30000000000E+02  0.47000000000E+01 0. -1.
         -5    1    3    3    0  501 -0.24118492303E+01  0.29146808466E+02  0.47493725427E+01  0.30000000000E+02  0.47000000000E+01 0.  1.
</event>
<event>
 5    1  0.7959189E-002  0.6000000E+02  0.7546771E-02  0.1259629E+00
         11   -1    0    0    0    0  0.00000000000E+00  0.00000000000E+00  0.30000000000E+02  0.30000000000E+02  0.00000000000E+00 0.  1.
        -11   -1    0    0    0    0 -0.00000000000E+00 -0.00000000000E+00 -0.30000000000E+02  0.30000000000E+02  0.00000000000E+00 0. -1.
         23    2    1    2    0    0  0.00000000000E+00  0.00000000000E+00  0.00000000000E+00  0.60000000000E+02  0.60000000000E+02 0.  0.
          5    1    3    3  501    0 -0.14216279377E+02  0.20214443949E+02 -0.16345753470E+02  0.30000000000E+02  0.47000000000E+01 0. -1.
         -5    1    3    3    0  501  0.14216279377E+02 -0.20214443949E+02  0.16345753470E+02  0.30000000000E+02  0.47000000000E+01 0.  1.
</event>
<event>
 5    1  0.7959189E-002  0.6000000E+02  0.7546771E-02  0.1259629E+00
         11   -1    0    0    0    0  0.00000000000E+00  0.00000000000E+00  0.30000000000E+02  0.30000000000E+02  0.00000000000E+00 0. -1.
        -11   -1    0    0    0    0 -0.00000000000E+00 -0.00000000000E+00 -0.30000000000E+02  0.30000000000E+02  0.00000000000E+00 0.  1.
         23    2    1    2    0    0  0.00000000000E+00  0.00000000000E+00  0.00000000000E+00  0.60000000000E+02  0.60000000000E+02 0.  0.
          5    1    3    3  501    0  0.11333592649E+02 -0.55737345854E+01 -0.26802857319E+02  0.30000000000E+02  0.47000000000E+01 0.  1.
         -5    1    3    3    0  501 -0.11333592649E+02  0.55737345854E+01  0.26802857319E+02  0.30000000000E+02  0.47000000000E+01 0. -1.
</event>
<event>
 5    1  0.7959189E-002  0.6000000E+02  0.7546771E-02  0.1259629E+00
         11   -1    0    0    0    0  0.00000000000E+00  0.00000000000E+00  0.30000000000E+02  0.30000000000E+02  0.00000000000E+00 0. -1.
        -11   -1    0    0    0    0 -0.00000000000E+00 -0.00000000000E+00 -0.30000000000E+02  0.30000000000E+02  0.00000000000E+00 0.  1.
         23    2    1    2    0    0  0.00000000000E+00  0.00000000000E+00  0.00000000000E+00  0.60000000000E+02  0.60000000000E+02 0.  0.
          5    1    3    3  501    0 -0.73198792035E+01 -0.19187569648E+02 -0.21358055611E+02  0.30000000000E+02  0.47000000000E+01 0.  1.
         -5    1    3    3    0  501  0.73198792035E+01  0.19187569648E+02  0.21358055611E+02  0.30000000000E+02  0.47000000000E+01 0. -1.
</event>
<event>
 5    1  0.7959189E-002  0.6000000E+02  0.7546771E-02  0.1259629E+00
         11   -1    0    0    0    0  0.00000000000E+00  0.00000000000E+00  0.30000000000E+02  0.30000000000E+02  0.00000000000E+00 0. -1.
        -11   -1    0    0    0    0 -0.00000000000E+00 -0.00000000000E+00 -0.30000000000E+02  0.30000000000E+02  0.00000000000E+00 0.  1.
         23    2    1    2    0    0  0.00000000000E+00  0.00000000000E+00  0.00000000000E+00  0.60000000000E+02  0.60000000000E+02 0.  0.
          5    1    3    3  501    0 -0.10864645319E+02  0.20699496231E+02 -0.18204404354E+02  0.30000000000E+02  0.47000000000E+01 0.  1.
         -5    1    3    3    0  501  0.10864645319E+02 -0.20699496231E+02  0.18204404354E+02  0.30000000000E+02  0.47000000000E+01 0. -1.
</event>
<event>
 5    1  0.7959189E-002  0.6000000E+02  0.7546771E-02  0.1259629E+00
         11   -1    0    0    0    0  0.00000000000E+00  0.00000000000E+00  0.30000000000E+02  0.30000000000E+02  0.00000000000E+00 0.  1.
        -11   -1    0    0    0    0 -0.00000000000E+00 -0.00000000000E+00 -0.30000000000E+02  0.30000000000E+02  0.00000000000E+00 0. -1.
         23    2    1    2    0    0  0.00000000000E+00  0.00000000000E+00  0.00000000000E+00  0.60000000000E+02  0.60000000000E+02 0.  0.
          5    1    3    3  501    0  0.16041042424E+02 -0.14911300522E+02 -0.19956153805E+02  0.30000000000E+02  0.47000000000E+01 0. -1.
         -5    1    3    3    0  501 -0.16041042424E+02  0.14911300522E+02  0.19956153805E+02  0.30000000000E+02  0.47000000000E+01 0.  1.
</event>
<event>
 5    1  0.7959189E-002  0.6000000E+02  0.7546771E-02  0.1259629E+00
         11   -1    0    0    0    0  0.00000000000E+00  0.00000000000E+00  0.30000000000E+02  0.30000000000E+02  0.00000000000E+00 0. -1.
        -11   -1    0    0    0    0 -0.00000000000E+00 -0.00000000000E+00 -0.30000000000E+02  0.30000000000E+02  0.00000000000E+00 0.  1.
         23    2    1    2    0    0  0.00000000000E+00  0.00000000000E+00  0.00000000000E+00  0.60000000000E+02  0.60000000000E+02 0.  0.
          5    1    3    3  501    0  0.13932626200E+01 -0.29496590975E+02 -0.24330927107E+01  0.30000000000E+02  0.47000000000E+01 0.  1.
         -5    1    3    3    0  501 -0.13932626200E+01  0.29496590975E+02  0.24330927107E+01  0.30000000000E+02  0.47000000000E+01 0. -1.
</event>
<event>
 5    1  0.7959189E-002  0.6000000E+02  0.7546771E-02  0.1259629E+00
         11   -1    0    0    0    0  0.00000000000E+00  0.00000000000E+00  0.30000000000E+02  0.30000000000E+02  0.00000000000E+00 0.  1.
        -11   -1    0    0    0    0 -0.00000000000E+00 -0.00000000000E+00 -0.30000000000E+02  0.30000000000E+02  0.00000000000E+00 0. -1.
         23    2    1    2    0    0  0.00000000000E+00  0.00000000000E+00  0.00000000000E+00  0.60000000000E+02  0.60000000000E+02 0.  0.
          5    1    3    3  501    0  0.22672990715E+02 -0.19071368726E+02 -0.35831125421E+00  0.30000000000E+02  0.47000000000E+01 0. -1.
         -5    1    3    3    0  501 -0.22672990715E+02  0.19071368726E+02  0.35831125421E+00  0.30000000000E+02  0.47000000000E+01 0.  1.
</event>
<event>
 5    1  0.7959189E-002  0.6000000E+02  0.7546771E-02  0.1259629E+00
         11   -1    0    0    0    0  0.00000000000E+00  0.00000000000E+00  0.30000000000E+02  0.30000000000E+02  0.00000000000E+00 0.  1.
        -11   -1    0    0    0    0 -0.00000000000E+00 -0.00000000000E+00 -0.30000000000E+02  0.30000000000E+02  0.00000000000E+00 0. -1.
         23    2    1    2    0    0  0.00000000000E+00  0.00000000000E+00  0.00000000000E+00  0.60000000000E+02  0.60000000000E+02 0.  0.
          5    1    3    3  501    0  0.47566488081E+01 -0.29311895981E+01 -0.29097979649E+02  0.30000000000E+02  0.47000000000E+01 0. -1.
         -5    1    3    3    0  501 -0.47566488081E+01  0.29311895981E+01  0.29097979649E+02  0.30000000000E+02  0.47000000000E+01 0.  1.
</event>
<event>
 5    1  0.7959189E-002  0.6000000E+02  0.7546771E-02  0.1259629E+00
         11   -1    0    0    0    0  0.00000000000E+00  0.00000000000E+00  0.30000000000E+02  0.30000000000E+02  0.00000000000E+00 0. -1.
        -11   -1    0    0    0    0 -0.00000000000E+00 -0.00000000000E+00 -0.30000000000E+02  0.30000000000E+02  0.00000000000E+00 0.  1.
         23    2    1    2    0    0  0.00000000000E+00  0.00000000000E+00  0.00000000000E+00  0.60000000000E+02  0.60000000000E+02 0.  0.
          5    1    3    3  501    0 -0.10282090067E+02  0.55887496682E+01 -0.27220479441E+02  0.30000000000E+02  0.47000000000E+01 0.  1.
         -5    1    3    3    0  501  0.10282090067E+02 -0.55887496682E+01  0.27220479441E+02  0.30000000000E+02  0.47000000000E+01 0. -1.
</event>
<event>
 5    1  0.7959189E-002  0.6000000E+02  0.7546771E-02  0.1259629E+00
         11   -1    0    0    0    0  0.00000000000E+00  0.00000000000E+00  0.30000000000E+02  0.30000000000E+02  0.00000000000E+00 0.  1.
        -11   -1    0    0    0    0 -0.00000000000E+00 -0.00000000000E+00 -0.30000000000E+02  0.30000000000E+02  0.00000000000E+00 0. -1.
         23    2    1    2    0    0  0.00000000000E+00  0.00000000000E+00  0.00000000000E+00  0.60000000000E+02  0.60000000000E+02 0.  0.
          5    1    3    3  501    0  0.59726667993E+01 -0.18548112347E+02 -0.22320501331E+02  0.30000000000E+02  0.47000000000E+01 0.  1.
         -5    1    3    3    0  501 -0.59726667993E+01  0.18548112347E+02  0.22320501331E+02  0.30000000000E+02  0.47000000000E+01 0. -1.
</event>
<event>
 5    1  0.7959189E-002  0.6000000E+02  0.7546771E-02  0.1259629E+00
         11   -1    0    0    0    0  0.00000000000E+00  0.00000000000E+00  0.30000000000E+02  0.30000000000E+02  0.00000000000E+00 0. -1.
        -11   -1    0    0    0    0 -0.00000000000E+00 -0.00000000000E+00 -0.30000000000E+02  0.30000000000E+02  0.00000000000E+00 0.  1.
         23    2    1    2    0    0  0.00000000000E+00  0.00000000000E+00  0.00000000000E+00  0.60000000000E+02  0.60000000000E+02 0.  0.
          5    1    3    3  501    0 -0.14638740935E+02  0.13164554564E+02 -0.22142984599E+02  0.30000000000E+02  0.47000000000E+01 0.  1.
         -5    1    3    3    0  501  0.14638740935E+02 -0.13164554564E+02  0.22142984599E+02  0.30000000000E+02  0.47000000000E+01 0. -1.
</event>
<event>
 5    1  0.7959189E-002  0.6000000E+02  0.7546771E-02  0.1259629E+00
         11   -1    0    0    0    0  0.00000000000E+00  0.00000000000E+00  0.30000000000E+02  0.30000000000E+02  0.00000000000E+00 0.  1.
        -11   -1    0    0    0    0 -0.00000000000E+00 -0.00000000000E+00 -0.30000000000E+02  0.30000000000E+02  0.00000000000E+00 0. -1.
         23    2    1    2    0    0  0.00000000000E+00  0.00000000000E+00  0.00000000000E+00  0.60000000000E+02  0.60000000000E+02 0.  0.
          5    1    3    3  501    0 -0.22916293091E+02 -0.99281444673E+01 -0.15943194736E+02  0.30000000000E+02  0.47000000000E+01 0. -1.
         -5    1    3    3    0  501  0.22916293091E+02  0.99281444673E+01  0.15943194736E+02  0.30000000000E+02  0.47000000000E+01 0.  1.
</event>
<event>
 5    1  0.7959189E-002  0.6000000E+02  0.7546771E-02  0.1259629E+00
         11   -1    0    0    0    0  0.00000000000E+00  0.00000000000E+00  0.30000000000E+02  0.30000000000E+02  0.00000000000E+00 0.  1.
        -11   -1    0    0    0    0 -0.00000000000E+00 -0.00000000000E+00 -0.30000000000E+02  0.30000000000E+02  0.00000000000E+00 0. -1.
         23    2    1    2    0    0  0.00000000000E+00  0.00000000000E+00  0.00000000000E+00  0.60000000000E+02  0.60000000000E+02 0.  0.
          5    1    3    3  501    0 -0.66764453719E+01 -0.24072438266E+02 -0.15932758491E+02  0.30000000000E+02  0.47000000000E+01 0. -1.
         -5    1    3    3    0  501  0.66764453719E+01  0.24072438266E+02  0.15932758491E+02  0.30000000000E+02  0.47000000000E+01 0.  1.
</event>
<event>
 5    1  0.7959189E-002  0.6000000E+02  0.7546771E-02  0.1259629E+00
         11   -1    0    0    0    0  0.00000000000E+00  0.00000000000E+00  0.30000000000E+02  0.30000000000E+02  0.00000000000E+00 0.  1.
        -11   -1    0    0    0    0 -0.00000000000E+00 -0.00000000000E+00 -0.30000000000E+02  0.30000000000E+02  0.00000000000E+00 0. -1.
         23    2    1    2    0    0  0.00000000000E+00  0.00000000000E+00  0.00000000000E+00  0.60000000000E+02  0.60000000000E+02 0.  0.
          5    1    3    3  501    0  0.27445912369E+02 -0.64230164426E+01  0.91310872312E+01  0.30000000000E+02  0.47000000000E+01 0.  1.
         -5    1    3    3    0  501 -0.27445912369E+02  0.64230164426E+01 -0.91310872312E+01  0.30000000000E+02  0.47000000000E+01 0. -1.
</event>
<event>
 5    1  0.7959189E-002  0.6000000E+02  0.7546771E-02  0.1259629E+00
         11   -1    0    0    0    0  0.00000000000E+00  0.00000000000E+00  0.30000000000E+02  0.30000000000E+02  0.00000000000E+00 0. -1.
        -11   -1    0    0    0    0 -0.00000000000E+00 -0.00000000000E+00 -0.30000000000E+02  0.30000000000E+02  0.00000000000E+00 0.  1.
         23    2    1    2    0    0  0.00000000000E+00  0.00000000000E+00  0.00000000000E+00  0.60000000000E+02  0.60000000000E+02 0.  0.
          5    1    3    3  501    0 -0.22479918792E+02  0.19289561504E+02 -0.68997688066E+00  0.30000000000E+02  0.47000000000E+01 0.  1.
         -5    1    3    3    0  501  0.22479918792E+02 -0.19289561504E+02  0.68997688066E+00  0.30000000000E+02  0.47000000000E+01 0. -1.
</event>
<event>
 5    1  0.7959189E-002  0.6000000E+02  0.7546771E-02  0.1259629E+00
         11   -1    0    0    0    0  0.00000000000E+00  0.00000000000E+00  0.30000000000E+02  0.30000000000E+02  0.00000000000E+00 0. -1.
        -11   -1    0    0    0    0 -0.00000000000E+00 -0.00000000000E+00 -0.30000000000E+02  0.30000000000E+02  0.00000000000E+00 0.  1.
         23    2    1    2    0    0  0.00000000000E+00  0.00000000000E+00  0.00000000000E+00  0.60000000000E+02  0.60000000000E+02 0.  0.
          5    1    3    3  501    0  0.28791782700E+02  0.34052324128E+01  0.61112716494E+01  0.30000000000E+02  0.47000000000E+01 0.  1.
         -5    1    3    3    0  501 -0.28791782700E+02 -0.34052324128E+01 -0.61112716494E+01  0.30000000000E+02  0.47000000000E+01 0. -1.
</event>
<event>
 5    1  0.7959189E-002  0.6000000E+02  0.7546771E-02  0.1259629E+00
         11   -1    0    0    0    0  0.00000000000E+00  0.00000000000E+00  0.30000000000E+02  0.30000000000E+02  0.00000000000E+00 0. -1.
        -11   -1    0    0    0    0 -0.00000000000E+00 -0.00000000000E+00 -0.30000000000E+02  0.30000000000E+02  0.00000000000E+00 0.  1.
         23    2    1    2    0    0  0.00000000000E+00  0.00000000000E+00  0.00000000000E+00  0.60000000000E+02  0.60000000000E+02 0.  0.
          5    1    3    3  501    0 -0.87194245293E+01 -0.24408096615E+02 -0.14357104705E+02  0.30000000000E+02  0.47000000000E+01 0.  1.
         -5    1    3    3    0  501  0.87194245293E+01  0.24408096615E+02  0.14357104705E+02  0.30000000000E+02  0.47000000000E+01 0. -1.
</event>
<event>
 5    1  0.7959189E-002  0.6000000E+02  0.7546771E-02  0.1259629E+00
         11   -1    0    0    0    0  0.00000000000E+00  0.00000000000E+00  0.30000000000E+02  0.30000000000E+02  0.00000000000E+00 0.  1.
        -11   -1    0    0    0    0 -0.00000000000E+00 -0.00000000000E+00 -0.30000000000E+02  0.30000000000E+02  0.00000000000E+00 0. -1.
         23    2    1    2    0    0  0.00000000000E+00  0.00000000000E+00  0.00000000000E+00  0.60000000000E+02  0.60000000000E+02 0.  0.
          5    1    3    3  501    0 -0.15564229083E+02 -0.19286497422E+02  0.16238712703E+02  0.30000000000E+02  0.47000000000E+01 0.  1.
         -5    1    3    3    0  501  0.15564229083E+02  0.19286497422E+02 -0.16238712703E+02  0.30000000000E+02  0.47000000000E+01 0. -1.
</event>
<event>
 5    1  0.7959189E-002  0.6000000E+02  0.7546771E-02  0.1259629E+00
         11   -1    0    0    0    0  0.00000000000E+00  0.00000000000E+00  0.30000000000E+02  0.30000000000E+02  0.00000000000E+00 0.  1.
        -11   -1    0    0    0    0 -0.00000000000E+00 -0.00000000000E+00 -0.30000000000E+02  0.30000000000E+02  0.00000000000E+00 0. -1.
         23    2    1    2    0    0  0.00000000000E+00  0.00000000000E+00  0.00000000000E+00  0.60000000000E+02  0.60000000000E+02 0.  0.
          5    1    3    3  501    0 -0.39898216142E+01  0.24485541480E+02 -0.16200295735E+02  0.30000000000E+02  0.47000000000E+01 0. -1.
         -5    1    3    3    0  501  0.39898216142E+01 -0.24485541480E+02  0.16200295735E+02  0.30000000000E+02  0.47000000000E+01 0.  1.
</event>
<event>
 5    1  0.7959189E-002  0.6000000E+02  0.7546771E-02  0.1259629E+00
         11   -1    0    0    0    0  0.00000000000E+00  0.00000000000E+00  0.30000000000E+02  0.30000000000E+02  0.00000000000E+00 0.  1.
        -11   -1    0    0    0    0 -0.00000000000E+00 -0.00000000000E+00 -0.30000000000E+02  0.30000000000E+02  0.00000000000E+00 0. -1.
         23    2    1    2    0    0  0.00000000000E+00  0.00000000000E+00  0.00000000000E+00  0.60000000000E+02  0.60000000000E+02 0.  0.
          5    1    3    3  501    0 -0.65205189162E+01  0.15861704399E+02 -0.24161936318E+02  0.30000000000E+02  0.47000000000E+01 0. -1.
         -5    1    3    3    0  501  0.65205189162E+01 -0.15861704399E+02  0.24161936318E+02  0.30000000000E+02  0.47000000000E+01 0.  1.
</event>
<event>
 5    1  0.7959189E-002  0.6000000E+02  0.7546771E-02  0.1259629E+00
         11   -1    0    0    0    0  0.00000000000E+00  0.00000000000E+00  0.30000000000E+02  0.30000000000E+02  0.00000000000E+00 0.  1.
        -11   -1    0    0    0    0 -0.00000000000E+00 -0.00000000000E+00 -0.30000000000E+02  0.30000000000E+02  0.00000000000E+00 0. -1.
         23    2    1    2    0    0  0.00000000000E+00  0.00000000000E+00  0.00000000000E+00  0.60000000000E+02  0.60000000000E+02 0.  0.
          5    1    3    3  501    0 -0.54939172472E+01  0.39242466275E+01 -0.28850080792E+02  0.30000000000E+02  0.47000000000E+01 0. -1.
         -5    1    3    3    0  501  0.54939172472E+01 -0.39242466275E+01  0.28850080792E+02  0.30000000000E+02  0.47000000000E+01 0.  1.
</event>
<event>
 5    1  0.7959189E-002  0.6000000E+02  0.7546771E-02  0.1259629E+00
         11   -1    0    0    0    0  0.00000000000E+00  0.00000000000E+00  0.30000000000E+02  0.30000000000E+02  0.00000000000E+00 0. -1.
        -11   -1    0    0    0    0 -0.00000000000E+00 -0.00000000000E+00 -0.30000000000E+02  0.30000000000E+02  0.00000000000E+00 0.  1.
         23    2    1    2    0    0  0.00000000000E+00  0.00000000000E+00  0.00000000000E+00  0.60000000000E+02  0.60000000000E+02 0.  0.
          5    1    3    3  501    0  0.27527397834E+02  0.10555507469E+02  0.29552716519E+01  0.30000000000E+02  0.47000000000E+01 0. -1.
         -5    1    3    3    0  501 -0.27527397834E+02 -0.10555507469E+02 -0.29552716519E+01  0.30000000000E+02  0.47000000000E+01 0.  1.
</event>
<event>
 5    1  0.7959189E-002  0.6000000E+02  0.7546771E-02  0.1259629E+00
         11   -1    0    0    0    0  0.00000000000E+00  0.00000000000E+00  0.30000000000E+02  0.30000000000E+02  0.00000000000E+00 0.  1.
        -11   -1    0    0    0    0 -0.00000000000E+00 -0.00000000000E+00 -0.30000000000E+02  0.30000000000E+02  0.00000000000E+00 0. -1.
         23    2    1    2    0    0  0.00000000000E+00  0.00000000000E+00  0.00000000000E+00  0.60000000000E+02  0.60000000000E+02 0.  0.
          5    1    3    3  501    0  0.13504944201E+02  0.19710252723E+02 -0.17522340589E+02  0.30000000000E+02  0.47000000000E+01 0. -1.
         -5    1    3    3    0  501 -0.13504944201E+02 -0.19710252723E+02  0.17522340589E+02  0.30000000000E+02  0.47000000000E+01 0.  1.
</event>
<event>
 5    1  0.7959189E-002  0.6000000E+02  0.7546771E-02  0.1259629E+00
         11   -1    0    0    0    0  0.00000000000E+00  0.00000000000E+00  0.30000000000E+02  0.30000000000E+02  0.00000000000E+00 0.  1.
        -11   -1    0    0    0    0 -0.00000000000E+00 -0.00000000000E+00 -0.30000000000E+02  0.30000000000E+02  0.00000000000E+00 0. -1.
         23    2    1    2    0    0  0.00000000000E+00  0.00000000000E+00  0.00000000000E+00  0.60000000000E+02  0.60000000000E+02 0.  0.
          5    1    3    3  501    0 -0.51680667776E+01  0.26427095633E+02  0.12361622149E+02  0.30000000000E+02  0.47000000000E+01 0.  1.
         -5    1    3    3    0  501  0.51680667776E+01 -0.26427095633E+02 -0.12361622149E+02  0.30000000000E+02  0.47000000000E+01 0. -1.
</event>
<event>
 5    1  0.7959189E-002  0.6000000E+02  0.7546771E-02  0.1259629E+00
         11   -1    0    0    0    0  0.00000000000E+00  0.00000000000E+00  0.30000000000E+02  0.30000000000E+02  0.00000000000E+00 0.  1.
        -11   -1    0    0    0    0 -0.00000000000E+00 -0.00000000000E+00 -0.30000000000E+02  0.30000000000E+02  0.00000000000E+00 0. -1.
         23    2    1    2    0    0  0.00000000000E+00  0.00000000000E+00  0.00000000000E+00  0.60000000000E+02  0.60000000000E+02 0.  0.
          5    1    3    3  501    0 -0.17943513280E+02  0.22764554096E+02  0.61412871623E+01  0.30000000000E+02  0.47000000000E+01 0. -1.
         -5    1    3    3    0  501  0.17943513280E+02 -0.22764554096E+02 -0.61412871623E+01  0.30000000000E+02  0.47000000000E+01 0.  1.
</event>
<event>
 5    1  0.7959189E-002  0.6000000E+02  0.7546771E-02  0.1259629E+00
         11   -1    0    0    0    0  0.00000000000E+00  0.00000000000E+00  0.30000000000E+02  0.30000000000E+02  0.00000000000E+00 0.  1.
        -11   -1    0    0    0    0 -0.00000000000E+00 -0.00000000000E+00 -0.30000000000E+02  0.30000000000E+02  0.00000000000E+00 0. -1.
         23    2    1    2    0    0  0.00000000000E+00  0.00000000000E+00  0.00000000000E+00  0.60000000000E+02  0.60000000000E+02 0.  0.
          5    1    3    3  501    0 -0.23579413227E+02 -0.12586079796E+02 -0.12787175891E+02  0.30000000000E+02  0.47000000000E+01 0. -1.
         -5    1    3    3    0  501  0.23579413227E+02  0.12586079796E+02  0.12787175891E+02  0.30000000000E+02  0.47000000000E+01 0.  1.
</event>
<event>
 5    1  0.7959189E-002  0.6000000E+02  0.7546771E-02  0.1259629E+00
         11   -1    0    0    0    0  0.00000000000E+00  0.00000000000E+00  0.30000000000E+02  0.30000000000E+02  0.00000000000E+00 0.  1.
        -11   -1    0    0    0    0 -0.00000000000E+00 -0.00000000000E+00 -0.30000000000E+02  0.30000000000E+02  0.00000000000E+00 0. -1.
         23    2    1    2    0    0  0.00000000000E+00  0.00000000000E+00  0.00000000000E+00  0.60000000000E+02  0.60000000000E+02 0.  0.
          5    1    3    3  501    0 -0.17655480113E+02  0.22793432165E+02 -0.68303347009E+01  0.30000000000E+02  0.47000000000E+01 0. -1.
         -5    1    3    3    0  501  0.17655480113E+02 -0.22793432165E+02  0.68303347009E+01  0.30000000000E+02  0.47000000000E+01 0.  1.
</event>
<event>
 5    1  0.7959189E-002  0.6000000E+02  0.7546771E-02  0.1259629E+00
         11   -1    0    0    0    0  0.00000000000E+00  0.00000000000E+00  0.30000000000E+02  0.30000000000E+02  0.00000000000E+00 0.  1.
        -11   -1    0    0    0    0 -0.00000000000E+00 -0.00000000000E+00 -0.30000000000E+02  0.30000000000E+02  0.00000000000E+00 0. -1.
         23    2    1    2    0    0  0.00000000000E+00  0.00000000000E+00  0.00000000000E+00  0.60000000000E+02  0.60000000000E+02 0.  0.
          5    1    3    3  501    0 -0.12108239380E+02  0.14945807039E+02 -0.22537155789E+02  0.30000000000E+02  0.47000000000E+01 0. -1.
         -5    1    3    3    0  501  0.12108239380E+02 -0.14945807039E+02  0.22537155789E+02  0.30000000000E+02  0.47000000000E+01 0.  1.
</event>
<event>
 5    1  0.7959189E-002  0.6000000E+02  0.7546771E-02  0.1259629E+00
         11   -1    0    0    0    0  0.00000000000E+00  0.00000000000E+00  0.30000000000E+02  0.30000000000E+02  0.00000000000E+00 0. -1.
        -11   -1    0    0    0    0 -0.00000000000E+00 -0.00000000000E+00 -0.30000000000E+02  0.30000000000E+02  0.00000000000E+00 0.  1.
         23    2    1    2    0    0  0.00000000000E+00  0.00000000000E+00  0.00000000000E+00  0.60000000000E+02  0.60000000000E+02 0.  0.
          5    1    3    3  501    0 -0.29096485492E+02  0.55786295509E+01  0.42828071696E+00  0.30000000000E+02  0.47000000000E+01 0.  1.
         -5    1    3    3    0  501  0.29096485492E+02 -0.55786295509E+01 -0.42828071696E+00  0.30000000000E+02  0.47000000000E+01 0. -1.
</event>
<event>
 5    1  0.7959189E-002  0.6000000E+02  0.7546771E-02  0.1259629E+00
         11   -1    0    0    0    0  0.00000000000E+00  0.00000000000E+00  0.30000000000E+02  0.30000000000E+02  0.00000000000E+00 0.  1.
        -11   -1    0    0    0    0 -0.00000000000E+00 -0.00000000000E+00 -0.30000000000E+02  0.30000000000E+02  0.00000000000E+00 0. -1.
         23    2    1    2    0    0  0.00000000000E+00  0.00000000000E+00  0.00000000000E+00  0.60000000000E+02  0.60000000000E+02 0.  0.
          5    1    3    3  501    0  0.11552670447E+02 -0.60233899463E+01  0.26611361842E+02  0.30000000000E+02  0.47000000000E+01 0.  1.
         -5    1    3    3    0  501 -0.11552670447E+02  0.60233899463E+01 -0.26611361842E+02  0.30000000000E+02  0.47000000000E+01 0. -1.
</event>
<event>
 5    1  0.7959189E-002  0.6000000E+02  0.7546771E-02  0.1259629E+00
         11   -1    0    0    0    0  0.00000000000E+00  0.00000000000E+00  0.30000000000E+02  0.30000000000E+02  0.00000000000E+00 0.  1.
        -11   -1    0    0    0    0 -0.00000000000E+00 -0.00000000000E+00 -0.30000000000E+02  0.30000000000E+02  0.00000000000E+00 0. -1.
         23    2    1    2    0    0  0.00000000000E+00  0.00000000000E+00  0.00000000000E+00  0.60000000000E+02  0.60000000000E+02 0.  0.
          5    1    3    3  501    0  0.16812328656E+02  0.20921172999E+02 -0.12552295628E+02  0.30000000000E+02  0.47000000000E+01 0. -1.
         -5    1    3    3    0  501 -0.16812328656E+02 -0.20921172999E+02  0.12552295628E+02  0.30000000000E+02  0.47000000000E+01 0.  1.
</event>
<event>
 5    1  0.7959189E-002  0.6000000E+02  0.7546771E-02  0.1259629E+00
         11   -1    0    0    0    0  0.00000000000E+00  0.00000000000E+00  0.30000000000E+02  0.30000000000E+02  0.00000000000E+00 0.  1.
        -11   -1    0    0    0    0 -0.00000000000E+00 -0.00000000000E+00 -0.30000000000E+02  0.30000000000E+02  0.00000000000E+00 0. -1.
         23    2    1    2    0    0  0.00000000000E+00  0.00000000000E+00  0.00000000000E+00  0.60000000000E+02  0.60000000000E+02 0.  0.
          5    1    3    3  501    0  0.16821206504E+02  0.53398075930E+01 -0.23800072828E+02  0.30000000000E+02  0.47000000000E+01 0. -1.
         -5    1    3    3    0  501 -0.16821206504E+02 -0.53398075930E+01  0.23800072828E+02  0.30000000000E+02  0.47000000000E+01 0.  1.
</event>
<event>
 5    1  0.7959189E-002  0.6000000E+02  0.7546771E-02  0.1259629E+00
         11   -1    0    0    0    0  0.00000000000E+00  0.00000000000E+00  0.30000000000E+02  0.30000000000E+02  0.00000000000E+00 0.  1.
        -11   -1    0    0    0    0 -0.00000000000E+00 -0.00000000000E+00 -0.30000000000E+02  0.30000000000E+02  0.00000000000E+00 0. -1.
         23    2    1    2    0    0  0.00000000000E+00  0.00000000000E+00  0.00000000000E+00  0.60000000000E+02  0.60000000000E+02 0.  0.
          5    1    3    3  501    0  0.14686711845E+02 -0.13195578871E+02 -0.22092695477E+02  0.30000000000E+02  0.47000000000E+01 0. -1.
         -5    1    3    3    0  501 -0.14686711845E+02  0.13195578871E+02  0.22092695477E+02  0.30000000000E+02  0.47000000000E+01 0.  1.
</event>
<event>
 5    1  0.7959189E-002  0.6000000E+02  0.7546771E-02  0.1259629E+00
         11   -1    0    0    0    0  0.00000000000E+00  0.00000000000E+00  0.30000000000E+02  0.30000000000E+02  0.00000000000E+00 0.  1.
        -11   -1    0    0    0    0 -0.00000000000E+00 -0.00000000000E+00 -0.30000000000E+02  0.30000000000E+02  0.00000000000E+00 0. -1.
         23    2    1    2    0    0  0.00000000000E+00  0.00000000000E+00  0.00000000000E+00  0.60000000000E+02  0.60000000000E+02 0.  0.
          5    1    3    3  501    0  0.86412549511E+01 -0.20820667883E+02 -0.19228585538E+02  0.30000000000E+02  0.47000000000E+01 0. -1.
         -5    1    3    3    0  501 -0.86412549511E+01  0.20820667883E+02  0.19228585538E+02  0.30000000000E+02  0.47000000000E+01 0. -1.
</event>
<event>
 5    1  0.7959189E-002  0.6000000E+02  0.7546771E-02  0.1259629E+00
         11   -1    0    0    0    0  0.00000000000E+00  0.00000000000E+00  0.30000000000E+02  0.30000000000E+02  0.00000000000E+00 0.  1.
        -11   -1    0    0    0    0 -0.00000000000E+00 -0.00000000000E+00 -0.30000000000E+02  0.30000000000E+02  0.00000000000E+00 0. -1.
         23    2    1    2    0    0  0.00000000000E+00  0.00000000000E+00  0.00000000000E+00  0.60000000000E+02  0.60000000000E+02 0.  0.
          5    1    3    3  501    0  0.23631977880E+02  0.16609053036E+02 -0.66014376269E+01  0.30000000000E+02  0.47000000000E+01 0. -1.
         -5    1    3    3    0  501 -0.23631977880E+02 -0.16609053036E+02  0.66014376269E+01  0.30000000000E+02  0.47000000000E+01 0.  1.
</event>
<event>
 5    1  0.7959189E-002  0.6000000E+02  0.7546771E-02  0.1259629E+00
         11   -1    0    0    0    0  0.00000000000E+00  0.00000000000E+00  0.30000000000E+02  0.30000000000E+02  0.00000000000E+00 0.  1.
        -11   -1    0    0    0    0 -0.00000000000E+00 -0.00000000000E+00 -0.30000000000E+02  0.30000000000E+02  0.00000000000E+00 0. -1.
         23    2    1    2    0    0  0.00000000000E+00  0.00000000000E+00  0.00000000000E+00  0.60000000000E+02  0.60000000000E+02 0.  0.
          5    1    3    3  501    0  0.11963412577E+02  0.11115593007E+02  0.24723073264E+02  0.30000000000E+02  0.47000000000E+01 0.  1.
         -5    1    3    3    0  501 -0.11963412577E+02 -0.11115593007E+02 -0.24723073264E+02  0.30000000000E+02  0.47000000000E+01 0. -1.
</event>
<event>
 5    1  0.7959189E-002  0.6000000E+02  0.7546771E-02  0.1259629E+00
         11   -1    0    0    0    0  0.00000000000E+00  0.00000000000E+00  0.30000000000E+02  0.30000000000E+02  0.00000000000E+00 0.  1.
        -11   -1    0    0    0    0 -0.00000000000E+00 -0.00000000000E+00 -0.30000000000E+02  0.30000000000E+02  0.00000000000E+00 0. -1.
         23    2    1    2    0    0  0.00000000000E+00  0.00000000000E+00  0.00000000000E+00  0.60000000000E+02  0.60000000000E+02 0.  0.
          5    1    3    3  501    0  0.13983876973E+01  0.17601613625E+02 -0.23793648514E+02  0.30000000000E+02  0.47000000000E+01 0. -1.
         -5    1    3    3    0  501 -0.13983876973E+01 -0.17601613625E+02  0.23793648514E+02  0.30000000000E+02  0.47000000000E+01 0. -1.
</event>
<event>
 5    1  0.7959189E-002  0.6000000E+02  0.7546771E-02  0.1259629E+00
         11   -1    0    0    0    0  0.00000000000E+00  0.00000000000E+00  0.30000000000E+02  0.30000000000E+02  0.00000000000E+00 0.  1.
        -11   -1    0    0    0    0 -0.00000000000E+00 -0.00000000000E+00 -0.30000000000E+02  0.30000000000E+02  0.00000000000E+00 0. -1.
         23    2    1    2    0    0  0.00000000000E+00  0.00000000000E+00  0.00000000000E+00  0.60000000000E+02  0.60000000000E+02 0.  0.
          5    1    3    3  501    0 -0.11620281870E+02  0.11777036235E+02 -0.24580082725E+02  0.30000000000E+02  0.47000000000E+01 0. -1.
         -5    1    3    3    0  501  0.11620281870E+02 -0.11777036235E+02  0.24580082725E+02  0.30000000000E+02  0.47000000000E+01 0.  1.
</event>
<event>
 5    1  0.7959189E-002  0.6000000E+02  0.7546771E-02  0.1259629E+00
         11   -1    0    0    0    0  0.00000000000E+00  0.00000000000E+00  0.30000000000E+02  0.30000000000E+02  0.00000000000E+00 0.  1.
        -11   -1    0    0    0    0 -0.00000000000E+00 -0.00000000000E+00 -0.30000000000E+02  0.30000000000E+02  0.00000000000E+00 0. -1.
         23    2    1    2    0    0  0.00000000000E+00  0.00000000000E+00  0.00000000000E+00  0.60000000000E+02  0.60000000000E+02 0.  0.
          5    1    3    3  501    0  0.21046830202E+02  0.54674039041E+01 -0.20125815089E+02  0.30000000000E+02  0.47000000000E+01 0. -1.
         -5    1    3    3    0  501 -0.21046830202E+02 -0.54674039041E+01  0.20125815089E+02  0.30000000000E+02  0.47000000000E+01 0.  1.
</event>
<event>
 5    1  0.7959189E-002  0.6000000E+02  0.7546771E-02  0.1259629E+00
         11   -1    0    0    0    0  0.00000000000E+00  0.00000000000E+00  0.30000000000E+02  0.30000000000E+02  0.00000000000E+00 0.  1.
        -11   -1    0    0    0    0 -0.00000000000E+00 -0.00000000000E+00 -0.30000000000E+02  0.30000000000E+02  0.00000000000E+00 0. -1.
         23    2    1    2    0    0  0.00000000000E+00  0.00000000000E+00  0.00000000000E+00  0.60000000000E+02  0.60000000000E+02 0.  0.
          5    1    3    3  501    0  0.14273523292E+01  0.71184874319E+00 -0.29586583728E+02  0.30000000000E+02  0.47000000000E+01 0. -1.
         -5    1    3    3    0  501 -0.14273523292E+01 -0.71184874319E+00  0.29586583728E+02  0.30000000000E+02  0.47000000000E+01 0.  1.
</event>
<event>
 5    1  0.7959189E-002  0.6000000E+02  0.7546771E-02  0.1259629E+00
         11   -1    0    0    0    0  0.00000000000E+00  0.00000000000E+00  0.30000000000E+02  0.30000000000E+02  0.00000000000E+00 0.  1.
        -11   -1    0    0    0    0 -0.00000000000E+00 -0.00000000000E+00 -0.30000000000E+02  0.30000000000E+02  0.00000000000E+00 0. -1.
         23    2    1    2    0    0  0.00000000000E+00  0.00000000000E+00  0.00000000000E+00  0.60000000000E+02  0.60000000000E+02 0.  0.
          5    1    3    3  501    0  0.44473026497E+01  0.28504066668E+02 -0.67564548779E+01  0.30000000000E+02  0.47000000000E+01 0. -1.
         -5    1    3    3    0  501 -0.44473026497E+01 -0.28504066668E+02  0.67564548779E+01  0.30000000000E+02  0.47000000000E+01 0.  1.
</event>
<event>
 5    1  0.7959189E-002  0.6000000E+02  0.7546771E-02  0.1259629E+00
         11   -1    0    0    0    0  0.00000000000E+00  0.00000000000E+00  0.30000000000E+02  0.30000000000E+02  0.00000000000E+00 0.  1.
        -11   -1    0    0    0    0 -0.00000000000E+00 -0.00000000000E+00 -0.30000000000E+02  0.30000000000E+02  0.00000000000E+00 0. -1.
         23    2    1    2    0    0  0.00000000000E+00  0.00000000000E+00  0.00000000000E+00  0.60000000000E+02  0.60000000000E+02 0.  0.
          5    1    3    3  501    0  0.56950664380E+01 -0.28292166574E+02 -0.67104045176E+01  0.30000000000E+02  0.47000000000E+01 0. -1.
         -5    1    3    3    0  501 -0.56950664380E+01  0.28292166574E+02  0.67104045176E+01  0.30000000000E+02  0.47000000000E+01 0.  1.
</event>
<event>
 5    1  0.7959189E-002  0.6000000E+02  0.7546771E-02  0.1259629E+00
         11   -1    0    0    0    0  0.00000000000E+00  0.00000000000E+00  0.30000000000E+02  0.30000000000E+02  0.00000000000E+00 0. -1.
        -11   -1    0    0    0    0 -0.00000000000E+00 -0.00000000000E+00 -0.30000000000E+02  0.30000000000E+02  0.00000000000E+00 0.  1.
         23    2    1    2    0    0  0.00000000000E+00  0.00000000000E+00  0.00000000000E+00  0.60000000000E+02  0.60000000000E+02 0.  0.
          5    1    3    3  501    0 -0.60056822025E+01 -0.30122027157E+01 -0.28857727147E+02  0.30000000000E+02  0.47000000000E+01 0.  1.
         -5    1    3    3    0  501  0.60056822025E+01  0.30122027157E+01  0.28857727147E+02  0.30000000000E+02  0.47000000000E+01 0. -1.
</event>
<event>
 5    1  0.7959189E-002  0.6000000E+02  0.7546771E-02  0.1259629E+00
         11   -1    0    0    0    0  0.00000000000E+00  0.00000000000E+00  0.30000000000E+02  0.30000000000E+02  0.00000000000E+00 0.  1.
        -11   -1    0    0    0    0 -0.00000000000E+00 -0.00000000000E+00 -0.30000000000E+02  0.30000000000E+02  0.00000000000E+00 0. -1.
         23    2    1    2    0    0  0.00000000000E+00  0.00000000000E+00  0.00000000000E+00  0.60000000000E+02  0.60000000000E+02 0.  0.
          5    1    3    3  501    0  0.47809256665E+01  0.20819810647E+02 -0.20532613920E+02  0.30000000000E+02  0.47000000000E+01 0. -1.
         -5    1    3    3    0  501 -0.47809256665E+01 -0.20819810647E+02  0.20532613920E+02  0.30000000000E+02  0.47000000000E+01 0.  1.
</event>
<event>
 5    1  0.7959189E-002  0.6000000E+02  0.7546771E-02  0.1259629E+00
         11   -1    0    0    0    0  0.00000000000E+00  0.00000000000E+00  0.30000000000E+02  0.30000000000E+02  0.00000000000E+00 0.  1.
        -11   -1    0    0    0    0 -0.00000000000E+00 -0.00000000000E+00 -0.30000000000E+02  0.30000000000E+02  0.00000000000E+00 0. -1.
         23    2    1    2    0    0  0.00000000000E+00  0.00000000000E+00  0.00000000000E+00  0.60000000000E+02  0.60000000000E+02 0.  0.
          5    1    3    3  501    0  0.15919936855E+02 -0.94118300654E+00 -0.24971579547E+02  0.30000000000E+02  0.47000000000E+01 0. -1.
         -5    1    3    3    0  501 -0.15919936855E+02  0.94118300654E+00  0.24971579547E+02  0.30000000000E+02  0.47000000000E+01 0.  1.
</event>
<event>
 5    1  0.7959189E-002  0.6000000E+02  0.7546771E-02  0.1259629E+00
         11   -1    0    0    0    0  0.00000000000E+00  0.00000000000E+00  0.30000000000E+02  0.30000000000E+02  0.00000000000E+00 0.  1.
        -11   -1    0    0    0    0 -0.00000000000E+00 -0.00000000000E+00 -0.30000000000E+02  0.30000000000E+02  0.00000000000E+00 0. -1.
         23    2    1    2    0    0  0.00000000000E+00  0.00000000000E+00  0.00000000000E+00  0.60000000000E+02  0.60000000000E+02 0.  0.
          5    1    3    3  501    0 -0.12421788027E+02  0.23838309323E+02  0.12463714969E+02  0.30000000000E+02  0.47000000000E+01 0.  1.
         -5    1    3    3    0  501  0.12421788027E+02 -0.23838309323E+02 -0.12463714969E+02  0.30000000000E+02  0.47000000000E+01 0. -1.
</event>
<event>
 5    1  0.7959189E-002  0.6000000E+02  0.7546771E-02  0.1259629E+00
         11   -1    0    0    0    0  0.00000000000E+00  0.00000000000E+00  0.30000000000E+02  0.30000000000E+02  0.00000000000E+00 0. -1.
        -11   -1    0    0    0    0 -0.00000000000E+00 -0.00000000000E+00 -0.30000000000E+02  0.30000000000E+02  0.00000000000E+00 0.  1.
         23    2    1    2    0    0  0.00000000000E+00  0.00000000000E+00  0.00000000000E+00  0.60000000000E+02  0.60000000000E+02 0.  0.
          5    1    3    3  501    0 -0.28427399825E+01 -0.84991480161E+01 -0.28241694574E+02  0.30000000000E+02  0.47000000000E+01 0.  1.
         -5    1    3    3    0  501  0.28427399825E+01  0.84991480161E+01  0.28241694574E+02  0.30000000000E+02  0.47000000000E+01 0. -1.
</event>
<event>
 5    1  0.7959189E-002  0.6000000E+02  0.7546771E-02  0.1259629E+00
         11   -1    0    0    0    0  0.00000000000E+00  0.00000000000E+00  0.30000000000E+02  0.30000000000E+02  0.00000000000E+00 0.  1.
        -11   -1    0    0    0    0 -0.00000000000E+00 -0.00000000000E+00 -0.30000000000E+02  0.30000000000E+02  0.00000000000E+00 0. -1.
         23    2    1    2    0    0  0.00000000000E+00  0.00000000000E+00  0.00000000000E+00  0.60000000000E+02  0.60000000000E+02 0.  0.
          5    1    3    3  501    0 -0.28003838100E+02 -0.89286069406E+01  0.37383191132E+01  0.30000000000E+02  0.47000000000E+01 0. -1.
         -5    1    3    3    0  501  0.28003838100E+02  0.89286069406E+01 -0.37383191132E+01  0.30000000000E+02  0.47000000000E+01 0.  1.
</event>
<event>
 5    1  0.7959189E-002  0.6000000E+02  0.7546771E-02  0.1259629E+00
         11   -1    0    0    0    0  0.00000000000E+00  0.00000000000E+00  0.30000000000E+02  0.30000000000E+02  0.00000000000E+00 0.  1.
        -11   -1    0    0    0    0 -0.00000000000E+00 -0.00000000000E+00 -0.30000000000E+02  0.30000000000E+02  0.00000000000E+00 0. -1.
         23    2    1    2    0    0  0.00000000000E+00  0.00000000000E+00  0.00000000000E+00  0.60000000000E+02  0.60000000000E+02 0.  0.
          5    1    3    3  501    0  0.14931336834E+02 -0.22750265256E+02 -0.11721374115E+02  0.30000000000E+02  0.47000000000E+01 0. -1.
         -5    1    3    3    0  501 -0.14931336834E+02  0.22750265256E+02  0.11721374115E+02  0.30000000000E+02  0.47000000000E+01 0.  1.
</event>
<event>
 5    1  0.7959189E-002  0.6000000E+02  0.7546771E-02  0.1259629E+00
         11   -1    0    0    0    0  0.00000000000E+00  0.00000000000E+00  0.30000000000E+02  0.30000000000E+02  0.00000000000E+00 0.  1.
        -11   -1    0    0    0    0 -0.00000000000E+00 -0.00000000000E+00 -0.30000000000E+02  0.30000000000E+02  0.00000000000E+00 0. -1.
         23    2    1    2    0    0  0.00000000000E+00  0.00000000000E+00  0.00000000000E+00  0.60000000000E+02  0.60000000000E+02 0.  0.
          5    1    3    3  501    0 -0.14830860164E+02 -0.16985508562E+02 -0.19221032378E+02  0.30000000000E+02  0.47000000000E+01 0. -1.
         -5    1    3    3    0  501  0.14830860164E+02  0.16985508562E+02  0.19221032378E+02  0.30000000000E+02  0.47000000000E+01 0.  1.
</event>
<event>
 5    1  0.7959189E-002  0.6000000E+02  0.7546771E-02  0.1259629E+00
         11   -1    0    0    0    0  0.00000000000E+00  0.00000000000E+00  0.30000000000E+02  0.30000000000E+02  0.00000000000E+00 0.  1.
        -11   -1    0    0    0    0 -0.00000000000E+00 -0.00000000000E+00 -0.30000000000E+02  0.30000000000E+02  0.00000000000E+00 0. -1.
         23    2    1    2    0    0  0.00000000000E+00  0.00000000000E+00  0.00000000000E+00  0.60000000000E+02  0.60000000000E+02 0.  0.
          5    1    3    3  501    0  0.13099046094E+02 -0.14911478058E+02 -0.21999382118E+02  0.30000000000E+02  0.47000000000E+01 0. -1.
         -5    1    3    3    0  501 -0.13099046094E+02  0.14911478058E+02  0.21999382118E+02  0.30000000000E+02  0.47000000000E+01 0.  1.
</event>
<event>
 5    1  0.7959189E-002  0.6000000E+02  0.7546771E-02  0.1259629E+00
         11   -1    0    0    0    0  0.00000000000E+00  0.00000000000E+00  0.30000000000E+02  0.30000000000E+02  0.00000000000E+00 0.  1.
        -11   -1    0    0    0    0 -0.00000000000E+00 -0.00000000000E+00 -0.30000000000E+02  0.30000000000E+02  0.00000000000E+00 0. -1.
         23    2    1    2    0    0  0.00000000000E+00  0.00000000000E+00  0.00000000000E+00  0.60000000000E+02  0.60000000000E+02 0.  0.
          5    1    3    3  501    0 -0.25491549099E+02  0.68226015611E+00 -0.15087261038E+02  0.30000000000E+02  0.47000000000E+01 0. -1.
         -5    1    3    3    0  501  0.25491549099E+02 -0.68226015611E+00  0.15087261038E+02  0.30000000000E+02  0.47000000000E+01 0.  1.
</event>
<event>
 5    1  0.7959189E-002  0.6000000E+02  0.7546771E-02  0.1259629E+00
         11   -1    0    0    0    0  0.00000000000E+00  0.00000000000E+00  0.30000000000E+02  0.30000000000E+02  0.00000000000E+00 0. -1.
        -11   -1    0    0    0    0 -0.00000000000E+00 -0.00000000000E+00 -0.30000000000E+02  0.30000000000E+02  0.00000000000E+00 0.  1.
         23    2    1    2    0    0  0.00000000000E+00  0.00000000000E+00  0.00000000000E+00  0.60000000000E+02  0.60000000000E+02 0.  0.
          5    1    3    3  501    0 -0.15864461381E+02  0.44981985099E+01 -0.24616967223E+02  0.30000000000E+02  0.47000000000E+01 0.  1.
         -5    1    3    3    0  501  0.15864461381E+02 -0.44981985099E+01  0.24616967223E+02  0.30000000000E+02  0.47000000000E+01 0. -1.
</event>
<event>
 5    1  0.7959189E-002  0.6000000E+02  0.7546771E-02  0.1259629E+00
         11   -1    0    0    0    0  0.00000000000E+00  0.00000000000E+00  0.30000000000E+02  0.30000000000E+02  0.00000000000E+00 0.  1.
        -11   -1    0    0    0    0 -0.00000000000E+00 -0.00000000000E+00 -0.30000000000E+02  0.30000000000E+02  0.00000000000E+00 0. -1.
         23    2    1    2    0    0  0.00000000000E+00  0.00000000000E+00  0.00000000000E+00  0.60000000000E+02  0.60000000000E+02 0.  0.
          5    1    3    3  501    0 -0.22026154577E+02  0.13833930707E+02 -0.14190872972E+02  0.30000000000E+02  0.47000000000E+01 0. -1.
         -5    1    3    3    0  501  0.22026154577E+02 -0.13833930707E+02  0.14190872972E+02  0.30000000000E+02  0.47000000000E+01 0.  1.
</event>
<event>
 5    1  0.7959189E-002  0.6000000E+02  0.7546771E-02  0.1259629E+00
         11   -1    0    0    0    0  0.00000000000E+00  0.00000000000E+00  0.30000000000E+02  0.30000000000E+02  0.00000000000E+00 0. -1.
        -11   -1    0    0    0    0 -0.00000000000E+00 -0.00000000000E+00 -0.30000000000E+02  0.30000000000E+02  0.00000000000E+00 0.  1.
         23    2    1    2    0    0  0.00000000000E+00  0.00000000000E+00  0.00000000000E+00  0.60000000000E+02  0.60000000000E+02 0.  0.
          5    1    3    3  501    0  0.24697527802E+02  0.21402731328E+01  0.16228411856E+02  0.30000000000E+02  0.47000000000E+01 0.  1.
         -5    1    3    3    0  501 -0.24697527802E+02 -0.21402731328E+01 -0.16228411856E+02  0.30000000000E+02  0.47000000000E+01 0. -1.
</event>
<event>
 5    1  0.7959189E-002  0.6000000E+02  0.7546771E-02  0.1259629E+00
         11   -1    0    0    0    0  0.00000000000E+00  0.00000000000E+00  0.30000000000E+02  0.30000000000E+02  0.00000000000E+00 0.  1.
        -11   -1    0    0    0    0 -0.00000000000E+00 -0.00000000000E+00 -0.30000000000E+02  0.30000000000E+02  0.00000000000E+00 0. -1.
         23    2    1    2    0    0  0.00000000000E+00  0.00000000000E+00  0.00000000000E+00  0.60000000000E+02  0.60000000000E+02 0.  0.
          5    1    3    3  501    0  0.26377627967E+01  0.19329426710E+02 -0.22300795288E+02  0.30000000000E+02  0.47000000000E+01 0. -1.
         -5    1    3    3    0  501 -0.26377627967E+01 -0.19329426710E+02  0.22300795288E+02  0.30000000000E+02  0.47000000000E+01 0.  1.
</event>
<event>
 5    1  0.7959189E-002  0.6000000E+02  0.7546771E-02  0.1259629E+00
         11   -1    0    0    0    0  0.00000000000E+00  0.00000000000E+00  0.30000000000E+02  0.30000000000E+02  0.00000000000E+00 0.  1.
        -11   -1    0    0    0    0 -0.00000000000E+00 -0.00000000000E+00 -0.30000000000E+02  0.30000000000E+02  0.00000000000E+00 0. -1.
         23    2    1    2    0    0  0.00000000000E+00  0.00000000000E+00  0.00000000000E+00  0.60000000000E+02  0.60000000000E+02 0.  0.
          5    1    3    3  501    0 -0.14111404598E+02  0.15752975533E+02 -0.20751434219E+02  0.30000000000E+02  0.47000000000E+01 0. -1.
         -5    1    3    3    0  501  0.14111404598E+02 -0.15752975533E+02  0.20751434219E+02  0.30000000000E+02  0.47000000000E+01 0.  1.
</event>
<event>
 5    1  0.7959189E-002  0.6000000E+02  0.7546771E-02  0.1259629E+00
         11   -1    0    0    0    0  0.00000000000E+00  0.00000000000E+00  0.30000000000E+02  0.30000000000E+02  0.00000000000E+00 0.  1.
        -11   -1    0    0    0    0 -0.00000000000E+00 -0.00000000000E+00 -0.30000000000E+02  0.30000000000E+02  0.00000000000E+00 0. -1.
         23    2    1    2    0    0  0.00000000000E+00  0.00000000000E+00  0.00000000000E+00  0.60000000000E+02  0.60000000000E+02 0.  0.
          5    1    3    3  501    0  0.43206581738E+01  0.24424554834E+02 -0.16207499316E+02  0.30000000000E+02  0.47000000000E+01 0. -1.
         -5    1    3    3    0  501 -0.43206581738E+01 -0.24424554834E+02  0.16207499316E+02  0.30000000000E+02  0.47000000000E+01 0.  1.
</event>
<event>
 5    1  0.7959189E-002  0.6000000E+02  0.7546771E-02  0.1259629E+00
         11   -1    0    0    0    0  0.00000000000E+00  0.00000000000E+00  0.30000000000E+02  0.30000000000E+02  0.00000000000E+00 0.  1.
        -11   -1    0    0    0    0 -0.00000000000E+00 -0.00000000000E+00 -0.30000000000E+02  0.30000000000E+02  0.00000000000E+00 0. -1.
         23    2    1    2    0    0  0.00000000000E+00  0.00000000000E+00  0.00000000000E+00  0.60000000000E+02  0.60000000000E+02 0.  0.
          5    1    3    3  501    0  0.92743444489E+01  0.28011152738E+02 -0.26966381570E+01  0.30000000000E+02  0.47000000000E+01 0. -1.
         -5    1    3    3    0  501 -0.92743444489E+01 -0.28011152738E+02  0.26966381570E+01  0.30000000000E+02  0.47000000000E+01 0.  1.
</event>
<event>
 5    1  0.7959189E-002  0.6000000E+02  0.7546771E-02  0.1259629E+00
         11   -1    0    0    0    0  0.00000000000E+00  0.00000000000E+00  0.30000000000E+02  0.30000000000E+02  0.00000000000E+00 0. -1.
        -11   -1    0    0    0    0 -0.00000000000E+00 -0.00000000000E+00 -0.30000000000E+02  0.30000000000E+02  0.00000000000E+00 0.  1.
         23    2    1    2    0    0  0.00000000000E+00  0.00000000000E+00  0.00000000000E+00  0.60000000000E+02  0.60000000000E+02 0.  0.
          5    1    3    3  501    0 -0.20198861963E+02 -0.20077412711E+02  0.81739509559E+01  0.30000000000E+02  0.47000000000E+01 0.  1.
         -5    1    3    3    0  501  0.20198861963E+02  0.20077412711E+02 -0.81739509559E+01  0.30000000000E+02  0.47000000000E+01 0. -1.
</event>
<event>
 5    1  0.7959189E-002  0.6000000E+02  0.7546771E-02  0.1259629E+00
         11   -1    0    0    0    0  0.00000000000E+00  0.00000000000E+00  0.30000000000E+02  0.30000000000E+02  0.00000000000E+00 0. -1.
        -11   -1    0    0    0    0 -0.00000000000E+00 -0.00000000000E+00 -0.30000000000E+02  0.30000000000E+02  0.00000000000E+00 0.  1.
         23    2    1    2    0    0  0.00000000000E+00  0.00000000000E+00  0.00000000000E+00  0.60000000000E+02  0.60000000000E+02 0.  0.
          5    1    3    3  501    0  0.11046524145E+02 -0.27493185152E+02  0.95260125111E-01  0.30000000000E+02  0.47000000000E+01 0.  1.
         -5    1    3    3    0  501 -0.11046524145E+02  0.27493185152E+02 -0.95260125111E-01  0.30000000000E+02  0.47000000000E+01 0. -1.
</event>
<event>
 5    1  0.7959189E-002  0.6000000E+02  0.7546771E-02  0.1259629E+00
         11   -1    0    0    0    0  0.00000000000E+00  0.00000000000E+00  0.30000000000E+02  0.30000000000E+02  0.00000000000E+00 0.  1.
        -11   -1    0    0    0    0 -0.00000000000E+00 -0.00000000000E+00 -0.30000000000E+02  0.30000000000E+02  0.00000000000E+00 0. -1.
         23    2    1    2    0    0  0.00000000000E+00  0.00000000000E+00  0.00000000000E+00  0.60000000000E+02  0.60000000000E+02 0.  0.
          5    1    3    3  501    0 -0.13324508083E+02  0.15704626468E+02  0.21300990396E+02  0.30000000000E+02  0.47000000000E+01 0.  1.
         -5    1    3    3    0  501  0.13324508083E+02 -0.15704626468E+02 -0.21300990396E+02  0.30000000000E+02  0.47000000000E+01 0. -1.
</event>
<event>
 5    1  0.7959189E-002  0.6000000E+02  0.7546771E-02  0.1259629E+00
         11   -1    0    0    0    0  0.00000000000E+00  0.00000000000E+00  0.30000000000E+02  0.30000000000E+02  0.00000000000E+00 0.  1.
        -11   -1    0    0    0    0 -0.00000000000E+00 -0.00000000000E+00 -0.30000000000E+02  0.30000000000E+02  0.00000000000E+00 0. -1.
         23    2    1    2    0    0  0.00000000000E+00  0.00000000000E+00  0.00000000000E+00  0.60000000000E+02  0.60000000000E+02 0.  0.
          5    1    3    3  501    0  0.11636952519E+02  0.14403129495E+02 -0.23130957542E+02  0.30000000000E+02  0.47000000000E+01 0. -1.
         -5    1    3    3    0  501 -0.11636952519E+02 -0.14403129495E+02  0.23130957542E+02  0.30000000000E+02  0.47000000000E+01 0.  1.
</event>
<event>
 5    1  0.7959189E-002  0.6000000E+02  0.7546771E-02  0.1259629E+00
         11   -1    0    0    0    0  0.00000000000E+00  0.00000000000E+00  0.30000000000E+02  0.30000000000E+02  0.00000000000E+00 0.  1.
        -11   -1    0    0    0    0 -0.00000000000E+00 -0.00000000000E+00 -0.30000000000E+02  0.30000000000E+02  0.00000000000E+00 0. -1.
         23    2    1    2    0    0  0.00000000000E+00  0.00000000000E+00  0.00000000000E+00  0.60000000000E+02  0.60000000000E+02 0.  0.
          5    1    3    3  501    0 -0.27222346492E+02 -0.58730736911E+01  0.10117354245E+02  0.30000000000E+02  0.47000000000E+01 0. -1.
         -5    1    3    3    0  501  0.27222346492E+02  0.58730736911E+01 -0.10117354245E+02  0.30000000000E+02  0.47000000000E+01 0.  1.
</event>
<event>
 5    1  0.7959189E-002  0.6000000E+02  0.7546771E-02  0.1259629E+00
         11   -1    0    0    0    0  0.00000000000E+00  0.00000000000E+00  0.30000000000E+02  0.30000000000E+02  0.00000000000E+00 0.  1.
        -11   -1    0    0    0    0 -0.00000000000E+00 -0.00000000000E+00 -0.30000000000E+02  0.30000000000E+02  0.00000000000E+00 0. -1.
         23    2    1    2    0    0  0.00000000000E+00  0.00000000000E+00  0.00000000000E+00  0.60000000000E+02  0.60000000000E+02 0.  0.
          5    1    3    3  501    0 -0.89342499988E+01 -0.28191258277E+02 -0.18281503477E+01  0.30000000000E+02  0.47000000000E+01 0.  1.
         -5    1    3    3    0  501  0.89342499988E+01  0.28191258277E+02  0.18281503477E+01  0.30000000000E+02  0.47000000000E+01 0.  1.
</event>
<event>
 5    1  0.7959189E-002  0.6000000E+02  0.7546771E-02  0.1259629E+00
         11   -1    0    0    0    0  0.00000000000E+00  0.00000000000E+00  0.30000000000E+02  0.30000000000E+02  0.00000000000E+00 0.  1.
        -11   -1    0    0    0    0 -0.00000000000E+00 -0.00000000000E+00 -0.30000000000E+02  0.30000000000E+02  0.00000000000E+00 0. -1.
         23    2    1    2    0    0  0.00000000000E+00  0.00000000000E+00  0.00000000000E+00  0.60000000000E+02  0.60000000000E+02 0.  0.
          5    1    3    3  501    0 -0.25127503301E+01  0.29465157315E+02 -0.18440689201E+01  0.30000000000E+02  0.47000000000E+01 0. -1.
         -5    1    3    3    0  501  0.25127503301E+01 -0.29465157315E+02  0.18440689201E+01  0.30000000000E+02  0.47000000000E+01 0.  1.
</event>
<event>
 5    1  0.7959189E-002  0.6000000E+02  0.7546771E-02  0.1259629E+00
         11   -1    0    0    0    0  0.00000000000E+00  0.00000000000E+00  0.30000000000E+02  0.30000000000E+02  0.00000000000E+00 0.  1.
        -11   -1    0    0    0    0 -0.00000000000E+00 -0.00000000000E+00 -0.30000000000E+02  0.30000000000E+02  0.00000000000E+00 0. -1.
         23    2    1    2    0    0  0.00000000000E+00  0.00000000000E+00  0.00000000000E+00  0.60000000000E+02  0.60000000000E+02 0.  0.
          5    1    3    3  501    0  0.72513836375E+00 -0.13581501304E+02 -0.26323506543E+02  0.30000000000E+02  0.47000000000E+01 0. -1.
         -5    1    3    3    0  501 -0.72513836375E+00  0.13581501304E+02  0.26323506543E+02  0.30000000000E+02  0.47000000000E+01 0.  1.
</event>
<event>
 5    1  0.7959189E-002  0.6000000E+02  0.7546771E-02  0.1259629E+00
         11   -1    0    0    0    0  0.00000000000E+00  0.00000000000E+00  0.30000000000E+02  0.30000000000E+02  0.00000000000E+00 0.  1.
        -11   -1    0    0    0    0 -0.00000000000E+00 -0.00000000000E+00 -0.30000000000E+02  0.30000000000E+02  0.00000000000E+00 0. -1.
         23    2    1    2    0    0  0.00000000000E+00  0.00000000000E+00  0.00000000000E+00  0.60000000000E+02  0.60000000000E+02 0.  0.
          5    1    3    3  501    0 -0.95811918610E+01 -0.10700260092E+02 -0.25915539672E+02  0.30000000000E+02  0.47000000000E+01 0. -1.
         -5    1    3    3    0  501  0.95811918610E+01  0.10700260092E+02  0.25915539672E+02  0.30000000000E+02  0.47000000000E+01 0.  1.
</event>
<event>
 5    1  0.7959189E-002  0.6000000E+02  0.7546771E-02  0.1259629E+00
         11   -1    0    0    0    0  0.00000000000E+00  0.00000000000E+00  0.30000000000E+02  0.30000000000E+02  0.00000000000E+00 0.  1.
        -11   -1    0    0    0    0 -0.00000000000E+00 -0.00000000000E+00 -0.30000000000E+02  0.30000000000E+02  0.00000000000E+00 0. -1.
         23    2    1    2    0    0  0.00000000000E+00  0.00000000000E+00  0.00000000000E+00  0.60000000000E+02  0.60000000000E+02 0.  0.
          5    1    3    3  501    0  0.22577217541E+02 -0.10843884273E+02 -0.15830016488E+02  0.30000000000E+02  0.47000000000E+01 0. -1.
         -5    1    3    3    0  501 -0.22577217541E+02  0.10843884273E+02  0.15830016488E+02  0.30000000000E+02  0.47000000000E+01 0.  1.
</event>
<event>
 5    1  0.7959189E-002  0.6000000E+02  0.7546771E-02  0.1259629E+00
         11   -1    0    0    0    0  0.00000000000E+00  0.00000000000E+00  0.30000000000E+02  0.30000000000E+02  0.00000000000E+00 0.  1.
        -11   -1    0    0    0    0 -0.00000000000E+00 -0.00000000000E+00 -0.30000000000E+02  0.30000000000E+02  0.00000000000E+00 0. -1.
         23    2    1    2    0    0  0.00000000000E+00  0.00000000000E+00  0.00000000000E+00  0.60000000000E+02  0.60000000000E+02 0.  0.
          5    1    3    3  501    0 -0.27011851148E+02 -0.10814541603E+02  0.55960331922E+01  0.30000000000E+02  0.47000000000E+01 0. -1.
         -5    1    3    3    0  501  0.27011851148E+02  0.10814541603E+02 -0.55960331922E+01  0.30000000000E+02  0.47000000000E+01 0.  1.
</event>
<event>
 5    1  0.7959189E-002  0.6000000E+02  0.7546771E-02  0.1259629E+00
         11   -1    0    0    0    0  0.00000000000E+00  0.00000000000E+00  0.30000000000E+02  0.30000000000E+02  0.00000000000E+00 0. -1.
        -11   -1    0    0    0    0 -0.00000000000E+00 -0.00000000000E+00 -0.30000000000E+02  0.30000000000E+02  0.00000000000E+00 0.  1.
         23    2    1    2    0    0  0.00000000000E+00  0.00000000000E+00  0.00000000000E+00  0.60000000000E+02  0.60000000000E+02 0.  0.
          5    1    3    3  501    0 -0.24449337031E+02  0.21226043493E+01  0.16602242907E+02  0.30000000000E+02  0.47000000000E+01 0. -1.
         -5    1    3    3    0  501  0.24449337031E+02 -0.21226043493E+01 -0.16602242907E+02  0.30000000000E+02  0.47000000000E+01 0.  1.
</event>
<event>
 5    1  0.7959189E-002  0.6000000E+02  0.7546771E-02  0.1259629E+00
         11   -1    0    0    0    0  0.00000000000E+00  0.00000000000E+00  0.30000000000E+02  0.30000000000E+02  0.00000000000E+00 0. -1.
        -11   -1    0    0    0    0 -0.00000000000E+00 -0.00000000000E+00 -0.30000000000E+02  0.30000000000E+02  0.00000000000E+00 0.  1.
         23    2    1    2    0    0  0.00000000000E+00  0.00000000000E+00  0.00000000000E+00  0.60000000000E+02  0.60000000000E+02 0.  0.
          5    1    3    3  501    0  0.20012058110E+01  0.13230996540E+02 -0.26435693784E+02  0.30000000000E+02  0.47000000000E+01 0.  1.
         -5    1    3    3    0  501 -0.20012058110E+01 -0.13230996540E+02  0.26435693784E+02  0.30000000000E+02  0.47000000000E+01 0. -1.
</event>
<event>
 5    1  0.7959189E-002  0.6000000E+02  0.7546771E-02  0.1259629E+00
         11   -1    0    0    0    0  0.00000000000E+00  0.00000000000E+00  0.30000000000E+02  0.30000000000E+02  0.00000000000E+00 0. -1.
        -11   -1    0    0    0    0 -0.00000000000E+00 -0.00000000000E+00 -0.30000000000E+02  0.30000000000E+02  0.00000000000E+00 0.  1.
         23    2    1    2    0    0  0.00000000000E+00  0.00000000000E+00  0.00000000000E+00  0.60000000000E+02  0.60000000000E+02 0.  0.
          5    1    3    3  501    0  0.12265607127E+02  0.25141479311E+02  0.97658025716E+01  0.30000000000E+02  0.47000000000E+01 0.  1.
         -5    1    3    3    0  501 -0.12265607127E+02 -0.25141479311E+02 -0.97658025716E+01  0.30000000000E+02  0.47000000000E+01 0. -1.
</event>
<event>
 5    1  0.7959189E-002  0.6000000E+02  0.7546771E-02  0.1259629E+00
         11   -1    0    0    0    0  0.00000000000E+00  0.00000000000E+00  0.30000000000E+02  0.30000000000E+02  0.00000000000E+00 0.  1.
        -11   -1    0    0    0    0 -0.00000000000E+00 -0.00000000000E+00 -0.30000000000E+02  0.30000000000E+02  0.00000000000E+00 0. -1.
         23    2    1    2    0    0  0.00000000000E+00  0.00000000000E+00  0.00000000000E+00  0.60000000000E+02  0.60000000000E+02 0.  0.
          5    1    3    3  501    0  0.22704706309E+02 -0.37433479320E+01 -0.18665306258E+02  0.30000000000E+02  0.47000000000E+01 0. -1.
         -5    1    3    3    0  501 -0.22704706309E+02  0.37433479320E+01  0.18665306258E+02  0.30000000000E+02  0.47000000000E+01 0.  1.
</event>
<event>
 5    1  0.7959189E-002  0.6000000E+02  0.7546771E-02  0.1259629E+00
         11   -1    0    0    0    0  0.00000000000E+00  0.00000000000E+00  0.30000000000E+02  0.30000000000E+02  0.00000000000E+00 0. -1.
        -11   -1    0    0    0    0 -0.00000000000E+00 -0.00000000000E+00 -0.30000000000E+02  0.30000000000E+02  0.00000000000E+00 0.  1.
         23    2    1    2    0    0  0.00000000000E+00  0.00000000000E+00  0.00000000000E+00  0.60000000000E+02  0.60000000000E+02 0.  0.
          5    1    3    3  501    0 -0.11530468149E+02 -0.24432434269E+02  0.12166119347E+02  0.30000000000E+02  0.47000000000E+01 0. -1.
         -5    1    3    3    0  501  0.11530468149E+02  0.24432434269E+02 -0.12166119347E+02  0.30000000000E+02  0.47000000000E+01 0.  1.
</event>
<event>
 5    1  0.7959189E-002  0.6000000E+02  0.7546771E-02  0.1259629E+00
         11   -1    0    0    0    0  0.00000000000E+00  0.00000000000E+00  0.30000000000E+02  0.30000000000E+02  0.00000000000E+00 0.  1.
        -11   -1    0    0    0    0 -0.00000000000E+00 -0.00000000000E+00 -0.30000000000E+02  0.30000000000E+02  0.00000000000E+00 0. -1.
         23    2    1    2    0    0  0.00000000000E+00  0.00000000000E+00  0.00000000000E+00  0.60000000000E+02  0.60000000000E+02 0.  0.
          5    1    3    3  501    0 -0.28063001015E+02  0.30430737551E+01 -0.90065351929E+01  0.30000000000E+02  0.47000000000E+01 0.  1.
         -5    1    3    3    0  501  0.28063001015E+02 -0.30430737551E+01  0.90065351929E+01  0.30000000000E+02  0.47000000000E+01 0. -1.
</event>
<event>
 5    1  0.7959189E-002  0.6000000E+02  0.7546771E-02  0.1259629E+00
         11   -1    0    0    0    0  0.00000000000E+00  0.00000000000E+00  0.30000000000E+02  0.30000000000E+02  0.00000000000E+00 0. -1.
        -11   -1    0    0    0    0 -0.00000000000E+00 -0.00000000000E+00 -0.30000000000E+02  0.30000000000E+02  0.00000000000E+00 0.  1.
         23    2    1    2    0    0  0.00000000000E+00  0.00000000000E+00  0.00000000000E+00  0.60000000000E+02  0.60000000000E+02 0.  0.
          5    1    3    3  501    0 -0.52229996629E+01  0.14189965590E+01 -0.29131026815E+02  0.30000000000E+02  0.47000000000E+01 0.  1.
         -5    1    3    3    0  501  0.52229996629E+01 -0.14189965590E+01  0.29131026815E+02  0.30000000000E+02  0.47000000000E+01 0. -1.
</event>
<event>
 5    1  0.7959189E-002  0.6000000E+02  0.7546771E-02  0.1259629E+00
         11   -1    0    0    0    0  0.00000000000E+00  0.00000000000E+00  0.30000000000E+02  0.30000000000E+02  0.00000000000E+00 0. -1.
        -11   -1    0    0    0    0 -0.00000000000E+00 -0.00000000000E+00 -0.30000000000E+02  0.30000000000E+02  0.00000000000E+00 0.  1.
         23    2    1    2    0    0  0.00000000000E+00  0.00000000000E+00  0.00000000000E+00  0.60000000000E+02  0.60000000000E+02 0.  0.
          5    1    3    3  501    0 -0.10389726195E+02  0.27449424955E+02  0.40611155189E+01  0.30000000000E+02  0.47000000000E+01 0.  1.
         -5    1    3    3    0  501  0.10389726195E+02 -0.27449424955E+02 -0.40611155189E+01  0.30000000000E+02  0.47000000000E+01 0. -1.
</event>
<event>
 5    1  0.7959189E-002  0.6000000E+02  0.7546771E-02  0.1259629E+00
         11   -1    0    0    0    0  0.00000000000E+00  0.00000000000E+00  0.30000000000E+02  0.30000000000E+02  0.00000000000E+00 0.  1.
        -11   -1    0    0    0    0 -0.00000000000E+00 -0.00000000000E+00 -0.30000000000E+02  0.30000000000E+02  0.00000000000E+00 0. -1.
         23    2    1    2    0    0  0.00000000000E+00  0.00000000000E+00  0.00000000000E+00  0.60000000000E+02  0.60000000000E+02 0.  0.
          5    1    3    3  501    0  0.24455181947E+02 -0.60995075645E-01 -0.16728728449E+02  0.30000000000E+02  0.47000000000E+01 0. -1.
         -5    1    3    3    0  501 -0.24455181947E+02  0.60995075645E-01  0.16728728449E+02  0.30000000000E+02  0.47000000000E+01 0.  1.
</event>
<event>
 5    1  0.7959189E-002  0.6000000E+02  0.7546771E-02  0.1259629E+00
         11   -1    0    0    0    0  0.00000000000E+00  0.00000000000E+00  0.30000000000E+02  0.30000000000E+02  0.00000000000E+00 0. -1.
        -11   -1    0    0    0    0 -0.00000000000E+00 -0.00000000000E+00 -0.30000000000E+02  0.30000000000E+02  0.00000000000E+00 0.  1.
         23    2    1    2    0    0  0.00000000000E+00  0.00000000000E+00  0.00000000000E+00  0.60000000000E+02  0.60000000000E+02 0.  0.
          5    1    3    3  501    0  0.16539903876E+02 -0.24551493602E+02 -0.12512960137E+01  0.30000000000E+02  0.47000000000E+01 0.  1.
         -5    1    3    3    0  501 -0.16539903876E+02  0.24551493602E+02  0.12512960137E+01  0.30000000000E+02  0.47000000000E+01 0. -1.
</event>
<event>
 5    1  0.7959189E-002  0.6000000E+02  0.7546771E-02  0.1259629E+00
         11   -1    0    0    0    0  0.00000000000E+00  0.00000000000E+00  0.30000000000E+02  0.30000000000E+02  0.00000000000E+00 0. -1.
        -11   -1    0    0    0    0 -0.00000000000E+00 -0.00000000000E+00 -0.30000000000E+02  0.30000000000E+02  0.00000000000E+00 0.  1.
         23    2    1    2    0    0  0.00000000000E+00  0.00000000000E+00  0.00000000000E+00  0.60000000000E+02  0.60000000000E+02 0.  0.
          5    1    3    3  501    0 -0.84813410707E+01  0.24989473635E+02 -0.13472307193E+02  0.30000000000E+02  0.47000000000E+01 0.  1.
         -5    1    3    3    0  501  0.84813410707E+01 -0.24989473635E+02  0.13472307193E+02  0.30000000000E+02  0.47000000000E+01 0. -1.
</event>
<event>
 5    1  0.7959189E-002  0.6000000E+02  0.7546771E-02  0.1259629E+00
         11   -1    0    0    0    0  0.00000000000E+00  0.00000000000E+00  0.30000000000E+02  0.30000000000E+02  0.00000000000E+00 0.  1.
        -11   -1    0    0    0    0 -0.00000000000E+00 -0.00000000000E+00 -0.30000000000E+02  0.30000000000E+02  0.00000000000E+00 0. -1.
         23    2    1    2    0    0  0.00000000000E+00  0.00000000000E+00  0.00000000000E+00  0.60000000000E+02  0.60000000000E+02 0.  0.
          5    1    3    3  501    0 -0.71896115916E+01 -0.25833326516E+02  0.12603917101E+02  0.30000000000E+02  0.47000000000E+01 0.  1.
         -5    1    3    3    0  501  0.71896115916E+01  0.25833326516E+02 -0.12603917101E+02  0.30000000000E+02  0.47000000000E+01 0. -1.
</event>
<event>
 5    1  0.7959189E-002  0.6000000E+02  0.7546771E-02  0.1259629E+00
         11   -1    0    0    0    0  0.00000000000E+00  0.00000000000E+00  0.30000000000E+02  0.30000000000E+02  0.00000000000E+00 0.  1.
        -11   -1    0    0    0    0 -0.00000000000E+00 -0.00000000000E+00 -0.30000000000E+02  0.30000000000E+02  0.00000000000E+00 0. -1.
         23    2    1    2    0    0  0.00000000000E+00  0.00000000000E+00  0.00000000000E+00  0.60000000000E+02  0.60000000000E+02 0.  0.
          5    1    3    3  501    0  0.10072157728E+01 -0.14891351727E+02 -0.25595764496E+02  0.30000000000E+02  0.47000000000E+01 0. -1.
         -5    1    3    3    0  501 -0.10072157728E+01  0.14891351727E+02  0.25595764496E+02  0.30000000000E+02  0.47000000000E+01 0.  1.
</event>
<event>
 5    1  0.7959189E-002  0.6000000E+02  0.7546771E-02  0.1259629E+00
         11   -1    0    0    0    0  0.00000000000E+00  0.00000000000E+00  0.30000000000E+02  0.30000000000E+02  0.00000000000E+00 0. -1.
        -11   -1    0    0    0    0 -0.00000000000E+00 -0.00000000000E+00 -0.30000000000E+02  0.30000000000E+02  0.00000000000E+00 0.  1.
         23    2    1    2    0    0  0.00000000000E+00  0.00000000000E+00  0.00000000000E+00  0.60000000000E+02  0.60000000000E+02 0.  0.
          5    1    3    3  501    0  0.14046688883E+02 -0.11980558612E+02 -0.23174700576E+02  0.30000000000E+02  0.47000000000E+01 0.  1.
         -5    1    3    3    0  501 -0.14046688883E+02  0.11980558612E+02  0.23174700576E+02  0.30000000000E+02  0.47000000000E+01 0. -1.
</event>
<event>
 5    1  0.7959189E-002  0.6000000E+02  0.7546771E-02  0.1259629E+00
         11   -1    0    0    0    0  0.00000000000E+00  0.00000000000E+00  0.30000000000E+02  0.30000000000E+02  0.00000000000E+00 0.  1.
        -11   -1    0    0    0    0 -0.00000000000E+00 -0.00000000000E+00 -0.30000000000E+02  0.30000000000E+02  0.00000000000E+00 0. -1.
         23    2    1    2    0    0  0.00000000000E+00  0.00000000000E+00  0.00000000000E+00  0.60000000000E+02  0.60000000000E+02 0.  0.
          5    1    3    3  501    0 -0.92161591708E+01 -0.18323282507E+02 -0.21382930770E+02  0.30000000000E+02  0.47000000000E+01 0. -1.
         -5    1    3    3    0  501  0.92161591708E+01  0.18323282507E+02  0.21382930770E+02  0.30000000000E+02  0.47000000000E+01 0.  1.
</event>
<event>
 5    1  0.7959189E-002  0.6000000E+02  0.7546771E-02  0.1259629E+00
         11   -1    0    0    0    0  0.00000000000E+00  0.00000000000E+00  0.30000000000E+02  0.30000000000E+02  0.00000000000E+00 0.  1.
        -11   -1    0    0    0    0 -0.00000000000E+00 -0.00000000000E+00 -0.30000000000E+02  0.30000000000E+02  0.00000000000E+00 0. -1.
         23    2    1    2    0    0  0.00000000000E+00  0.00000000000E+00  0.00000000000E+00  0.60000000000E+02  0.60000000000E+02 0.  0.
          5    1    3    3  501    0 -0.21055021986E+02 -0.20834434870E+02  0.72275363015E+00  0.30000000000E+02  0.47000000000E+01 0. -1.
         -5    1    3    3    0  501  0.21055021986E+02  0.20834434870E+02 -0.72275363015E+00  0.30000000000E+02  0.47000000000E+01 0.  1.
</event>
<event>
 5    1  0.7959189E-002  0.6000000E+02  0.7546771E-02  0.1259629E+00
         11   -1    0    0    0    0  0.00000000000E+00  0.00000000000E+00  0.30000000000E+02  0.30000000000E+02  0.00000000000E+00 0.  1.
        -11   -1    0    0    0    0 -0.00000000000E+00 -0.00000000000E+00 -0.30000000000E+02  0.30000000000E+02  0.00000000000E+00 0. -1.
         23    2    1    2    0    0  0.00000000000E+00  0.00000000000E+00  0.00000000000E+00  0.60000000000E+02  0.60000000000E+02 0.  0.
          5    1    3    3  501    0  0.10161095096E+02  0.18902740511E+02 -0.20429110299E+02  0.30000000000E+02  0.47000000000E+01 0. -1.
         -5    1    3    3    0  501 -0.10161095096E+02 -0.18902740511E+02  0.20429110299E+02  0.30000000000E+02  0.47000000000E+01 0.  1.
</event>
<event>
 5    1  0.7959189E-002  0.6000000E+02  0.7546771E-02  0.1259629E+00
         11   -1    0    0    0    0  0.00000000000E+00  0.00000000000E+00  0.30000000000E+02  0.30000000000E+02  0.00000000000E+00 0.  1.
        -11   -1    0    0    0    0 -0.00000000000E+00 -0.00000000000E+00 -0.30000000000E+02  0.30000000000E+02  0.00000000000E+00 0. -1.
         23    2    1    2    0    0  0.00000000000E+00  0.00000000000E+00  0.00000000000E+00  0.60000000000E+02  0.60000000000E+02 0.  0.
          5    1    3    3  501    0 -0.19529081544E+02  0.13961667060E+02 -0.17366543322E+02  0.30000000000E+02  0.47000000000E+01 0. -1.
         -5    1    3    3    0  501  0.19529081544E+02 -0.13961667060E+02  0.17366543322E+02  0.30000000000E+02  0.47000000000E+01 0.  1.
</event>
<event>
 5    1  0.7959189E-002  0.6000000E+02  0.7546771E-02  0.1259629E+00
         11   -1    0    0    0    0  0.00000000000E+00  0.00000000000E+00  0.30000000000E+02  0.30000000000E+02  0.00000000000E+00 0.  1.
        -11   -1    0    0    0    0 -0.00000000000E+00 -0.00000000000E+00 -0.30000000000E+02  0.30000000000E+02  0.00000000000E+00 0. -1.
         23    2    1    2    0    0  0.00000000000E+00  0.00000000000E+00  0.00000000000E+00  0.60000000000E+02  0.60000000000E+02 0.  0.
          5    1    3    3  501    0 -0.11500487000E+02 -0.78518388858E+01 -0.26153344430E+02  0.30000000000E+02  0.47000000000E+01 0. -1.
         -5    1    3    3    0  501  0.11500487000E+02  0.78518388858E+01  0.26153344430E+02  0.30000000000E+02  0.47000000000E+01 0.  1.
</event>
<event>
 5    1  0.7959189E-002  0.6000000E+02  0.7546771E-02  0.1259629E+00
         11   -1    0    0    0    0  0.00000000000E+00  0.00000000000E+00  0.30000000000E+02  0.30000000000E+02  0.00000000000E+00 0. -1.
        -11   -1    0    0    0    0 -0.00000000000E+00 -0.00000000000E+00 -0.30000000000E+02  0.30000000000E+02  0.00000000000E+00 0.  1.
         23    2    1    2    0    0  0.00000000000E+00  0.00000000000E+00  0.00000000000E+00  0.60000000000E+02  0.60000000000E+02 0.  0.
          5    1    3    3  501    0  0.19016075559E+02 -0.67629426747E+01 -0.21692429018E+02  0.30000000000E+02  0.47000000000E+01 0.  1.
         -5    1    3    3    0  501 -0.19016075559E+02  0.67629426747E+01  0.21692429018E+02  0.30000000000E+02  0.47000000000E+01 0. -1.
</event>
<event>
 5    1  0.7959189E-002  0.6000000E+02  0.7546771E-02  0.1259629E+00
         11   -1    0    0    0    0  0.00000000000E+00  0.00000000000E+00  0.30000000000E+02  0.30000000000E+02  0.00000000000E+00 0.  1.
        -11   -1    0    0    0    0 -0.00000000000E+00 -0.00000000000E+00 -0.30000000000E+02  0.30000000000E+02  0.00000000000E+00 0. -1.
         23    2    1    2    0    0  0.00000000000E+00  0.00000000000E+00  0.00000000000E+00  0.60000000000E+02  0.60000000000E+02 0.  0.
          5    1    3    3  501    0 -0.15183133630E+02 -0.17485944557E+02 -0.18483078643E+02  0.30000000000E+02  0.47000000000E+01 0. -1.
         -5    1    3    3    0  501  0.15183133630E+02  0.17485944557E+02  0.18483078643E+02  0.30000000000E+02  0.47000000000E+01 0.  1.
</event>
<event>
 5    1  0.7959189E-002  0.6000000E+02  0.7546771E-02  0.1259629E+00
         11   -1    0    0    0    0  0.00000000000E+00  0.00000000000E+00  0.30000000000E+02  0.30000000000E+02  0.00000000000E+00 0.  1.
        -11   -1    0    0    0    0 -0.00000000000E+00 -0.00000000000E+00 -0.30000000000E+02  0.30000000000E+02  0.00000000000E+00 0. -1.
         23    2    1    2    0    0  0.00000000000E+00  0.00000000000E+00  0.00000000000E+00  0.60000000000E+02  0.60000000000E+02 0.  0.
          5    1    3    3  501    0  0.13368930942E+02 -0.13352213472E+02 -0.22823235548E+02  0.30000000000E+02  0.47000000000E+01 0. -1.
         -5    1    3    3    0  501 -0.13368930942E+02  0.13352213472E+02  0.22823235548E+02  0.30000000000E+02  0.47000000000E+01 0.  1.
</event>
<event>
 5    1  0.7959189E-002  0.6000000E+02  0.7546771E-02  0.1259629E+00
         11   -1    0    0    0    0  0.00000000000E+00  0.00000000000E+00  0.30000000000E+02  0.30000000000E+02  0.00000000000E+00 0.  1.
        -11   -1    0    0    0    0 -0.00000000000E+00 -0.00000000000E+00 -0.30000000000E+02  0.30000000000E+02  0.00000000000E+00 0. -1.
         23    2    1    2    0    0  0.00000000000E+00  0.00000000000E+00  0.00000000000E+00  0.60000000000E+02  0.60000000000E+02 0.  0.
          5    1    3    3  501    0  0.18131487416E+02  0.23380170791E+02 -0.15895841854E+01  0.30000000000E+02  0.47000000000E+01 0. -1.
         -5    1    3    3    0  501 -0.18131487416E+02 -0.23380170791E+02  0.15895841854E+01  0.30000000000E+02  0.47000000000E+01 0.  1.
</event>
<event>
 5    1  0.7959189E-002  0.6000000E+02  0.7546771E-02  0.1259629E+00
         11   -1    0    0    0    0  0.00000000000E+00  0.00000000000E+00  0.30000000000E+02  0.30000000000E+02  0.00000000000E+00 0. -1.
        -11   -1    0    0    0    0 -0.00000000000E+00 -0.00000000000E+00 -0.30000000000E+02  0.30000000000E+02  0.00000000000E+00 0.  1.
         23    2    1    2    0    0  0.00000000000E+00  0.00000000000E+00  0.00000000000E+00  0.60000000000E+02  0.60000000000E+02 0.  0.
          5    1    3    3  501    0  0.88318311018E+01  0.27431046906E+02 -0.68881365439E+01  0.30000000000E+02  0.47000000000E+01 0.  1.
         -5    1    3    3    0  501 -0.88318311018E+01 -0.27431046906E+02  0.68881365439E+01  0.30000000000E+02  0.47000000000E+01 0. -1.
</event>
<event>
 5    1  0.7959189E-002  0.6000000E+02  0.7546771E-02  0.1259629E+00
         11   -1    0    0    0    0  0.00000000000E+00  0.00000000000E+00  0.30000000000E+02  0.30000000000E+02  0.00000000000E+00 0.  1.
        -11   -1    0    0    0    0 -0.00000000000E+00 -0.00000000000E+00 -0.30000000000E+02  0.30000000000E+02  0.00000000000E+00 0. -1.
         23    2    1    2    0    0  0.00000000000E+00  0.00000000000E+00  0.00000000000E+00  0.60000000000E+02  0.60000000000E+02 0.  0.
          5    1    3    3  501    0  0.22205548084E+02  0.11634114607E+02 -0.15794651360E+02  0.30000000000E+02  0.47000000000E+01 0.  1.
         -5    1    3    3    0  501 -0.22205548084E+02 -0.11634114607E+02  0.15794651360E+02  0.30000000000E+02  0.47000000000E+01 0. -1.
</event>
<event>
 5    1  0.7959189E-002  0.6000000E+02  0.7546771E-02  0.1259629E+00
         11   -1    0    0    0    0  0.00000000000E+00  0.00000000000E+00  0.30000000000E+02  0.30000000000E+02  0.00000000000E+00 0.  1.
        -11   -1    0    0    0    0 -0.00000000000E+00 -0.00000000000E+00 -0.30000000000E+02  0.30000000000E+02  0.00000000000E+00 0. -1.
         23    2    1    2    0    0  0.00000000000E+00  0.00000000000E+00  0.00000000000E+00  0.60000000000E+02  0.60000000000E+02 0.  0.
          5    1    3    3  501    0  0.71647234008E+01  0.21311279762E+02 -0.19297826134E+02  0.30000000000E+02  0.47000000000E+01 0. -1.
         -5    1    3    3    0  501 -0.71647234008E+01 -0.21311279762E+02  0.19297826134E+02  0.30000000000E+02  0.47000000000E+01 0.  1.
</event>
<event>
 5    1  0.7959189E-002  0.6000000E+02  0.7546771E-02  0.1259629E+00
         11   -1    0    0    0    0  0.00000000000E+00  0.00000000000E+00  0.30000000000E+02  0.30000000000E+02  0.00000000000E+00 0.  1.
        -11   -1    0    0    0    0 -0.00000000000E+00 -0.00000000000E+00 -0.30000000000E+02  0.30000000000E+02  0.00000000000E+00 0. -1.
         23    2    1    2    0    0  0.00000000000E+00  0.00000000000E+00  0.00000000000E+00  0.60000000000E+02  0.60000000000E+02 0.  0.
          5    1    3    3  501    0 -0.97366167359E+01 -0.21859894769E+02 -0.17471499512E+02  0.30000000000E+02  0.47000000000E+01 0. -1.
         -5    1    3    3    0  501  0.97366167359E+01  0.21859894769E+02  0.17471499512E+02  0.30000000000E+02  0.47000000000E+01 0.  1.
</event>
<event>
 5    1  0.7959189E-002  0.6000000E+02  0.7546771E-02  0.1259629E+00
         11   -1    0    0    0    0  0.00000000000E+00  0.00000000000E+00  0.30000000000E+02  0.30000000000E+02  0.00000000000E+00 0.  1.
        -11   -1    0    0    0    0 -0.00000000000E+00 -0.00000000000E+00 -0.30000000000E+02  0.30000000000E+02  0.00000000000E+00 0. -1.
         23    2    1    2    0    0  0.00000000000E+00  0.00000000000E+00  0.00000000000E+00  0.60000000000E+02  0.60000000000E+02 0.  0.
          5    1    3    3  501    0  0.25694605846E+02  0.13711595497E+02 -0.54487961386E+01  0.30000000000E+02  0.47000000000E+01 0. -1.
         -5    1    3    3    0  501 -0.25694605846E+02 -0.13711595497E+02  0.54487961386E+01  0.30000000000E+02  0.47000000000E+01 0.  1.
</event>
<event>
 5    1  0.7959189E-002  0.6000000E+02  0.7546771E-02  0.1259629E+00
         11   -1    0    0    0    0  0.00000000000E+00  0.00000000000E+00  0.30000000000E+02  0.30000000000E+02  0.00000000000E+00 0.  1.
        -11   -1    0    0    0    0 -0.00000000000E+00 -0.00000000000E+00 -0.30000000000E+02  0.30000000000E+02  0.00000000000E+00 0. -1.
         23    2    1    2    0    0  0.00000000000E+00  0.00000000000E+00  0.00000000000E+00  0.60000000000E+02  0.60000000000E+02 0.  0.
          5    1    3    3  501    0  0.19426646389E+01 -0.16597856241E+02 -0.24467268386E+02  0.30000000000E+02  0.47000000000E+01 0. -1.
         -5    1    3    3    0  501 -0.19426646389E+01  0.16597856241E+02  0.24467268386E+02  0.30000000000E+02  0.47000000000E+01 0.  1.
</event>
<event>
 5    1  0.7959189E-002  0.6000000E+02  0.7546771E-02  0.1259629E+00
         11   -1    0    0    0    0  0.00000000000E+00  0.00000000000E+00  0.30000000000E+02  0.30000000000E+02  0.00000000000E+00 0.  1.
        -11   -1    0    0    0    0 -0.00000000000E+00 -0.00000000000E+00 -0.30000000000E+02  0.30000000000E+02  0.00000000000E+00 0. -1.
         23    2    1    2    0    0  0.00000000000E+00  0.00000000000E+00  0.00000000000E+00  0.60000000000E+02  0.60000000000E+02 0.  0.
          5    1    3    3  501    0 -0.77067851257E+01  0.26999925169E+02 -0.94614747207E+01  0.30000000000E+02  0.47000000000E+01 0. -1.
         -5    1    3    3    0  501  0.77067851257E+01 -0.26999925169E+02  0.94614747207E+01  0.30000000000E+02  0.47000000000E+01 0.  1.
</event>
<event>
 5    1  0.7959189E-002  0.6000000E+02  0.7546771E-02  0.1259629E+00
         11   -1    0    0    0    0  0.00000000000E+00  0.00000000000E+00  0.30000000000E+02  0.30000000000E+02  0.00000000000E+00 0.  1.
        -11   -1    0    0    0    0 -0.00000000000E+00 -0.00000000000E+00 -0.30000000000E+02  0.30000000000E+02  0.00000000000E+00 0. -1.
         23    2    1    2    0    0  0.00000000000E+00  0.00000000000E+00  0.00000000000E+00  0.60000000000E+02  0.60000000000E+02 0.  0.
          5    1    3    3  501    0 -0.57863397943E+01  0.77386291600E+01 -0.28009674945E+02  0.30000000000E+02  0.47000000000E+01 0. -1.
         -5    1    3    3    0  501  0.57863397943E+01 -0.77386291600E+01  0.28009674945E+02  0.30000000000E+02  0.47000000000E+01 0.  1.
</event>
<event>
 5    1  0.7959189E-002  0.6000000E+02  0.7546771E-02  0.1259629E+00
         11   -1    0    0    0    0  0.00000000000E+00  0.00000000000E+00  0.30000000000E+02  0.30000000000E+02  0.00000000000E+00 0. -1.
        -11   -1    0    0    0    0 -0.00000000000E+00 -0.00000000000E+00 -0.30000000000E+02  0.30000000000E+02  0.00000000000E+00 0.  1.
         23    2    1    2    0    0  0.00000000000E+00  0.00000000000E+00  0.00000000000E+00  0.60000000000E+02  0.60000000000E+02 0.  0.
          5    1    3    3  501    0  0.23941622583E+02  0.10064951711E+02 -0.14262028437E+02  0.30000000000E+02  0.47000000000E+01 0.  1.
         -5    1    3    3    0  501 -0.23941622583E+02 -0.10064951711E+02  0.14262028437E+02  0.30000000000E+02  0.47000000000E+01 0. -1.
</event>
<event>
 5    1  0.7959189E-002  0.6000000E+02  0.7546771E-02  0.1259629E+00
         11   -1    0    0    0    0  0.00000000000E+00  0.00000000000E+00  0.30000000000E+02  0.30000000000E+02  0.00000000000E+00 0.  1.
        -11   -1    0    0    0    0 -0.00000000000E+00 -0.00000000000E+00 -0.30000000000E+02  0.30000000000E+02  0.00000000000E+00 0. -1.
         23    2    1    2    0    0  0.00000000000E+00  0.00000000000E+00  0.00000000000E+00  0.60000000000E+02  0.60000000000E+02 0.  0.
          5    1    3    3  501    0  0.18424722835E+02  0.79374535563E+01 -0.21804504569E+02  0.30000000000E+02  0.47000000000E+01 0. -1.
         -5    1    3    3    0  501 -0.18424722835E+02 -0.79374535563E+01  0.21804504569E+02  0.30000000000E+02  0.47000000000E+01 0.  1.
</event>
<event>
 5    1  0.7959189E-002  0.6000000E+02  0.7546771E-02  0.1259629E+00
         11   -1    0    0    0    0  0.00000000000E+00  0.00000000000E+00  0.30000000000E+02  0.30000000000E+02  0.00000000000E+00 0.  1.
        -11   -1    0    0    0    0 -0.00000000000E+00 -0.00000000000E+00 -0.30000000000E+02  0.30000000000E+02  0.00000000000E+00 0. -1.
         23    2    1    2    0    0  0.00000000000E+00  0.00000000000E+00  0.00000000000E+00  0.60000000000E+02  0.60000000000E+02 0.  0.
          5    1    3    3  501    0 -0.56246916857E+01  0.87942880488E+01 -0.27729647332E+02  0.30000000000E+02  0.47000000000E+01 0. -1.
         -5    1    3    3    0  501  0.56246916857E+01 -0.87942880488E+01  0.27729647332E+02  0.30000000000E+02  0.47000000000E+01 0.  1.
</event>
<event>
 5    1  0.7959189E-002  0.6000000E+02  0.7546771E-02  0.1259629E+00
         11   -1    0    0    0    0  0.00000000000E+00  0.00000000000E+00  0.30000000000E+02  0.30000000000E+02  0.00000000000E+00 0. -1.
        -11   -1    0    0    0    0 -0.00000000000E+00 -0.00000000000E+00 -0.30000000000E+02  0.30000000000E+02  0.00000000000E+00 0.  1.
         23    2    1    2    0    0  0.00000000000E+00  0.00000000000E+00  0.00000000000E+00  0.60000000000E+02  0.60000000000E+02 0.  0.
          5    1    3    3  501    0  0.57865187908E+01 -0.20910616672E+02 -0.20178511111E+02  0.30000000000E+02  0.47000000000E+01 0.  1.
         -5    1    3    3    0  501 -0.57865187908E+01  0.20910616672E+02  0.20178511111E+02  0.30000000000E+02  0.47000000000E+01 0. -1.
</event>
<event>
 5    1  0.7959189E-002  0.6000000E+02  0.7546771E-02  0.1259629E+00
         11   -1    0    0    0    0  0.00000000000E+00  0.00000000000E+00  0.30000000000E+02  0.30000000000E+02  0.00000000000E+00 0.  1.
        -11   -1    0    0    0    0 -0.00000000000E+00 -0.00000000000E+00 -0.30000000000E+02  0.30000000000E+02  0.00000000000E+00 0. -1.
         23    2    1    2    0    0  0.00000000000E+00  0.00000000000E+00  0.00000000000E+00  0.60000000000E+02  0.60000000000E+02 0.  0.
          5    1    3    3  501    0  0.60053696638E+01  0.92879253034E+01 -0.27487815096E+02  0.30000000000E+02  0.47000000000E+01 0. -1.
         -5    1    3    3    0  501 -0.60053696638E+01 -0.92879253034E+01  0.27487815096E+02  0.30000000000E+02  0.47000000000E+01 0.  1.
</event>
<event>
 5    1  0.7959189E-002  0.6000000E+02  0.7546771E-02  0.1259629E+00
         11   -1    0    0    0    0  0.00000000000E+00  0.00000000000E+00  0.30000000000E+02  0.30000000000E+02  0.00000000000E+00 0. -1.
        -11   -1    0    0    0    0 -0.00000000000E+00 -0.00000000000E+00 -0.30000000000E+02  0.30000000000E+02  0.00000000000E+00 0.  1.
         23    2    1    2    0    0  0.00000000000E+00  0.00000000000E+00  0.00000000000E+00  0.60000000000E+02  0.60000000000E+02 0.  0.
          5    1    3    3  501    0  0.18932503645E+02 -0.20297492510E+02  0.10367357597E+02  0.30000000000E+02  0.47000000000E+01 0. -1.
         -5    1    3    3    0  501 -0.18932503645E+02  0.20297492510E+02 -0.10367357597E+02  0.30000000000E+02  0.47000000000E+01 0.  1.
</event>
<event>
 5    1  0.7959189E-002  0.6000000E+02  0.7546771E-02  0.1259629E+00
         11   -1    0    0    0    0  0.00000000000E+00  0.00000000000E+00  0.30000000000E+02  0.30000000000E+02  0.00000000000E+00 0. -1.
        -11   -1    0    0    0    0 -0.00000000000E+00 -0.00000000000E+00 -0.30000000000E+02  0.30000000000E+02  0.00000000000E+00 0.  1.
         23    2    1    2    0    0  0.00000000000E+00  0.00000000000E+00  0.00000000000E+00  0.60000000000E+02  0.60000000000E+02 0.  0.
          5    1    3    3  501    0 -0.14989982271E+02 -0.11269457724E+02 -0.22939262284E+02  0.30000000000E+02  0.47000000000E+01 0.  1.
         -5    1    3    3    0  501  0.14989982271E+02  0.11269457724E+02  0.22939262284E+02  0.30000000000E+02  0.47000000000E+01 0. -1.
</event>
<event>
 5    1  0.7959189E-002  0.6000000E+02  0.7546771E-02  0.1259629E+00
         11   -1    0    0    0    0  0.00000000000E+00  0.00000000000E+00  0.30000000000E+02  0.30000000000E+02  0.00000000000E+00 0.  1.
        -11   -1    0    0    0    0 -0.00000000000E+00 -0.00000000000E+00 -0.30000000000E+02  0.30000000000E+02  0.00000000000E+00 0. -1.
         23    2    1    2    0    0  0.00000000000E+00  0.00000000000E+00  0.00000000000E+00  0.60000000000E+02  0.60000000000E+02 0.  0.
          5    1    3    3  501    0 -0.83851836798E+01  0.63093939912E+01 -0.27709028170E+02  0.30000000000E+02  0.47000000000E+01 0. -1.
         -5    1    3    3    0  501  0.83851836798E+01 -0.63093939912E+01  0.27709028170E+02  0.30000000000E+02  0.47000000000E+01 0.  1.
</event>
<event>
 5    1  0.7959189E-002  0.6000000E+02  0.7546771E-02  0.1259629E+00
         11   -1    0    0    0    0  0.00000000000E+00  0.00000000000E+00  0.30000000000E+02  0.30000000000E+02  0.00000000000E+00 0.  1.
        -11   -1    0    0    0    0 -0.00000000000E+00 -0.00000000000E+00 -0.30000000000E+02  0.30000000000E+02  0.00000000000E+00 0. -1.
         23    2    1    2    0    0  0.00000000000E+00  0.00000000000E+00  0.00000000000E+00  0.60000000000E+02  0.60000000000E+02 0.  0.
          5    1    3    3  501    0 -0.14695787645E+01  0.23393462637E+02 -0.18124465347E+02  0.30000000000E+02  0.47000000000E+01 0. -1.
         -5    1    3    3    0  501  0.14695787645E+01 -0.23393462637E+02  0.18124465347E+02  0.30000000000E+02  0.47000000000E+01 0.  1.
</event>
<event>
 5    1  0.7959189E-002  0.6000000E+02  0.7546771E-02  0.1259629E+00
         11   -1    0    0    0    0  0.00000000000E+00  0.00000000000E+00  0.30000000000E+02  0.30000000000E+02  0.00000000000E+00 0.  1.
        -11   -1    0    0    0    0 -0.00000000000E+00 -0.00000000000E+00 -0.30000000000E+02  0.30000000000E+02  0.00000000000E+00 0. -1.
         23    2    1    2    0    0  0.00000000000E+00  0.00000000000E+00  0.00000000000E+00  0.60000000000E+02  0.60000000000E+02 0.  0.
          5    1    3    3  501    0  0.29078347483E+02  0.28137823649E+01 -0.49439191395E+01  0.30000000000E+02  0.47000000000E+01 0. -1.
         -5    1    3    3    0  501 -0.29078347483E+02 -0.28137823649E+01  0.49439191395E+01  0.30000000000E+02  0.47000000000E+01 0.  1.
</event>
<event>
 5    1  0.7959189E-002  0.6000000E+02  0.7546771E-02  0.1259629E+00
         11   -1    0    0    0    0  0.00000000000E+00  0.00000000000E+00  0.30000000000E+02  0.30000000000E+02  0.00000000000E+00 0.  1.
        -11   -1    0    0    0    0 -0.00000000000E+00 -0.00000000000E+00 -0.30000000000E+02  0.30000000000E+02  0.00000000000E+00 0. -1.
         23    2    1    2    0    0  0.00000000000E+00  0.00000000000E+00  0.00000000000E+00  0.60000000000E+02  0.60000000000E+02 0.  0.
          5    1    3    3  501    0 -0.13774990462E+02 -0.17441525931E+02 -0.19594713852E+02  0.30000000000E+02  0.47000000000E+01 0. -1.
         -5    1    3    3    0  501  0.13774990462E+02  0.17441525931E+02  0.19594713852E+02  0.30000000000E+02  0.47000000000E+01 0.  1.
</event>
<event>
 5    1  0.7959189E-002  0.6000000E+02  0.7546771E-02  0.1259629E+00
         11   -1    0    0    0    0  0.00000000000E+00  0.00000000000E+00  0.30000000000E+02  0.30000000000E+02  0.00000000000E+00 0.  1.
        -11   -1    0    0    0    0 -0.00000000000E+00 -0.00000000000E+00 -0.30000000000E+02  0.30000000000E+02  0.00000000000E+00 0. -1.
         23    2    1    2    0    0  0.00000000000E+00  0.00000000000E+00  0.00000000000E+00  0.60000000000E+02  0.60000000000E+02 0.  0.
          5    1    3    3  501    0 -0.11731995698E+01  0.18044810938E+02 -0.23471651006E+02  0.30000000000E+02  0.47000000000E+01 0. -1.
         -5    1    3    3    0  501  0.11731995698E+01 -0.18044810938E+02  0.23471651006E+02  0.30000000000E+02  0.47000000000E+01 0.  1.
</event>
<event>
 5    1  0.7959189E-002  0.6000000E+02  0.7546771E-02  0.1259629E+00
         11   -1    0    0    0    0  0.00000000000E+00  0.00000000000E+00  0.30000000000E+02  0.30000000000E+02  0.00000000000E+00 0.  1.
        -11   -1    0    0    0    0 -0.00000000000E+00 -0.00000000000E+00 -0.30000000000E+02  0.30000000000E+02  0.00000000000E+00 0. -1.
         23    2    1    2    0    0  0.00000000000E+00  0.00000000000E+00  0.00000000000E+00  0.60000000000E+02  0.60000000000E+02 0.  0.
          5    1    3    3  501    0  0.17479656261E+02 -0.19862652902E+02 -0.13335915293E+02  0.30000000000E+02  0.47000000000E+01 0. -1.
         -5    1    3    3    0  501 -0.17479656261E+02  0.19862652902E+02  0.13335915293E+02  0.30000000000E+02  0.47000000000E+01 0.  1.
</event>
<event>
 5    1  0.7959189E-002  0.6000000E+02  0.7546771E-02  0.1259629E+00
         11   -1    0    0    0    0  0.00000000000E+00  0.00000000000E+00  0.30000000000E+02  0.30000000000E+02  0.00000000000E+00 0.  1.
        -11   -1    0    0    0    0 -0.00000000000E+00 -0.00000000000E+00 -0.30000000000E+02  0.30000000000E+02  0.00000000000E+00 0. -1.
         23    2    1    2    0    0  0.00000000000E+00  0.00000000000E+00  0.00000000000E+00  0.60000000000E+02  0.60000000000E+02 0.  0.
          5    1    3    3  501    0  0.11242340632E+02 -0.24728116084E+02 -0.11833851954E+02  0.30000000000E+02  0.47000000000E+01 0. -1.
         -5    1    3    3    0  501 -0.11242340632E+02  0.24728116084E+02  0.11833851954E+02  0.30000000000E+02  0.47000000000E+01 0.  1.
</event>
<event>
 5    1  0.7959189E-002  0.6000000E+02  0.7546771E-02  0.1259629E+00
         11   -1    0    0    0    0  0.00000000000E+00  0.00000000000E+00  0.30000000000E+02  0.30000000000E+02  0.00000000000E+00 0.  1.
        -11   -1    0    0    0    0 -0.00000000000E+00 -0.00000000000E+00 -0.30000000000E+02  0.30000000000E+02  0.00000000000E+00 0. -1.
         23    2    1    2    0    0  0.00000000000E+00  0.00000000000E+00  0.00000000000E+00  0.60000000000E+02  0.60000000000E+02 0.  0.
          5    1    3    3  501    0 -0.17900585515E+02 -0.23048765147E+02  0.51218613243E+01  0.30000000000E+02  0.47000000000E+01 0. -1.
         -5    1    3    3    0  501  0.17900585515E+02  0.23048765147E+02 -0.51218613243E+01  0.30000000000E+02  0.47000000000E+01 0.  1.
</event>
<event>
 5    1  0.7959189E-002  0.6000000E+02  0.7546771E-02  0.1259629E+00
         11   -1    0    0    0    0  0.00000000000E+00  0.00000000000E+00  0.30000000000E+02  0.30000000000E+02  0.00000000000E+00 0.  1.
        -11   -1    0    0    0    0 -0.00000000000E+00 -0.00000000000E+00 -0.30000000000E+02  0.30000000000E+02  0.00000000000E+00 0. -1.
         23    2    1    2    0    0  0.00000000000E+00  0.00000000000E+00  0.00000000000E+00  0.60000000000E+02  0.60000000000E+02 0.  0.
          5    1    3    3  501    0  0.11901074420E+02  0.14304510540E+02 -0.23057653954E+02  0.30000000000E+02  0.47000000000E+01 0. -1.
         -5    1    3    3    0  501 -0.11901074420E+02 -0.14304510540E+02  0.23057653954E+02  0.30000000000E+02  0.47000000000E+01 0.  1.
</event>
<event>
 5    1  0.7959189E-002  0.6000000E+02  0.7546771E-02  0.1259629E+00
         11   -1    0    0    0    0  0.00000000000E+00  0.00000000000E+00  0.30000000000E+02  0.30000000000E+02  0.00000000000E+00 0. -1.
        -11   -1    0    0    0    0 -0.00000000000E+00 -0.00000000000E+00 -0.30000000000E+02  0.30000000000E+02  0.00000000000E+00 0.  1.
         23    2    1    2    0    0  0.00000000000E+00  0.00000000000E+00  0.00000000000E+00  0.60000000000E+02  0.60000000000E+02 0.  0.
          5    1    3    3  501    0  0.22378450139E+02  0.19417523610E+02 -0.27339756310E+00  0.30000000000E+02  0.47000000000E+01 0.  1.
         -5    1    3    3    0  501 -0.22378450139E+02 -0.19417523610E+02  0.27339756310E+00  0.30000000000E+02  0.47000000000E+01 0. -1.
</event>
<event>
 5    1  0.7959189E-002  0.6000000E+02  0.7546771E-02  0.1259629E+00
         11   -1    0    0    0    0  0.00000000000E+00  0.00000000000E+00  0.30000000000E+02  0.30000000000E+02  0.00000000000E+00 0.  1.
        -11   -1    0    0    0    0 -0.00000000000E+00 -0.00000000000E+00 -0.30000000000E+02  0.30000000000E+02  0.00000000000E+00 0. -1.
         23    2    1    2    0    0  0.00000000000E+00  0.00000000000E+00  0.00000000000E+00  0.60000000000E+02  0.60000000000E+02 0.  0.
          5    1    3    3  501    0 -0.13948694419E+02 -0.26103204832E+02 -0.14023628320E+01  0.30000000000E+02  0.47000000000E+01 0. -1.
         -5    1    3    3    0  501  0.13948694419E+02  0.26103204832E+02  0.14023628320E+01  0.30000000000E+02  0.47000000000E+01 0.  1.
</event>
<event>
 5    1  0.7959189E-002  0.6000000E+02  0.7546771E-02  0.1259629E+00
         11   -1    0    0    0    0  0.00000000000E+00  0.00000000000E+00  0.30000000000E+02  0.30000000000E+02  0.00000000000E+00 0.  1.
        -11   -1    0    0    0    0 -0.00000000000E+00 -0.00000000000E+00 -0.30000000000E+02  0.30000000000E+02  0.00000000000E+00 0. -1.
         23    2    1    2    0    0  0.00000000000E+00  0.00000000000E+00  0.00000000000E+00  0.60000000000E+02  0.60000000000E+02 0.  0.
          5    1    3    3  501    0 -0.69380572223E-01  0.30259245411E+01  0.29474547783E+02  0.30000000000E+02  0.47000000000E+01 0.  1.
         -5    1    3    3    0  501  0.69380572223E-01 -0.30259245411E+01 -0.29474547783E+02  0.30000000000E+02  0.47000000000E+01 0. -1.
</event>
<event>
 5    1  0.7959189E-002  0.6000000E+02  0.7546771E-02  0.1259629E+00
         11   -1    0    0    0    0  0.00000000000E+00  0.00000000000E+00  0.30000000000E+02  0.30000000000E+02  0.00000000000E+00 0.  1.
        -11   -1    0    0    0    0 -0.00000000000E+00 -0.00000000000E+00 -0.30000000000E+02  0.30000000000E+02  0.00000000000E+00 0. -1.
         23    2    1    2    0    0  0.00000000000E+00  0.00000000000E+00  0.00000000000E+00  0.60000000000E+02  0.60000000000E+02 0.  0.
          5    1    3    3  501    0  0.27787898570E+02 -0.11693328090E+01 -0.10216425689E+02  0.30000000000E+02  0.47000000000E+01 0. -1.
         -5    1    3    3    0  501 -0.27787898570E+02  0.11693328090E+01  0.10216425689E+02  0.30000000000E+02  0.47000000000E+01 0.  1.
</event>
<event>
 5    1  0.7959189E-002  0.6000000E+02  0.7546771E-02  0.1259629E+00
         11   -1    0    0    0    0  0.00000000000E+00  0.00000000000E+00  0.30000000000E+02  0.30000000000E+02  0.00000000000E+00 0.  1.
        -11   -1    0    0    0    0 -0.00000000000E+00 -0.00000000000E+00 -0.30000000000E+02  0.30000000000E+02  0.00000000000E+00 0. -1.
         23    2    1    2    0    0  0.00000000000E+00  0.00000000000E+00  0.00000000000E+00  0.60000000000E+02  0.60000000000E+02 0.  0.
          5    1    3    3  501    0  0.14896877375E+02  0.27124176616E+01 -0.25468330037E+02  0.30000000000E+02  0.47000000000E+01 0. -1.
         -5    1    3    3    0  501 -0.14896877375E+02 -0.27124176616E+01  0.25468330037E+02  0.30000000000E+02  0.47000000000E+01 0.  1.
</event>
<event>
 5    1  0.7959189E-002  0.6000000E+02  0.7546771E-02  0.1259629E+00
         11   -1    0    0    0    0  0.00000000000E+00  0.00000000000E+00  0.30000000000E+02  0.30000000000E+02  0.00000000000E+00 0.  1.
        -11   -1    0    0    0    0 -0.00000000000E+00 -0.00000000000E+00 -0.30000000000E+02  0.30000000000E+02  0.00000000000E+00 0. -1.
         23    2    1    2    0    0  0.00000000000E+00  0.00000000000E+00  0.00000000000E+00  0.60000000000E+02  0.60000000000E+02 0.  0.
          5    1    3    3  501    0  0.19112414384E+02 -0.22058492673E+02 -0.51037748191E+01  0.30000000000E+02  0.47000000000E+01 0. -1.
         -5    1    3    3    0  501 -0.19112414384E+02  0.22058492673E+02  0.51037748191E+01  0.30000000000E+02  0.47000000000E+01 0.  1.
</event>
<event>
 5    1  0.7959189E-002  0.6000000E+02  0.7546771E-02  0.1259629E+00
         11   -1    0    0    0    0  0.00000000000E+00  0.00000000000E+00  0.30000000000E+02  0.30000000000E+02  0.00000000000E+00 0.  1.
        -11   -1    0    0    0    0 -0.00000000000E+00 -0.00000000000E+00 -0.30000000000E+02  0.30000000000E+02  0.00000000000E+00 0. -1.
         23    2    1    2    0    0  0.00000000000E+00  0.00000000000E+00  0.00000000000E+00  0.60000000000E+02  0.60000000000E+02 0.  0.
          5    1    3    3  501    0  0.11233731436E+02  0.72112959399E+01 -0.26452041299E+02  0.30000000000E+02  0.47000000000E+01 0. -1.
         -5    1    3    3    0  501 -0.11233731436E+02 -0.72112959399E+01  0.26452041299E+02  0.30000000000E+02  0.47000000000E+01 0.  1.
</event>
<event>
 5    1  0.7959189E-002  0.6000000E+02  0.7546771E-02  0.1259629E+00
         11   -1    0    0    0    0  0.00000000000E+00  0.00000000000E+00  0.30000000000E+02  0.30000000000E+02  0.00000000000E+00 0.  1.
        -11   -1    0    0    0    0 -0.00000000000E+00 -0.00000000000E+00 -0.30000000000E+02  0.30000000000E+02  0.00000000000E+00 0. -1.
         23    2    1    2    0    0  0.00000000000E+00  0.00000000000E+00  0.00000000000E+00  0.60000000000E+02  0.60000000000E+02 0.  0.
          5    1    3    3  501    0  0.11133077021E+02 -0.24682601896E+02 -0.12030534472E+02  0.30000000000E+02  0.47000000000E+01 0. -1.
         -5    1    3    3    0  501 -0.11133077021E+02  0.24682601896E+02  0.12030534472E+02  0.30000000000E+02  0.47000000000E+01 0.  1.
</event>
<event>
 5    1  0.7959189E-002  0.6000000E+02  0.7546771E-02  0.1259629E+00
         11   -1    0    0    0    0  0.00000000000E+00  0.00000000000E+00  0.30000000000E+02  0.30000000000E+02  0.00000000000E+00 0.  1.
        -11   -1    0    0    0    0 -0.00000000000E+00 -0.00000000000E+00 -0.30000000000E+02  0.30000000000E+02  0.00000000000E+00 0. -1.
         23    2    1    2    0    0  0.00000000000E+00  0.00000000000E+00  0.00000000000E+00  0.60000000000E+02  0.60000000000E+02 0.  0.
          5    1    3    3  501    0  0.11396796552E+02 -0.24106061881E+02  0.12919783626E+02  0.30000000000E+02  0.47000000000E+01 0. -1.
         -5    1    3    3    0  501 -0.11396796552E+02  0.24106061881E+02 -0.12919783626E+02  0.30000000000E+02  0.47000000000E+01 0.  1.
</event>
<event>
 5    1  0.7959189E-002  0.6000000E+02  0.7546771E-02  0.1259629E+00
         11   -1    0    0    0    0  0.00000000000E+00  0.00000000000E+00  0.30000000000E+02  0.30000000000E+02  0.00000000000E+00 0. -1.
        -11   -1    0    0    0    0 -0.00000000000E+00 -0.00000000000E+00 -0.30000000000E+02  0.30000000000E+02  0.00000000000E+00 0.  1.
         23    2    1    2    0    0  0.00000000000E+00  0.00000000000E+00  0.00000000000E+00  0.60000000000E+02  0.60000000000E+02 0.  0.
          5    1    3    3  501    0 -0.22821570168E+02 -0.16786482806E+02 -0.86775532316E+01  0.30000000000E+02  0.47000000000E+01 0. -1.
         -5    1    3    3    0  501  0.22821570168E+02  0.16786482806E+02  0.86775532316E+01  0.30000000000E+02  0.47000000000E+01 0.  1.
</event>
<event>
 5    1  0.7959189E-002  0.6000000E+02  0.7546771E-02  0.1259629E+00
         11   -1    0    0    0    0  0.00000000000E+00  0.00000000000E+00  0.30000000000E+02  0.30000000000E+02  0.00000000000E+00 0.  1.
        -11   -1    0    0    0    0 -0.00000000000E+00 -0.00000000000E+00 -0.30000000000E+02  0.30000000000E+02  0.00000000000E+00 0. -1.
         23    2    1    2    0    0  0.00000000000E+00  0.00000000000E+00  0.00000000000E+00  0.60000000000E+02  0.60000000000E+02 0.  0.
          5    1    3    3  501    0  0.33716535293E+01 -0.28972013423E+02  0.52119469199E+01  0.30000000000E+02  0.47000000000E+01 0. -1.
         -5    1    3    3    0  501 -0.33716535293E+01  0.28972013423E+02 -0.52119469199E+01  0.30000000000E+02  0.47000000000E+01 0.  1.
</event>
<event>
 5    1  0.7959189E-002  0.6000000E+02  0.7546771E-02  0.1259629E+00
         11   -1    0    0    0    0  0.00000000000E+00  0.00000000000E+00  0.30000000000E+02  0.30000000000E+02  0.00000000000E+00 0.  1.
        -11   -1    0    0    0    0 -0.00000000000E+00 -0.00000000000E+00 -0.30000000000E+02  0.30000000000E+02  0.00000000000E+00 0. -1.
         23    2    1    2    0    0  0.00000000000E+00  0.00000000000E+00  0.00000000000E+00  0.60000000000E+02  0.60000000000E+02 0.  0.
          5    1    3    3  501    0 -0.25842278657E+01 -0.28434401353E+02 -0.79193804087E+01  0.30000000000E+02  0.47000000000E+01 0. -1.
         -5    1    3    3    0  501  0.25842278657E+01  0.28434401353E+02  0.79193804087E+01  0.30000000000E+02  0.47000000000E+01 0.  1.
</event>
<event>
 5    1  0.7959189E-002  0.6000000E+02  0.7546771E-02  0.1259629E+00
         11   -1    0    0    0    0  0.00000000000E+00  0.00000000000E+00  0.30000000000E+02  0.30000000000E+02  0.00000000000E+00 0.  1.
        -11   -1    0    0    0    0 -0.00000000000E+00 -0.00000000000E+00 -0.30000000000E+02  0.30000000000E+02  0.00000000000E+00 0. -1.
         23    2    1    2    0    0  0.00000000000E+00  0.00000000000E+00  0.00000000000E+00  0.60000000000E+02  0.60000000000E+02 0.  0.
          5    1    3    3  501    0  0.10347384786E+02 -0.10141363764E+02 -0.25845587033E+02  0.30000000000E+02  0.47000000000E+01 0. -1.
         -5    1    3    3    0  501 -0.10347384786E+02  0.10141363764E+02  0.25845587033E+02  0.30000000000E+02  0.47000000000E+01 0.  1.
</event>
<event>
 5    1  0.7959189E-002  0.6000000E+02  0.7546771E-02  0.1259629E+00
         11   -1    0    0    0    0  0.00000000000E+00  0.00000000000E+00  0.30000000000E+02  0.30000000000E+02  0.00000000000E+00 0.  1.
        -11   -1    0    0    0    0 -0.00000000000E+00 -0.00000000000E+00 -0.30000000000E+02  0.30000000000E+02  0.00000000000E+00 0. -1.
         23    2    1    2    0    0  0.00000000000E+00  0.00000000000E+00  0.00000000000E+00  0.60000000000E+02  0.60000000000E+02 0.  0.
          5    1    3    3  501    0  0.41537508898E+01 -0.23956702252E+02 -0.16933185488E+02  0.30000000000E+02  0.47000000000E+01 0. -1.
         -5    1    3    3    0  501 -0.41537508898E+01  0.23956702252E+02  0.16933185488E+02  0.30000000000E+02  0.47000000000E+01 0.  1.
</event>
<event>
 5    1  0.7959189E-002  0.6000000E+02  0.7546771E-02  0.1259629E+00
         11   -1    0    0    0    0  0.00000000000E+00  0.00000000000E+00  0.30000000000E+02  0.30000000000E+02  0.00000000000E+00 0. -1.
        -11   -1    0    0    0    0 -0.00000000000E+00 -0.00000000000E+00 -0.30000000000E+02  0.30000000000E+02  0.00000000000E+00 0.  1.
         23    2    1    2    0    0  0.00000000000E+00  0.00000000000E+00  0.00000000000E+00  0.60000000000E+02  0.60000000000E+02 0.  0.
          5    1    3    3  501    0 -0.50118294673E+01  0.18130143300E+02 -0.22893000444E+02  0.30000000000E+02  0.47000000000E+01 0.  1.
         -5    1    3    3    0  501  0.50118294673E+01 -0.18130143300E+02  0.22893000444E+02  0.30000000000E+02  0.47000000000E+01 0. -1.
</event>
<event>
 5    1  0.7959189E-002  0.6000000E+02  0.7546771E-02  0.1259629E+00
         11   -1    0    0    0    0  0.00000000000E+00  0.00000000000E+00  0.30000000000E+02  0.30000000000E+02  0.00000000000E+00 0.  1.
        -11   -1    0    0    0    0 -0.00000000000E+00 -0.00000000000E+00 -0.30000000000E+02  0.30000000000E+02  0.00000000000E+00 0. -1.
         23    2    1    2    0    0  0.00000000000E+00  0.00000000000E+00  0.00000000000E+00  0.60000000000E+02  0.60000000000E+02 0.  0.
          5    1    3    3  501    0 -0.46725242515E+01  0.28960215873E+02  0.41693421162E+01  0.30000000000E+02  0.47000000000E+01 0. -1.
         -5    1    3    3    0  501  0.46725242515E+01 -0.28960215873E+02 -0.41693421162E+01  0.30000000000E+02  0.47000000000E+01 0.  1.
</event>
<event>
 5    1  0.7959189E-002  0.6000000E+02  0.7546771E-02  0.1259629E+00
         11   -1    0    0    0    0  0.00000000000E+00  0.00000000000E+00  0.30000000000E+02  0.30000000000E+02  0.00000000000E+00 0.  1.
        -11   -1    0    0    0    0 -0.00000000000E+00 -0.00000000000E+00 -0.30000000000E+02  0.30000000000E+02  0.00000000000E+00 0. -1.
         23    2    1    2    0    0  0.00000000000E+00  0.00000000000E+00  0.00000000000E+00  0.60000000000E+02  0.60000000000E+02 0.  0.
          5    1    3    3  501    0 -0.26718023445E+01 -0.14881033983E+01 -0.29471291463E+02  0.30000000000E+02  0.47000000000E+01 0. -1.
         -5    1    3    3    0  501  0.26718023445E+01  0.14881033983E+01  0.29471291463E+02  0.30000000000E+02  0.47000000000E+01 0.  1.
</event>
<event>
 5    1  0.7959189E-002  0.6000000E+02  0.7546771E-02  0.1259629E+00
         11   -1    0    0    0    0  0.00000000000E+00  0.00000000000E+00  0.30000000000E+02  0.30000000000E+02  0.00000000000E+00 0.  1.
        -11   -1    0    0    0    0 -0.00000000000E+00 -0.00000000000E+00 -0.30000000000E+02  0.30000000000E+02  0.00000000000E+00 0. -1.
         23    2    1    2    0    0  0.00000000000E+00  0.00000000000E+00  0.00000000000E+00  0.60000000000E+02  0.60000000000E+02 0.  0.
          5    1    3    3  501    0  0.25080921675E+02  0.77193468027E+01 -0.13757508963E+02  0.30000000000E+02  0.47000000000E+01 0. -1.
         -5    1    3    3    0  501 -0.25080921675E+02 -0.77193468027E+01  0.13757508963E+02  0.30000000000E+02  0.47000000000E+01 0.  1.
</event>
<event>
 5    1  0.7959189E-002  0.6000000E+02  0.7546771E-02  0.1259629E+00
         11   -1    0    0    0    0  0.00000000000E+00  0.00000000000E+00  0.30000000000E+02  0.30000000000E+02  0.00000000000E+00 0.  1.
        -11   -1    0    0    0    0 -0.00000000000E+00 -0.00000000000E+00 -0.30000000000E+02  0.30000000000E+02  0.00000000000E+00 0. -1.
         23    2    1    2    0    0  0.00000000000E+00  0.00000000000E+00  0.00000000000E+00  0.60000000000E+02  0.60000000000E+02 0.  0.
          5    1    3    3  501    0  0.28216027569E+02  0.90245848342E+01 -0.56802886858E+00  0.30000000000E+02  0.47000000000E+01 0. -1.
         -5    1    3    3    0  501 -0.28216027569E+02 -0.90245848342E+01  0.56802886858E+00  0.30000000000E+02  0.47000000000E+01 0.  1.
</event>
<event>
 5    1  0.7959189E-002  0.6000000E+02  0.7546771E-02  0.1259629E+00
         11   -1    0    0    0    0  0.00000000000E+00  0.00000000000E+00  0.30000000000E+02  0.30000000000E+02  0.00000000000E+00 0.  1.
        -11   -1    0    0    0    0 -0.00000000000E+00 -0.00000000000E+00 -0.30000000000E+02  0.30000000000E+02  0.00000000000E+00 0. -1.
         23    2    1    2    0    0  0.00000000000E+00  0.00000000000E+00  0.00000000000E+00  0.60000000000E+02  0.60000000000E+02 0.  0.
          5    1    3    3  501    0 -0.11027547496E+02  0.27480681657E+02 -0.10560927443E+01  0.30000000000E+02  0.47000000000E+01 0. -1.
         -5    1    3    3    0  501  0.11027547496E+02 -0.27480681657E+02  0.10560927443E+01  0.30000000000E+02  0.47000000000E+01 0.  1.
</event>
<event>
 5    1  0.7959189E-002  0.6000000E+02  0.7546771E-02  0.1259629E+00
         11   -1    0    0    0    0  0.00000000000E+00  0.00000000000E+00  0.30000000000E+02  0.30000000000E+02  0.00000000000E+00 0.  1.
        -11   -1    0    0    0    0 -0.00000000000E+00 -0.00000000000E+00 -0.30000000000E+02  0.30000000000E+02  0.00000000000E+00 0. -1.
         23    2    1    2    0    0  0.00000000000E+00  0.00000000000E+00  0.00000000000E+00  0.60000000000E+02  0.60000000000E+02 0.  0.
          5    1    3    3  501    0  0.12052619653E+02 -0.47550526670E+01  0.26646460058E+02  0.30000000000E+02  0.47000000000E+01 0.  1.
         -5    1    3    3    0  501 -0.12052619653E+02  0.47550526670E+01 -0.26646460058E+02  0.30000000000E+02  0.47000000000E+01 0. -1.
</event>
<event>
 5    1  0.7959189E-002  0.6000000E+02  0.7546771E-02  0.1259629E+00
         11   -1    0    0    0    0  0.00000000000E+00  0.00000000000E+00  0.30000000000E+02  0.30000000000E+02  0.00000000000E+00 0.  1.
        -11   -1    0    0    0    0 -0.00000000000E+00 -0.00000000000E+00 -0.30000000000E+02  0.30000000000E+02  0.00000000000E+00 0. -1.
         23    2    1    2    0    0  0.00000000000E+00  0.00000000000E+00  0.00000000000E+00  0.60000000000E+02  0.60000000000E+02 0.  0.
          5    1    3    3  501    0 -0.25421387321E+02  0.42091841368E+01  0.14626887420E+02  0.30000000000E+02  0.47000000000E+01 0.  1.
         -5    1    3    3    0  501  0.25421387321E+02 -0.42091841368E+01 -0.14626887420E+02  0.30000000000E+02  0.47000000000E+01 0. -1.
</event>
<event>
 5    1  0.7959189E-002  0.6000000E+02  0.7546771E-02  0.1259629E+00
         11   -1    0    0    0    0  0.00000000000E+00  0.00000000000E+00  0.30000000000E+02  0.30000000000E+02  0.00000000000E+00 0. -1.
        -11   -1    0    0    0    0 -0.00000000000E+00 -0.00000000000E+00 -0.30000000000E+02  0.30000000000E+02  0.00000000000E+00 0.  1.
         23    2    1    2    0    0  0.00000000000E+00  0.00000000000E+00  0.00000000000E+00  0.60000000000E+02  0.60000000000E+02 0.  0.
          5    1    3    3  501    0 -0.23920501866E+02 -0.15702763696E+02  0.76904357992E+01  0.30000000000E+02  0.47000000000E+01 0. -1.
         -5    1    3    3    0  501  0.23920501866E+02  0.15702763696E+02 -0.76904357992E+01  0.30000000000E+02  0.47000000000E+01 0.  1.
</event>
<event>
 5    1  0.7959189E-002  0.6000000E+02  0.7546771E-02  0.1259629E+00
         11   -1    0    0    0    0  0.00000000000E+00  0.00000000000E+00  0.30000000000E+02  0.30000000000E+02  0.00000000000E+00 0.  1.
        -11   -1    0    0    0    0 -0.00000000000E+00 -0.00000000000E+00 -0.30000000000E+02  0.30000000000E+02  0.00000000000E+00 0. -1.
         23    2    1    2    0    0  0.00000000000E+00  0.00000000000E+00  0.00000000000E+00  0.60000000000E+02  0.60000000000E+02 0.  0.
          5    1    3    3  501    0  0.80160442229E+01 -0.24701163982E+02  0.14265536545E+02  0.30000000000E+02  0.47000000000E+01 0. -1.
         -5    1    3    3    0  501 -0.80160442229E+01  0.24701163982E+02 -0.14265536545E+02  0.30000000000E+02  0.47000000000E+01 0.  1.
</event>
<event>
 5    1  0.7959189E-002  0.6000000E+02  0.7546771E-02  0.1259629E+00
         11   -1    0    0    0    0  0.00000000000E+00  0.00000000000E+00  0.30000000000E+02  0.30000000000E+02  0.00000000000E+00 0.  1.
        -11   -1    0    0    0    0 -0.00000000000E+00 -0.00000000000E+00 -0.30000000000E+02  0.30000000000E+02  0.00000000000E+00 0. -1.
         23    2    1    2    0    0  0.00000000000E+00  0.00000000000E+00  0.00000000000E+00  0.60000000000E+02  0.60000000000E+02 0.  0.
          5    1    3    3  501    0  0.56692388869E+01 -0.15055376711E+02 -0.24881827958E+02  0.30000000000E+02  0.47000000000E+01 0. -1.
         -5    1    3    3    0  501 -0.56692388869E+01  0.15055376711E+02  0.24881827958E+02  0.30000000000E+02  0.47000000000E+01 0.  1.
</event>
<event>
 5    1  0.7959189E-002  0.6000000E+02  0.7546771E-02  0.1259629E+00
         11   -1    0    0    0    0  0.00000000000E+00  0.00000000000E+00  0.30000000000E+02  0.30000000000E+02  0.00000000000E+00 0.  1.
        -11   -1    0    0    0    0 -0.00000000000E+00 -0.00000000000E+00 -0.30000000000E+02  0.30000000000E+02  0.00000000000E+00 0. -1.
         23    2    1    2    0    0  0.00000000000E+00  0.00000000000E+00  0.00000000000E+00  0.60000000000E+02  0.60000000000E+02 0.  0.
          5    1    3    3  501    0 -0.15854617294E+01 -0.24586874307E+02 -0.16458490906E+02  0.30000000000E+02  0.47000000000E+01 0. -1.
         -5    1    3    3    0  501  0.15854617294E+01  0.24586874307E+02  0.16458490906E+02  0.30000000000E+02  0.47000000000E+01 0.  1.
</event>
<event>
 5    1  0.7959189E-002  0.6000000E+02  0.7546771E-02  0.1259629E+00
         11   -1    0    0    0    0  0.00000000000E+00  0.00000000000E+00  0.30000000000E+02  0.30000000000E+02  0.00000000000E+00 0.  1.
        -11   -1    0    0    0    0 -0.00000000000E+00 -0.00000000000E+00 -0.30000000000E+02  0.30000000000E+02  0.00000000000E+00 0. -1.
         23    2    1    2    0    0  0.00000000000E+00  0.00000000000E+00  0.00000000000E+00  0.60000000000E+02  0.60000000000E+02 0.  0.
          5    1    3    3  501    0 -0.15801723286E+02  0.14227016862E+02 -0.20635104371E+02  0.30000000000E+02  0.47000000000E+01 0. -1.
         -5    1    3    3    0  501  0.15801723286E+02 -0.14227016862E+02  0.20635104371E+02  0.30000000000E+02  0.47000000000E+01 0.  1.
</event>
<event>
 5    1  0.7959189E-002  0.6000000E+02  0.7546771E-02  0.1259629E+00
         11   -1    0    0    0    0  0.00000000000E+00  0.00000000000E+00  0.30000000000E+02  0.30000000000E+02  0.00000000000E+00 0. -1.
        -11   -1    0    0    0    0 -0.00000000000E+00 -0.00000000000E+00 -0.30000000000E+02  0.30000000000E+02  0.00000000000E+00 0.  1.
         23    2    1    2    0    0  0.00000000000E+00  0.00000000000E+00  0.00000000000E+00  0.60000000000E+02  0.60000000000E+02 0.  0.
          5    1    3    3  501    0 -0.13795740490E+02 -0.20303396444E+02 -0.16593963878E+02  0.30000000000E+02  0.47000000000E+01 0.  1.
         -5    1    3    3    0  501  0.13795740490E+02  0.20303396444E+02  0.16593963878E+02  0.30000000000E+02  0.47000000000E+01 0. -1.
</event>
<event>
 5    1  0.7959189E-002  0.6000000E+02  0.7546771E-02  0.1259629E+00
         11   -1    0    0    0    0  0.00000000000E+00  0.00000000000E+00  0.30000000000E+02  0.30000000000E+02  0.00000000000E+00 0.  1.
        -11   -1    0    0    0    0 -0.00000000000E+00 -0.00000000000E+00 -0.30000000000E+02  0.30000000000E+02  0.00000000000E+00 0. -1.
         23    2    1    2    0    0  0.00000000000E+00  0.00000000000E+00  0.00000000000E+00  0.60000000000E+02  0.60000000000E+02 0.  0.
          5    1    3    3  501    0  0.13800326440E+02  0.18609240809E+02  0.18470439807E+02  0.30000000000E+02  0.47000000000E+01 0. -1.
         -5    1    3    3    0  501 -0.13800326440E+02 -0.18609240809E+02 -0.18470439807E+02  0.30000000000E+02  0.47000000000E+01 0.  1.
</event>
<event>
 5    1  0.7959189E-002  0.6000000E+02  0.7546771E-02  0.1259629E+00
         11   -1    0    0    0    0  0.00000000000E+00  0.00000000000E+00  0.30000000000E+02  0.30000000000E+02  0.00000000000E+00 0.  1.
        -11   -1    0    0    0    0 -0.00000000000E+00 -0.00000000000E+00 -0.30000000000E+02  0.30000000000E+02  0.00000000000E+00 0. -1.
         23    2    1    2    0    0  0.00000000000E+00  0.00000000000E+00  0.00000000000E+00  0.60000000000E+02  0.60000000000E+02 0.  0.
          5    1    3    3  501    0  0.27247340780E+02 -0.72290638124E+01 -0.91232152686E+01  0.30000000000E+02  0.47000000000E+01 0. -1.
         -5    1    3    3    0  501 -0.27247340780E+02  0.72290638124E+01  0.91232152686E+01  0.30000000000E+02  0.47000000000E+01 0.  1.
</event>
<event>
 5    1  0.7959189E-002  0.6000000E+02  0.7546771E-02  0.1259629E+00
         11   -1    0    0    0    0  0.00000000000E+00  0.00000000000E+00  0.30000000000E+02  0.30000000000E+02  0.00000000000E+00 0.  1.
        -11   -1    0    0    0    0 -0.00000000000E+00 -0.00000000000E+00 -0.30000000000E+02  0.30000000000E+02  0.00000000000E+00 0. -1.
         23    2    1    2    0    0  0.00000000000E+00  0.00000000000E+00  0.00000000000E+00  0.60000000000E+02  0.60000000000E+02 0.  0.
          5    1    3    3  501    0 -0.55992173674E+01  0.22299580967E+02  0.18689233627E+02  0.30000000000E+02  0.47000000000E+01 0. -1.
         -5    1    3    3    0  501  0.55992173674E+01 -0.22299580967E+02 -0.18689233627E+02  0.30000000000E+02  0.47000000000E+01 0.  1.
</event>
<event>
 5    1  0.7959189E-002  0.6000000E+02  0.7546771E-02  0.1259629E+00
         11   -1    0    0    0    0  0.00000000000E+00  0.00000000000E+00  0.30000000000E+02  0.30000000000E+02  0.00000000000E+00 0.  1.
        -11   -1    0    0    0    0 -0.00000000000E+00 -0.00000000000E+00 -0.30000000000E+02  0.30000000000E+02  0.00000000000E+00 0. -1.
         23    2    1    2    0    0  0.00000000000E+00  0.00000000000E+00  0.00000000000E+00  0.60000000000E+02  0.60000000000E+02 0.  0.
          5    1    3    3  501    0  0.88993226054E+01  0.26793684170E+02 -0.89894686019E+01  0.30000000000E+02  0.47000000000E+01 0. -1.
         -5    1    3    3    0  501 -0.88993226054E+01 -0.26793684170E+02  0.89894686019E+01  0.30000000000E+02  0.47000000000E+01 0.  1.
</event>
<event>
 5    1  0.7959189E-002  0.6000000E+02  0.7546771E-02  0.1259629E+00
         11   -1    0    0    0    0  0.00000000000E+00  0.00000000000E+00  0.30000000000E+02  0.30000000000E+02  0.00000000000E+00 0.  1.
        -11   -1    0    0    0    0 -0.00000000000E+00 -0.00000000000E+00 -0.30000000000E+02  0.30000000000E+02  0.00000000000E+00 0. -1.
         23    2    1    2    0    0  0.00000000000E+00  0.00000000000E+00  0.00000000000E+00  0.60000000000E+02  0.60000000000E+02 0.  0.
          5    1    3    3  501    0 -0.18614026442E+02 -0.78562713274E+01 -0.21672725266E+02  0.30000000000E+02  0.47000000000E+01 0. -1.
         -5    1    3    3    0  501  0.18614026442E+02  0.78562713274E+01  0.21672725266E+02  0.30000000000E+02  0.47000000000E+01 0.  1.
</event>
<event>
 5    1  0.7959189E-002  0.6000000E+02  0.7546771E-02  0.1259629E+00
         11   -1    0    0    0    0  0.00000000000E+00  0.00000000000E+00  0.30000000000E+02  0.30000000000E+02  0.00000000000E+00 0.  1.
        -11   -1    0    0    0    0 -0.00000000000E+00 -0.00000000000E+00 -0.30000000000E+02  0.30000000000E+02  0.00000000000E+00 0. -1.
         23    2    1    2    0    0  0.00000000000E+00  0.00000000000E+00  0.00000000000E+00  0.60000000000E+02  0.60000000000E+02 0.  0.
          5    1    3    3  501    0  0.39517790150E+01  0.23986543784E+02 -0.16939278612E+02  0.30000000000E+02  0.47000000000E+01 0. -1.
         -5    1    3    3    0  501 -0.39517790150E+01 -0.23986543784E+02  0.16939278612E+02  0.30000000000E+02  0.47000000000E+01 0.  1.
</event>
<event>
 5    1  0.7959189E-002  0.6000000E+02  0.7546771E-02  0.1259629E+00
         11   -1    0    0    0    0  0.00000000000E+00  0.00000000000E+00  0.30000000000E+02  0.30000000000E+02  0.00000000000E+00 0.  1.
        -11   -1    0    0    0    0 -0.00000000000E+00 -0.00000000000E+00 -0.30000000000E+02  0.30000000000E+02  0.00000000000E+00 0. -1.
         23    2    1    2    0    0  0.00000000000E+00  0.00000000000E+00  0.00000000000E+00  0.60000000000E+02  0.60000000000E+02 0.  0.
          5    1    3    3  501    0 -0.13576532013E+02 -0.26207804215E+02 -0.25959153912E+01  0.30000000000E+02  0.47000000000E+01 0. -1.
         -5    1    3    3    0  501  0.13576532013E+02  0.26207804215E+02  0.25959153912E+01  0.30000000000E+02  0.47000000000E+01 0.  1.
</event>
<event>
 5    1  0.7959189E-002  0.6000000E+02  0.7546771E-02  0.1259629E+00
         11   -1    0    0    0    0  0.00000000000E+00  0.00000000000E+00  0.30000000000E+02  0.30000000000E+02  0.00000000000E+00 0.  1.
        -11   -1    0    0    0    0 -0.00000000000E+00 -0.00000000000E+00 -0.30000000000E+02  0.30000000000E+02  0.00000000000E+00 0. -1.
         23    2    1    2    0    0  0.00000000000E+00  0.00000000000E+00  0.00000000000E+00  0.60000000000E+02  0.60000000000E+02 0.  0.
          5    1    3    3  501    0  0.17742726871E+02 -0.13808600436E+00  0.23729445325E+02  0.30000000000E+02  0.47000000000E+01 0.  1.
         -5    1    3    3    0  501 -0.17742726871E+02  0.13808600436E+00 -0.23729445325E+02  0.30000000000E+02  0.47000000000E+01 0. -1.
</event>
<event>
 5    1  0.7959189E-002  0.6000000E+02  0.7546771E-02  0.1259629E+00
         11   -1    0    0    0    0  0.00000000000E+00  0.00000000000E+00  0.30000000000E+02  0.30000000000E+02  0.00000000000E+00 0.  1.
        -11   -1    0    0    0    0 -0.00000000000E+00 -0.00000000000E+00 -0.30000000000E+02  0.30000000000E+02  0.00000000000E+00 0. -1.
         23    2    1    2    0    0  0.00000000000E+00  0.00000000000E+00  0.00000000000E+00  0.60000000000E+02  0.60000000000E+02 0.  0.
          5    1    3    3  501    0  0.61812976278E+01 -0.28364389996E+02 -0.59298347188E+01  0.30000000000E+02  0.47000000000E+01 0. -1.
         -5    1    3    3    0  501 -0.61812976278E+01  0.28364389996E+02  0.59298347188E+01  0.30000000000E+02  0.47000000000E+01 0.  1.
</event>
<event>
 5    1  0.7959189E-002  0.6000000E+02  0.7546771E-02  0.1259629E+00
         11   -1    0    0    0    0  0.00000000000E+00  0.00000000000E+00  0.30000000000E+02  0.30000000000E+02  0.00000000000E+00 0. -1.
        -11   -1    0    0    0    0 -0.00000000000E+00 -0.00000000000E+00 -0.30000000000E+02  0.30000000000E+02  0.00000000000E+00 0.  1.
         23    2    1    2    0    0  0.00000000000E+00  0.00000000000E+00  0.00000000000E+00  0.60000000000E+02  0.60000000000E+02 0.  0.
          5    1    3    3  501    0 -0.25464130722E+02 -0.85357832854E+01  0.12515128856E+02  0.30000000000E+02  0.47000000000E+01 0. -1.
         -5    1    3    3    0  501  0.25464130722E+02  0.85357832854E+01 -0.12515128856E+02  0.30000000000E+02  0.47000000000E+01 0.  1.
</event>
<event>
 5    1  0.7959189E-002  0.6000000E+02  0.7546771E-02  0.1259629E+00
         11   -1    0    0    0    0  0.00000000000E+00  0.00000000000E+00  0.30000000000E+02  0.30000000000E+02  0.00000000000E+00 0.  1.
        -11   -1    0    0    0    0 -0.00000000000E+00 -0.00000000000E+00 -0.30000000000E+02  0.30000000000E+02  0.00000000000E+00 0. -1.
         23    2    1    2    0    0  0.00000000000E+00  0.00000000000E+00  0.00000000000E+00  0.60000000000E+02  0.60000000000E+02 0.  0.
          5    1    3    3  501    0  0.24915810265E+02  0.15460514369E+02  0.42526338089E+01  0.30000000000E+02  0.47000000000E+01 0. -1.
         -5    1    3    3    0  501 -0.24915810265E+02 -0.15460514369E+02 -0.42526338089E+01  0.30000000000E+02  0.47000000000E+01 0.  1.
</event>
<event>
 5    1  0.7959189E-002  0.6000000E+02  0.7546771E-02  0.1259629E+00
         11   -1    0    0    0    0  0.00000000000E+00  0.00000000000E+00  0.30000000000E+02  0.30000000000E+02  0.00000000000E+00 0.  1.
        -11   -1    0    0    0    0 -0.00000000000E+00 -0.00000000000E+00 -0.30000000000E+02  0.30000000000E+02  0.00000000000E+00 0. -1.
         23    2    1    2    0    0  0.00000000000E+00  0.00000000000E+00  0.00000000000E+00  0.60000000000E+02  0.60000000000E+02 0.  0.
          5    1    3    3  501    0 -0.10467060336E+02  0.19734777820E+02  0.19465076222E+02  0.30000000000E+02  0.47000000000E+01 0.  1.
         -5    1    3    3    0  501  0.10467060336E+02 -0.19734777820E+02 -0.19465076222E+02  0.30000000000E+02  0.47000000000E+01 0. -1.
</event>
<event>
 5    1  0.7959189E-002  0.6000000E+02  0.7546771E-02  0.1259629E+00
         11   -1    0    0    0    0  0.00000000000E+00  0.00000000000E+00  0.30000000000E+02  0.30000000000E+02  0.00000000000E+00 0.  1.
        -11   -1    0    0    0    0 -0.00000000000E+00 -0.00000000000E+00 -0.30000000000E+02  0.30000000000E+02  0.00000000000E+00 0. -1.
         23    2    1    2    0    0  0.00000000000E+00  0.00000000000E+00  0.00000000000E+00  0.60000000000E+02  0.60000000000E+02 0.  0.
          5    1    3    3  501    0  0.18385436716E+01 -0.12590603604E+02 -0.26758296995E+02  0.30000000000E+02  0.47000000000E+01 0. -1.
         -5    1    3    3    0  501 -0.18385436716E+01  0.12590603604E+02  0.26758296995E+02  0.30000000000E+02  0.47000000000E+01 0.  1.
</event>
<event>
 5    1  0.7959189E-002  0.6000000E+02  0.7546771E-02  0.1259629E+00
         11   -1    0    0    0    0  0.00000000000E+00  0.00000000000E+00  0.30000000000E+02  0.30000000000E+02  0.00000000000E+00 0.  1.
        -11   -1    0    0    0    0 -0.00000000000E+00 -0.00000000000E+00 -0.30000000000E+02  0.30000000000E+02  0.00000000000E+00 0. -1.
         23    2    1    2    0    0  0.00000000000E+00  0.00000000000E+00  0.00000000000E+00  0.60000000000E+02  0.60000000000E+02 0.  0.
          5    1    3    3  501    0 -0.19183484475E+02 -0.17117750658E+02 -0.14727068133E+02  0.30000000000E+02  0.47000000000E+01 0. -1.
         -5    1    3    3    0  501  0.19183484475E+02  0.17117750658E+02  0.14727068133E+02  0.30000000000E+02  0.47000000000E+01 0.  1.
</event>
<event>
 5    1  0.7959189E-002  0.6000000E+02  0.7546771E-02  0.1259629E+00
         11   -1    0    0    0    0  0.00000000000E+00  0.00000000000E+00  0.30000000000E+02  0.30000000000E+02  0.00000000000E+00 0.  1.
        -11   -1    0    0    0    0 -0.00000000000E+00 -0.00000000000E+00 -0.30000000000E+02  0.30000000000E+02  0.00000000000E+00 0. -1.
         23    2    1    2    0    0  0.00000000000E+00  0.00000000000E+00  0.00000000000E+00  0.60000000000E+02  0.60000000000E+02 0.  0.
          5    1    3    3  501    0 -0.14734523999E+02  0.75310914467E+01 -0.24578170480E+02  0.30000000000E+02  0.47000000000E+01 0. -1.
         -5    1    3    3    0  501  0.14734523999E+02 -0.75310914467E+01  0.24578170480E+02  0.30000000000E+02  0.47000000000E+01 0.  1.
</event>
<event>
 5    1  0.7959189E-002  0.6000000E+02  0.7546771E-02  0.1259629E+00
         11   -1    0    0    0    0  0.00000000000E+00  0.00000000000E+00  0.30000000000E+02  0.30000000000E+02  0.00000000000E+00 0. -1.
        -11   -1    0    0    0    0 -0.00000000000E+00 -0.00000000000E+00 -0.30000000000E+02  0.30000000000E+02  0.00000000000E+00 0.  1.
         23    2    1    2    0    0  0.00000000000E+00  0.00000000000E+00  0.00000000000E+00  0.60000000000E+02  0.60000000000E+02 0.  0.
          5    1    3    3  501    0 -0.75803529558E+01 -0.18437365059E+02 -0.21920579799E+02  0.30000000000E+02  0.47000000000E+01 0.  1.
         -5    1    3    3    0  501  0.75803529558E+01  0.18437365059E+02  0.21920579799E+02  0.30000000000E+02  0.47000000000E+01 0. -1.
</event>
<event>
 5    1  0.7959189E-002  0.6000000E+02  0.7546771E-02  0.1259629E+00
         11   -1    0    0    0    0  0.00000000000E+00  0.00000000000E+00  0.30000000000E+02  0.30000000000E+02  0.00000000000E+00 0.  1.
        -11   -1    0    0    0    0 -0.00000000000E+00 -0.00000000000E+00 -0.30000000000E+02  0.30000000000E+02  0.00000000000E+00 0. -1.
         23    2    1    2    0    0  0.00000000000E+00  0.00000000000E+00  0.00000000000E+00  0.60000000000E+02  0.60000000000E+02 0.  0.
          5    1    3    3  501    0 -0.13234754116E+02  0.10411957884E+02 -0.24379138962E+02  0.30000000000E+02  0.47000000000E+01 0. -1.
         -5    1    3    3    0  501  0.13234754116E+02 -0.10411957884E+02  0.24379138962E+02  0.30000000000E+02  0.47000000000E+01 0.  1.
</event>
<event>
 5    1  0.7959189E-002  0.6000000E+02  0.7546771E-02  0.1259629E+00
         11   -1    0    0    0    0  0.00000000000E+00  0.00000000000E+00  0.30000000000E+02  0.30000000000E+02  0.00000000000E+00 0.  1.
        -11   -1    0    0    0    0 -0.00000000000E+00 -0.00000000000E+00 -0.30000000000E+02  0.30000000000E+02  0.00000000000E+00 0. -1.
         23    2    1    2    0    0  0.00000000000E+00  0.00000000000E+00  0.00000000000E+00  0.60000000000E+02  0.60000000000E+02 0.  0.
          5    1    3    3  501    0 -0.25616451514E+02 -0.52971177643E+01 -0.13915744868E+02  0.30000000000E+02  0.47000000000E+01 0. -1.
         -5    1    3    3    0  501  0.25616451514E+02  0.52971177643E+01  0.13915744868E+02  0.30000000000E+02  0.47000000000E+01 0.  1.
</event>
<event>
 5    1  0.7959189E-002  0.6000000E+02  0.7546771E-02  0.1259629E+00
         11   -1    0    0    0    0  0.00000000000E+00  0.00000000000E+00  0.30000000000E+02  0.30000000000E+02  0.00000000000E+00 0.  1.
        -11   -1    0    0    0    0 -0.00000000000E+00 -0.00000000000E+00 -0.30000000000E+02  0.30000000000E+02  0.00000000000E+00 0. -1.
         23    2    1    2    0    0  0.00000000000E+00  0.00000000000E+00  0.00000000000E+00  0.60000000000E+02  0.60000000000E+02 0.  0.
          5    1    3    3  501    0  0.89508994184E+01  0.27040351478E+02 -0.81615434527E+01  0.30000000000E+02  0.47000000000E+01 0.  1.
         -5    1    3    3    0  501 -0.89508994184E+01 -0.27040351478E+02  0.81615434527E+01  0.30000000000E+02  0.47000000000E+01 0.  1.
</event>
<event>
 5    1  0.7959189E-002  0.6000000E+02  0.7546771E-02  0.1259629E+00
         11   -1    0    0    0    0  0.00000000000E+00  0.00000000000E+00  0.30000000000E+02  0.30000000000E+02  0.00000000000E+00 0. -1.
        -11   -1    0    0    0    0 -0.00000000000E+00 -0.00000000000E+00 -0.30000000000E+02  0.30000000000E+02  0.00000000000E+00 0.  1.
         23    2    1    2    0    0  0.00000000000E+00  0.00000000000E+00  0.00000000000E+00  0.60000000000E+02  0.60000000000E+02 0.  0.
          5    1    3    3  501    0 -0.28295849026E+02  0.21058318788E+01 -0.85334869765E+01  0.30000000000E+02  0.47000000000E+01 0.  1.
         -5    1    3    3    0  501  0.28295849026E+02 -0.21058318788E+01  0.85334869765E+01  0.30000000000E+02  0.47000000000E+01 0. -1.
</event>
<event>
 5    1  0.7959189E-002  0.6000000E+02  0.7546771E-02  0.1259629E+00
         11   -1    0    0    0    0  0.00000000000E+00  0.00000000000E+00  0.30000000000E+02  0.30000000000E+02  0.00000000000E+00 0. -1.
        -11   -1    0    0    0    0 -0.00000000000E+00 -0.00000000000E+00 -0.30000000000E+02  0.30000000000E+02  0.00000000000E+00 0.  1.
         23    2    1    2    0    0  0.00000000000E+00  0.00000000000E+00  0.00000000000E+00  0.60000000000E+02  0.60000000000E+02 0.  0.
          5    1    3    3  501    0  0.16980532745E+01  0.27235140255E+02 -0.11544425077E+02  0.30000000000E+02  0.47000000000E+01 0.  1.
         -5    1    3    3    0  501 -0.16980532745E+01 -0.27235140255E+02  0.11544425077E+02  0.30000000000E+02  0.47000000000E+01 0. -1.
</event>
<event>
 5    1  0.7959189E-002  0.6000000E+02  0.7546771E-02  0.1259629E+00
         11   -1    0    0    0    0  0.00000000000E+00  0.00000000000E+00  0.30000000000E+02  0.30000000000E+02  0.00000000000E+00 0.  1.
        -11   -1    0    0    0    0 -0.00000000000E+00 -0.00000000000E+00 -0.30000000000E+02  0.30000000000E+02  0.00000000000E+00 0. -1.
         23    2    1    2    0    0  0.00000000000E+00  0.00000000000E+00  0.00000000000E+00  0.60000000000E+02  0.60000000000E+02 0.  0.
          5    1    3    3  501    0 -0.21415458900E+02  0.62054953989E+01  0.19513583653E+02  0.30000000000E+02  0.47000000000E+01 0.  1.
         -5    1    3    3    0  501  0.21415458900E+02 -0.62054953989E+01 -0.19513583653E+02  0.30000000000E+02  0.47000000000E+01 0. -1.
</event>
<event>
 5    1  0.7959189E-002  0.6000000E+02  0.7546771E-02  0.1259629E+00
         11   -1    0    0    0    0  0.00000000000E+00  0.00000000000E+00  0.30000000000E+02  0.30000000000E+02  0.00000000000E+00 0.  1.
        -11   -1    0    0    0    0 -0.00000000000E+00 -0.00000000000E+00 -0.30000000000E+02  0.30000000000E+02  0.00000000000E+00 0. -1.
         23    2    1    2    0    0  0.00000000000E+00  0.00000000000E+00  0.00000000000E+00  0.60000000000E+02  0.60000000000E+02 0.  0.
          5    1    3    3  501    0  0.68897881057E+01 -0.95688547620E+01  0.27182307452E+02  0.30000000000E+02  0.47000000000E+01 0.  1.
         -5    1    3    3    0  501 -0.68897881057E+01  0.95688547620E+01 -0.27182307452E+02  0.30000000000E+02  0.47000000000E+01 0. -1.
</event>
<event>
 5    1  0.7959189E-002  0.6000000E+02  0.7546771E-02  0.1259629E+00
         11   -1    0    0    0    0  0.00000000000E+00  0.00000000000E+00  0.30000000000E+02  0.30000000000E+02  0.00000000000E+00 0.  1.
        -11   -1    0    0    0    0 -0.00000000000E+00 -0.00000000000E+00 -0.30000000000E+02  0.30000000000E+02  0.00000000000E+00 0. -1.
         23    2    1    2    0    0  0.00000000000E+00  0.00000000000E+00  0.00000000000E+00  0.60000000000E+02  0.60000000000E+02 0.  0.
          5    1    3    3  501    0  0.63872551572E+01  0.26088381775E+02 -0.12510368017E+02  0.30000000000E+02  0.47000000000E+01 0. -1.
         -5    1    3    3    0  501 -0.63872551572E+01 -0.26088381775E+02  0.12510368017E+02  0.30000000000E+02  0.47000000000E+01 0.  1.
</event>
<event>
 5    1  0.7959189E-002  0.6000000E+02  0.7546771E-02  0.1259629E+00
         11   -1    0    0    0    0  0.00000000000E+00  0.00000000000E+00  0.30000000000E+02  0.30000000000E+02  0.00000000000E+00 0.  1.
        -11   -1    0    0    0    0 -0.00000000000E+00 -0.00000000000E+00 -0.30000000000E+02  0.30000000000E+02  0.00000000000E+00 0. -1.
         23    2    1    2    0    0  0.00000000000E+00  0.00000000000E+00  0.00000000000E+00  0.60000000000E+02  0.60000000000E+02 0.  0.
          5    1    3    3  501    0 -0.19073660727E+02  0.22514856097E+02 -0.26808061100E+01  0.30000000000E+02  0.47000000000E+01 0. -1.
         -5    1    3    3    0  501  0.19073660727E+02 -0.22514856097E+02  0.26808061100E+01  0.30000000000E+02  0.47000000000E+01 0.  1.
</event>
<event>
 5    1  0.7959189E-002  0.6000000E+02  0.7546771E-02  0.1259629E+00
         11   -1    0    0    0    0  0.00000000000E+00  0.00000000000E+00  0.30000000000E+02  0.30000000000E+02  0.00000000000E+00 0.  1.
        -11   -1    0    0    0    0 -0.00000000000E+00 -0.00000000000E+00 -0.30000000000E+02  0.30000000000E+02  0.00000000000E+00 0. -1.
         23    2    1    2    0    0  0.00000000000E+00  0.00000000000E+00  0.00000000000E+00  0.60000000000E+02  0.60000000000E+02 0.  0.
          5    1    3    3  501    0  0.17116892255E+02  0.19146485048E+02  0.14776133116E+02  0.30000000000E+02  0.47000000000E+01 0. -1.
         -5    1    3    3    0  501 -0.17116892255E+02 -0.19146485048E+02 -0.14776133116E+02  0.30000000000E+02  0.47000000000E+01 0.  1.
</event>
<event>
 5    1  0.7959189E-002  0.6000000E+02  0.7546771E-02  0.1259629E+00
         11   -1    0    0    0    0  0.00000000000E+00  0.00000000000E+00  0.30000000000E+02  0.30000000000E+02  0.00000000000E+00 0.  1.
        -11   -1    0    0    0    0 -0.00000000000E+00 -0.00000000000E+00 -0.30000000000E+02  0.30000000000E+02  0.00000000000E+00 0. -1.
         23    2    1    2    0    0  0.00000000000E+00  0.00000000000E+00  0.00000000000E+00  0.60000000000E+02  0.60000000000E+02 0.  0.
          5    1    3    3  501    0 -0.25987025328E+00 -0.28332769830E+02  0.86658306713E+01  0.30000000000E+02  0.47000000000E+01 0. -1.
         -5    1    3    3    0  501  0.25987025328E+00  0.28332769830E+02 -0.86658306713E+01  0.30000000000E+02  0.47000000000E+01 0.  1.
</event>
<event>
 5    1  0.7959189E-002  0.6000000E+02  0.7546771E-02  0.1259629E+00
         11   -1    0    0    0    0  0.00000000000E+00  0.00000000000E+00  0.30000000000E+02  0.30000000000E+02  0.00000000000E+00 0.  1.
        -11   -1    0    0    0    0 -0.00000000000E+00 -0.00000000000E+00 -0.30000000000E+02  0.30000000000E+02  0.00000000000E+00 0. -1.
         23    2    1    2    0    0  0.00000000000E+00  0.00000000000E+00  0.00000000000E+00  0.60000000000E+02  0.60000000000E+02 0.  0.
          5    1    3    3  501    0 -0.22045507549E+02 -0.52409300461E+01 -0.19090265822E+02  0.30000000000E+02  0.47000000000E+01 0. -1.
         -5    1    3    3    0  501  0.22045507549E+02  0.52409300461E+01  0.19090265822E+02  0.30000000000E+02  0.47000000000E+01 0.  1.
</event>
<event>
 5    1  0.7959189E-002  0.6000000E+02  0.7546771E-02  0.1259629E+00
         11   -1    0    0    0    0  0.00000000000E+00  0.00000000000E+00  0.30000000000E+02  0.30000000000E+02  0.00000000000E+00 0.  1.
        -11   -1    0    0    0    0 -0.00000000000E+00 -0.00000000000E+00 -0.30000000000E+02  0.30000000000E+02  0.00000000000E+00 0. -1.
         23    2    1    2    0    0  0.00000000000E+00  0.00000000000E+00  0.00000000000E+00  0.60000000000E+02  0.60000000000E+02 0.  0.
          5    1    3    3  501    0 -0.11080823225E+02  0.70646345875E+01 -0.26555908849E+02  0.30000000000E+02  0.47000000000E+01 0. -1.
         -5    1    3    3    0  501  0.11080823225E+02 -0.70646345875E+01  0.26555908849E+02  0.30000000000E+02  0.47000000000E+01 0.  1.
</event>
<event>
 5    1  0.7959189E-002  0.6000000E+02  0.7546771E-02  0.1259629E+00
         11   -1    0    0    0    0  0.00000000000E+00  0.00000000000E+00  0.30000000000E+02  0.30000000000E+02  0.00000000000E+00 0. -1.
        -11   -1    0    0    0    0 -0.00000000000E+00 -0.00000000000E+00 -0.30000000000E+02  0.30000000000E+02  0.00000000000E+00 0.  1.
         23    2    1    2    0    0  0.00000000000E+00  0.00000000000E+00  0.00000000000E+00  0.60000000000E+02  0.60000000000E+02 0.  0.
          5    1    3    3  501    0 -0.82408584510E+01 -0.11362413592E+02 -0.26093942005E+02  0.30000000000E+02  0.47000000000E+01 0.  1.
         -5    1    3    3    0  501  0.82408584510E+01  0.11362413592E+02  0.26093942005E+02  0.30000000000E+02  0.47000000000E+01 0. -1.
</event>
<event>
 5    1  0.7959189E-002  0.6000000E+02  0.7546771E-02  0.1259629E+00
         11   -1    0    0    0    0  0.00000000000E+00  0.00000000000E+00  0.30000000000E+02  0.30000000000E+02  0.00000000000E+00 0. -1.
        -11   -1    0    0    0    0 -0.00000000000E+00 -0.00000000000E+00 -0.30000000000E+02  0.30000000000E+02  0.00000000000E+00 0.  1.
         23    2    1    2    0    0  0.00000000000E+00  0.00000000000E+00  0.00000000000E+00  0.60000000000E+02  0.60000000000E+02 0.  0.
          5    1    3    3  501    0  0.19865164038E+02 -0.11939844933E+02 -0.18458747539E+02  0.30000000000E+02  0.47000000000E+01 0.  1.
         -5    1    3    3    0  501 -0.19865164038E+02  0.11939844933E+02  0.18458747539E+02  0.30000000000E+02  0.47000000000E+01 0. -1.
</event>
<event>
 5    1  0.7959189E-002  0.6000000E+02  0.7546771E-02  0.1259629E+00
         11   -1    0    0    0    0  0.00000000000E+00  0.00000000000E+00  0.30000000000E+02  0.30000000000E+02  0.00000000000E+00 0.  1.
        -11   -1    0    0    0    0 -0.00000000000E+00 -0.00000000000E+00 -0.30000000000E+02  0.30000000000E+02  0.00000000000E+00 0. -1.
         23    2    1    2    0    0  0.00000000000E+00  0.00000000000E+00  0.00000000000E+00  0.60000000000E+02  0.60000000000E+02 0.  0.
          5    1    3    3  501    0  0.25066939900E+02  0.14024006225E+02  0.72722605452E+01  0.30000000000E+02  0.47000000000E+01 0. -1.
         -5    1    3    3    0  501 -0.25066939900E+02 -0.14024006225E+02 -0.72722605452E+01  0.30000000000E+02  0.47000000000E+01 0.  1.
</event>
<event>
 5    1  0.7959189E-002  0.6000000E+02  0.7546771E-02  0.1259629E+00
         11   -1    0    0    0    0  0.00000000000E+00  0.00000000000E+00  0.30000000000E+02  0.30000000000E+02  0.00000000000E+00 0. -1.
        -11   -1    0    0    0    0 -0.00000000000E+00 -0.00000000000E+00 -0.30000000000E+02  0.30000000000E+02  0.00000000000E+00 0.  1.
         23    2    1    2    0    0  0.00000000000E+00  0.00000000000E+00  0.00000000000E+00  0.60000000000E+02  0.60000000000E+02 0.  0.
          5    1    3    3  501    0 -0.16407737049E+02  0.10027902041E+02 -0.22541901996E+02  0.30000000000E+02  0.47000000000E+01 0.  1.
         -5    1    3    3    0  501  0.16407737049E+02 -0.10027902041E+02  0.22541901996E+02  0.30000000000E+02  0.47000000000E+01 0. -1.
</event>
<event>
 5    1  0.7959189E-002  0.6000000E+02  0.7546771E-02  0.1259629E+00
         11   -1    0    0    0    0  0.00000000000E+00  0.00000000000E+00  0.30000000000E+02  0.30000000000E+02  0.00000000000E+00 0.  1.
        -11   -1    0    0    0    0 -0.00000000000E+00 -0.00000000000E+00 -0.30000000000E+02  0.30000000000E+02  0.00000000000E+00 0. -1.
         23    2    1    2    0    0  0.00000000000E+00  0.00000000000E+00  0.00000000000E+00  0.60000000000E+02  0.60000000000E+02 0.  0.
          5    1    3    3  501    0  0.37808325419E+01 -0.19652234144E+01 -0.29321548428E+02  0.30000000000E+02  0.47000000000E+01 0. -1.
         -5    1    3    3    0  501 -0.37808325419E+01  0.19652234144E+01  0.29321548428E+02  0.30000000000E+02  0.47000000000E+01 0.  1.
</event>
<event>
 5    1  0.7959189E-002  0.6000000E+02  0.7546771E-02  0.1259629E+00
         11   -1    0    0    0    0  0.00000000000E+00  0.00000000000E+00  0.30000000000E+02  0.30000000000E+02  0.00000000000E+00 0.  1.
        -11   -1    0    0    0    0 -0.00000000000E+00 -0.00000000000E+00 -0.30000000000E+02  0.30000000000E+02  0.00000000000E+00 0. -1.
         23    2    1    2    0    0  0.00000000000E+00  0.00000000000E+00  0.00000000000E+00  0.60000000000E+02  0.60000000000E+02 0.  0.
          5    1    3    3  501    0  0.19324102291E+02  0.20923660170E+00 -0.22459859543E+02  0.30000000000E+02  0.47000000000E+01 0. -1.
         -5    1    3    3    0  501 -0.19324102291E+02 -0.20923660170E+00  0.22459859543E+02  0.30000000000E+02  0.47000000000E+01 0.  1.
</event>
<event>
 5    1  0.7959189E-002  0.6000000E+02  0.7546771E-02  0.1259629E+00
         11   -1    0    0    0    0  0.00000000000E+00  0.00000000000E+00  0.30000000000E+02  0.30000000000E+02  0.00000000000E+00 0. -1.
        -11   -1    0    0    0    0 -0.00000000000E+00 -0.00000000000E+00 -0.30000000000E+02  0.30000000000E+02  0.00000000000E+00 0.  1.
         23    2    1    2    0    0  0.00000000000E+00  0.00000000000E+00  0.00000000000E+00  0.60000000000E+02  0.60000000000E+02 0.  0.
          5    1    3    3  501    0 -0.66588621531E+01  0.26230757160E+02 -0.12063039983E+02  0.30000000000E+02  0.47000000000E+01 0.  1.
         -5    1    3    3    0  501  0.66588621531E+01 -0.26230757160E+02  0.12063039983E+02  0.30000000000E+02  0.47000000000E+01 0. -1.
</event>
<event>
 5    1  0.7959189E-002  0.6000000E+02  0.7546771E-02  0.1259629E+00
         11   -1    0    0    0    0  0.00000000000E+00  0.00000000000E+00  0.30000000000E+02  0.30000000000E+02  0.00000000000E+00 0.  1.
        -11   -1    0    0    0    0 -0.00000000000E+00 -0.00000000000E+00 -0.30000000000E+02  0.30000000000E+02  0.00000000000E+00 0. -1.
         23    2    1    2    0    0  0.00000000000E+00  0.00000000000E+00  0.00000000000E+00  0.60000000000E+02  0.60000000000E+02 0.  0.
          5    1    3    3  501    0 -0.20081000692E+02  0.15972097226E+02 -0.14817406029E+02  0.30000000000E+02  0.47000000000E+01 0. -1.
         -5    1    3    3    0  501  0.20081000692E+02 -0.15972097226E+02  0.14817406029E+02  0.30000000000E+02  0.47000000000E+01 0.  1.
</event>
<event>
 5    1  0.7959189E-002  0.6000000E+02  0.7546771E-02  0.1259629E+00
         11   -1    0    0    0    0  0.00000000000E+00  0.00000000000E+00  0.30000000000E+02  0.30000000000E+02  0.00000000000E+00 0.  1.
        -11   -1    0    0    0    0 -0.00000000000E+00 -0.00000000000E+00 -0.30000000000E+02  0.30000000000E+02  0.00000000000E+00 0. -1.
         23    2    1    2    0    0  0.00000000000E+00  0.00000000000E+00  0.00000000000E+00  0.60000000000E+02  0.60000000000E+02 0.  0.
          5    1    3    3  501    0 -0.41439825800E+01 -0.49020543891E+01 -0.28925892746E+02  0.30000000000E+02  0.47000000000E+01 0. -1.
         -5    1    3    3    0  501  0.41439825800E+01  0.49020543891E+01  0.28925892746E+02  0.30000000000E+02  0.47000000000E+01 0.  1.
</event>
<event>
 5    1  0.7959189E-002  0.6000000E+02  0.7546771E-02  0.1259629E+00
         11   -1    0    0    0    0  0.00000000000E+00  0.00000000000E+00  0.30000000000E+02  0.30000000000E+02  0.00000000000E+00 0.  1.
        -11   -1    0    0    0    0 -0.00000000000E+00 -0.00000000000E+00 -0.30000000000E+02  0.30000000000E+02  0.00000000000E+00 0. -1.
         23    2    1    2    0    0  0.00000000000E+00  0.00000000000E+00  0.00000000000E+00  0.60000000000E+02  0.60000000000E+02 0.  0.
          5    1    3    3  501    0 -0.91977247584E+00  0.22456127396E+02 -0.19307676219E+02  0.30000000000E+02  0.47000000000E+01 0. -1.
         -5    1    3    3    0  501  0.91977247584E+00 -0.22456127396E+02  0.19307676219E+02  0.30000000000E+02  0.47000000000E+01 0.  1.
</event>
<event>
 5    1  0.7959189E-002  0.6000000E+02  0.7546771E-02  0.1259629E+00
         11   -1    0    0    0    0  0.00000000000E+00  0.00000000000E+00  0.30000000000E+02  0.30000000000E+02  0.00000000000E+00 0.  1.
        -11   -1    0    0    0    0 -0.00000000000E+00 -0.00000000000E+00 -0.30000000000E+02  0.30000000000E+02  0.00000000000E+00 0. -1.
         23    2    1    2    0    0  0.00000000000E+00  0.00000000000E+00  0.00000000000E+00  0.60000000000E+02  0.60000000000E+02 0.  0.
          5    1    3    3  501    0 -0.16093925606E+02  0.52865457073E+01 -0.24309421899E+02  0.30000000000E+02  0.47000000000E+01 0. -1.
         -5    1    3    3    0  501  0.16093925606E+02 -0.52865457073E+01  0.24309421899E+02  0.30000000000E+02  0.47000000000E+01 0.  1.
</event>
<event>
 5    1  0.7959189E-002  0.6000000E+02  0.7546771E-02  0.1259629E+00
         11   -1    0    0    0    0  0.00000000000E+00  0.00000000000E+00  0.30000000000E+02  0.30000000000E+02  0.00000000000E+00 0. -1.
        -11   -1    0    0    0    0 -0.00000000000E+00 -0.00000000000E+00 -0.30000000000E+02  0.30000000000E+02  0.00000000000E+00 0.  1.
         23    2    1    2    0    0  0.00000000000E+00  0.00000000000E+00  0.00000000000E+00  0.60000000000E+02  0.60000000000E+02 0.  0.
          5    1    3    3  501    0  0.19186634155E+02  0.22006346477E+01 -0.22470876195E+02  0.30000000000E+02  0.47000000000E+01 0.  1.
         -5    1    3    3    0  501 -0.19186634155E+02 -0.22006346477E+01  0.22470876195E+02  0.30000000000E+02  0.47000000000E+01 0. -1.
</event>
<event>
 5    1  0.7959189E-002  0.6000000E+02  0.7546771E-02  0.1259629E+00
         11   -1    0    0    0    0  0.00000000000E+00  0.00000000000E+00  0.30000000000E+02  0.30000000000E+02  0.00000000000E+00 0.  1.
        -11   -1    0    0    0    0 -0.00000000000E+00 -0.00000000000E+00 -0.30000000000E+02  0.30000000000E+02  0.00000000000E+00 0. -1.
         23    2    1    2    0    0  0.00000000000E+00  0.00000000000E+00  0.00000000000E+00  0.60000000000E+02  0.60000000000E+02 0.  0.
          5    1    3    3  501    0 -0.11680962984E+02 -0.24940595683E+02 -0.10928485290E+02  0.30000000000E+02  0.47000000000E+01 0. -1.
         -5    1    3    3    0  501  0.11680962984E+02  0.24940595683E+02  0.10928485290E+02  0.30000000000E+02  0.47000000000E+01 0.  1.
</event>
<event>
 5    1  0.7959189E-002  0.6000000E+02  0.7546771E-02  0.1259629E+00
         11   -1    0    0    0    0  0.00000000000E+00  0.00000000000E+00  0.30000000000E+02  0.30000000000E+02  0.00000000000E+00 0.  1.
        -11   -1    0    0    0    0 -0.00000000000E+00 -0.00000000000E+00 -0.30000000000E+02  0.30000000000E+02  0.00000000000E+00 0. -1.
         23    2    1    2    0    0  0.00000000000E+00  0.00000000000E+00  0.00000000000E+00  0.60000000000E+02  0.60000000000E+02 0.  0.
          5    1    3    3  501    0 -0.10122919124E+02 -0.15955160950E+02  0.22822562246E+02  0.30000000000E+02  0.47000000000E+01 0.  1.
         -5    1    3    3    0  501  0.10122919124E+02  0.15955160950E+02 -0.22822562246E+02  0.30000000000E+02  0.47000000000E+01 0. -1.
</event>
<event>
 5    1  0.7959189E-002  0.6000000E+02  0.7546771E-02  0.1259629E+00
         11   -1    0    0    0    0  0.00000000000E+00  0.00000000000E+00  0.30000000000E+02  0.30000000000E+02  0.00000000000E+00 0.  1.
        -11   -1    0    0    0    0 -0.00000000000E+00 -0.00000000000E+00 -0.30000000000E+02  0.30000000000E+02  0.00000000000E+00 0. -1.
         23    2    1    2    0    0  0.00000000000E+00  0.00000000000E+00  0.00000000000E+00  0.60000000000E+02  0.60000000000E+02 0.  0.
          5    1    3    3  501    0  0.20717108582E+02  0.86177928095E+01 -0.19350582914E+02  0.30000000000E+02  0.47000000000E+01 0. -1.
         -5    1    3    3    0  501 -0.20717108582E+02 -0.86177928095E+01  0.19350582914E+02  0.30000000000E+02  0.47000000000E+01 0.  1.
</event>
<event>
 5    1  0.7959189E-002  0.6000000E+02  0.7546771E-02  0.1259629E+00
         11   -1    0    0    0    0  0.00000000000E+00  0.00000000000E+00  0.30000000000E+02  0.30000000000E+02  0.00000000000E+00 0.  1.
        -11   -1    0    0    0    0 -0.00000000000E+00 -0.00000000000E+00 -0.30000000000E+02  0.30000000000E+02  0.00000000000E+00 0. -1.
         23    2    1    2    0    0  0.00000000000E+00  0.00000000000E+00  0.00000000000E+00  0.60000000000E+02  0.60000000000E+02 0.  0.
          5    1    3    3  501    0  0.12023947547E+02  0.55778488304E+01 -0.26499477124E+02  0.30000000000E+02  0.47000000000E+01 0. -1.
         -5    1    3    3    0  501 -0.12023947547E+02 -0.55778488304E+01  0.26499477124E+02  0.30000000000E+02  0.47000000000E+01 0.  1.
</event>
<event>
 5    1  0.7959189E-002  0.6000000E+02  0.7546771E-02  0.1259629E+00
         11   -1    0    0    0    0  0.00000000000E+00  0.00000000000E+00  0.30000000000E+02  0.30000000000E+02  0.00000000000E+00 0.  1.
        -11   -1    0    0    0    0 -0.00000000000E+00 -0.00000000000E+00 -0.30000000000E+02  0.30000000000E+02  0.00000000000E+00 0. -1.
         23    2    1    2    0    0  0.00000000000E+00  0.00000000000E+00  0.00000000000E+00  0.60000000000E+02  0.60000000000E+02 0.  0.
          5    1    3    3  501    0  0.10227657050E+02  0.24659431380E+02  0.12853695004E+02  0.30000000000E+02  0.47000000000E+01 0. -1.
         -5    1    3    3    0  501 -0.10227657050E+02 -0.24659431380E+02 -0.12853695004E+02  0.30000000000E+02  0.47000000000E+01 0.  1.
</event>
<event>
 5    1  0.7959189E-002  0.6000000E+02  0.7546771E-02  0.1259629E+00
         11   -1    0    0    0    0  0.00000000000E+00  0.00000000000E+00  0.30000000000E+02  0.30000000000E+02  0.00000000000E+00 0.  1.
        -11   -1    0    0    0    0 -0.00000000000E+00 -0.00000000000E+00 -0.30000000000E+02  0.30000000000E+02  0.00000000000E+00 0. -1.
         23    2    1    2    0    0  0.00000000000E+00  0.00000000000E+00  0.00000000000E+00  0.60000000000E+02  0.60000000000E+02 0.  0.
          5    1    3    3  501    0  0.22019809606E+02  0.18254634064E+02  0.77334546040E+01  0.30000000000E+02  0.47000000000E+01 0. -1.
         -5    1    3    3    0  501 -0.22019809606E+02 -0.18254634064E+02 -0.77334546040E+01  0.30000000000E+02  0.47000000000E+01 0.  1.
</event>
<event>
 5    1  0.7959189E-002  0.6000000E+02  0.7546771E-02  0.1259629E+00
         11   -1    0    0    0    0  0.00000000000E+00  0.00000000000E+00  0.30000000000E+02  0.30000000000E+02  0.00000000000E+00 0.  1.
        -11   -1    0    0    0    0 -0.00000000000E+00 -0.00000000000E+00 -0.30000000000E+02  0.30000000000E+02  0.00000000000E+00 0. -1.
         23    2    1    2    0    0  0.00000000000E+00  0.00000000000E+00  0.00000000000E+00  0.60000000000E+02  0.60000000000E+02 0.  0.
          5    1    3    3  501    0 -0.69725736272E+01 -0.20852117206E+02  0.19861581635E+02  0.30000000000E+02  0.47000000000E+01 0.  1.
         -5    1    3    3    0  501  0.69725736272E+01  0.20852117206E+02 -0.19861581635E+02  0.30000000000E+02  0.47000000000E+01 0. -1.
</event>
<event>
 5    1  0.7959189E-002  0.6000000E+02  0.7546771E-02  0.1259629E+00
         11   -1    0    0    0    0  0.00000000000E+00  0.00000000000E+00  0.30000000000E+02  0.30000000000E+02  0.00000000000E+00 0.  1.
        -11   -1    0    0    0    0 -0.00000000000E+00 -0.00000000000E+00 -0.30000000000E+02  0.30000000000E+02  0.00000000000E+00 0. -1.
         23    2    1    2    0    0  0.00000000000E+00  0.00000000000E+00  0.00000000000E+00  0.60000000000E+02  0.60000000000E+02 0.  0.
          5    1    3    3  501    0  0.19729970784E+02  0.20668386976E+01  0.22008326394E+02  0.30000000000E+02  0.47000000000E+01 0.  1.
         -5    1    3    3    0  501 -0.19729970784E+02 -0.20668386976E+01 -0.22008326394E+02  0.30000000000E+02  0.47000000000E+01 0. -1.
</event>
<event>
 5    1  0.7959189E-002  0.6000000E+02  0.7546771E-02  0.1259629E+00
         11   -1    0    0    0    0  0.00000000000E+00  0.00000000000E+00  0.30000000000E+02  0.30000000000E+02  0.00000000000E+00 0.  1.
        -11   -1    0    0    0    0 -0.00000000000E+00 -0.00000000000E+00 -0.30000000000E+02  0.30000000000E+02  0.00000000000E+00 0. -1.
         23    2    1    2    0    0  0.00000000000E+00  0.00000000000E+00  0.00000000000E+00  0.60000000000E+02  0.60000000000E+02 0.  0.
          5    1    3    3  501    0  0.27763867242E+02 -0.60884393522E+01 -0.83671131223E+01  0.30000000000E+02  0.47000000000E+01 0.  1.
         -5    1    3    3    0  501 -0.27763867242E+02  0.60884393522E+01  0.83671131223E+01  0.30000000000E+02  0.47000000000E+01 0. -1.
</event>
<event>
 5    1  0.7959189E-002  0.6000000E+02  0.7546771E-02  0.1259629E+00
         11   -1    0    0    0    0  0.00000000000E+00  0.00000000000E+00  0.30000000000E+02  0.30000000000E+02  0.00000000000E+00 0.  1.
        -11   -1    0    0    0    0 -0.00000000000E+00 -0.00000000000E+00 -0.30000000000E+02  0.30000000000E+02  0.00000000000E+00 0. -1.
         23    2    1    2    0    0  0.00000000000E+00  0.00000000000E+00  0.00000000000E+00  0.60000000000E+02  0.60000000000E+02 0.  0.
          5    1    3    3  501    0  0.21375429823E+02 -0.12849426692E+02 -0.15996663201E+02  0.30000000000E+02  0.47000000000E+01 0. -1.
         -5    1    3    3    0  501 -0.21375429823E+02  0.12849426692E+02  0.15996663201E+02  0.30000000000E+02  0.47000000000E+01 0.  1.
</event>
<event>
 5    1  0.7959189E-002  0.6000000E+02  0.7546771E-02  0.1259629E+00
         11   -1    0    0    0    0  0.00000000000E+00  0.00000000000E+00  0.30000000000E+02  0.30000000000E+02  0.00000000000E+00 0.  1.
        -11   -1    0    0    0    0 -0.00000000000E+00 -0.00000000000E+00 -0.30000000000E+02  0.30000000000E+02  0.00000000000E+00 0. -1.
         23    2    1    2    0    0  0.00000000000E+00  0.00000000000E+00  0.00000000000E+00  0.60000000000E+02  0.60000000000E+02 0.  0.
          5    1    3    3  501    0  0.99714664587E+01  0.11022389195E+02 -0.25631753609E+02  0.30000000000E+02  0.47000000000E+01 0. -1.
         -5    1    3    3    0  501 -0.99714664587E+01 -0.11022389195E+02  0.25631753609E+02  0.30000000000E+02  0.47000000000E+01 0.  1.
</event>
<event>
 5    1  0.7959189E-002  0.6000000E+02  0.7546771E-02  0.1259629E+00
         11   -1    0    0    0    0  0.00000000000E+00  0.00000000000E+00  0.30000000000E+02  0.30000000000E+02  0.00000000000E+00 0. -1.
        -11   -1    0    0    0    0 -0.00000000000E+00 -0.00000000000E+00 -0.30000000000E+02  0.30000000000E+02  0.00000000000E+00 0.  1.
         23    2    1    2    0    0  0.00000000000E+00  0.00000000000E+00  0.00000000000E+00  0.60000000000E+02  0.60000000000E+02 0.  0.
          5    1    3    3  501    0  0.53092301771E+01  0.57384552247E+01 -0.28579576739E+02  0.30000000000E+02  0.47000000000E+01 0.  1.
         -5    1    3    3    0  501 -0.53092301771E+01 -0.57384552247E+01  0.28579576739E+02  0.30000000000E+02  0.47000000000E+01 0. -1.
</event>
<event>
 5    1  0.7959189E-002  0.6000000E+02  0.7546771E-02  0.1259629E+00
         11   -1    0    0    0    0  0.00000000000E+00  0.00000000000E+00  0.30000000000E+02  0.30000000000E+02  0.00000000000E+00 0. -1.
        -11   -1    0    0    0    0 -0.00000000000E+00 -0.00000000000E+00 -0.30000000000E+02  0.30000000000E+02  0.00000000000E+00 0.  1.
         23    2    1    2    0    0  0.00000000000E+00  0.00000000000E+00  0.00000000000E+00  0.60000000000E+02  0.60000000000E+02 0.  0.
          5    1    3    3  501    0  0.15331898315E+02 -0.15768674434E+01 -0.25305263941E+02  0.30000000000E+02  0.47000000000E+01 0.  1.
         -5    1    3    3    0  501 -0.15331898315E+02  0.15768674434E+01  0.25305263941E+02  0.30000000000E+02  0.47000000000E+01 0. -1.
</event>
<event>
 5    1  0.7959189E-002  0.6000000E+02  0.7546771E-02  0.1259629E+00
         11   -1    0    0    0    0  0.00000000000E+00  0.00000000000E+00  0.30000000000E+02  0.30000000000E+02  0.00000000000E+00 0.  1.
        -11   -1    0    0    0    0 -0.00000000000E+00 -0.00000000000E+00 -0.30000000000E+02  0.30000000000E+02  0.00000000000E+00 0. -1.
         23    2    1    2    0    0  0.00000000000E+00  0.00000000000E+00  0.00000000000E+00  0.60000000000E+02  0.60000000000E+02 0.  0.
          5    1    3    3  501    0  0.10868389198E+02  0.92835777751E+01 -0.25953868689E+02  0.30000000000E+02  0.47000000000E+01 0. -1.
         -5    1    3    3    0  501 -0.10868389198E+02 -0.92835777751E+01  0.25953868689E+02  0.30000000000E+02  0.47000000000E+01 0.  1.
</event>
<event>
 5    1  0.7959189E-002  0.6000000E+02  0.7546771E-02  0.1259629E+00
         11   -1    0    0    0    0  0.00000000000E+00  0.00000000000E+00  0.30000000000E+02  0.30000000000E+02  0.00000000000E+00 0. -1.
        -11   -1    0    0    0    0 -0.00000000000E+00 -0.00000000000E+00 -0.30000000000E+02  0.30000000000E+02  0.00000000000E+00 0.  1.
         23    2    1    2    0    0  0.00000000000E+00  0.00000000000E+00  0.00000000000E+00  0.60000000000E+02  0.60000000000E+02 0.  0.
          5    1    3    3  501    0  0.26927652260E+02  0.42241570542E+01 -0.11617574659E+02  0.30000000000E+02  0.47000000000E+01 0.  1.
         -5    1    3    3    0  501 -0.26927652260E+02 -0.42241570542E+01  0.11617574659E+02  0.30000000000E+02  0.47000000000E+01 0. -1.
</event>
<event>
 5    1  0.7959189E-002  0.6000000E+02  0.7546771E-02  0.1259629E+00
         11   -1    0    0    0    0  0.00000000000E+00  0.00000000000E+00  0.30000000000E+02  0.30000000000E+02  0.00000000000E+00 0.  1.
        -11   -1    0    0    0    0 -0.00000000000E+00 -0.00000000000E+00 -0.30000000000E+02  0.30000000000E+02  0.00000000000E+00 0. -1.
         23    2    1    2    0    0  0.00000000000E+00  0.00000000000E+00  0.00000000000E+00  0.60000000000E+02  0.60000000000E+02 0.  0.
          5    1    3    3  501    0  0.17294217627E+02  0.19953512958E+02 -0.13441627778E+02  0.30000000000E+02  0.47000000000E+01 0. -1.
         -5    1    3    3    0  501 -0.17294217627E+02 -0.19953512958E+02  0.13441627778E+02  0.30000000000E+02  0.47000000000E+01 0.  1.
</event>
<event>
 5    1  0.7959189E-002  0.6000000E+02  0.7546771E-02  0.1259629E+00
         11   -1    0    0    0    0  0.00000000000E+00  0.00000000000E+00  0.30000000000E+02  0.30000000000E+02  0.00000000000E+00 0.  1.
        -11   -1    0    0    0    0 -0.00000000000E+00 -0.00000000000E+00 -0.30000000000E+02  0.30000000000E+02  0.00000000000E+00 0. -1.
         23    2    1    2    0    0  0.00000000000E+00  0.00000000000E+00  0.00000000000E+00  0.60000000000E+02  0.60000000000E+02 0.  0.
          5    1    3    3  501    0  0.29605300687E+02  0.10193054383E+01  0.63022823630E+00  0.30000000000E+02  0.47000000000E+01 0. -1.
         -5    1    3    3    0  501 -0.29605300687E+02 -0.10193054383E+01 -0.63022823630E+00  0.30000000000E+02  0.47000000000E+01 0.  1.
</event>
<event>
 5    1  0.7959189E-002  0.6000000E+02  0.7546771E-02  0.1259629E+00
         11   -1    0    0    0    0  0.00000000000E+00  0.00000000000E+00  0.30000000000E+02  0.30000000000E+02  0.00000000000E+00 0.  1.
        -11   -1    0    0    0    0 -0.00000000000E+00 -0.00000000000E+00 -0.30000000000E+02  0.30000000000E+02  0.00000000000E+00 0. -1.
         23    2    1    2    0    0  0.00000000000E+00  0.00000000000E+00  0.00000000000E+00  0.60000000000E+02  0.60000000000E+02 0.  0.
          5    1    3    3  501    0 -0.91039251573E+01 -0.93528103124E+01  0.26599877556E+02  0.30000000000E+02  0.47000000000E+01 0.  1.
         -5    1    3    3    0  501  0.91039251573E+01  0.93528103124E+01 -0.26599877556E+02  0.30000000000E+02  0.47000000000E+01 0. -1.
</event>
<event>
 5    1  0.7959189E-002  0.6000000E+02  0.7546771E-02  0.1259629E+00
         11   -1    0    0    0    0  0.00000000000E+00  0.00000000000E+00  0.30000000000E+02  0.30000000000E+02  0.00000000000E+00 0.  1.
        -11   -1    0    0    0    0 -0.00000000000E+00 -0.00000000000E+00 -0.30000000000E+02  0.30000000000E+02  0.00000000000E+00 0. -1.
         23    2    1    2    0    0  0.00000000000E+00  0.00000000000E+00  0.00000000000E+00  0.60000000000E+02  0.60000000000E+02 0.  0.
          5    1    3    3  501    0  0.53362102249E+01 -0.30032383086E+01 -0.28989919284E+02  0.30000000000E+02  0.47000000000E+01 0. -1.
         -5    1    3    3    0  501 -0.53362102249E+01  0.30032383086E+01  0.28989919284E+02  0.30000000000E+02  0.47000000000E+01 0.  1.
</event>
<event>
 5    1  0.7959189E-002  0.6000000E+02  0.7546771E-02  0.1259629E+00
         11   -1    0    0    0    0  0.00000000000E+00  0.00000000000E+00  0.30000000000E+02  0.30000000000E+02  0.00000000000E+00 0.  1.
        -11   -1    0    0    0    0 -0.00000000000E+00 -0.00000000000E+00 -0.30000000000E+02  0.30000000000E+02  0.00000000000E+00 0. -1.
         23    2    1    2    0    0  0.00000000000E+00  0.00000000000E+00  0.00000000000E+00  0.60000000000E+02  0.60000000000E+02 0.  0.
          5    1    3    3  501    0  0.44859307735E+01  0.35376209919E+01 -0.29073556074E+02  0.30000000000E+02  0.47000000000E+01 0. -1.
         -5    1    3    3    0  501 -0.44859307735E+01 -0.35376209919E+01  0.29073556074E+02  0.30000000000E+02  0.47000000000E+01 0.  1.
</event>
<event>
 5    1  0.7959189E-002  0.6000000E+02  0.7546771E-02  0.1259629E+00
         11   -1    0    0    0    0  0.00000000000E+00  0.00000000000E+00  0.30000000000E+02  0.30000000000E+02  0.00000000000E+00 0. -1.
        -11   -1    0    0    0    0 -0.00000000000E+00 -0.00000000000E+00 -0.30000000000E+02  0.30000000000E+02  0.00000000000E+00 0.  1.
         23    2    1    2    0    0  0.00000000000E+00  0.00000000000E+00  0.00000000000E+00  0.60000000000E+02  0.60000000000E+02 0.  0.
          5    1    3    3  501    0 -0.17506823661E+02  0.21546398087E+02 -0.10352480609E+02  0.30000000000E+02  0.47000000000E+01 0.  1.
         -5    1    3    3    0  501  0.17506823661E+02 -0.21546398087E+02  0.10352480609E+02  0.30000000000E+02  0.47000000000E+01 0. -1.
</event>
<event>
 5    1  0.7959189E-002  0.6000000E+02  0.7546771E-02  0.1259629E+00
         11   -1    0    0    0    0  0.00000000000E+00  0.00000000000E+00  0.30000000000E+02  0.30000000000E+02  0.00000000000E+00 0.  1.
        -11   -1    0    0    0    0 -0.00000000000E+00 -0.00000000000E+00 -0.30000000000E+02  0.30000000000E+02  0.00000000000E+00 0. -1.
         23    2    1    2    0    0  0.00000000000E+00  0.00000000000E+00  0.00000000000E+00  0.60000000000E+02  0.60000000000E+02 0.  0.
          5    1    3    3  501    0  0.81258449426E+00 -0.24538443307E+02 -0.16586576093E+02  0.30000000000E+02  0.47000000000E+01 0. -1.
         -5    1    3    3    0  501 -0.81258449426E+00  0.24538443307E+02  0.16586576093E+02  0.30000000000E+02  0.47000000000E+01 0.  1.
</event>
<event>
 5    1  0.7959189E-002  0.6000000E+02  0.7546771E-02  0.1259629E+00
         11   -1    0    0    0    0  0.00000000000E+00  0.00000000000E+00  0.30000000000E+02  0.30000000000E+02  0.00000000000E+00 0. -1.
        -11   -1    0    0    0    0 -0.00000000000E+00 -0.00000000000E+00 -0.30000000000E+02  0.30000000000E+02  0.00000000000E+00 0.  1.
         23    2    1    2    0    0  0.00000000000E+00  0.00000000000E+00  0.00000000000E+00  0.60000000000E+02  0.60000000000E+02 0.  0.
          5    1    3    3  501    0  0.82494865531E+01  0.28456735728E+02  0.26488355200E+00  0.30000000000E+02  0.47000000000E+01 0.  1.
         -5    1    3    3    0  501 -0.82494865531E+01 -0.28456735728E+02 -0.26488355200E+00  0.30000000000E+02  0.47000000000E+01 0. -1.
</event>
<event>
 5    1  0.7959189E-002  0.6000000E+02  0.7546771E-02  0.1259629E+00
         11   -1    0    0    0    0  0.00000000000E+00  0.00000000000E+00  0.30000000000E+02  0.30000000000E+02  0.00000000000E+00 0.  1.
        -11   -1    0    0    0    0 -0.00000000000E+00 -0.00000000000E+00 -0.30000000000E+02  0.30000000000E+02  0.00000000000E+00 0. -1.
         23    2    1    2    0    0  0.00000000000E+00  0.00000000000E+00  0.00000000000E+00  0.60000000000E+02  0.60000000000E+02 0.  0.
          5    1    3    3  501    0  0.35172758263E+01  0.15305215791E+02  0.25125467963E+02  0.30000000000E+02  0.47000000000E+01 0.  1.
         -5    1    3    3    0  501 -0.35172758263E+01 -0.15305215791E+02 -0.25125467963E+02  0.30000000000E+02  0.47000000000E+01 0. -1.
</event>
<event>
 5    1  0.7959189E-002  0.6000000E+02  0.7546771E-02  0.1259629E+00
         11   -1    0    0    0    0  0.00000000000E+00  0.00000000000E+00  0.30000000000E+02  0.30000000000E+02  0.00000000000E+00 0.  1.
        -11   -1    0    0    0    0 -0.00000000000E+00 -0.00000000000E+00 -0.30000000000E+02  0.30000000000E+02  0.00000000000E+00 0. -1.
         23    2    1    2    0    0  0.00000000000E+00  0.00000000000E+00  0.00000000000E+00  0.60000000000E+02  0.60000000000E+02 0.  0.
          5    1    3    3  501    0 -0.23797358931E+02  0.17469180711E+02 -0.25344492829E+01  0.30000000000E+02  0.47000000000E+01 0. -1.
         -5    1    3    3    0  501  0.23797358931E+02 -0.17469180711E+02  0.25344492829E+01  0.30000000000E+02  0.47000000000E+01 0.  1.
</event>
<event>
 5    1  0.7959189E-002  0.6000000E+02  0.7546771E-02  0.1259629E+00
         11   -1    0    0    0    0  0.00000000000E+00  0.00000000000E+00  0.30000000000E+02  0.30000000000E+02  0.00000000000E+00 0. -1.
        -11   -1    0    0    0    0 -0.00000000000E+00 -0.00000000000E+00 -0.30000000000E+02  0.30000000000E+02  0.00000000000E+00 0.  1.
         23    2    1    2    0    0  0.00000000000E+00  0.00000000000E+00  0.00000000000E+00  0.60000000000E+02  0.60000000000E+02 0.  0.
          5    1    3    3  501    0 -0.15873615763E+02 -0.22603262418E+02 -0.10725243619E+02  0.30000000000E+02  0.47000000000E+01 0.  1.
         -5    1    3    3    0  501  0.15873615763E+02  0.22603262418E+02  0.10725243619E+02  0.30000000000E+02  0.47000000000E+01 0. -1.
</event>
<event>
 5    1  0.7959189E-002  0.6000000E+02  0.7546771E-02  0.1259629E+00
         11   -1    0    0    0    0  0.00000000000E+00  0.00000000000E+00  0.30000000000E+02  0.30000000000E+02  0.00000000000E+00 0.  1.
        -11   -1    0    0    0    0 -0.00000000000E+00 -0.00000000000E+00 -0.30000000000E+02  0.30000000000E+02  0.00000000000E+00 0. -1.
         23    2    1    2    0    0  0.00000000000E+00  0.00000000000E+00  0.00000000000E+00  0.60000000000E+02  0.60000000000E+02 0.  0.
          5    1    3    3  501    0 -0.14995556017E+02  0.38042924885E+01 -0.25269955647E+02  0.30000000000E+02  0.47000000000E+01 0. -1.
         -5    1    3    3    0  501  0.14995556017E+02 -0.38042924885E+01  0.25269955647E+02  0.30000000000E+02  0.47000000000E+01 0.  1.
</event>
<event>
 5    1  0.7959189E-002  0.6000000E+02  0.7546771E-02  0.1259629E+00
         11   -1    0    0    0    0  0.00000000000E+00  0.00000000000E+00  0.30000000000E+02  0.30000000000E+02  0.00000000000E+00 0.  1.
        -11   -1    0    0    0    0 -0.00000000000E+00 -0.00000000000E+00 -0.30000000000E+02  0.30000000000E+02  0.00000000000E+00 0. -1.
         23    2    1    2    0    0  0.00000000000E+00  0.00000000000E+00  0.00000000000E+00  0.60000000000E+02  0.60000000000E+02 0.  0.
          5    1    3    3  501    0  0.57594442191E+01 -0.90882457676E+01 -0.27606930129E+02  0.30000000000E+02  0.47000000000E+01 0. -1.
         -5    1    3    3    0  501 -0.57594442191E+01  0.90882457676E+01  0.27606930129E+02  0.30000000000E+02  0.47000000000E+01 0.  1.
</event>
<event>
 5    1  0.7959189E-002  0.6000000E+02  0.7546771E-02  0.1259629E+00
         11   -1    0    0    0    0  0.00000000000E+00  0.00000000000E+00  0.30000000000E+02  0.30000000000E+02  0.00000000000E+00 0.  1.
        -11   -1    0    0    0    0 -0.00000000000E+00 -0.00000000000E+00 -0.30000000000E+02  0.30000000000E+02  0.00000000000E+00 0. -1.
         23    2    1    2    0    0  0.00000000000E+00  0.00000000000E+00  0.00000000000E+00  0.60000000000E+02  0.60000000000E+02 0.  0.
          5    1    3    3  501    0 -0.19603319747E+01  0.98100019182E+01 -0.27889621025E+02  0.30000000000E+02  0.47000000000E+01 0. -1.
         -5    1    3    3    0  501  0.19603319747E+01 -0.98100019182E+01  0.27889621025E+02  0.30000000000E+02  0.47000000000E+01 0.  1.
</event>
<event>
 5    1  0.7959189E-002  0.6000000E+02  0.7546771E-02  0.1259629E+00
         11   -1    0    0    0    0  0.00000000000E+00  0.00000000000E+00  0.30000000000E+02  0.30000000000E+02  0.00000000000E+00 0.  1.
        -11   -1    0    0    0    0 -0.00000000000E+00 -0.00000000000E+00 -0.30000000000E+02  0.30000000000E+02  0.00000000000E+00 0. -1.
         23    2    1    2    0    0  0.00000000000E+00  0.00000000000E+00  0.00000000000E+00  0.60000000000E+02  0.60000000000E+02 0.  0.
          5    1    3    3  501    0 -0.25750119956E+02  0.42987895635E+01 -0.14012912992E+02  0.30000000000E+02  0.47000000000E+01 0. -1.
         -5    1    3    3    0  501  0.25750119956E+02 -0.42987895635E+01  0.14012912992E+02  0.30000000000E+02  0.47000000000E+01 0.  1.
</event>
<event>
 5    1  0.7959189E-002  0.6000000E+02  0.7546771E-02  0.1259629E+00
         11   -1    0    0    0    0  0.00000000000E+00  0.00000000000E+00  0.30000000000E+02  0.30000000000E+02  0.00000000000E+00 0.  1.
        -11   -1    0    0    0    0 -0.00000000000E+00 -0.00000000000E+00 -0.30000000000E+02  0.30000000000E+02  0.00000000000E+00 0. -1.
         23    2    1    2    0    0  0.00000000000E+00  0.00000000000E+00  0.00000000000E+00  0.60000000000E+02  0.60000000000E+02 0.  0.
          5    1    3    3  501    0  0.15718578371E+02 -0.25116067095E+02  0.13952656248E+00  0.30000000000E+02  0.47000000000E+01 0. -1.
         -5    1    3    3    0  501 -0.15718578371E+02  0.25116067095E+02 -0.13952656248E+00  0.30000000000E+02  0.47000000000E+01 0.  1.
</event>
<event>
 5    1  0.7959189E-002  0.6000000E+02  0.7546771E-02  0.1259629E+00
         11   -1    0    0    0    0  0.00000000000E+00  0.00000000000E+00  0.30000000000E+02  0.30000000000E+02  0.00000000000E+00 0.  1.
        -11   -1    0    0    0    0 -0.00000000000E+00 -0.00000000000E+00 -0.30000000000E+02  0.30000000000E+02  0.00000000000E+00 0. -1.
         23    2    1    2    0    0  0.00000000000E+00  0.00000000000E+00  0.00000000000E+00  0.60000000000E+02  0.60000000000E+02 0.  0.
          5    1    3    3  501    0  0.84442849269E+01  0.27680403454E+02 -0.63560456787E+01  0.30000000000E+02  0.47000000000E+01 0. -1.
         -5    1    3    3    0  501 -0.84442849269E+01 -0.27680403454E+02  0.63560456787E+01  0.30000000000E+02  0.47000000000E+01 0.  1.
</event>
<event>
 5    1  0.7959189E-002  0.6000000E+02  0.7546771E-02  0.1259629E+00
         11   -1    0    0    0    0  0.00000000000E+00  0.00000000000E+00  0.30000000000E+02  0.30000000000E+02  0.00000000000E+00 0.  1.
        -11   -1    0    0    0    0 -0.00000000000E+00 -0.00000000000E+00 -0.30000000000E+02  0.30000000000E+02  0.00000000000E+00 0. -1.
         23    2    1    2    0    0  0.00000000000E+00  0.00000000000E+00  0.00000000000E+00  0.60000000000E+02  0.60000000000E+02 0.  0.
          5    1    3    3  501    0 -0.12316527249E+02  0.26898981576E+02 -0.16303210382E+01  0.30000000000E+02  0.47000000000E+01 0. -1.
         -5    1    3    3    0  501  0.12316527249E+02 -0.26898981576E+02  0.16303210382E+01  0.30000000000E+02  0.47000000000E+01 0.  1.
</event>
<event>
 5    1  0.7959189E-002  0.6000000E+02  0.7546771E-02  0.1259629E+00
         11   -1    0    0    0    0  0.00000000000E+00  0.00000000000E+00  0.30000000000E+02  0.30000000000E+02  0.00000000000E+00 0.  1.
        -11   -1    0    0    0    0 -0.00000000000E+00 -0.00000000000E+00 -0.30000000000E+02  0.30000000000E+02  0.00000000000E+00 0. -1.
         23    2    1    2    0    0  0.00000000000E+00  0.00000000000E+00  0.00000000000E+00  0.60000000000E+02  0.60000000000E+02 0.  0.
          5    1    3    3  501    0 -0.69527848935E+01  0.35432702127E+01 -0.28583457076E+02  0.30000000000E+02  0.47000000000E+01 0. -1.
         -5    1    3    3    0  501  0.69527848935E+01 -0.35432702127E+01  0.28583457076E+02  0.30000000000E+02  0.47000000000E+01 0.  1.
</event>
<event>
 5    1  0.7959189E-002  0.6000000E+02  0.7546771E-02  0.1259629E+00
         11   -1    0    0    0    0  0.00000000000E+00  0.00000000000E+00  0.30000000000E+02  0.30000000000E+02  0.00000000000E+00 0. -1.
        -11   -1    0    0    0    0 -0.00000000000E+00 -0.00000000000E+00 -0.30000000000E+02  0.30000000000E+02  0.00000000000E+00 0.  1.
         23    2    1    2    0    0  0.00000000000E+00  0.00000000000E+00  0.00000000000E+00  0.60000000000E+02  0.60000000000E+02 0.  0.
          5    1    3    3  501    0 -0.87590765686E+00  0.95780206819E+01 -0.28025065666E+02  0.30000000000E+02  0.47000000000E+01 0.  1.
         -5    1    3    3    0  501  0.87590765686E+00 -0.95780206819E+01  0.28025065666E+02  0.30000000000E+02  0.47000000000E+01 0. -1.
</event>
<event>
 5    1  0.7959189E-002  0.6000000E+02  0.7546771E-02  0.1259629E+00
         11   -1    0    0    0    0  0.00000000000E+00  0.00000000000E+00  0.30000000000E+02  0.30000000000E+02  0.00000000000E+00 0. -1.
        -11   -1    0    0    0    0 -0.00000000000E+00 -0.00000000000E+00 -0.30000000000E+02  0.30000000000E+02  0.00000000000E+00 0.  1.
         23    2    1    2    0    0  0.00000000000E+00  0.00000000000E+00  0.00000000000E+00  0.60000000000E+02  0.60000000000E+02 0.  0.
          5    1    3    3  501    0  0.80407649861E+01  0.24459100856E+02  0.14663167589E+02  0.30000000000E+02  0.47000000000E+01 0. -1.
         -5    1    3    3    0  501 -0.80407649861E+01 -0.24459100856E+02 -0.14663167589E+02  0.30000000000E+02  0.47000000000E+01 0.  1.
</event>
<event>
 5    1  0.7959189E-002  0.6000000E+02  0.7546771E-02  0.1259629E+00
         11   -1    0    0    0    0  0.00000000000E+00  0.00000000000E+00  0.30000000000E+02  0.30000000000E+02  0.00000000000E+00 0.  1.
        -11   -1    0    0    0    0 -0.00000000000E+00 -0.00000000000E+00 -0.30000000000E+02  0.30000000000E+02  0.00000000000E+00 0. -1.
         23    2    1    2    0    0  0.00000000000E+00  0.00000000000E+00  0.00000000000E+00  0.60000000000E+02  0.60000000000E+02 0.  0.
          5    1    3    3  501    0  0.30674154080E+01 -0.20424743508E+02 -0.21244547897E+02  0.30000000000E+02  0.47000000000E+01 0. -1.
         -5    1    3    3    0  501 -0.30674154080E+01  0.20424743508E+02  0.21244547897E+02  0.30000000000E+02  0.47000000000E+01 0.  1.
</event>
<event>
 5    1  0.7959189E-002  0.6000000E+02  0.7546771E-02  0.1259629E+00
         11   -1    0    0    0    0  0.00000000000E+00  0.00000000000E+00  0.30000000000E+02  0.30000000000E+02  0.00000000000E+00 0.  1.
        -11   -1    0    0    0    0 -0.00000000000E+00 -0.00000000000E+00 -0.30000000000E+02  0.30000000000E+02  0.00000000000E+00 0. -1.
         23    2    1    2    0    0  0.00000000000E+00  0.00000000000E+00  0.00000000000E+00  0.60000000000E+02  0.60000000000E+02 0.  0.
          5    1    3    3  501    0 -0.20740412919E+02  0.57196812783E+00 -0.21152260504E+02  0.30000000000E+02  0.47000000000E+01 0. -1.
         -5    1    3    3    0  501  0.20740412919E+02 -0.57196812783E+00  0.21152260504E+02  0.30000000000E+02  0.47000000000E+01 0.  1.
</event>
<event>
 5    1  0.7959189E-002  0.6000000E+02  0.7546771E-02  0.1259629E+00
         11   -1    0    0    0    0  0.00000000000E+00  0.00000000000E+00  0.30000000000E+02  0.30000000000E+02  0.00000000000E+00 0.  1.
        -11   -1    0    0    0    0 -0.00000000000E+00 -0.00000000000E+00 -0.30000000000E+02  0.30000000000E+02  0.00000000000E+00 0. -1.
         23    2    1    2    0    0  0.00000000000E+00  0.00000000000E+00  0.00000000000E+00  0.60000000000E+02  0.60000000000E+02 0.  0.
          5    1    3    3  501    0  0.18159631918E+02 -0.19243490804E+01 -0.23333123435E+02  0.30000000000E+02  0.47000000000E+01 0. -1.
         -5    1    3    3    0  501 -0.18159631918E+02  0.19243490804E+01  0.23333123435E+02  0.30000000000E+02  0.47000000000E+01 0.  1.
</event>
<event>
 5    1  0.7959189E-002  0.6000000E+02  0.7546771E-02  0.1259629E+00
         11   -1    0    0    0    0  0.00000000000E+00  0.00000000000E+00  0.30000000000E+02  0.30000000000E+02  0.00000000000E+00 0.  1.
        -11   -1    0    0    0    0 -0.00000000000E+00 -0.00000000000E+00 -0.30000000000E+02  0.30000000000E+02  0.00000000000E+00 0. -1.
         23    2    1    2    0    0  0.00000000000E+00  0.00000000000E+00  0.00000000000E+00  0.60000000000E+02  0.60000000000E+02 0.  0.
          5    1    3    3  501    0 -0.50328795872E+01 -0.23333595288E+02 -0.17553445645E+02  0.30000000000E+02  0.47000000000E+01 0. -1.
         -5    1    3    3    0  501  0.50328795872E+01  0.23333595288E+02  0.17553445645E+02  0.30000000000E+02  0.47000000000E+01 0.  1.
</event>
<event>
 5    1  0.7959189E-002  0.6000000E+02  0.7546771E-02  0.1259629E+00
         11   -1    0    0    0    0  0.00000000000E+00  0.00000000000E+00  0.30000000000E+02  0.30000000000E+02  0.00000000000E+00 0.  1.
        -11   -1    0    0    0    0 -0.00000000000E+00 -0.00000000000E+00 -0.30000000000E+02  0.30000000000E+02  0.00000000000E+00 0. -1.
         23    2    1    2    0    0  0.00000000000E+00  0.00000000000E+00  0.00000000000E+00  0.60000000000E+02  0.60000000000E+02 0.  0.
          5    1    3    3  501    0  0.15305106621E+02 -0.70994417422E+01 -0.24356962830E+02  0.30000000000E+02  0.47000000000E+01 0. -1.
         -5    1    3    3    0  501 -0.15305106621E+02  0.70994417422E+01  0.24356962830E+02  0.30000000000E+02  0.47000000000E+01 0.  1.
</event>
<event>
 5    1  0.7959189E-002  0.6000000E+02  0.7546771E-02  0.1259629E+00
         11   -1    0    0    0    0  0.00000000000E+00  0.00000000000E+00  0.30000000000E+02  0.30000000000E+02  0.00000000000E+00 0.  1.
        -11   -1    0    0    0    0 -0.00000000000E+00 -0.00000000000E+00 -0.30000000000E+02  0.30000000000E+02  0.00000000000E+00 0. -1.
         23    2    1    2    0    0  0.00000000000E+00  0.00000000000E+00  0.00000000000E+00  0.60000000000E+02  0.60000000000E+02 0.  0.
          5    1    3    3  501    0  0.13171051705E+02  0.25030161816E+02 -0.88274796196E+01  0.30000000000E+02  0.47000000000E+01 0. -1.
         -5    1    3    3    0  501 -0.13171051705E+02 -0.25030161816E+02  0.88274796196E+01  0.30000000000E+02  0.47000000000E+01 0.  1.
</event>
<event>
 5    1  0.7959189E-002  0.6000000E+02  0.7546771E-02  0.1259629E+00
         11   -1    0    0    0    0  0.00000000000E+00  0.00000000000E+00  0.30000000000E+02  0.30000000000E+02  0.00000000000E+00 0. -1.
        -11   -1    0    0    0    0 -0.00000000000E+00 -0.00000000000E+00 -0.30000000000E+02  0.30000000000E+02  0.00000000000E+00 0.  1.
         23    2    1    2    0    0  0.00000000000E+00  0.00000000000E+00  0.00000000000E+00  0.60000000000E+02  0.60000000000E+02 0.  0.
          5    1    3    3  501    0  0.48106582018E+01  0.61481165147E+01  0.28582656122E+02  0.30000000000E+02  0.47000000000E+01 0. -1.
         -5    1    3    3    0  501 -0.48106582018E+01 -0.61481165147E+01 -0.28582656122E+02  0.30000000000E+02  0.47000000000E+01 0.  1.
</event>
<event>
 5    1  0.7959189E-002  0.6000000E+02  0.7546771E-02  0.1259629E+00
         11   -1    0    0    0    0  0.00000000000E+00  0.00000000000E+00  0.30000000000E+02  0.30000000000E+02  0.00000000000E+00 0.  1.
        -11   -1    0    0    0    0 -0.00000000000E+00 -0.00000000000E+00 -0.30000000000E+02  0.30000000000E+02  0.00000000000E+00 0. -1.
         23    2    1    2    0    0  0.00000000000E+00  0.00000000000E+00  0.00000000000E+00  0.60000000000E+02  0.60000000000E+02 0.  0.
          5    1    3    3  501    0 -0.25862530692E+02  0.13584484829E+02  0.49498765773E+01  0.30000000000E+02  0.47000000000E+01 0. -1.
         -5    1    3    3    0  501  0.25862530692E+02 -0.13584484829E+02 -0.49498765773E+01  0.30000000000E+02  0.47000000000E+01 0.  1.
</event>
<event>
 5    1  0.7959189E-002  0.6000000E+02  0.7546771E-02  0.1259629E+00
         11   -1    0    0    0    0  0.00000000000E+00  0.00000000000E+00  0.30000000000E+02  0.30000000000E+02  0.00000000000E+00 0. -1.
        -11   -1    0    0    0    0 -0.00000000000E+00 -0.00000000000E+00 -0.30000000000E+02  0.30000000000E+02  0.00000000000E+00 0.  1.
         23    2    1    2    0    0  0.00000000000E+00  0.00000000000E+00  0.00000000000E+00  0.60000000000E+02  0.60000000000E+02 0.  0.
          5    1    3    3  501    0  0.17639960190E+02  0.42416932632E+01 -0.23425410194E+02  0.30000000000E+02  0.47000000000E+01 0.  1.
         -5    1    3    3    0  501 -0.17639960190E+02 -0.42416932632E+01  0.23425410194E+02  0.30000000000E+02  0.47000000000E+01 0. -1.
</event>
<event>
 5    1  0.7959189E-002  0.6000000E+02  0.7546771E-02  0.1259629E+00
         11   -1    0    0    0    0  0.00000000000E+00  0.00000000000E+00  0.30000000000E+02  0.30000000000E+02  0.00000000000E+00 0.  1.
        -11   -1    0    0    0    0 -0.00000000000E+00 -0.00000000000E+00 -0.30000000000E+02  0.30000000000E+02  0.00000000000E+00 0. -1.
         23    2    1    2    0    0  0.00000000000E+00  0.00000000000E+00  0.00000000000E+00  0.60000000000E+02  0.60000000000E+02 0.  0.
          5    1    3    3  501    0 -0.93808257026E+00 -0.23616488332E+02 -0.17868729109E+02  0.30000000000E+02  0.47000000000E+01 0. -1.
         -5    1    3    3    0  501  0.93808257026E+00  0.23616488332E+02  0.17868729109E+02  0.30000000000E+02  0.47000000000E+01 0.  1.
</event>
<event>
 5    1  0.7959189E-002  0.6000000E+02  0.7546771E-02  0.1259629E+00
         11   -1    0    0    0    0  0.00000000000E+00  0.00000000000E+00  0.30000000000E+02  0.30000000000E+02  0.00000000000E+00 0.  1.
        -11   -1    0    0    0    0 -0.00000000000E+00 -0.00000000000E+00 -0.30000000000E+02  0.30000000000E+02  0.00000000000E+00 0. -1.
         23    2    1    2    0    0  0.00000000000E+00  0.00000000000E+00  0.00000000000E+00  0.60000000000E+02  0.60000000000E+02 0.  0.
          5    1    3    3  501    0 -0.12856118501E+02  0.50855119324E+00 -0.26690290234E+02  0.30000000000E+02  0.47000000000E+01 0. -1.
         -5    1    3    3    0  501  0.12856118501E+02 -0.50855119324E+00  0.26690290234E+02  0.30000000000E+02  0.47000000000E+01 0.  1.
</event>
<event>
 5    1  0.7959189E-002  0.6000000E+02  0.7546771E-02  0.1259629E+00
         11   -1    0    0    0    0  0.00000000000E+00  0.00000000000E+00  0.30000000000E+02  0.30000000000E+02  0.00000000000E+00 0.  1.
        -11   -1    0    0    0    0 -0.00000000000E+00 -0.00000000000E+00 -0.30000000000E+02  0.30000000000E+02  0.00000000000E+00 0. -1.
         23    2    1    2    0    0  0.00000000000E+00  0.00000000000E+00  0.00000000000E+00  0.60000000000E+02  0.60000000000E+02 0.  0.
          5    1    3    3  501    0  0.11867471670E+02 -0.23380687868E+02 -0.13799150372E+02  0.30000000000E+02  0.47000000000E+01 0. -1.
         -5    1    3    3    0  501 -0.11867471670E+02  0.23380687868E+02  0.13799150372E+02  0.30000000000E+02  0.47000000000E+01 0.  1.
</event>
<event>
 5    1  0.7959189E-002  0.6000000E+02  0.7546771E-02  0.1259629E+00
         11   -1    0    0    0    0  0.00000000000E+00  0.00000000000E+00  0.30000000000E+02  0.30000000000E+02  0.00000000000E+00 0.  1.
        -11   -1    0    0    0    0 -0.00000000000E+00 -0.00000000000E+00 -0.30000000000E+02  0.30000000000E+02  0.00000000000E+00 0. -1.
         23    2    1    2    0    0  0.00000000000E+00  0.00000000000E+00  0.00000000000E+00  0.60000000000E+02  0.60000000000E+02 0.  0.
          5    1    3    3  501    0 -0.18574805193E+01 -0.13996776153E+02 -0.26048992753E+02  0.30000000000E+02  0.47000000000E+01 0. -1.
         -5    1    3    3    0  501  0.18574805193E+01  0.13996776153E+02  0.26048992753E+02  0.30000000000E+02  0.47000000000E+01 0.  1.
</event>
<event>
 5    1  0.7959189E-002  0.6000000E+02  0.7546771E-02  0.1259629E+00
         11   -1    0    0    0    0  0.00000000000E+00  0.00000000000E+00  0.30000000000E+02  0.30000000000E+02  0.00000000000E+00 0.  1.
        -11   -1    0    0    0    0 -0.00000000000E+00 -0.00000000000E+00 -0.30000000000E+02  0.30000000000E+02  0.00000000000E+00 0. -1.
         23    2    1    2    0    0  0.00000000000E+00  0.00000000000E+00  0.00000000000E+00  0.60000000000E+02  0.60000000000E+02 0.  0.
          5    1    3    3  501    0 -0.82436938792E+01 -0.20741289850E+02 -0.19487185702E+02  0.30000000000E+02  0.47000000000E+01 0. -1.
         -5    1    3    3    0  501  0.82436938792E+01  0.20741289850E+02  0.19487185702E+02  0.30000000000E+02  0.47000000000E+01 0.  1.
</event>
<event>
 5    1  0.7959189E-002  0.6000000E+02  0.7546771E-02  0.1259629E+00
         11   -1    0    0    0    0  0.00000000000E+00  0.00000000000E+00  0.30000000000E+02  0.30000000000E+02  0.00000000000E+00 0.  1.
        -11   -1    0    0    0    0 -0.00000000000E+00 -0.00000000000E+00 -0.30000000000E+02  0.30000000000E+02  0.00000000000E+00 0. -1.
         23    2    1    2    0    0  0.00000000000E+00  0.00000000000E+00  0.00000000000E+00  0.60000000000E+02  0.60000000000E+02 0.  0.
          5    1    3    3  501    0 -0.14092300345E+02 -0.22179402431E+02  0.13689089773E+02  0.30000000000E+02  0.47000000000E+01 0. -1.
         -5    1    3    3    0  501  0.14092300345E+02  0.22179402431E+02 -0.13689089773E+02  0.30000000000E+02  0.47000000000E+01 0.  1.
</event>
<event>
 5    1  0.7959189E-002  0.6000000E+02  0.7546771E-02  0.1259629E+00
         11   -1    0    0    0    0  0.00000000000E+00  0.00000000000E+00  0.30000000000E+02  0.30000000000E+02  0.00000000000E+00 0.  1.
        -11   -1    0    0    0    0 -0.00000000000E+00 -0.00000000000E+00 -0.30000000000E+02  0.30000000000E+02  0.00000000000E+00 0. -1.
         23    2    1    2    0    0  0.00000000000E+00  0.00000000000E+00  0.00000000000E+00  0.60000000000E+02  0.60000000000E+02 0.  0.
          5    1    3    3  501    0  0.11176424801E+02 -0.19151462471E+02  0.19652455670E+02  0.30000000000E+02  0.47000000000E+01 0. -1.
         -5    1    3    3    0  501 -0.11176424801E+02  0.19151462471E+02 -0.19652455670E+02  0.30000000000E+02  0.47000000000E+01 0.  1.
</event>
<event>
 5    1  0.7959189E-002  0.6000000E+02  0.7546771E-02  0.1259629E+00
         11   -1    0    0    0    0  0.00000000000E+00  0.00000000000E+00  0.30000000000E+02  0.30000000000E+02  0.00000000000E+00 0. -1.
        -11   -1    0    0    0    0 -0.00000000000E+00 -0.00000000000E+00 -0.30000000000E+02  0.30000000000E+02  0.00000000000E+00 0.  1.
         23    2    1    2    0    0  0.00000000000E+00  0.00000000000E+00  0.00000000000E+00  0.60000000000E+02  0.60000000000E+02 0.  0.
          5    1    3    3  501    0  0.21122704649E+02 -0.28286647139E+01 -0.20584946059E+02  0.30000000000E+02  0.47000000000E+01 0.  1.
         -5    1    3    3    0  501 -0.21122704649E+02  0.28286647139E+01  0.20584946059E+02  0.30000000000E+02  0.47000000000E+01 0. -1.
</event>
<event>
 5    1  0.7959189E-002  0.6000000E+02  0.7546771E-02  0.1259629E+00
         11   -1    0    0    0    0  0.00000000000E+00  0.00000000000E+00  0.30000000000E+02  0.30000000000E+02  0.00000000000E+00 0.  1.
        -11   -1    0    0    0    0 -0.00000000000E+00 -0.00000000000E+00 -0.30000000000E+02  0.30000000000E+02  0.00000000000E+00 0. -1.
         23    2    1    2    0    0  0.00000000000E+00  0.00000000000E+00  0.00000000000E+00  0.60000000000E+02  0.60000000000E+02 0.  0.
          5    1    3    3  501    0 -0.89039498625E+01  0.27985548775E+02 -0.39292157740E+01  0.30000000000E+02  0.47000000000E+01 0. -1.
         -5    1    3    3    0  501  0.89039498625E+01 -0.27985548775E+02  0.39292157740E+01  0.30000000000E+02  0.47000000000E+01 0.  1.
</event>
<event>
 5    1  0.7959189E-002  0.6000000E+02  0.7546771E-02  0.1259629E+00
         11   -1    0    0    0    0  0.00000000000E+00  0.00000000000E+00  0.30000000000E+02  0.30000000000E+02  0.00000000000E+00 0.  1.
        -11   -1    0    0    0    0 -0.00000000000E+00 -0.00000000000E+00 -0.30000000000E+02  0.30000000000E+02  0.00000000000E+00 0. -1.
         23    2    1    2    0    0  0.00000000000E+00  0.00000000000E+00  0.00000000000E+00  0.60000000000E+02  0.60000000000E+02 0.  0.
          5    1    3    3  501    0  0.12299025287E+02 -0.83217554094E+01 -0.25639663880E+02  0.30000000000E+02  0.47000000000E+01 0. -1.
         -5    1    3    3    0  501 -0.12299025287E+02  0.83217554094E+01  0.25639663880E+02  0.30000000000E+02  0.47000000000E+01 0.  1.
</event>
<event>
 5    1  0.7959189E-002  0.6000000E+02  0.7546771E-02  0.1259629E+00
         11   -1    0    0    0    0  0.00000000000E+00  0.00000000000E+00  0.30000000000E+02  0.30000000000E+02  0.00000000000E+00 0.  1.
        -11   -1    0    0    0    0 -0.00000000000E+00 -0.00000000000E+00 -0.30000000000E+02  0.30000000000E+02  0.00000000000E+00 0. -1.
         23    2    1    2    0    0  0.00000000000E+00  0.00000000000E+00  0.00000000000E+00  0.60000000000E+02  0.60000000000E+02 0.  0.
          5    1    3    3  501    0  0.69521582592E+01 -0.93221223043E+01 -0.27252073890E+02  0.30000000000E+02  0.47000000000E+01 0. -1.
         -5    1    3    3    0  501 -0.69521582592E+01  0.93221223043E+01  0.27252073890E+02  0.30000000000E+02  0.47000000000E+01 0.  1.
</event>
<event>
 5    1  0.7959189E-002  0.6000000E+02  0.7546771E-02  0.1259629E+00
         11   -1    0    0    0    0  0.00000000000E+00  0.00000000000E+00  0.30000000000E+02  0.30000000000E+02  0.00000000000E+00 0. -1.
        -11   -1    0    0    0    0 -0.00000000000E+00 -0.00000000000E+00 -0.30000000000E+02  0.30000000000E+02  0.00000000000E+00 0.  1.
         23    2    1    2    0    0  0.00000000000E+00  0.00000000000E+00  0.00000000000E+00  0.60000000000E+02  0.60000000000E+02 0.  0.
          5    1    3    3  501    0  0.59380951212E+01 -0.24191063238E+02 -0.16044983195E+02  0.30000000000E+02  0.47000000000E+01 0.  1.
         -5    1    3    3    0  501 -0.59380951212E+01  0.24191063238E+02  0.16044983195E+02  0.30000000000E+02  0.47000000000E+01 0. -1.
</event>
<event>
 5    1  0.7959189E-002  0.6000000E+02  0.7546771E-02  0.1259629E+00
         11   -1    0    0    0    0  0.00000000000E+00  0.00000000000E+00  0.30000000000E+02  0.30000000000E+02  0.00000000000E+00 0.  1.
        -11   -1    0    0    0    0 -0.00000000000E+00 -0.00000000000E+00 -0.30000000000E+02  0.30000000000E+02  0.00000000000E+00 0. -1.
         23    2    1    2    0    0  0.00000000000E+00  0.00000000000E+00  0.00000000000E+00  0.60000000000E+02  0.60000000000E+02 0.  0.
          5    1    3    3  501    0  0.11208324091E+02 -0.15044404047E+02 -0.22933586243E+02  0.30000000000E+02  0.47000000000E+01 0. -1.
         -5    1    3    3    0  501 -0.11208324091E+02  0.15044404047E+02  0.22933586243E+02  0.30000000000E+02  0.47000000000E+01 0.  1.
</event>
<event>
 5    1  0.7959189E-002  0.6000000E+02  0.7546771E-02  0.1259629E+00
         11   -1    0    0    0    0  0.00000000000E+00  0.00000000000E+00  0.30000000000E+02  0.30000000000E+02  0.00000000000E+00 0.  1.
        -11   -1    0    0    0    0 -0.00000000000E+00 -0.00000000000E+00 -0.30000000000E+02  0.30000000000E+02  0.00000000000E+00 0. -1.
         23    2    1    2    0    0  0.00000000000E+00  0.00000000000E+00  0.00000000000E+00  0.60000000000E+02  0.60000000000E+02 0.  0.
          5    1    3    3  501    0 -0.22730343666E+02  0.15766171529E+02  0.10614580169E+02  0.30000000000E+02  0.47000000000E+01 0. -1.
         -5    1    3    3    0  501  0.22730343666E+02 -0.15766171529E+02 -0.10614580169E+02  0.30000000000E+02  0.47000000000E+01 0.  1.
</event>
<event>
 5    1  0.7959189E-002  0.6000000E+02  0.7546771E-02  0.1259629E+00
         11   -1    0    0    0    0  0.00000000000E+00  0.00000000000E+00  0.30000000000E+02  0.30000000000E+02  0.00000000000E+00 0.  1.
        -11   -1    0    0    0    0 -0.00000000000E+00 -0.00000000000E+00 -0.30000000000E+02  0.30000000000E+02  0.00000000000E+00 0. -1.
         23    2    1    2    0    0  0.00000000000E+00  0.00000000000E+00  0.00000000000E+00  0.60000000000E+02  0.60000000000E+02 0.  0.
          5    1    3    3  501    0  0.22983327447E+02  0.15466610613E+02  0.10510024530E+02  0.30000000000E+02  0.47000000000E+01 0. -1.
         -5    1    3    3    0  501 -0.22983327447E+02 -0.15466610613E+02 -0.10510024530E+02  0.30000000000E+02  0.47000000000E+01 0.  1.
</event>
<event>
 5    1  0.7959189E-002  0.6000000E+02  0.7546771E-02  0.1259629E+00
         11   -1    0    0    0    0  0.00000000000E+00  0.00000000000E+00  0.30000000000E+02  0.30000000000E+02  0.00000000000E+00 0.  1.
        -11   -1    0    0    0    0 -0.00000000000E+00 -0.00000000000E+00 -0.30000000000E+02  0.30000000000E+02  0.00000000000E+00 0. -1.
         23    2    1    2    0    0  0.00000000000E+00  0.00000000000E+00  0.00000000000E+00  0.60000000000E+02  0.60000000000E+02 0.  0.
          5    1    3    3  501    0 -0.12792063324E+02 -0.81873365372E+01 -0.25440924439E+02  0.30000000000E+02  0.47000000000E+01 0. -1.
         -5    1    3    3    0  501  0.12792063324E+02  0.81873365372E+01  0.25440924439E+02  0.30000000000E+02  0.47000000000E+01 0.  1.
</event>
<event>
 5    1  0.7959189E-002  0.6000000E+02  0.7546771E-02  0.1259629E+00
         11   -1    0    0    0    0  0.00000000000E+00  0.00000000000E+00  0.30000000000E+02  0.30000000000E+02  0.00000000000E+00 0. -1.
        -11   -1    0    0    0    0 -0.00000000000E+00 -0.00000000000E+00 -0.30000000000E+02  0.30000000000E+02  0.00000000000E+00 0.  1.
         23    2    1    2    0    0  0.00000000000E+00  0.00000000000E+00  0.00000000000E+00  0.60000000000E+02  0.60000000000E+02 0.  0.
          5    1    3    3  501    0  0.14967434582E+02 -0.12116521992E+02  0.22518343564E+02  0.30000000000E+02  0.47000000000E+01 0. -1.
         -5    1    3    3    0  501 -0.14967434582E+02  0.12116521992E+02 -0.22518343564E+02  0.30000000000E+02  0.47000000000E+01 0.  1.
</event>
<event>
 5    1  0.7959189E-002  0.6000000E+02  0.7546771E-02  0.1259629E+00
         11   -1    0    0    0    0  0.00000000000E+00  0.00000000000E+00  0.30000000000E+02  0.30000000000E+02  0.00000000000E+00 0.  1.
        -11   -1    0    0    0    0 -0.00000000000E+00 -0.00000000000E+00 -0.30000000000E+02  0.30000000000E+02  0.00000000000E+00 0. -1.
         23    2    1    2    0    0  0.00000000000E+00  0.00000000000E+00  0.00000000000E+00  0.60000000000E+02  0.60000000000E+02 0.  0.
          5    1    3    3  501    0  0.43715519000E+01  0.24642029224E+02 -0.15860956141E+02  0.30000000000E+02  0.47000000000E+01 0. -1.
         -5    1    3    3    0  501 -0.43715519000E+01 -0.24642029224E+02  0.15860956141E+02  0.30000000000E+02  0.47000000000E+01 0.  1.
</event>
<event>
 5    1  0.7959189E-002  0.6000000E+02  0.7546771E-02  0.1259629E+00
         11   -1    0    0    0    0  0.00000000000E+00  0.00000000000E+00  0.30000000000E+02  0.30000000000E+02  0.00000000000E+00 0.  1.
        -11   -1    0    0    0    0 -0.00000000000E+00 -0.00000000000E+00 -0.30000000000E+02  0.30000000000E+02  0.00000000000E+00 0. -1.
         23    2    1    2    0    0  0.00000000000E+00  0.00000000000E+00  0.00000000000E+00  0.60000000000E+02  0.60000000000E+02 0.  0.
          5    1    3    3  501    0 -0.22354596132E+01 -0.15164166712E+02 -0.25356671080E+02  0.30000000000E+02  0.47000000000E+01 0. -1.
         -5    1    3    3    0  501  0.22354596132E+01  0.15164166712E+02  0.25356671080E+02  0.30000000000E+02  0.47000000000E+01 0.  1.
</event>
<event>
 5    1  0.7959189E-002  0.6000000E+02  0.7546771E-02  0.1259629E+00
         11   -1    0    0    0    0  0.00000000000E+00  0.00000000000E+00  0.30000000000E+02  0.30000000000E+02  0.00000000000E+00 0.  1.
        -11   -1    0    0    0    0 -0.00000000000E+00 -0.00000000000E+00 -0.30000000000E+02  0.30000000000E+02  0.00000000000E+00 0. -1.
         23    2    1    2    0    0  0.00000000000E+00  0.00000000000E+00  0.00000000000E+00  0.60000000000E+02  0.60000000000E+02 0.  0.
          5    1    3    3  501    0 -0.14179563034E+02 -0.23414954376E+02 -0.11339748841E+02  0.30000000000E+02  0.47000000000E+01 0. -1.
         -5    1    3    3    0  501  0.14179563034E+02  0.23414954376E+02  0.11339748841E+02  0.30000000000E+02  0.47000000000E+01 0.  1.
</event>
<event>
 5    1  0.7959189E-002  0.6000000E+02  0.7546771E-02  0.1259629E+00
         11   -1    0    0    0    0  0.00000000000E+00  0.00000000000E+00  0.30000000000E+02  0.30000000000E+02  0.00000000000E+00 0.  1.
        -11   -1    0    0    0    0 -0.00000000000E+00 -0.00000000000E+00 -0.30000000000E+02  0.30000000000E+02  0.00000000000E+00 0. -1.
         23    2    1    2    0    0  0.00000000000E+00  0.00000000000E+00  0.00000000000E+00  0.60000000000E+02  0.60000000000E+02 0.  0.
          5    1    3    3  501    0 -0.20962928267E+01  0.22318510449E+02 -0.19375232843E+02  0.30000000000E+02  0.47000000000E+01 0. -1.
         -5    1    3    3    0  501  0.20962928267E+01 -0.22318510449E+02  0.19375232843E+02  0.30000000000E+02  0.47000000000E+01 0.  1.
</event>
<event>
 5    1  0.7959189E-002  0.6000000E+02  0.7546771E-02  0.1259629E+00
         11   -1    0    0    0    0  0.00000000000E+00  0.00000000000E+00  0.30000000000E+02  0.30000000000E+02  0.00000000000E+00 0.  1.
        -11   -1    0    0    0    0 -0.00000000000E+00 -0.00000000000E+00 -0.30000000000E+02  0.30000000000E+02  0.00000000000E+00 0. -1.
         23    2    1    2    0    0  0.00000000000E+00  0.00000000000E+00  0.00000000000E+00  0.60000000000E+02  0.60000000000E+02 0.  0.
          5    1    3    3  501    0  0.10290465385E+02 -0.25429707841E+02 -0.11195815348E+02  0.30000000000E+02  0.47000000000E+01 0. -1.
         -5    1    3    3    0  501 -0.10290465385E+02  0.25429707841E+02  0.11195815348E+02  0.30000000000E+02  0.47000000000E+01 0.  1.
</event>
<event>
 5    1  0.7959189E-002  0.6000000E+02  0.7546771E-02  0.1259629E+00
         11   -1    0    0    0    0  0.00000000000E+00  0.00000000000E+00  0.30000000000E+02  0.30000000000E+02  0.00000000000E+00 0.  1.
        -11   -1    0    0    0    0 -0.00000000000E+00 -0.00000000000E+00 -0.30000000000E+02  0.30000000000E+02  0.00000000000E+00 0. -1.
         23    2    1    2    0    0  0.00000000000E+00  0.00000000000E+00  0.00000000000E+00  0.60000000000E+02  0.60000000000E+02 0.  0.
          5    1    3    3  501    0 -0.22535847989E+02 -0.31787787405E+01  0.18972109032E+02  0.30000000000E+02  0.47000000000E+01 0.  1.
         -5    1    3    3    0  501  0.22535847989E+02  0.31787787405E+01 -0.18972109032E+02  0.30000000000E+02  0.47000000000E+01 0. -1.
</event>
<event>
 5    1  0.7959189E-002  0.6000000E+02  0.7546771E-02  0.1259629E+00
         11   -1    0    0    0    0  0.00000000000E+00  0.00000000000E+00  0.30000000000E+02  0.30000000000E+02  0.00000000000E+00 0.  1.
        -11   -1    0    0    0    0 -0.00000000000E+00 -0.00000000000E+00 -0.30000000000E+02  0.30000000000E+02  0.00000000000E+00 0. -1.
         23    2    1    2    0    0  0.00000000000E+00  0.00000000000E+00  0.00000000000E+00  0.60000000000E+02  0.60000000000E+02 0.  0.
          5    1    3    3  501    0 -0.23083692090E+02 -0.11709978503E+02 -0.14419762929E+02  0.30000000000E+02  0.47000000000E+01 0. -1.
         -5    1    3    3    0  501  0.23083692090E+02  0.11709978503E+02  0.14419762929E+02  0.30000000000E+02  0.47000000000E+01 0.  1.
</event>
<event>
 5    1  0.7959189E-002  0.6000000E+02  0.7546771E-02  0.1259629E+00
         11   -1    0    0    0    0  0.00000000000E+00  0.00000000000E+00  0.30000000000E+02  0.30000000000E+02  0.00000000000E+00 0. -1.
        -11   -1    0    0    0    0 -0.00000000000E+00 -0.00000000000E+00 -0.30000000000E+02  0.30000000000E+02  0.00000000000E+00 0.  1.
         23    2    1    2    0    0  0.00000000000E+00  0.00000000000E+00  0.00000000000E+00  0.60000000000E+02  0.60000000000E+02 0.  0.
          5    1    3    3  501    0  0.84937409149E+01  0.23749185285E+02  0.15548072664E+02  0.30000000000E+02  0.47000000000E+01 0. -1.
         -5    1    3    3    0  501 -0.84937409149E+01 -0.23749185285E+02 -0.15548072664E+02  0.30000000000E+02  0.47000000000E+01 0.  1.
</event>
<event>
 5    1  0.7959189E-002  0.6000000E+02  0.7546771E-02  0.1259629E+00
         11   -1    0    0    0    0  0.00000000000E+00  0.00000000000E+00  0.30000000000E+02  0.30000000000E+02  0.00000000000E+00 0.  1.
        -11   -1    0    0    0    0 -0.00000000000E+00 -0.00000000000E+00 -0.30000000000E+02  0.30000000000E+02  0.00000000000E+00 0. -1.
         23    2    1    2    0    0  0.00000000000E+00  0.00000000000E+00  0.00000000000E+00  0.60000000000E+02  0.60000000000E+02 0.  0.
          5    1    3    3  501    0  0.24654626458E+02  0.14557883520E+02 -0.76241341563E+01  0.30000000000E+02  0.47000000000E+01 0. -1.
         -5    1    3    3    0  501 -0.24654626458E+02 -0.14557883520E+02  0.76241341563E+01  0.30000000000E+02  0.47000000000E+01 0.  1.
</event>
<event>
 5    1  0.7959189E-002  0.6000000E+02  0.7546771E-02  0.1259629E+00
         11   -1    0    0    0    0  0.00000000000E+00  0.00000000000E+00  0.30000000000E+02  0.30000000000E+02  0.00000000000E+00 0.  1.
        -11   -1    0    0    0    0 -0.00000000000E+00 -0.00000000000E+00 -0.30000000000E+02  0.30000000000E+02  0.00000000000E+00 0. -1.
         23    2    1    2    0    0  0.00000000000E+00  0.00000000000E+00  0.00000000000E+00  0.60000000000E+02  0.60000000000E+02 0.  0.
          5    1    3    3  501    0 -0.14668554426E+02 -0.22553141943E+02 -0.12413673895E+02  0.30000000000E+02  0.47000000000E+01 0. -1.
         -5    1    3    3    0  501  0.14668554426E+02  0.22553141943E+02  0.12413673895E+02  0.30000000000E+02  0.47000000000E+01 0.  1.
</event>
<event>
 5    1  0.7959189E-002  0.6000000E+02  0.7546771E-02  0.1259629E+00
         11   -1    0    0    0    0  0.00000000000E+00  0.00000000000E+00  0.30000000000E+02  0.30000000000E+02  0.00000000000E+00 0. -1.
        -11   -1    0    0    0    0 -0.00000000000E+00 -0.00000000000E+00 -0.30000000000E+02  0.30000000000E+02  0.00000000000E+00 0.  1.
         23    2    1    2    0    0  0.00000000000E+00  0.00000000000E+00  0.00000000000E+00  0.60000000000E+02  0.60000000000E+02 0.  0.
          5    1    3    3  501    0  0.58458130364E+01  0.65009127392E+01 -0.28310326800E+02  0.30000000000E+02  0.47000000000E+01 0.  1.
         -5    1    3    3    0  501 -0.58458130364E+01 -0.65009127392E+01  0.28310326800E+02  0.30000000000E+02  0.47000000000E+01 0. -1.
</event>
<event>
 5    1  0.7959189E-002  0.6000000E+02  0.7546771E-02  0.1259629E+00
         11   -1    0    0    0    0  0.00000000000E+00  0.00000000000E+00  0.30000000000E+02  0.30000000000E+02  0.00000000000E+00 0.  1.
        -11   -1    0    0    0    0 -0.00000000000E+00 -0.00000000000E+00 -0.30000000000E+02  0.30000000000E+02  0.00000000000E+00 0. -1.
         23    2    1    2    0    0  0.00000000000E+00  0.00000000000E+00  0.00000000000E+00  0.60000000000E+02  0.60000000000E+02 0.  0.
          5    1    3    3  501    0  0.27477471783E+02  0.32926096432E+01 -0.10585710470E+02  0.30000000000E+02  0.47000000000E+01 0. -1.
         -5    1    3    3    0  501 -0.27477471783E+02 -0.32926096432E+01  0.10585710470E+02  0.30000000000E+02  0.47000000000E+01 0.  1.
</event>
<event>
 5    1  0.7959189E-002  0.6000000E+02  0.7546771E-02  0.1259629E+00
         11   -1    0    0    0    0  0.00000000000E+00  0.00000000000E+00  0.30000000000E+02  0.30000000000E+02  0.00000000000E+00 0.  1.
        -11   -1    0    0    0    0 -0.00000000000E+00 -0.00000000000E+00 -0.30000000000E+02  0.30000000000E+02  0.00000000000E+00 0. -1.
         23    2    1    2    0    0  0.00000000000E+00  0.00000000000E+00  0.00000000000E+00  0.60000000000E+02  0.60000000000E+02 0.  0.
          5    1    3    3  501    0  0.14365389691E+02  0.57247753999E+01 -0.25273949546E+02  0.30000000000E+02  0.47000000000E+01 0. -1.
         -5    1    3    3    0  501 -0.14365389691E+02 -0.57247753999E+01  0.25273949546E+02  0.30000000000E+02  0.47000000000E+01 0.  1.
</event>
<event>
 5    1  0.7959189E-002  0.6000000E+02  0.7546771E-02  0.1259629E+00
         11   -1    0    0    0    0  0.00000000000E+00  0.00000000000E+00  0.30000000000E+02  0.30000000000E+02  0.00000000000E+00 0.  1.
        -11   -1    0    0    0    0 -0.00000000000E+00 -0.00000000000E+00 -0.30000000000E+02  0.30000000000E+02  0.00000000000E+00 0. -1.
         23    2    1    2    0    0  0.00000000000E+00  0.00000000000E+00  0.00000000000E+00  0.60000000000E+02  0.60000000000E+02 0.  0.
          5    1    3    3  501    0  0.18892304735E+01  0.45250036097E+01 -0.29220971075E+02  0.30000000000E+02  0.47000000000E+01 0. -1.
         -5    1    3    3    0  501 -0.18892304735E+01 -0.45250036097E+01  0.29220971075E+02  0.30000000000E+02  0.47000000000E+01 0.  1.
</event>
<event>
 5    1  0.7959189E-002  0.6000000E+02  0.7546771E-02  0.1259629E+00
         11   -1    0    0    0    0  0.00000000000E+00  0.00000000000E+00  0.30000000000E+02  0.30000000000E+02  0.00000000000E+00 0. -1.
        -11   -1    0    0    0    0 -0.00000000000E+00 -0.00000000000E+00 -0.30000000000E+02  0.30000000000E+02  0.00000000000E+00 0.  1.
         23    2    1    2    0    0  0.00000000000E+00  0.00000000000E+00  0.00000000000E+00  0.60000000000E+02  0.60000000000E+02 0.  0.
          5    1    3    3  501    0 -0.27902890888E+01  0.26141318888E+02 -0.13665860148E+02  0.30000000000E+02  0.47000000000E+01 0.  1.
         -5    1    3    3    0  501  0.27902890888E+01 -0.26141318888E+02  0.13665860148E+02  0.30000000000E+02  0.47000000000E+01 0. -1.
</event>
<event>
 5    1  0.7959189E-002  0.6000000E+02  0.7546771E-02  0.1259629E+00
         11   -1    0    0    0    0  0.00000000000E+00  0.00000000000E+00  0.30000000000E+02  0.30000000000E+02  0.00000000000E+00 0.  1.
        -11   -1    0    0    0    0 -0.00000000000E+00 -0.00000000000E+00 -0.30000000000E+02  0.30000000000E+02  0.00000000000E+00 0. -1.
         23    2    1    2    0    0  0.00000000000E+00  0.00000000000E+00  0.00000000000E+00  0.60000000000E+02  0.60000000000E+02 0.  0.
          5    1    3    3  501    0  0.17627595152E+02  0.13482421820E+01 -0.23777302879E+02  0.30000000000E+02  0.47000000000E+01 0. -1.
         -5    1    3    3    0  501 -0.17627595152E+02 -0.13482421820E+01  0.23777302879E+02  0.30000000000E+02  0.47000000000E+01 0.  1.
</event>
<event>
 5    1  0.7959189E-002  0.6000000E+02  0.7546771E-02  0.1259629E+00
         11   -1    0    0    0    0  0.00000000000E+00  0.00000000000E+00  0.30000000000E+02  0.30000000000E+02  0.00000000000E+00 0. -1.
        -11   -1    0    0    0    0 -0.00000000000E+00 -0.00000000000E+00 -0.30000000000E+02  0.30000000000E+02  0.00000000000E+00 0.  1.
         23    2    1    2    0    0  0.00000000000E+00  0.00000000000E+00  0.00000000000E+00  0.60000000000E+02  0.60000000000E+02 0.  0.
          5    1    3    3  501    0  0.97392005554E+01 -0.24993366273E+02 -0.12585293595E+02  0.30000000000E+02  0.47000000000E+01 0.  1.
         -5    1    3    3    0  501 -0.97392005554E+01  0.24993366273E+02  0.12585293595E+02  0.30000000000E+02  0.47000000000E+01 0. -1.
</event>
<event>
 5    1  0.7959189E-002  0.6000000E+02  0.7546771E-02  0.1259629E+00
         11   -1    0    0    0    0  0.00000000000E+00  0.00000000000E+00  0.30000000000E+02  0.30000000000E+02  0.00000000000E+00 0.  1.
        -11   -1    0    0    0    0 -0.00000000000E+00 -0.00000000000E+00 -0.30000000000E+02  0.30000000000E+02  0.00000000000E+00 0. -1.
         23    2    1    2    0    0  0.00000000000E+00  0.00000000000E+00  0.00000000000E+00  0.60000000000E+02  0.60000000000E+02 0.  0.
          5    1    3    3  501    0  0.77951203458E+00 -0.26993310706E+02 -0.12192765812E+02  0.30000000000E+02  0.47000000000E+01 0. -1.
         -5    1    3    3    0  501 -0.77951203458E+00  0.26993310706E+02  0.12192765812E+02  0.30000000000E+02  0.47000000000E+01 0.  1.
</event>
<event>
 5    1  0.7959189E-002  0.6000000E+02  0.7546771E-02  0.1259629E+00
         11   -1    0    0    0    0  0.00000000000E+00  0.00000000000E+00  0.30000000000E+02  0.30000000000E+02  0.00000000000E+00 0.  1.
        -11   -1    0    0    0    0 -0.00000000000E+00 -0.00000000000E+00 -0.30000000000E+02  0.30000000000E+02  0.00000000000E+00 0. -1.
         23    2    1    2    0    0  0.00000000000E+00  0.00000000000E+00  0.00000000000E+00  0.60000000000E+02  0.60000000000E+02 0.  0.
          5    1    3    3  501    0 -0.17430835069E+01 -0.27651989779E+02 -0.10499481946E+02  0.30000000000E+02  0.47000000000E+01 0. -1.
         -5    1    3    3    0  501  0.17430835069E+01  0.27651989779E+02  0.10499481946E+02  0.30000000000E+02  0.47000000000E+01 0.  1.
</event>
<event>
 5    1  0.7959189E-002  0.6000000E+02  0.7546771E-02  0.1259629E+00
         11   -1    0    0    0    0  0.00000000000E+00  0.00000000000E+00  0.30000000000E+02  0.30000000000E+02  0.00000000000E+00 0.  1.
        -11   -1    0    0    0    0 -0.00000000000E+00 -0.00000000000E+00 -0.30000000000E+02  0.30000000000E+02  0.00000000000E+00 0. -1.
         23    2    1    2    0    0  0.00000000000E+00  0.00000000000E+00  0.00000000000E+00  0.60000000000E+02  0.60000000000E+02 0.  0.
          5    1    3    3  501    0 -0.15276256050E+02 -0.17190844354E+02 -0.18682100297E+02  0.30000000000E+02  0.47000000000E+01 0. -1.
         -5    1    3    3    0  501  0.15276256050E+02  0.17190844354E+02  0.18682100297E+02  0.30000000000E+02  0.47000000000E+01 0.  1.
</event>
<event>
 5    1  0.7959189E-002  0.6000000E+02  0.7546771E-02  0.1259629E+00
         11   -1    0    0    0    0  0.00000000000E+00  0.00000000000E+00  0.30000000000E+02  0.30000000000E+02  0.00000000000E+00 0.  1.
        -11   -1    0    0    0    0 -0.00000000000E+00 -0.00000000000E+00 -0.30000000000E+02  0.30000000000E+02  0.00000000000E+00 0. -1.
         23    2    1    2    0    0  0.00000000000E+00  0.00000000000E+00  0.00000000000E+00  0.60000000000E+02  0.60000000000E+02 0.  0.
          5    1    3    3  501    0  0.81659055375E+01  0.19444310681E+02 -0.20812178379E+02  0.30000000000E+02  0.47000000000E+01 0. -1.
         -5    1    3    3    0  501 -0.81659055375E+01 -0.19444310681E+02  0.20812178379E+02  0.30000000000E+02  0.47000000000E+01 0.  1.
</event>
<event>
 5    1  0.7959189E-002  0.6000000E+02  0.7546771E-02  0.1259629E+00
         11   -1    0    0    0    0  0.00000000000E+00  0.00000000000E+00  0.30000000000E+02  0.30000000000E+02  0.00000000000E+00 0.  1.
        -11   -1    0    0    0    0 -0.00000000000E+00 -0.00000000000E+00 -0.30000000000E+02  0.30000000000E+02  0.00000000000E+00 0. -1.
         23    2    1    2    0    0  0.00000000000E+00  0.00000000000E+00  0.00000000000E+00  0.60000000000E+02  0.60000000000E+02 0.  0.
          5    1    3    3  501    0  0.34683236126E+01 -0.38498455389E+01 -0.29172922731E+02  0.30000000000E+02  0.47000000000E+01 0. -1.
         -5    1    3    3    0  501 -0.34683236126E+01  0.38498455389E+01  0.29172922731E+02  0.30000000000E+02  0.47000000000E+01 0.  1.
</event>
<event>
 5    1  0.7959189E-002  0.6000000E+02  0.7546771E-02  0.1259629E+00
         11   -1    0    0    0    0  0.00000000000E+00  0.00000000000E+00  0.30000000000E+02  0.30000000000E+02  0.00000000000E+00 0.  1.
        -11   -1    0    0    0    0 -0.00000000000E+00 -0.00000000000E+00 -0.30000000000E+02  0.30000000000E+02  0.00000000000E+00 0. -1.
         23    2    1    2    0    0  0.00000000000E+00  0.00000000000E+00  0.00000000000E+00  0.60000000000E+02  0.60000000000E+02 0.  0.
          5    1    3    3  501    0  0.14543254990E+02 -0.92688478839E+01 -0.24093405596E+02  0.30000000000E+02  0.47000000000E+01 0. -1.
         -5    1    3    3    0  501 -0.14543254990E+02  0.92688478839E+01  0.24093405596E+02  0.30000000000E+02  0.47000000000E+01 0.  1.
</event>
<event>
 5    1  0.7959189E-002  0.6000000E+02  0.7546771E-02  0.1259629E+00
         11   -1    0    0    0    0  0.00000000000E+00  0.00000000000E+00  0.30000000000E+02  0.30000000000E+02  0.00000000000E+00 0. -1.
        -11   -1    0    0    0    0 -0.00000000000E+00 -0.00000000000E+00 -0.30000000000E+02  0.30000000000E+02  0.00000000000E+00 0.  1.
         23    2    1    2    0    0  0.00000000000E+00  0.00000000000E+00  0.00000000000E+00  0.60000000000E+02  0.60000000000E+02 0.  0.
          5    1    3    3  501    0  0.11590741315E+02 -0.23232927711E+02 -0.14275706138E+02  0.30000000000E+02  0.47000000000E+01 0.  1.
         -5    1    3    3    0  501 -0.11590741315E+02  0.23232927711E+02  0.14275706138E+02  0.30000000000E+02  0.47000000000E+01 0. -1.
</event>
<event>
 5    1  0.7959189E-002  0.6000000E+02  0.7546771E-02  0.1259629E+00
         11   -1    0    0    0    0  0.00000000000E+00  0.00000000000E+00  0.30000000000E+02  0.30000000000E+02  0.00000000000E+00 0.  1.
        -11   -1    0    0    0    0 -0.00000000000E+00 -0.00000000000E+00 -0.30000000000E+02  0.30000000000E+02  0.00000000000E+00 0. -1.
         23    2    1    2    0    0  0.00000000000E+00  0.00000000000E+00  0.00000000000E+00  0.60000000000E+02  0.60000000000E+02 0.  0.
          5    1    3    3  501    0 -0.27925463452E+02  0.98907553953E+01 -0.50144659512E+00  0.30000000000E+02  0.47000000000E+01 0. -1.
         -5    1    3    3    0  501  0.27925463452E+02 -0.98907553953E+01  0.50144659512E+00  0.30000000000E+02  0.47000000000E+01 0.  1.
</event>
<event>
 5    1  0.7959189E-002  0.6000000E+02  0.7546771E-02  0.1259629E+00
         11   -1    0    0    0    0  0.00000000000E+00  0.00000000000E+00  0.30000000000E+02  0.30000000000E+02  0.00000000000E+00 0.  1.
        -11   -1    0    0    0    0 -0.00000000000E+00 -0.00000000000E+00 -0.30000000000E+02  0.30000000000E+02  0.00000000000E+00 0. -1.
         23    2    1    2    0    0  0.00000000000E+00  0.00000000000E+00  0.00000000000E+00  0.60000000000E+02  0.60000000000E+02 0.  0.
          5    1    3    3  501    0 -0.23760788195E+02  0.14420431233E+02  0.10265773590E+02  0.30000000000E+02  0.47000000000E+01 0.  1.
         -5    1    3    3    0  501  0.23760788195E+02 -0.14420431233E+02 -0.10265773590E+02  0.30000000000E+02  0.47000000000E+01 0. -1.
</event>
<event>
 5    1  0.7959189E-002  0.6000000E+02  0.7546771E-02  0.1259629E+00
         11   -1    0    0    0    0  0.00000000000E+00  0.00000000000E+00  0.30000000000E+02  0.30000000000E+02  0.00000000000E+00 0. -1.
        -11   -1    0    0    0    0 -0.00000000000E+00 -0.00000000000E+00 -0.30000000000E+02  0.30000000000E+02  0.00000000000E+00 0.  1.
         23    2    1    2    0    0  0.00000000000E+00  0.00000000000E+00  0.00000000000E+00  0.60000000000E+02  0.60000000000E+02 0.  0.
          5    1    3    3  501    0  0.83597159294E+01  0.22935870369E+02 -0.16791992139E+02  0.30000000000E+02  0.47000000000E+01 0.  1.
         -5    1    3    3    0  501 -0.83597159294E+01 -0.22935870369E+02  0.16791992139E+02  0.30000000000E+02  0.47000000000E+01 0. -1.
</event>
<event>
 5    1  0.7959189E-002  0.6000000E+02  0.7546771E-02  0.1259629E+00
         11   -1    0    0    0    0  0.00000000000E+00  0.00000000000E+00  0.30000000000E+02  0.30000000000E+02  0.00000000000E+00 0. -1.
        -11   -1    0    0    0    0 -0.00000000000E+00 -0.00000000000E+00 -0.30000000000E+02  0.30000000000E+02  0.00000000000E+00 0.  1.
         23    2    1    2    0    0  0.00000000000E+00  0.00000000000E+00  0.00000000000E+00  0.60000000000E+02  0.60000000000E+02 0.  0.
          5    1    3    3  501    0  0.87847751757E+01 -0.16639677697E+02 -0.22887963021E+02  0.30000000000E+02  0.47000000000E+01 0.  1.
         -5    1    3    3    0  501 -0.87847751757E+01  0.16639677697E+02  0.22887963021E+02  0.30000000000E+02  0.47000000000E+01 0. -1.
</event>
<event>
 5    1  0.7959189E-002  0.6000000E+02  0.7546771E-02  0.1259629E+00
         11   -1    0    0    0    0  0.00000000000E+00  0.00000000000E+00  0.30000000000E+02  0.30000000000E+02  0.00000000000E+00 0. -1.
        -11   -1    0    0    0    0 -0.00000000000E+00 -0.00000000000E+00 -0.30000000000E+02  0.30000000000E+02  0.00000000000E+00 0.  1.
         23    2    1    2    0    0  0.00000000000E+00  0.00000000000E+00  0.00000000000E+00  0.60000000000E+02  0.60000000000E+02 0.  0.
          5    1    3    3  501    0 -0.23795078783E+02 -0.15159848245E+02  0.90489351267E+01  0.30000000000E+02  0.47000000000E+01 0.  1.
         -5    1    3    3    0  501  0.23795078783E+02  0.15159848245E+02 -0.90489351267E+01  0.30000000000E+02  0.47000000000E+01 0. -1.
</event>
<event>
 5    1  0.7959189E-002  0.6000000E+02  0.7546771E-02  0.1259629E+00
         11   -1    0    0    0    0  0.00000000000E+00  0.00000000000E+00  0.30000000000E+02  0.30000000000E+02  0.00000000000E+00 0. -1.
        -11   -1    0    0    0    0 -0.00000000000E+00 -0.00000000000E+00 -0.30000000000E+02  0.30000000000E+02  0.00000000000E+00 0.  1.
         23    2    1    2    0    0  0.00000000000E+00  0.00000000000E+00  0.00000000000E+00  0.60000000000E+02  0.60000000000E+02 0.  0.
          5    1    3    3  501    0 -0.19316052526E+02 -0.10382251928E+02 -0.19925083682E+02  0.30000000000E+02  0.47000000000E+01 0.  1.
         -5    1    3    3    0  501  0.19316052526E+02  0.10382251928E+02  0.19925083682E+02  0.30000000000E+02  0.47000000000E+01 0. -1.
</event>
<event>
 5    1  0.7959189E-002  0.6000000E+02  0.7546771E-02  0.1259629E+00
         11   -1    0    0    0    0  0.00000000000E+00  0.00000000000E+00  0.30000000000E+02  0.30000000000E+02  0.00000000000E+00 0.  1.
        -11   -1    0    0    0    0 -0.00000000000E+00 -0.00000000000E+00 -0.30000000000E+02  0.30000000000E+02  0.00000000000E+00 0. -1.
         23    2    1    2    0    0  0.00000000000E+00  0.00000000000E+00  0.00000000000E+00  0.60000000000E+02  0.60000000000E+02 0.  0.
          5    1    3    3  501    0 -0.19577516394E+02  0.21893180334E+02  0.39140141421E+01  0.30000000000E+02  0.47000000000E+01 0. -1.
         -5    1    3    3    0  501  0.19577516394E+02 -0.21893180334E+02 -0.39140141421E+01  0.30000000000E+02  0.47000000000E+01 0.  1.
</event>
<event>
 5    1  0.7959189E-002  0.6000000E+02  0.7546771E-02  0.1259629E+00
         11   -1    0    0    0    0  0.00000000000E+00  0.00000000000E+00  0.30000000000E+02  0.30000000000E+02  0.00000000000E+00 0. -1.
        -11   -1    0    0    0    0 -0.00000000000E+00 -0.00000000000E+00 -0.30000000000E+02  0.30000000000E+02  0.00000000000E+00 0.  1.
         23    2    1    2    0    0  0.00000000000E+00  0.00000000000E+00  0.00000000000E+00  0.60000000000E+02  0.60000000000E+02 0.  0.
          5    1    3    3  501    0 -0.19453135470E+02  0.17717409411E+02 -0.13622735560E+02  0.30000000000E+02  0.47000000000E+01 0.  1.
         -5    1    3    3    0  501  0.19453135470E+02 -0.17717409411E+02  0.13622735560E+02  0.30000000000E+02  0.47000000000E+01 0. -1.
</event>
<event>
 5    1  0.7959189E-002  0.6000000E+02  0.7546771E-02  0.1259629E+00
         11   -1    0    0    0    0  0.00000000000E+00  0.00000000000E+00  0.30000000000E+02  0.30000000000E+02  0.00000000000E+00 0.  1.
        -11   -1    0    0    0    0 -0.00000000000E+00 -0.00000000000E+00 -0.30000000000E+02  0.30000000000E+02  0.00000000000E+00 0. -1.
         23    2    1    2    0    0  0.00000000000E+00  0.00000000000E+00  0.00000000000E+00  0.60000000000E+02  0.60000000000E+02 0.  0.
          5    1    3    3  501    0 -0.89179203432E+00  0.15447385433E+01 -0.29575809199E+02  0.30000000000E+02  0.47000000000E+01 0. -1.
         -5    1    3    3    0  501  0.89179203432E+00 -0.15447385433E+01  0.29575809199E+02  0.30000000000E+02  0.47000000000E+01 0.  1.
</event>
<event>
 5    1  0.7959189E-002  0.6000000E+02  0.7546771E-02  0.1259629E+00
         11   -1    0    0    0    0  0.00000000000E+00  0.00000000000E+00  0.30000000000E+02  0.30000000000E+02  0.00000000000E+00 0.  1.
        -11   -1    0    0    0    0 -0.00000000000E+00 -0.00000000000E+00 -0.30000000000E+02  0.30000000000E+02  0.00000000000E+00 0. -1.
         23    2    1    2    0    0  0.00000000000E+00  0.00000000000E+00  0.00000000000E+00  0.60000000000E+02  0.60000000000E+02 0.  0.
          5    1    3    3  501    0  0.26270950221E+02  0.13341931545E+02 -0.31209032579E+01  0.30000000000E+02  0.47000000000E+01 0. -1.
         -5    1    3    3    0  501 -0.26270950221E+02 -0.13341931545E+02  0.31209032579E+01  0.30000000000E+02  0.47000000000E+01 0.  1.
</event>
<event>
 5    1  0.7959189E-002  0.6000000E+02  0.7546771E-02  0.1259629E+00
         11   -1    0    0    0    0  0.00000000000E+00  0.00000000000E+00  0.30000000000E+02  0.30000000000E+02  0.00000000000E+00 0. -1.
        -11   -1    0    0    0    0 -0.00000000000E+00 -0.00000000000E+00 -0.30000000000E+02  0.30000000000E+02  0.00000000000E+00 0.  1.
         23    2    1    2    0    0  0.00000000000E+00  0.00000000000E+00  0.00000000000E+00  0.60000000000E+02  0.60000000000E+02 0.  0.
          5    1    3    3  501    0  0.26075545300E+02 -0.13020629003E+02  0.53328376734E+01  0.30000000000E+02  0.47000000000E+01 0. -1.
         -5    1    3    3    0  501 -0.26075545300E+02  0.13020629003E+02 -0.53328376734E+01  0.30000000000E+02  0.47000000000E+01 0.  1.
</event>
<event>
 5    1  0.7959189E-002  0.6000000E+02  0.7546771E-02  0.1259629E+00
         11   -1    0    0    0    0  0.00000000000E+00  0.00000000000E+00  0.30000000000E+02  0.30000000000E+02  0.00000000000E+00 0. -1.
        -11   -1    0    0    0    0 -0.00000000000E+00 -0.00000000000E+00 -0.30000000000E+02  0.30000000000E+02  0.00000000000E+00 0.  1.
         23    2    1    2    0    0  0.00000000000E+00  0.00000000000E+00  0.00000000000E+00  0.60000000000E+02  0.60000000000E+02 0.  0.
          5    1    3    3  501    0 -0.14859021175E+02  0.24419816532E+02  0.77969256924E+01  0.30000000000E+02  0.47000000000E+01 0.  1.
         -5    1    3    3    0  501  0.14859021175E+02 -0.24419816532E+02 -0.77969256924E+01  0.30000000000E+02  0.47000000000E+01 0. -1.
</event>
<event>
 5    1  0.7959189E-002  0.6000000E+02  0.7546771E-02  0.1259629E+00
         11   -1    0    0    0    0  0.00000000000E+00  0.00000000000E+00  0.30000000000E+02  0.30000000000E+02  0.00000000000E+00 0.  1.
        -11   -1    0    0    0    0 -0.00000000000E+00 -0.00000000000E+00 -0.30000000000E+02  0.30000000000E+02  0.00000000000E+00 0. -1.
         23    2    1    2    0    0  0.00000000000E+00  0.00000000000E+00  0.00000000000E+00  0.60000000000E+02  0.60000000000E+02 0.  0.
          5    1    3    3  501    0 -0.93501331204E+00  0.11842638446E+02 -0.27143832905E+02  0.30000000000E+02  0.47000000000E+01 0. -1.
         -5    1    3    3    0  501  0.93501331204E+00 -0.11842638446E+02  0.27143832905E+02  0.30000000000E+02  0.47000000000E+01 0.  1.
</event>
<event>
 5    1  0.7959189E-002  0.6000000E+02  0.7546771E-02  0.1259629E+00
         11   -1    0    0    0    0  0.00000000000E+00  0.00000000000E+00  0.30000000000E+02  0.30000000000E+02  0.00000000000E+00 0.  1.
        -11   -1    0    0    0    0 -0.00000000000E+00 -0.00000000000E+00 -0.30000000000E+02  0.30000000000E+02  0.00000000000E+00 0. -1.
         23    2    1    2    0    0  0.00000000000E+00  0.00000000000E+00  0.00000000000E+00  0.60000000000E+02  0.60000000000E+02 0.  0.
          5    1    3    3  501    0 -0.17200248276E+02 -0.72036868830E+01 -0.23025385003E+02  0.30000000000E+02  0.47000000000E+01 0. -1.
         -5    1    3    3    0  501  0.17200248276E+02  0.72036868830E+01  0.23025385003E+02  0.30000000000E+02  0.47000000000E+01 0.  1.
</event>
<event>
 5    1  0.7959189E-002  0.6000000E+02  0.7546771E-02  0.1259629E+00
         11   -1    0    0    0    0  0.00000000000E+00  0.00000000000E+00  0.30000000000E+02  0.30000000000E+02  0.00000000000E+00 0.  1.
        -11   -1    0    0    0    0 -0.00000000000E+00 -0.00000000000E+00 -0.30000000000E+02  0.30000000000E+02  0.00000000000E+00 0. -1.
         23    2    1    2    0    0  0.00000000000E+00  0.00000000000E+00  0.00000000000E+00  0.60000000000E+02  0.60000000000E+02 0.  0.
          5    1    3    3  501    0  0.16387045570E+02  0.12152249943E+01 -0.24655586906E+02  0.30000000000E+02  0.47000000000E+01 0. -1.
         -5    1    3    3    0  501 -0.16387045570E+02 -0.12152249943E+01  0.24655586906E+02  0.30000000000E+02  0.47000000000E+01 0.  1.
</event>
<event>
 5    1  0.7959189E-002  0.6000000E+02  0.7546771E-02  0.1259629E+00
         11   -1    0    0    0    0  0.00000000000E+00  0.00000000000E+00  0.30000000000E+02  0.30000000000E+02  0.00000000000E+00 0.  1.
        -11   -1    0    0    0    0 -0.00000000000E+00 -0.00000000000E+00 -0.30000000000E+02  0.30000000000E+02  0.00000000000E+00 0. -1.
         23    2    1    2    0    0  0.00000000000E+00  0.00000000000E+00  0.00000000000E+00  0.60000000000E+02  0.60000000000E+02 0.  0.
          5    1    3    3  501    0 -0.11937059409E+01 -0.25998842375E+02 -0.14161400400E+02  0.30000000000E+02  0.47000000000E+01 0. -1.
         -5    1    3    3    0  501  0.11937059409E+01  0.25998842375E+02  0.14161400400E+02  0.30000000000E+02  0.47000000000E+01 0.  1.
</event>
<event>
 5    1  0.7959189E-002  0.6000000E+02  0.7546771E-02  0.1259629E+00
         11   -1    0    0    0    0  0.00000000000E+00  0.00000000000E+00  0.30000000000E+02  0.30000000000E+02  0.00000000000E+00 0.  1.
        -11   -1    0    0    0    0 -0.00000000000E+00 -0.00000000000E+00 -0.30000000000E+02  0.30000000000E+02  0.00000000000E+00 0. -1.
         23    2    1    2    0    0  0.00000000000E+00  0.00000000000E+00  0.00000000000E+00  0.60000000000E+02  0.60000000000E+02 0.  0.
          5    1    3    3  501    0  0.12148981462E+02 -0.26424872071E+02 -0.56602460634E+01  0.30000000000E+02  0.47000000000E+01 0. -1.
         -5    1    3    3    0  501 -0.12148981462E+02  0.26424872071E+02  0.56602460634E+01  0.30000000000E+02  0.47000000000E+01 0.  1.
</event>
<event>
 5    1  0.7959189E-002  0.6000000E+02  0.7546771E-02  0.1259629E+00
         11   -1    0    0    0    0  0.00000000000E+00  0.00000000000E+00  0.30000000000E+02  0.30000000000E+02  0.00000000000E+00 0.  1.
        -11   -1    0    0    0    0 -0.00000000000E+00 -0.00000000000E+00 -0.30000000000E+02  0.30000000000E+02  0.00000000000E+00 0. -1.
         23    2    1    2    0    0  0.00000000000E+00  0.00000000000E+00  0.00000000000E+00  0.60000000000E+02  0.60000000000E+02 0.  0.
          5    1    3    3  501    0  0.13131372595E+02  0.10686922948E+02 -0.24315976881E+02  0.30000000000E+02  0.47000000000E+01 0. -1.
         -5    1    3    3    0  501 -0.13131372595E+02 -0.10686922948E+02  0.24315976881E+02  0.30000000000E+02  0.47000000000E+01 0.  1.
</event>
<event>
 5    1  0.7959189E-002  0.6000000E+02  0.7546771E-02  0.1259629E+00
         11   -1    0    0    0    0  0.00000000000E+00  0.00000000000E+00  0.30000000000E+02  0.30000000000E+02  0.00000000000E+00 0.  1.
        -11   -1    0    0    0    0 -0.00000000000E+00 -0.00000000000E+00 -0.30000000000E+02  0.30000000000E+02  0.00000000000E+00 0. -1.
         23    2    1    2    0    0  0.00000000000E+00  0.00000000000E+00  0.00000000000E+00  0.60000000000E+02  0.60000000000E+02 0.  0.
          5    1    3    3  501    0 -0.22628919304E+02 -0.13967749119E+02  0.13066904594E+02  0.30000000000E+02  0.47000000000E+01 0.  1.
         -5    1    3    3    0  501  0.22628919304E+02  0.13967749119E+02 -0.13066904594E+02  0.30000000000E+02  0.47000000000E+01 0. -1.
</event>
<event>
 5    1  0.7959189E-002  0.6000000E+02  0.7546771E-02  0.1259629E+00
         11   -1    0    0    0    0  0.00000000000E+00  0.00000000000E+00  0.30000000000E+02  0.30000000000E+02  0.00000000000E+00 0.  1.
        -11   -1    0    0    0    0 -0.00000000000E+00 -0.00000000000E+00 -0.30000000000E+02  0.30000000000E+02  0.00000000000E+00 0. -1.
         23    2    1    2    0    0  0.00000000000E+00  0.00000000000E+00  0.00000000000E+00  0.60000000000E+02  0.60000000000E+02 0.  0.
          5    1    3    3  501    0 -0.15384130128E+02 -0.15242319356E+02 -0.20221529142E+02  0.30000000000E+02  0.47000000000E+01 0. -1.
         -5    1    3    3    0  501  0.15384130128E+02  0.15242319356E+02  0.20221529142E+02  0.30000000000E+02  0.47000000000E+01 0.  1.
</event>
<event>
 5    1  0.7959189E-002  0.6000000E+02  0.7546771E-02  0.1259629E+00
         11   -1    0    0    0    0  0.00000000000E+00  0.00000000000E+00  0.30000000000E+02  0.30000000000E+02  0.00000000000E+00 0. -1.
        -11   -1    0    0    0    0 -0.00000000000E+00 -0.00000000000E+00 -0.30000000000E+02  0.30000000000E+02  0.00000000000E+00 0.  1.
         23    2    1    2    0    0  0.00000000000E+00  0.00000000000E+00  0.00000000000E+00  0.60000000000E+02  0.60000000000E+02 0.  0.
          5    1    3    3  501    0  0.10851072641E+02 -0.11605183483E+02 -0.25009676904E+02  0.30000000000E+02  0.47000000000E+01 0.  1.
         -5    1    3    3    0  501 -0.10851072641E+02  0.11605183483E+02  0.25009676904E+02  0.30000000000E+02  0.47000000000E+01 0. -1.
</event>
<event>
 5    1  0.7959189E-002  0.6000000E+02  0.7546771E-02  0.1259629E+00
         11   -1    0    0    0    0  0.00000000000E+00  0.00000000000E+00  0.30000000000E+02  0.30000000000E+02  0.00000000000E+00 0.  1.
        -11   -1    0    0    0    0 -0.00000000000E+00 -0.00000000000E+00 -0.30000000000E+02  0.30000000000E+02  0.00000000000E+00 0. -1.
         23    2    1    2    0    0  0.00000000000E+00  0.00000000000E+00  0.00000000000E+00  0.60000000000E+02  0.60000000000E+02 0.  0.
          5    1    3    3  501    0 -0.13618578260E+02 -0.24784207391E+01 -0.26197361638E+02  0.30000000000E+02  0.47000000000E+01 0. -1.
         -5    1    3    3    0  501  0.13618578260E+02  0.24784207391E+01  0.26197361638E+02  0.30000000000E+02  0.47000000000E+01 0.  1.
</event>
<event>
 5    1  0.7959189E-002  0.6000000E+02  0.7546771E-02  0.1259629E+00
         11   -1    0    0    0    0  0.00000000000E+00  0.00000000000E+00  0.30000000000E+02  0.30000000000E+02  0.00000000000E+00 0.  1.
        -11   -1    0    0    0    0 -0.00000000000E+00 -0.00000000000E+00 -0.30000000000E+02  0.30000000000E+02  0.00000000000E+00 0. -1.
         23    2    1    2    0    0  0.00000000000E+00  0.00000000000E+00  0.00000000000E+00  0.60000000000E+02  0.60000000000E+02 0.  0.
          5    1    3    3  501    0  0.10596049853E+02 -0.25533794620E+02 -0.10661100309E+02  0.30000000000E+02  0.47000000000E+01 0. -1.
         -5    1    3    3    0  501 -0.10596049853E+02  0.25533794620E+02  0.10661100309E+02  0.30000000000E+02  0.47000000000E+01 0.  1.
</event>
<event>
 5    1  0.7959189E-002  0.6000000E+02  0.7546771E-02  0.1259629E+00
         11   -1    0    0    0    0  0.00000000000E+00  0.00000000000E+00  0.30000000000E+02  0.30000000000E+02  0.00000000000E+00 0.  1.
        -11   -1    0    0    0    0 -0.00000000000E+00 -0.00000000000E+00 -0.30000000000E+02  0.30000000000E+02  0.00000000000E+00 0. -1.
         23    2    1    2    0    0  0.00000000000E+00  0.00000000000E+00  0.00000000000E+00  0.60000000000E+02  0.60000000000E+02 0.  0.
          5    1    3    3  501    0 -0.16258977400E+02  0.23536027226E+02 -0.77208209626E+01  0.30000000000E+02  0.47000000000E+01 0. -1.
         -5    1    3    3    0  501  0.16258977400E+02 -0.23536027226E+02  0.77208209626E+01  0.30000000000E+02  0.47000000000E+01 0.  1.
</event>
<event>
 5    1  0.7959189E-002  0.6000000E+02  0.7546771E-02  0.1259629E+00
         11   -1    0    0    0    0  0.00000000000E+00  0.00000000000E+00  0.30000000000E+02  0.30000000000E+02  0.00000000000E+00 0.  1.
        -11   -1    0    0    0    0 -0.00000000000E+00 -0.00000000000E+00 -0.30000000000E+02  0.30000000000E+02  0.00000000000E+00 0. -1.
         23    2    1    2    0    0  0.00000000000E+00  0.00000000000E+00  0.00000000000E+00  0.60000000000E+02  0.60000000000E+02 0.  0.
          5    1    3    3  501    0  0.30174907540E+00 -0.17393457638E+02 -0.23985132455E+02  0.30000000000E+02  0.47000000000E+01 0. -1.
         -5    1    3    3    0  501 -0.30174907540E+00  0.17393457638E+02  0.23985132455E+02  0.30000000000E+02  0.47000000000E+01 0.  1.
</event>
<event>
 5    1  0.7959189E-002  0.6000000E+02  0.7546771E-02  0.1259629E+00
         11   -1    0    0    0    0  0.00000000000E+00  0.00000000000E+00  0.30000000000E+02  0.30000000000E+02  0.00000000000E+00 0. -1.
        -11   -1    0    0    0    0 -0.00000000000E+00 -0.00000000000E+00 -0.30000000000E+02  0.30000000000E+02  0.00000000000E+00 0.  1.
         23    2    1    2    0    0  0.00000000000E+00  0.00000000000E+00  0.00000000000E+00  0.60000000000E+02  0.60000000000E+02 0.  0.
          5    1    3    3  501    0  0.61876360519E+01 -0.65966422373E+01 -0.28215376504E+02  0.30000000000E+02  0.47000000000E+01 0.  1.
         -5    1    3    3    0  501 -0.61876360519E+01  0.65966422373E+01  0.28215376504E+02  0.30000000000E+02  0.47000000000E+01 0. -1.
</event>
<event>
 5    1  0.7959189E-002  0.6000000E+02  0.7546771E-02  0.1259629E+00
         11   -1    0    0    0    0  0.00000000000E+00  0.00000000000E+00  0.30000000000E+02  0.30000000000E+02  0.00000000000E+00 0.  1.
        -11   -1    0    0    0    0 -0.00000000000E+00 -0.00000000000E+00 -0.30000000000E+02  0.30000000000E+02  0.00000000000E+00 0. -1.
         23    2    1    2    0    0  0.00000000000E+00  0.00000000000E+00  0.00000000000E+00  0.60000000000E+02  0.60000000000E+02 0.  0.
          5    1    3    3  501    0 -0.21295280995E+02  0.11265724462E+02 -0.17248317590E+02  0.30000000000E+02  0.47000000000E+01 0. -1.
         -5    1    3    3    0  501  0.21295280995E+02 -0.11265724462E+02  0.17248317590E+02  0.30000000000E+02  0.47000000000E+01 0.  1.
</event>
<event>
 5    1  0.7959189E-002  0.6000000E+02  0.7546771E-02  0.1259629E+00
         11   -1    0    0    0    0  0.00000000000E+00  0.00000000000E+00  0.30000000000E+02  0.30000000000E+02  0.00000000000E+00 0. -1.
        -11   -1    0    0    0    0 -0.00000000000E+00 -0.00000000000E+00 -0.30000000000E+02  0.30000000000E+02  0.00000000000E+00 0.  1.
         23    2    1    2    0    0  0.00000000000E+00  0.00000000000E+00  0.00000000000E+00  0.60000000000E+02  0.60000000000E+02 0.  0.
          5    1    3    3  501    0  0.34412811444E+01  0.17222693208E+02 -0.23863076557E+02  0.30000000000E+02  0.47000000000E+01 0.  1.
         -5    1    3    3    0  501 -0.34412811444E+01 -0.17222693208E+02  0.23863076557E+02  0.30000000000E+02  0.47000000000E+01 0. -1.
</event>
<event>
 5    1  0.7959189E-002  0.6000000E+02  0.7546771E-02  0.1259629E+00
         11   -1    0    0    0    0  0.00000000000E+00  0.00000000000E+00  0.30000000000E+02  0.30000000000E+02  0.00000000000E+00 0. -1.
        -11   -1    0    0    0    0 -0.00000000000E+00 -0.00000000000E+00 -0.30000000000E+02  0.30000000000E+02  0.00000000000E+00 0.  1.
         23    2    1    2    0    0  0.00000000000E+00  0.00000000000E+00  0.00000000000E+00  0.60000000000E+02  0.60000000000E+02 0.  0.
          5    1    3    3  501    0 -0.29000048325E+02  0.22293808402E+01 -0.56512881887E+01  0.30000000000E+02  0.47000000000E+01 0.  1.
         -5    1    3    3    0  501  0.29000048325E+02 -0.22293808402E+01  0.56512881887E+01  0.30000000000E+02  0.47000000000E+01 0. -1.
</event>
<event>
 5    1  0.7959189E-002  0.6000000E+02  0.7546771E-02  0.1259629E+00
         11   -1    0    0    0    0  0.00000000000E+00  0.00000000000E+00  0.30000000000E+02  0.30000000000E+02  0.00000000000E+00 0.  1.
        -11   -1    0    0    0    0 -0.00000000000E+00 -0.00000000000E+00 -0.30000000000E+02  0.30000000000E+02  0.00000000000E+00 0. -1.
         23    2    1    2    0    0  0.00000000000E+00  0.00000000000E+00  0.00000000000E+00  0.60000000000E+02  0.60000000000E+02 0.  0.
          5    1    3    3  501    0  0.17536857980E+02  0.18875805249E+01  0.23807680525E+02  0.30000000000E+02  0.47000000000E+01 0.  1.
         -5    1    3    3    0  501 -0.17536857980E+02 -0.18875805249E+01 -0.23807680525E+02  0.30000000000E+02  0.47000000000E+01 0. -1.
</event>
<event>
 5    1  0.7959189E-002  0.6000000E+02  0.7546771E-02  0.1259629E+00
         11   -1    0    0    0    0  0.00000000000E+00  0.00000000000E+00  0.30000000000E+02  0.30000000000E+02  0.00000000000E+00 0.  1.
        -11   -1    0    0    0    0 -0.00000000000E+00 -0.00000000000E+00 -0.30000000000E+02  0.30000000000E+02  0.00000000000E+00 0. -1.
         23    2    1    2    0    0  0.00000000000E+00  0.00000000000E+00  0.00000000000E+00  0.60000000000E+02  0.60000000000E+02 0.  0.
          5    1    3    3  501    0  0.49821156062E+01  0.18876647326E+02 -0.22288129347E+02  0.30000000000E+02  0.47000000000E+01 0. -1.
         -5    1    3    3    0  501 -0.49821156062E+01 -0.18876647326E+02  0.22288129347E+02  0.30000000000E+02  0.47000000000E+01 0.  1.
</event>
<event>
 5    1  0.7959189E-002  0.6000000E+02  0.7546771E-02  0.1259629E+00
         11   -1    0    0    0    0  0.00000000000E+00  0.00000000000E+00  0.30000000000E+02  0.30000000000E+02  0.00000000000E+00 0.  1.
        -11   -1    0    0    0    0 -0.00000000000E+00 -0.00000000000E+00 -0.30000000000E+02  0.30000000000E+02  0.00000000000E+00 0. -1.
         23    2    1    2    0    0  0.00000000000E+00  0.00000000000E+00  0.00000000000E+00  0.60000000000E+02  0.60000000000E+02 0.  0.
          5    1    3    3  501    0 -0.10253389773E+02  0.11409948739E+01 -0.27775459111E+02  0.30000000000E+02  0.47000000000E+01 0. -1.
         -5    1    3    3    0  501  0.10253389773E+02 -0.11409948739E+01  0.27775459111E+02  0.30000000000E+02  0.47000000000E+01 0.  1.
</event>
<event>
 5    1  0.7959189E-002  0.6000000E+02  0.7546771E-02  0.1259629E+00
         11   -1    0    0    0    0  0.00000000000E+00  0.00000000000E+00  0.30000000000E+02  0.30000000000E+02  0.00000000000E+00 0.  1.
        -11   -1    0    0    0    0 -0.00000000000E+00 -0.00000000000E+00 -0.30000000000E+02  0.30000000000E+02  0.00000000000E+00 0. -1.
         23    2    1    2    0    0  0.00000000000E+00  0.00000000000E+00  0.00000000000E+00  0.60000000000E+02  0.60000000000E+02 0.  0.
          5    1    3    3  501    0 -0.65048926721E+01  0.22706934449E+02 -0.17888306215E+02  0.30000000000E+02  0.47000000000E+01 0. -1.
         -5    1    3    3    0  501  0.65048926721E+01 -0.22706934449E+02  0.17888306215E+02  0.30000000000E+02  0.47000000000E+01 0.  1.
</event>
<event>
 5    1  0.7959189E-002  0.6000000E+02  0.7546771E-02  0.1259629E+00
         11   -1    0    0    0    0  0.00000000000E+00  0.00000000000E+00  0.30000000000E+02  0.30000000000E+02  0.00000000000E+00 0.  1.
        -11   -1    0    0    0    0 -0.00000000000E+00 -0.00000000000E+00 -0.30000000000E+02  0.30000000000E+02  0.00000000000E+00 0. -1.
         23    2    1    2    0    0  0.00000000000E+00  0.00000000000E+00  0.00000000000E+00  0.60000000000E+02  0.60000000000E+02 0.  0.
          5    1    3    3  501    0 -0.12281398349E+01  0.26220382959E+02  0.13743841894E+02  0.30000000000E+02  0.47000000000E+01 0. -1.
         -5    1    3    3    0  501  0.12281398349E+01 -0.26220382959E+02 -0.13743841894E+02  0.30000000000E+02  0.47000000000E+01 0.  1.
</event>
<event>
 5    1  0.7959189E-002  0.6000000E+02  0.7546771E-02  0.1259629E+00
         11   -1    0    0    0    0  0.00000000000E+00  0.00000000000E+00  0.30000000000E+02  0.30000000000E+02  0.00000000000E+00 0.  1.
        -11   -1    0    0    0    0 -0.00000000000E+00 -0.00000000000E+00 -0.30000000000E+02  0.30000000000E+02  0.00000000000E+00 0. -1.
         23    2    1    2    0    0  0.00000000000E+00  0.00000000000E+00  0.00000000000E+00  0.60000000000E+02  0.60000000000E+02 0.  0.
          5    1    3    3  501    0  0.28595481354E+01  0.29458470649E+02 -0.13897810968E+01  0.30000000000E+02  0.47000000000E+01 0. -1.
         -5    1    3    3    0  501 -0.28595481354E+01 -0.29458470649E+02  0.13897810968E+01  0.30000000000E+02  0.47000000000E+01 0.  1.
</event>
<event>
 5    1  0.7959189E-002  0.6000000E+02  0.7546771E-02  0.1259629E+00
         11   -1    0    0    0    0  0.00000000000E+00  0.00000000000E+00  0.30000000000E+02  0.30000000000E+02  0.00000000000E+00 0.  1.
        -11   -1    0    0    0    0 -0.00000000000E+00 -0.00000000000E+00 -0.30000000000E+02  0.30000000000E+02  0.00000000000E+00 0. -1.
         23    2    1    2    0    0  0.00000000000E+00  0.00000000000E+00  0.00000000000E+00  0.60000000000E+02  0.60000000000E+02 0.  0.
          5    1    3    3  501    0 -0.18202051733E+02 -0.19463327923E+02  0.12952767228E+02  0.30000000000E+02  0.47000000000E+01 0. -1.
         -5    1    3    3    0  501  0.18202051733E+02  0.19463327923E+02 -0.12952767228E+02  0.30000000000E+02  0.47000000000E+01 0.  1.
</event>
<event>
 5    1  0.7959189E-002  0.6000000E+02  0.7546771E-02  0.1259629E+00
         11   -1    0    0    0    0  0.00000000000E+00  0.00000000000E+00  0.30000000000E+02  0.30000000000E+02  0.00000000000E+00 0.  1.
        -11   -1    0    0    0    0 -0.00000000000E+00 -0.00000000000E+00 -0.30000000000E+02  0.30000000000E+02  0.00000000000E+00 0. -1.
         23    2    1    2    0    0  0.00000000000E+00  0.00000000000E+00  0.00000000000E+00  0.60000000000E+02  0.60000000000E+02 0.  0.
          5    1    3    3  501    0 -0.93044903253E+01  0.24493819255E+02 -0.13834351379E+02  0.30000000000E+02  0.47000000000E+01 0. -1.
         -5    1    3    3    0  501  0.93044903253E+01 -0.24493819255E+02  0.13834351379E+02  0.30000000000E+02  0.47000000000E+01 0.  1.
</event>
<event>
 5    1  0.7959189E-002  0.6000000E+02  0.7546771E-02  0.1259629E+00
         11   -1    0    0    0    0  0.00000000000E+00  0.00000000000E+00  0.30000000000E+02  0.30000000000E+02  0.00000000000E+00 0.  1.
        -11   -1    0    0    0    0 -0.00000000000E+00 -0.00000000000E+00 -0.30000000000E+02  0.30000000000E+02  0.00000000000E+00 0. -1.
         23    2    1    2    0    0  0.00000000000E+00  0.00000000000E+00  0.00000000000E+00  0.60000000000E+02  0.60000000000E+02 0.  0.
          5    1    3    3  501    0  0.18990096929E+01  0.15990684812E+02 -0.24871706042E+02  0.30000000000E+02  0.47000000000E+01 0. -1.
         -5    1    3    3    0  501 -0.18990096929E+01 -0.15990684812E+02  0.24871706042E+02  0.30000000000E+02  0.47000000000E+01 0.  1.
</event>
<event>
 5    1  0.7959189E-002  0.6000000E+02  0.7546771E-02  0.1259629E+00
         11   -1    0    0    0    0  0.00000000000E+00  0.00000000000E+00  0.30000000000E+02  0.30000000000E+02  0.00000000000E+00 0.  1.
        -11   -1    0    0    0    0 -0.00000000000E+00 -0.00000000000E+00 -0.30000000000E+02  0.30000000000E+02  0.00000000000E+00 0. -1.
         23    2    1    2    0    0  0.00000000000E+00  0.00000000000E+00  0.00000000000E+00  0.60000000000E+02  0.60000000000E+02 0.  0.
          5    1    3    3  501    0 -0.82303183625E+01 -0.15289026886E+02 -0.24008696685E+02  0.30000000000E+02  0.47000000000E+01 0. -1.
         -5    1    3    3    0  501  0.82303183625E+01  0.15289026886E+02  0.24008696685E+02  0.30000000000E+02  0.47000000000E+01 0.  1.
</event>
<event>
 5    1  0.7959189E-002  0.6000000E+02  0.7546771E-02  0.1259629E+00
         11   -1    0    0    0    0  0.00000000000E+00  0.00000000000E+00  0.30000000000E+02  0.30000000000E+02  0.00000000000E+00 0.  1.
        -11   -1    0    0    0    0 -0.00000000000E+00 -0.00000000000E+00 -0.30000000000E+02  0.30000000000E+02  0.00000000000E+00 0. -1.
         23    2    1    2    0    0  0.00000000000E+00  0.00000000000E+00  0.00000000000E+00  0.60000000000E+02  0.60000000000E+02 0.  0.
          5    1    3    3  501    0  0.15732067512E+02  0.20494650808E+02 -0.14504528260E+02  0.30000000000E+02  0.47000000000E+01 0. -1.
         -5    1    3    3    0  501 -0.15732067512E+02 -0.20494650808E+02  0.14504528260E+02  0.30000000000E+02  0.47000000000E+01 0.  1.
</event>
<event>
 5    1  0.7959189E-002  0.6000000E+02  0.7546771E-02  0.1259629E+00
         11   -1    0    0    0    0  0.00000000000E+00  0.00000000000E+00  0.30000000000E+02  0.30000000000E+02  0.00000000000E+00 0. -1.
        -11   -1    0    0    0    0 -0.00000000000E+00 -0.00000000000E+00 -0.30000000000E+02  0.30000000000E+02  0.00000000000E+00 0.  1.
         23    2    1    2    0    0  0.00000000000E+00  0.00000000000E+00  0.00000000000E+00  0.60000000000E+02  0.60000000000E+02 0.  0.
          5    1    3    3  501    0  0.28849363185E+02 -0.65192075481E+01 -0.17675340877E+01  0.30000000000E+02  0.47000000000E+01 0.  1.
         -5    1    3    3    0  501 -0.28849363185E+02  0.65192075481E+01  0.17675340877E+01  0.30000000000E+02  0.47000000000E+01 0. -1.
</event>
<event>
 5    1  0.7959189E-002  0.6000000E+02  0.7546771E-02  0.1259629E+00
         11   -1    0    0    0    0  0.00000000000E+00  0.00000000000E+00  0.30000000000E+02  0.30000000000E+02  0.00000000000E+00 0.  1.
        -11   -1    0    0    0    0 -0.00000000000E+00 -0.00000000000E+00 -0.30000000000E+02  0.30000000000E+02  0.00000000000E+00 0. -1.
         23    2    1    2    0    0  0.00000000000E+00  0.00000000000E+00  0.00000000000E+00  0.60000000000E+02  0.60000000000E+02 0.  0.
          5    1    3    3  501    0 -0.24778311074E+02 -0.12257017087E+02 -0.10663528143E+02  0.30000000000E+02  0.47000000000E+01 0. -1.
         -5    1    3    3    0  501  0.24778311074E+02  0.12257017087E+02  0.10663528143E+02  0.30000000000E+02  0.47000000000E+01 0.  1.
</event>
<event>
 5    1  0.7959189E-002  0.6000000E+02  0.7546771E-02  0.1259629E+00
         11   -1    0    0    0    0  0.00000000000E+00  0.00000000000E+00  0.30000000000E+02  0.30000000000E+02  0.00000000000E+00 0.  1.
        -11   -1    0    0    0    0 -0.00000000000E+00 -0.00000000000E+00 -0.30000000000E+02  0.30000000000E+02  0.00000000000E+00 0. -1.
         23    2    1    2    0    0  0.00000000000E+00  0.00000000000E+00  0.00000000000E+00  0.60000000000E+02  0.60000000000E+02 0.  0.
          5    1    3    3  501    0 -0.25088434368E+02  0.14119810817E+02 -0.70079528720E+01  0.30000000000E+02  0.47000000000E+01 0. -1.
         -5    1    3    3    0  501  0.25088434368E+02 -0.14119810817E+02  0.70079528720E+01  0.30000000000E+02  0.47000000000E+01 0.  1.
</event>
<event>
 5    1  0.7959189E-002  0.6000000E+02  0.7546771E-02  0.1259629E+00
         11   -1    0    0    0    0  0.00000000000E+00  0.00000000000E+00  0.30000000000E+02  0.30000000000E+02  0.00000000000E+00 0.  1.
        -11   -1    0    0    0    0 -0.00000000000E+00 -0.00000000000E+00 -0.30000000000E+02  0.30000000000E+02  0.00000000000E+00 0. -1.
         23    2    1    2    0    0  0.00000000000E+00  0.00000000000E+00  0.00000000000E+00  0.60000000000E+02  0.60000000000E+02 0.  0.
          5    1    3    3  501    0  0.25032390228E+02  0.15848490226E+02 -0.33881711725E+00  0.30000000000E+02  0.47000000000E+01 0. -1.
         -5    1    3    3    0  501 -0.25032390228E+02 -0.15848490226E+02  0.33881711725E+00  0.30000000000E+02  0.47000000000E+01 0.  1.
</event>
<event>
 5    1  0.7959189E-002  0.6000000E+02  0.7546771E-02  0.1259629E+00
         11   -1    0    0    0    0  0.00000000000E+00  0.00000000000E+00  0.30000000000E+02  0.30000000000E+02  0.00000000000E+00 0.  1.
        -11   -1    0    0    0    0 -0.00000000000E+00 -0.00000000000E+00 -0.30000000000E+02  0.30000000000E+02  0.00000000000E+00 0. -1.
         23    2    1    2    0    0  0.00000000000E+00  0.00000000000E+00  0.00000000000E+00  0.60000000000E+02  0.60000000000E+02 0.  0.
          5    1    3    3  501    0 -0.22445709164E+02  0.19341555279E+02 -0.66177944478E-01  0.30000000000E+02  0.47000000000E+01 0. -1.
         -5    1    3    3    0  501  0.22445709164E+02 -0.19341555279E+02  0.66177944478E-01  0.30000000000E+02  0.47000000000E+01 0.  1.
</event>
<event>
 5    1  0.7959189E-002  0.6000000E+02  0.7546771E-02  0.1259629E+00
         11   -1    0    0    0    0  0.00000000000E+00  0.00000000000E+00  0.30000000000E+02  0.30000000000E+02  0.00000000000E+00 0.  1.
        -11   -1    0    0    0    0 -0.00000000000E+00 -0.00000000000E+00 -0.30000000000E+02  0.30000000000E+02  0.00000000000E+00 0. -1.
         23    2    1    2    0    0  0.00000000000E+00  0.00000000000E+00  0.00000000000E+00  0.60000000000E+02  0.60000000000E+02 0.  0.
          5    1    3    3  501    0 -0.21668231230E+01 -0.21463084523E+02 -0.20311348560E+02  0.30000000000E+02  0.47000000000E+01 0. -1.
         -5    1    3    3    0  501  0.21668231230E+01  0.21463084523E+02  0.20311348560E+02  0.30000000000E+02  0.47000000000E+01 0.  1.
</event>
<event>
 5    1  0.7959189E-002  0.6000000E+02  0.7546771E-02  0.1259629E+00
         11   -1    0    0    0    0  0.00000000000E+00  0.00000000000E+00  0.30000000000E+02  0.30000000000E+02  0.00000000000E+00 0. -1.
        -11   -1    0    0    0    0 -0.00000000000E+00 -0.00000000000E+00 -0.30000000000E+02  0.30000000000E+02  0.00000000000E+00 0.  1.
         23    2    1    2    0    0  0.00000000000E+00  0.00000000000E+00  0.00000000000E+00  0.60000000000E+02  0.60000000000E+02 0.  0.
          5    1    3    3  501    0 -0.25590820218E+02 -0.11312568655E+02 -0.97491389884E+01  0.30000000000E+02  0.47000000000E+01 0.  1.
         -5    1    3    3    0  501  0.25590820218E+02  0.11312568655E+02  0.97491389884E+01  0.30000000000E+02  0.47000000000E+01 0. -1.
</event>
<event>
 5    1  0.7959189E-002  0.6000000E+02  0.7546771E-02  0.1259629E+00
         11   -1    0    0    0    0  0.00000000000E+00  0.00000000000E+00  0.30000000000E+02  0.30000000000E+02  0.00000000000E+00 0.  1.
        -11   -1    0    0    0    0 -0.00000000000E+00 -0.00000000000E+00 -0.30000000000E+02  0.30000000000E+02  0.00000000000E+00 0. -1.
         23    2    1    2    0    0  0.00000000000E+00  0.00000000000E+00  0.00000000000E+00  0.60000000000E+02  0.60000000000E+02 0.  0.
          5    1    3    3  501    0 -0.42783305632E+01 -0.28035797462E+02  0.85790412190E+01  0.30000000000E+02  0.47000000000E+01 0.  1.
         -5    1    3    3    0  501  0.42783305632E+01  0.28035797462E+02 -0.85790412190E+01  0.30000000000E+02  0.47000000000E+01 0.  1.
</event>
<event>
 5    1  0.7959189E-002  0.6000000E+02  0.7546771E-02  0.1259629E+00
         11   -1    0    0    0    0  0.00000000000E+00  0.00000000000E+00  0.30000000000E+02  0.30000000000E+02  0.00000000000E+00 0.  1.
        -11   -1    0    0    0    0 -0.00000000000E+00 -0.00000000000E+00 -0.30000000000E+02  0.30000000000E+02  0.00000000000E+00 0. -1.
         23    2    1    2    0    0  0.00000000000E+00  0.00000000000E+00  0.00000000000E+00  0.60000000000E+02  0.60000000000E+02 0.  0.
          5    1    3    3  501    0  0.13628308338E+02 -0.71744493450E+01 -0.25312180634E+02  0.30000000000E+02  0.47000000000E+01 0. -1.
         -5    1    3    3    0  501 -0.13628308338E+02  0.71744493450E+01  0.25312180634E+02  0.30000000000E+02  0.47000000000E+01 0.  1.
</event>
<event>
 5    1  0.7959189E-002  0.6000000E+02  0.7546771E-02  0.1259629E+00
         11   -1    0    0    0    0  0.00000000000E+00  0.00000000000E+00  0.30000000000E+02  0.30000000000E+02  0.00000000000E+00 0. -1.
        -11   -1    0    0    0    0 -0.00000000000E+00 -0.00000000000E+00 -0.30000000000E+02  0.30000000000E+02  0.00000000000E+00 0.  1.
         23    2    1    2    0    0  0.00000000000E+00  0.00000000000E+00  0.00000000000E+00  0.60000000000E+02  0.60000000000E+02 0.  0.
          5    1    3    3  501    0  0.25866942696E+02  0.10370287447E+02 -0.10063220847E+02  0.30000000000E+02  0.47000000000E+01 0.  1.
         -5    1    3    3    0  501 -0.25866942696E+02 -0.10370287447E+02  0.10063220847E+02  0.30000000000E+02  0.47000000000E+01 0. -1.
</event>
<event>
 5    1  0.7959189E-002  0.6000000E+02  0.7546771E-02  0.1259629E+00
         11   -1    0    0    0    0  0.00000000000E+00  0.00000000000E+00  0.30000000000E+02  0.30000000000E+02  0.00000000000E+00 0.  1.
        -11   -1    0    0    0    0 -0.00000000000E+00 -0.00000000000E+00 -0.30000000000E+02  0.30000000000E+02  0.00000000000E+00 0. -1.
         23    2    1    2    0    0  0.00000000000E+00  0.00000000000E+00  0.00000000000E+00  0.60000000000E+02  0.60000000000E+02 0.  0.
          5    1    3    3  501    0  0.17997453674E+02 -0.11906332854E+02  0.20303716389E+02  0.30000000000E+02  0.47000000000E+01 0.  1.
         -5    1    3    3    0  501 -0.17997453674E+02  0.11906332854E+02 -0.20303716389E+02  0.30000000000E+02  0.47000000000E+01 0. -1.
</event>
<event>
 5    1  0.7959189E-002  0.6000000E+02  0.7546771E-02  0.1259629E+00
         11   -1    0    0    0    0  0.00000000000E+00  0.00000000000E+00  0.30000000000E+02  0.30000000000E+02  0.00000000000E+00 0.  1.
        -11   -1    0    0    0    0 -0.00000000000E+00 -0.00000000000E+00 -0.30000000000E+02  0.30000000000E+02  0.00000000000E+00 0. -1.
         23    2    1    2    0    0  0.00000000000E+00  0.00000000000E+00  0.00000000000E+00  0.60000000000E+02  0.60000000000E+02 0.  0.
          5    1    3    3  501    0  0.69198294306E+01 -0.44857920213E+01 -0.28458805853E+02  0.30000000000E+02  0.47000000000E+01 0. -1.
         -5    1    3    3    0  501 -0.69198294306E+01  0.44857920213E+01  0.28458805853E+02  0.30000000000E+02  0.47000000000E+01 0.  1.
</event>
<event>
 5    1  0.7959189E-002  0.6000000E+02  0.7546771E-02  0.1259629E+00
         11   -1    0    0    0    0  0.00000000000E+00  0.00000000000E+00  0.30000000000E+02  0.30000000000E+02  0.00000000000E+00 0. -1.
        -11   -1    0    0    0    0 -0.00000000000E+00 -0.00000000000E+00 -0.30000000000E+02  0.30000000000E+02  0.00000000000E+00 0.  1.
         23    2    1    2    0    0  0.00000000000E+00  0.00000000000E+00  0.00000000000E+00  0.60000000000E+02  0.60000000000E+02 0.  0.
          5    1    3    3  501    0 -0.14922045900E+02 -0.16534879811E+01 -0.25544246391E+02  0.30000000000E+02  0.47000000000E+01 0.  1.
         -5    1    3    3    0  501  0.14922045900E+02  0.16534879811E+01  0.25544246391E+02  0.30000000000E+02  0.47000000000E+01 0. -1.
</event>
<event>
 5    1  0.7959189E-002  0.6000000E+02  0.7546771E-02  0.1259629E+00
         11   -1    0    0    0    0  0.00000000000E+00  0.00000000000E+00  0.30000000000E+02  0.30000000000E+02  0.00000000000E+00 0.  1.
        -11   -1    0    0    0    0 -0.00000000000E+00 -0.00000000000E+00 -0.30000000000E+02  0.30000000000E+02  0.00000000000E+00 0. -1.
         23    2    1    2    0    0  0.00000000000E+00  0.00000000000E+00  0.00000000000E+00  0.60000000000E+02  0.60000000000E+02 0.  0.
          5    1    3    3  501    0 -0.45211624234E+01 -0.12578139867E+00 -0.29282303007E+02  0.30000000000E+02  0.47000000000E+01 0. -1.
         -5    1    3    3    0  501  0.45211624234E+01  0.12578139867E+00  0.29282303007E+02  0.30000000000E+02  0.47000000000E+01 0.  1.
</event>
<event>
 5    1  0.7959189E-002  0.6000000E+02  0.7546771E-02  0.1259629E+00
         11   -1    0    0    0    0  0.00000000000E+00  0.00000000000E+00  0.30000000000E+02  0.30000000000E+02  0.00000000000E+00 0. -1.
        -11   -1    0    0    0    0 -0.00000000000E+00 -0.00000000000E+00 -0.30000000000E+02  0.30000000000E+02  0.00000000000E+00 0.  1.
         23    2    1    2    0    0  0.00000000000E+00  0.00000000000E+00  0.00000000000E+00  0.60000000000E+02  0.60000000000E+02 0.  0.
          5    1    3    3  501    0  0.91918719647E+01  0.10532986418E+02 -0.26124235623E+02  0.30000000000E+02  0.47000000000E+01 0.  1.
         -5    1    3    3    0  501 -0.91918719647E+01 -0.10532986418E+02  0.26124235623E+02  0.30000000000E+02  0.47000000000E+01 0. -1.
</event>
<event>
 5    1  0.7959189E-002  0.6000000E+02  0.7546771E-02  0.1259629E+00
         11   -1    0    0    0    0  0.00000000000E+00  0.00000000000E+00  0.30000000000E+02  0.30000000000E+02  0.00000000000E+00 0. -1.
        -11   -1    0    0    0    0 -0.00000000000E+00 -0.00000000000E+00 -0.30000000000E+02  0.30000000000E+02  0.00000000000E+00 0.  1.
         23    2    1    2    0    0  0.00000000000E+00  0.00000000000E+00  0.00000000000E+00  0.60000000000E+02  0.60000000000E+02 0.  0.
          5    1    3    3  501    0 -0.65957146910E+01 -0.22373298196E+02 -0.18271345750E+02  0.30000000000E+02  0.47000000000E+01 0.  1.
         -5    1    3    3    0  501  0.65957146910E+01  0.22373298196E+02  0.18271345750E+02  0.30000000000E+02  0.47000000000E+01 0. -1.
</event>
<event>
 5    1  0.7959189E-002  0.6000000E+02  0.7546771E-02  0.1259629E+00
         11   -1    0    0    0    0  0.00000000000E+00  0.00000000000E+00  0.30000000000E+02  0.30000000000E+02  0.00000000000E+00 0. -1.
        -11   -1    0    0    0    0 -0.00000000000E+00 -0.00000000000E+00 -0.30000000000E+02  0.30000000000E+02  0.00000000000E+00 0.  1.
         23    2    1    2    0    0  0.00000000000E+00  0.00000000000E+00  0.00000000000E+00  0.60000000000E+02  0.60000000000E+02 0.  0.
          5    1    3    3  501    0 -0.14854017129E+01 -0.27137169419E+02 -0.11801593861E+02  0.30000000000E+02  0.47000000000E+01 0.  1.
         -5    1    3    3    0  501  0.14854017129E+01  0.27137169419E+02  0.11801593861E+02  0.30000000000E+02  0.47000000000E+01 0. -1.
</event>
<event>
 5    1  0.7959189E-002  0.6000000E+02  0.7546771E-02  0.1259629E+00
         11   -1    0    0    0    0  0.00000000000E+00  0.00000000000E+00  0.30000000000E+02  0.30000000000E+02  0.00000000000E+00 0.  1.
        -11   -1    0    0    0    0 -0.00000000000E+00 -0.00000000000E+00 -0.30000000000E+02  0.30000000000E+02  0.00000000000E+00 0. -1.
         23    2    1    2    0    0  0.00000000000E+00  0.00000000000E+00  0.00000000000E+00  0.60000000000E+02  0.60000000000E+02 0.  0.
          5    1    3    3  501    0  0.24775361076E+02  0.15260935937E+02 -0.55852768866E+01  0.30000000000E+02  0.47000000000E+01 0. -1.
         -5    1    3    3    0  501 -0.24775361076E+02 -0.15260935937E+02  0.55852768866E+01  0.30000000000E+02  0.47000000000E+01 0.  1.
</event>
<event>
 5    1  0.7959189E-002  0.6000000E+02  0.7546771E-02  0.1259629E+00
         11   -1    0    0    0    0  0.00000000000E+00  0.00000000000E+00  0.30000000000E+02  0.30000000000E+02  0.00000000000E+00 0.  1.
        -11   -1    0    0    0    0 -0.00000000000E+00 -0.00000000000E+00 -0.30000000000E+02  0.30000000000E+02  0.00000000000E+00 0. -1.
         23    2    1    2    0    0  0.00000000000E+00  0.00000000000E+00  0.00000000000E+00  0.60000000000E+02  0.60000000000E+02 0.  0.
          5    1    3    3  501    0  0.12760745113E+02  0.12133492906E+02 -0.23829639822E+02  0.30000000000E+02  0.47000000000E+01 0. -1.
         -5    1    3    3    0  501 -0.12760745113E+02 -0.12133492906E+02  0.23829639822E+02  0.30000000000E+02  0.47000000000E+01 0. -1.
</event>
<event>
 5    1  0.7959189E-002  0.6000000E+02  0.7546771E-02  0.1259629E+00
         11   -1    0    0    0    0  0.00000000000E+00  0.00000000000E+00  0.30000000000E+02  0.30000000000E+02  0.00000000000E+00 0.  1.
        -11   -1    0    0    0    0 -0.00000000000E+00 -0.00000000000E+00 -0.30000000000E+02  0.30000000000E+02  0.00000000000E+00 0. -1.
         23    2    1    2    0    0  0.00000000000E+00  0.00000000000E+00  0.00000000000E+00  0.60000000000E+02  0.60000000000E+02 0.  0.
          5    1    3    3  501    0 -0.12249996454E+02 -0.25448754840E+02 -0.89559178169E+01  0.30000000000E+02  0.47000000000E+01 0. -1.
         -5    1    3    3    0  501  0.12249996454E+02  0.25448754840E+02  0.89559178169E+01  0.30000000000E+02  0.47000000000E+01 0.  1.
</event>
<event>
 5    1  0.7959189E-002  0.6000000E+02  0.7546771E-02  0.1259629E+00
         11   -1    0    0    0    0  0.00000000000E+00  0.00000000000E+00  0.30000000000E+02  0.30000000000E+02  0.00000000000E+00 0.  1.
        -11   -1    0    0    0    0 -0.00000000000E+00 -0.00000000000E+00 -0.30000000000E+02  0.30000000000E+02  0.00000000000E+00 0. -1.
         23    2    1    2    0    0  0.00000000000E+00  0.00000000000E+00  0.00000000000E+00  0.60000000000E+02  0.60000000000E+02 0.  0.
          5    1    3    3  501    0 -0.11423731977E+02 -0.23921592912E+01 -0.27233911244E+02  0.30000000000E+02  0.47000000000E+01 0. -1.
         -5    1    3    3    0  501  0.11423731977E+02  0.23921592912E+01  0.27233911244E+02  0.30000000000E+02  0.47000000000E+01 0.  1.
</event>
<event>
 5    1  0.7959189E-002  0.6000000E+02  0.7546771E-02  0.1259629E+00
         11   -1    0    0    0    0  0.00000000000E+00  0.00000000000E+00  0.30000000000E+02  0.30000000000E+02  0.00000000000E+00 0. -1.
        -11   -1    0    0    0    0 -0.00000000000E+00 -0.00000000000E+00 -0.30000000000E+02  0.30000000000E+02  0.00000000000E+00 0.  1.
         23    2    1    2    0    0  0.00000000000E+00  0.00000000000E+00  0.00000000000E+00  0.60000000000E+02  0.60000000000E+02 0.  0.
          5    1    3    3  501    0  0.14989060537E+02  0.24135259632E+01 -0.25444310890E+02  0.30000000000E+02  0.47000000000E+01 0.  1.
         -5    1    3    3    0  501 -0.14989060537E+02 -0.24135259632E+01  0.25444310890E+02  0.30000000000E+02  0.47000000000E+01 0. -1.
</event>
<event>
 5    1  0.7959189E-002  0.6000000E+02  0.7546771E-02  0.1259629E+00
         11   -1    0    0    0    0  0.00000000000E+00  0.00000000000E+00  0.30000000000E+02  0.30000000000E+02  0.00000000000E+00 0.  1.
        -11   -1    0    0    0    0 -0.00000000000E+00 -0.00000000000E+00 -0.30000000000E+02  0.30000000000E+02  0.00000000000E+00 0. -1.
         23    2    1    2    0    0  0.00000000000E+00  0.00000000000E+00  0.00000000000E+00  0.60000000000E+02  0.60000000000E+02 0.  0.
          5    1    3    3  501    0  0.17634722616E+02  0.37316619248E+01 -0.23515978770E+02  0.30000000000E+02  0.47000000000E+01 0. -1.
         -5    1    3    3    0  501 -0.17634722616E+02 -0.37316619248E+01  0.23515978770E+02  0.30000000000E+02  0.47000000000E+01 0.  1.
</event>
<event>
 5    1  0.7959189E-002  0.6000000E+02  0.7546771E-02  0.1259629E+00
         11   -1    0    0    0    0  0.00000000000E+00  0.00000000000E+00  0.30000000000E+02  0.30000000000E+02  0.00000000000E+00 0.  1.
        -11   -1    0    0    0    0 -0.00000000000E+00 -0.00000000000E+00 -0.30000000000E+02  0.30000000000E+02  0.00000000000E+00 0. -1.
         23    2    1    2    0    0  0.00000000000E+00  0.00000000000E+00  0.00000000000E+00  0.60000000000E+02  0.60000000000E+02 0.  0.
          5    1    3    3  501    0 -0.28056326637E+02 -0.21194851011E+01  0.92876433249E+01  0.30000000000E+02  0.47000000000E+01 0. -1.
         -5    1    3    3    0  501  0.28056326637E+02  0.21194851011E+01 -0.92876433249E+01  0.30000000000E+02  0.47000000000E+01 0.  1.
</event>
<event>
 5    1  0.7959189E-002  0.6000000E+02  0.7546771E-02  0.1259629E+00
         11   -1    0    0    0    0  0.00000000000E+00  0.00000000000E+00  0.30000000000E+02  0.30000000000E+02  0.00000000000E+00 0. -1.
        -11   -1    0    0    0    0 -0.00000000000E+00 -0.00000000000E+00 -0.30000000000E+02  0.30000000000E+02  0.00000000000E+00 0.  1.
         23    2    1    2    0    0  0.00000000000E+00  0.00000000000E+00  0.00000000000E+00  0.60000000000E+02  0.60000000000E+02 0.  0.
          5    1    3    3  501    0 -0.69712582837E+01 -0.12078839922E+02 -0.26142172520E+02  0.30000000000E+02  0.47000000000E+01 0.  1.
         -5    1    3    3    0  501  0.69712582837E+01  0.12078839922E+02  0.26142172520E+02  0.30000000000E+02  0.47000000000E+01 0. -1.
</event>
<event>
 5    1  0.7959189E-002  0.6000000E+02  0.7546771E-02  0.1259629E+00
         11   -1    0    0    0    0  0.00000000000E+00  0.00000000000E+00  0.30000000000E+02  0.30000000000E+02  0.00000000000E+00 0.  1.
        -11   -1    0    0    0    0 -0.00000000000E+00 -0.00000000000E+00 -0.30000000000E+02  0.30000000000E+02  0.00000000000E+00 0. -1.
         23    2    1    2    0    0  0.00000000000E+00  0.00000000000E+00  0.00000000000E+00  0.60000000000E+02  0.60000000000E+02 0.  0.
          5    1    3    3  501    0 -0.15454454902E+02 -0.70708119353E+01  0.24270835219E+02  0.30000000000E+02  0.47000000000E+01 0.  1.
         -5    1    3    3    0  501  0.15454454902E+02  0.70708119353E+01 -0.24270835219E+02  0.30000000000E+02  0.47000000000E+01 0. -1.
</event>
<event>
 5    1  0.7959189E-002  0.6000000E+02  0.7546771E-02  0.1259629E+00
         11   -1    0    0    0    0  0.00000000000E+00  0.00000000000E+00  0.30000000000E+02  0.30000000000E+02  0.00000000000E+00 0.  1.
        -11   -1    0    0    0    0 -0.00000000000E+00 -0.00000000000E+00 -0.30000000000E+02  0.30000000000E+02  0.00000000000E+00 0. -1.
         23    2    1    2    0    0  0.00000000000E+00  0.00000000000E+00  0.00000000000E+00  0.60000000000E+02  0.60000000000E+02 0.  0.
          5    1    3    3  501    0 -0.79270735170E+00 -0.23841888034E+02 -0.17574014624E+02  0.30000000000E+02  0.47000000000E+01 0. -1.
         -5    1    3    3    0  501  0.79270735170E+00  0.23841888034E+02  0.17574014624E+02  0.30000000000E+02  0.47000000000E+01 0.  1.
</event>
<event>
 5    1  0.7959189E-002  0.6000000E+02  0.7546771E-02  0.1259629E+00
         11   -1    0    0    0    0  0.00000000000E+00  0.00000000000E+00  0.30000000000E+02  0.30000000000E+02  0.00000000000E+00 0. -1.
        -11   -1    0    0    0    0 -0.00000000000E+00 -0.00000000000E+00 -0.30000000000E+02  0.30000000000E+02  0.00000000000E+00 0.  1.
         23    2    1    2    0    0  0.00000000000E+00  0.00000000000E+00  0.00000000000E+00  0.60000000000E+02  0.60000000000E+02 0.  0.
          5    1    3    3  501    0  0.27364623612E+02  0.61140859255E+00  0.11345199607E+02  0.30000000000E+02  0.47000000000E+01 0.  1.
         -5    1    3    3    0  501 -0.27364623612E+02 -0.61140859255E+00 -0.11345199607E+02  0.30000000000E+02  0.47000000000E+01 0. -1.
</event>
<event>
 5    1  0.7959189E-002  0.6000000E+02  0.7546771E-02  0.1259629E+00
         11   -1    0    0    0    0  0.00000000000E+00  0.00000000000E+00  0.30000000000E+02  0.30000000000E+02  0.00000000000E+00 0.  1.
        -11   -1    0    0    0    0 -0.00000000000E+00 -0.00000000000E+00 -0.30000000000E+02  0.30000000000E+02  0.00000000000E+00 0. -1.
         23    2    1    2    0    0  0.00000000000E+00  0.00000000000E+00  0.00000000000E+00  0.60000000000E+02  0.60000000000E+02 0.  0.
          5    1    3    3  501    0  0.77220182817E+01  0.55075192223E+01 -0.28070405513E+02  0.30000000000E+02  0.47000000000E+01 0. -1.
         -5    1    3    3    0  501 -0.77220182817E+01 -0.55075192223E+01  0.28070405513E+02  0.30000000000E+02  0.47000000000E+01 0.  1.
</event>
<event>
 5    1  0.7959189E-002  0.6000000E+02  0.7546771E-02  0.1259629E+00
         11   -1    0    0    0    0  0.00000000000E+00  0.00000000000E+00  0.30000000000E+02  0.30000000000E+02  0.00000000000E+00 0.  1.
        -11   -1    0    0    0    0 -0.00000000000E+00 -0.00000000000E+00 -0.30000000000E+02  0.30000000000E+02  0.00000000000E+00 0. -1.
         23    2    1    2    0    0  0.00000000000E+00  0.00000000000E+00  0.00000000000E+00  0.60000000000E+02  0.60000000000E+02 0.  0.
          5    1    3    3  501    0 -0.19976660032E+02 -0.21276984861E+02  0.51120415866E+01  0.30000000000E+02  0.47000000000E+01 0. -1.
         -5    1    3    3    0  501  0.19976660032E+02  0.21276984861E+02 -0.51120415866E+01  0.30000000000E+02  0.47000000000E+01 0.  1.
</event>
<event>
 5    1  0.7959189E-002  0.6000000E+02  0.7546771E-02  0.1259629E+00
         11   -1    0    0    0    0  0.00000000000E+00  0.00000000000E+00  0.30000000000E+02  0.30000000000E+02  0.00000000000E+00 0. -1.
        -11   -1    0    0    0    0 -0.00000000000E+00 -0.00000000000E+00 -0.30000000000E+02  0.30000000000E+02  0.00000000000E+00 0.  1.
         23    2    1    2    0    0  0.00000000000E+00  0.00000000000E+00  0.00000000000E+00  0.60000000000E+02  0.60000000000E+02 0.  0.
          5    1    3    3  501    0  0.14306650811E+02  0.10575169482E+02 -0.23693786802E+02  0.30000000000E+02  0.47000000000E+01 0.  1.
         -5    1    3    3    0  501 -0.14306650811E+02 -0.10575169482E+02  0.23693786802E+02  0.30000000000E+02  0.47000000000E+01 0. -1.
</event>
<event>
 5    1  0.7959189E-002  0.6000000E+02  0.7546771E-02  0.1259629E+00
         11   -1    0    0    0    0  0.00000000000E+00  0.00000000000E+00  0.30000000000E+02  0.30000000000E+02  0.00000000000E+00 0. -1.
        -11   -1    0    0    0    0 -0.00000000000E+00 -0.00000000000E+00 -0.30000000000E+02  0.30000000000E+02  0.00000000000E+00 0.  1.
         23    2    1    2    0    0  0.00000000000E+00  0.00000000000E+00  0.00000000000E+00  0.60000000000E+02  0.60000000000E+02 0.  0.
          5    1    3    3  501    0  0.72387709279E+01  0.25063837292E+02 -0.14046859281E+02  0.30000000000E+02  0.47000000000E+01 0.  1.
         -5    1    3    3    0  501 -0.72387709279E+01 -0.25063837292E+02  0.14046859281E+02  0.30000000000E+02  0.47000000000E+01 0. -1.
</event>
<event>
 5    1  0.7959189E-002  0.6000000E+02  0.7546771E-02  0.1259629E+00
         11   -1    0    0    0    0  0.00000000000E+00  0.00000000000E+00  0.30000000000E+02  0.30000000000E+02  0.00000000000E+00 0.  1.
        -11   -1    0    0    0    0 -0.00000000000E+00 -0.00000000000E+00 -0.30000000000E+02  0.30000000000E+02  0.00000000000E+00 0. -1.
         23    2    1    2    0    0  0.00000000000E+00  0.00000000000E+00  0.00000000000E+00  0.60000000000E+02  0.60000000000E+02 0.  0.
          5    1    3    3  501    0 -0.13068808846E+02  0.25752648884E+02 -0.66270137195E+01  0.30000000000E+02  0.47000000000E+01 0. -1.
         -5    1    3    3    0  501  0.13068808846E+02 -0.25752648884E+02  0.66270137195E+01  0.30000000000E+02  0.47000000000E+01 0.  1.
</event>
<event>
 5    1  0.7959189E-002  0.6000000E+02  0.7546771E-02  0.1259629E+00
         11   -1    0    0    0    0  0.00000000000E+00  0.00000000000E+00  0.30000000000E+02  0.30000000000E+02  0.00000000000E+00 0.  1.
        -11   -1    0    0    0    0 -0.00000000000E+00 -0.00000000000E+00 -0.30000000000E+02  0.30000000000E+02  0.00000000000E+00 0. -1.
         23    2    1    2    0    0  0.00000000000E+00  0.00000000000E+00  0.00000000000E+00  0.60000000000E+02  0.60000000000E+02 0.  0.
          5    1    3    3  501    0  0.13714232042E+02 -0.20480459767E+02 -0.16443254156E+02  0.30000000000E+02  0.47000000000E+01 0. -1.
         -5    1    3    3    0  501 -0.13714232042E+02  0.20480459767E+02  0.16443254156E+02  0.30000000000E+02  0.47000000000E+01 0.  1.
</event>
<event>
 5    1  0.7959189E-002  0.6000000E+02  0.7546771E-02  0.1259629E+00
         11   -1    0    0    0    0  0.00000000000E+00  0.00000000000E+00  0.30000000000E+02  0.30000000000E+02  0.00000000000E+00 0. -1.
        -11   -1    0    0    0    0 -0.00000000000E+00 -0.00000000000E+00 -0.30000000000E+02  0.30000000000E+02  0.00000000000E+00 0.  1.
         23    2    1    2    0    0  0.00000000000E+00  0.00000000000E+00  0.00000000000E+00  0.60000000000E+02  0.60000000000E+02 0.  0.
          5    1    3    3  501    0  0.80727520132E+01 -0.44167701465E+01 -0.28164389154E+02  0.30000000000E+02  0.47000000000E+01 0.  1.
         -5    1    3    3    0  501 -0.80727520132E+01  0.44167701465E+01  0.28164389154E+02  0.30000000000E+02  0.47000000000E+01 0. -1.
</event>
<event>
 5    1  0.7959189E-002  0.6000000E+02  0.7546771E-02  0.1259629E+00
         11   -1    0    0    0    0  0.00000000000E+00  0.00000000000E+00  0.30000000000E+02  0.30000000000E+02  0.00000000000E+00 0.  1.
        -11   -1    0    0    0    0 -0.00000000000E+00 -0.00000000000E+00 -0.30000000000E+02  0.30000000000E+02  0.00000000000E+00 0. -1.
         23    2    1    2    0    0  0.00000000000E+00  0.00000000000E+00  0.00000000000E+00  0.60000000000E+02  0.60000000000E+02 0.  0.
          5    1    3    3  501    0  0.10082667584E+02 -0.14141190043E+02 -0.24005760945E+02  0.30000000000E+02  0.47000000000E+01 0. -1.
         -5    1    3    3    0  501 -0.10082667584E+02  0.14141190043E+02  0.24005760945E+02  0.30000000000E+02  0.47000000000E+01 0.  1.
</event>
<event>
 5    1  0.7959189E-002  0.6000000E+02  0.7546771E-02  0.1259629E+00
         11   -1    0    0    0    0  0.00000000000E+00  0.00000000000E+00  0.30000000000E+02  0.30000000000E+02  0.00000000000E+00 0. -1.
        -11   -1    0    0    0    0 -0.00000000000E+00 -0.00000000000E+00 -0.30000000000E+02  0.30000000000E+02  0.00000000000E+00 0.  1.
         23    2    1    2    0    0  0.00000000000E+00  0.00000000000E+00  0.00000000000E+00  0.60000000000E+02  0.60000000000E+02 0.  0.
          5    1    3    3  501    0 -0.78067123624E+01  0.28413291970E+02 -0.31064580387E+01  0.30000000000E+02  0.47000000000E+01 0.  1.
         -5    1    3    3    0  501  0.78067123624E+01 -0.28413291970E+02  0.31064580387E+01  0.30000000000E+02  0.47000000000E+01 0. -1.
</event>
<event>
 5    1  0.7959189E-002  0.6000000E+02  0.7546771E-02  0.1259629E+00
         11   -1    0    0    0    0  0.00000000000E+00  0.00000000000E+00  0.30000000000E+02  0.30000000000E+02  0.00000000000E+00 0. -1.
        -11   -1    0    0    0    0 -0.00000000000E+00 -0.00000000000E+00 -0.30000000000E+02  0.30000000000E+02  0.00000000000E+00 0.  1.
         23    2    1    2    0    0  0.00000000000E+00  0.00000000000E+00  0.00000000000E+00  0.60000000000E+02  0.60000000000E+02 0.  0.
          5    1    3    3  501    0  0.12398275445E+02 -0.97305179770E+01 -0.25090033597E+02  0.30000000000E+02  0.47000000000E+01 0.  1.
         -5    1    3    3    0  501 -0.12398275445E+02  0.97305179770E+01  0.25090033597E+02  0.30000000000E+02  0.47000000000E+01 0. -1.
</event>
<event>
 5    1  0.7959189E-002  0.6000000E+02  0.7546771E-02  0.1259629E+00
         11   -1    0    0    0    0  0.00000000000E+00  0.00000000000E+00  0.30000000000E+02  0.30000000000E+02  0.00000000000E+00 0.  1.
        -11   -1    0    0    0    0 -0.00000000000E+00 -0.00000000000E+00 -0.30000000000E+02  0.30000000000E+02  0.00000000000E+00 0. -1.
         23    2    1    2    0    0  0.00000000000E+00  0.00000000000E+00  0.00000000000E+00  0.60000000000E+02  0.60000000000E+02 0.  0.
          5    1    3    3  501    0  0.12777276543E+02  0.24948927527E+02 -0.96021986738E+01  0.30000000000E+02  0.47000000000E+01 0. -1.
         -5    1    3    3    0  501 -0.12777276543E+02 -0.24948927527E+02  0.96021986738E+01  0.30000000000E+02  0.47000000000E+01 0.  1.
</event>
<event>
 5    1  0.7959189E-002  0.6000000E+02  0.7546771E-02  0.1259629E+00
         11   -1    0    0    0    0  0.00000000000E+00  0.00000000000E+00  0.30000000000E+02  0.30000000000E+02  0.00000000000E+00 0.  1.
        -11   -1    0    0    0    0 -0.00000000000E+00 -0.00000000000E+00 -0.30000000000E+02  0.30000000000E+02  0.00000000000E+00 0. -1.
         23    2    1    2    0    0  0.00000000000E+00  0.00000000000E+00  0.00000000000E+00  0.60000000000E+02  0.60000000000E+02 0.  0.
          5    1    3    3  501    0  0.16001071748E+02 -0.37884542948E+01 -0.24647988092E+02  0.30000000000E+02  0.47000000000E+01 0. -1.
         -5    1    3    3    0  501 -0.16001071748E+02  0.37884542948E+01  0.24647988092E+02  0.30000000000E+02  0.47000000000E+01 0.  1.
</event>
<event>
 5    1  0.7959189E-002  0.6000000E+02  0.7546771E-02  0.1259629E+00
         11   -1    0    0    0    0  0.00000000000E+00  0.00000000000E+00  0.30000000000E+02  0.30000000000E+02  0.00000000000E+00 0.  1.
        -11   -1    0    0    0    0 -0.00000000000E+00 -0.00000000000E+00 -0.30000000000E+02  0.30000000000E+02  0.00000000000E+00 0. -1.
         23    2    1    2    0    0  0.00000000000E+00  0.00000000000E+00  0.00000000000E+00  0.60000000000E+02  0.60000000000E+02 0.  0.
          5    1    3    3  501    0  0.21742932860E+02 -0.21751960063E+01 -0.20010582025E+02  0.30000000000E+02  0.47000000000E+01 0. -1.
         -5    1    3    3    0  501 -0.21742932860E+02  0.21751960063E+01  0.20010582025E+02  0.30000000000E+02  0.47000000000E+01 0.  1.
</event>
<event>
 5    1  0.7959189E-002  0.6000000E+02  0.7546771E-02  0.1259629E+00
         11   -1    0    0    0    0  0.00000000000E+00  0.00000000000E+00  0.30000000000E+02  0.30000000000E+02  0.00000000000E+00 0.  1.
        -11   -1    0    0    0    0 -0.00000000000E+00 -0.00000000000E+00 -0.30000000000E+02  0.30000000000E+02  0.00000000000E+00 0. -1.
         23    2    1    2    0    0  0.00000000000E+00  0.00000000000E+00  0.00000000000E+00  0.60000000000E+02  0.60000000000E+02 0.  0.
          5    1    3    3  501    0  0.46858529261E+01  0.43687001582E+01 -0.28928657786E+02  0.30000000000E+02  0.47000000000E+01 0. -1.
         -5    1    3    3    0  501 -0.46858529261E+01 -0.43687001582E+01  0.28928657786E+02  0.30000000000E+02  0.47000000000E+01 0.  1.
</event>
<event>
 5    1  0.7959189E-002  0.6000000E+02  0.7546771E-02  0.1259629E+00
         11   -1    0    0    0    0  0.00000000000E+00  0.00000000000E+00  0.30000000000E+02  0.30000000000E+02  0.00000000000E+00 0.  1.
        -11   -1    0    0    0    0 -0.00000000000E+00 -0.00000000000E+00 -0.30000000000E+02  0.30000000000E+02  0.00000000000E+00 0. -1.
         23    2    1    2    0    0  0.00000000000E+00  0.00000000000E+00  0.00000000000E+00  0.60000000000E+02  0.60000000000E+02 0.  0.
          5    1    3    3  501    0  0.28088120573E+02  0.66632205253E+01 -0.66759999173E+01  0.30000000000E+02  0.47000000000E+01 0. -1.
         -5    1    3    3    0  501 -0.28088120573E+02 -0.66632205253E+01  0.66759999173E+01  0.30000000000E+02  0.47000000000E+01 0.  1.
</event>
<event>
 5    1  0.7959189E-002  0.6000000E+02  0.7546771E-02  0.1259629E+00
         11   -1    0    0    0    0  0.00000000000E+00  0.00000000000E+00  0.30000000000E+02  0.30000000000E+02  0.00000000000E+00 0.  1.
        -11   -1    0    0    0    0 -0.00000000000E+00 -0.00000000000E+00 -0.30000000000E+02  0.30000000000E+02  0.00000000000E+00 0. -1.
         23    2    1    2    0    0  0.00000000000E+00  0.00000000000E+00  0.00000000000E+00  0.60000000000E+02  0.60000000000E+02 0.  0.
          5    1    3    3  501    0  0.14532949890E+01 -0.46241632151E+01  0.29230378859E+02  0.30000000000E+02  0.47000000000E+01 0.  1.
         -5    1    3    3    0  501 -0.14532949890E+01  0.46241632151E+01 -0.29230378859E+02  0.30000000000E+02  0.47000000000E+01 0. -1.
</event>
<event>
 5    1  0.7959189E-002  0.6000000E+02  0.7546771E-02  0.1259629E+00
         11   -1    0    0    0    0  0.00000000000E+00  0.00000000000E+00  0.30000000000E+02  0.30000000000E+02  0.00000000000E+00 0.  1.
        -11   -1    0    0    0    0 -0.00000000000E+00 -0.00000000000E+00 -0.30000000000E+02  0.30000000000E+02  0.00000000000E+00 0. -1.
         23    2    1    2    0    0  0.00000000000E+00  0.00000000000E+00  0.00000000000E+00  0.60000000000E+02  0.60000000000E+02 0.  0.
          5    1    3    3  501    0  0.24615254205E+00 -0.18692524287E+02 -0.22987799910E+02  0.30000000000E+02  0.47000000000E+01 0. -1.
         -5    1    3    3    0  501 -0.24615254205E+00  0.18692524287E+02  0.22987799910E+02  0.30000000000E+02  0.47000000000E+01 0.  1.
</event>
<event>
 5    1  0.7959189E-002  0.6000000E+02  0.7546771E-02  0.1259629E+00
         11   -1    0    0    0    0  0.00000000000E+00  0.00000000000E+00  0.30000000000E+02  0.30000000000E+02  0.00000000000E+00 0.  1.
        -11   -1    0    0    0    0 -0.00000000000E+00 -0.00000000000E+00 -0.30000000000E+02  0.30000000000E+02  0.00000000000E+00 0. -1.
         23    2    1    2    0    0  0.00000000000E+00  0.00000000000E+00  0.00000000000E+00  0.60000000000E+02  0.60000000000E+02 0.  0.
          5    1    3    3  501    0  0.25406658226E+02 -0.48217201421E+00 -0.15237428522E+02  0.30000000000E+02  0.47000000000E+01 0. -1.
         -5    1    3    3    0  501 -0.25406658226E+02  0.48217201421E+00  0.15237428522E+02  0.30000000000E+02  0.47000000000E+01 0.  1.
</event>
<event>
 5    1  0.7959189E-002  0.6000000E+02  0.7546771E-02  0.1259629E+00
         11   -1    0    0    0    0  0.00000000000E+00  0.00000000000E+00  0.30000000000E+02  0.30000000000E+02  0.00000000000E+00 0.  1.
        -11   -1    0    0    0    0 -0.00000000000E+00 -0.00000000000E+00 -0.30000000000E+02  0.30000000000E+02  0.00000000000E+00 0. -1.
         23    2    1    2    0    0  0.00000000000E+00  0.00000000000E+00  0.00000000000E+00  0.60000000000E+02  0.60000000000E+02 0.  0.
          5    1    3    3  501    0  0.28414112962E+02  0.12898870463E+01  0.82996611962E+01  0.30000000000E+02  0.47000000000E+01 0.  1.
         -5    1    3    3    0  501 -0.28414112962E+02 -0.12898870463E+01 -0.82996611962E+01  0.30000000000E+02  0.47000000000E+01 0.  1.
</event>
<event>
 5    1  0.7959189E-002  0.6000000E+02  0.7546771E-02  0.1259629E+00
         11   -1    0    0    0    0  0.00000000000E+00  0.00000000000E+00  0.30000000000E+02  0.30000000000E+02  0.00000000000E+00 0.  1.
        -11   -1    0    0    0    0 -0.00000000000E+00 -0.00000000000E+00 -0.30000000000E+02  0.30000000000E+02  0.00000000000E+00 0. -1.
         23    2    1    2    0    0  0.00000000000E+00  0.00000000000E+00  0.00000000000E+00  0.60000000000E+02  0.60000000000E+02 0.  0.
          5    1    3    3  501    0  0.85770238848E+01 -0.28142573700E+02  0.35128630521E+01  0.30000000000E+02  0.47000000000E+01 0. -1.
         -5    1    3    3    0  501 -0.85770238848E+01  0.28142573700E+02 -0.35128630521E+01  0.30000000000E+02  0.47000000000E+01 0.  1.
</event>
<event>
 5    1  0.7959189E-002  0.6000000E+02  0.7546771E-02  0.1259629E+00
         11   -1    0    0    0    0  0.00000000000E+00  0.00000000000E+00  0.30000000000E+02  0.30000000000E+02  0.00000000000E+00 0. -1.
        -11   -1    0    0    0    0 -0.00000000000E+00 -0.00000000000E+00 -0.30000000000E+02  0.30000000000E+02  0.00000000000E+00 0.  1.
         23    2    1    2    0    0  0.00000000000E+00  0.00000000000E+00  0.00000000000E+00  0.60000000000E+02  0.60000000000E+02 0.  0.
          5    1    3    3  501    0  0.24536406153E+00  0.12035209897E+02  0.27074037734E+02  0.30000000000E+02  0.47000000000E+01 0. -1.
         -5    1    3    3    0  501 -0.24536406153E+00 -0.12035209897E+02 -0.27074037734E+02  0.30000000000E+02  0.47000000000E+01 0.  1.
</event>
<event>
 5    1  0.7959189E-002  0.6000000E+02  0.7546771E-02  0.1259629E+00
         11   -1    0    0    0    0  0.00000000000E+00  0.00000000000E+00  0.30000000000E+02  0.30000000000E+02  0.00000000000E+00 0.  1.
        -11   -1    0    0    0    0 -0.00000000000E+00 -0.00000000000E+00 -0.30000000000E+02  0.30000000000E+02  0.00000000000E+00 0. -1.
         23    2    1    2    0    0  0.00000000000E+00  0.00000000000E+00  0.00000000000E+00  0.60000000000E+02  0.60000000000E+02 0.  0.
          5    1    3    3  501    0 -0.54024220973E+01  0.29128601273E+02 -0.49842086768E+00  0.30000000000E+02  0.47000000000E+01 0. -1.
         -5    1    3    3    0  501  0.54024220973E+01 -0.29128601273E+02  0.49842086768E+00  0.30000000000E+02  0.47000000000E+01 0.  1.
</event>
<event>
 5    1  0.7959189E-002  0.6000000E+02  0.7546771E-02  0.1259629E+00
         11   -1    0    0    0    0  0.00000000000E+00  0.00000000000E+00  0.30000000000E+02  0.30000000000E+02  0.00000000000E+00 0. -1.
        -11   -1    0    0    0    0 -0.00000000000E+00 -0.00000000000E+00 -0.30000000000E+02  0.30000000000E+02  0.00000000000E+00 0.  1.
         23    2    1    2    0    0  0.00000000000E+00  0.00000000000E+00  0.00000000000E+00  0.60000000000E+02  0.60000000000E+02 0.  0.
          5    1    3    3  501    0  0.20646361219E+02  0.98453964492E+01 -0.18833638448E+02  0.30000000000E+02  0.47000000000E+01 0.  1.
         -5    1    3    3    0  501 -0.20646361219E+02 -0.98453964492E+01  0.18833638448E+02  0.30000000000E+02  0.47000000000E+01 0. -1.
</event>
<event>
 5    1  0.7959189E-002  0.6000000E+02  0.7546771E-02  0.1259629E+00
         11   -1    0    0    0    0  0.00000000000E+00  0.00000000000E+00  0.30000000000E+02  0.30000000000E+02  0.00000000000E+00 0.  1.
        -11   -1    0    0    0    0 -0.00000000000E+00 -0.00000000000E+00 -0.30000000000E+02  0.30000000000E+02  0.00000000000E+00 0. -1.
         23    2    1    2    0    0  0.00000000000E+00  0.00000000000E+00  0.00000000000E+00  0.60000000000E+02  0.60000000000E+02 0.  0.
          5    1    3    3  501    0  0.12437670420E+01 -0.14796437516E+02 -0.25640368180E+02  0.30000000000E+02  0.47000000000E+01 0. -1.
         -5    1    3    3    0  501 -0.12437670420E+01  0.14796437516E+02  0.25640368180E+02  0.30000000000E+02  0.47000000000E+01 0.  1.
</event>
<event>
 5    1  0.7959189E-002  0.6000000E+02  0.7546771E-02  0.1259629E+00
         11   -1    0    0    0    0  0.00000000000E+00  0.00000000000E+00  0.30000000000E+02  0.30000000000E+02  0.00000000000E+00 0.  1.
        -11   -1    0    0    0    0 -0.00000000000E+00 -0.00000000000E+00 -0.30000000000E+02  0.30000000000E+02  0.00000000000E+00 0. -1.
         23    2    1    2    0    0  0.00000000000E+00  0.00000000000E+00  0.00000000000E+00  0.60000000000E+02  0.60000000000E+02 0.  0.
          5    1    3    3  501    0 -0.28159316539E+02  0.85334218065E+01  0.34847674699E+01  0.30000000000E+02  0.47000000000E+01 0.  1.
         -5    1    3    3    0  501  0.28159316539E+02 -0.85334218065E+01 -0.34847674699E+01  0.30000000000E+02  0.47000000000E+01 0. -1.
</event>
<event>
 5    1  0.7959189E-002  0.6000000E+02  0.7546771E-02  0.1259629E+00
         11   -1    0    0    0    0  0.00000000000E+00  0.00000000000E+00  0.30000000000E+02  0.30000000000E+02  0.00000000000E+00 0.  1.
        -11   -1    0    0    0    0 -0.00000000000E+00 -0.00000000000E+00 -0.30000000000E+02  0.30000000000E+02  0.00000000000E+00 0. -1.
         23    2    1    2    0    0  0.00000000000E+00  0.00000000000E+00  0.00000000000E+00  0.60000000000E+02  0.60000000000E+02 0.  0.
          5    1    3    3  501    0 -0.25649628017E+02 -0.12216460074E+02  0.84121748573E+01  0.30000000000E+02  0.47000000000E+01 0. -1.
         -5    1    3    3    0  501  0.25649628017E+02  0.12216460074E+02 -0.84121748573E+01  0.30000000000E+02  0.47000000000E+01 0. -1.
</event>
<event>
 5    1  0.7959189E-002  0.6000000E+02  0.7546771E-02  0.1259629E+00
         11   -1    0    0    0    0  0.00000000000E+00  0.00000000000E+00  0.30000000000E+02  0.30000000000E+02  0.00000000000E+00 0.  1.
        -11   -1    0    0    0    0 -0.00000000000E+00 -0.00000000000E+00 -0.30000000000E+02  0.30000000000E+02  0.00000000000E+00 0. -1.
         23    2    1    2    0    0  0.00000000000E+00  0.00000000000E+00  0.00000000000E+00  0.60000000000E+02  0.60000000000E+02 0.  0.
          5    1    3    3  501    0  0.85574139594E+01  0.24693085951E+02  0.13961811220E+02  0.30000000000E+02  0.47000000000E+01 0. -1.
         -5    1    3    3    0  501 -0.85574139594E+01 -0.24693085951E+02 -0.13961811220E+02  0.30000000000E+02  0.47000000000E+01 0.  1.
</event>
<event>
 5    1  0.7959189E-002  0.6000000E+02  0.7546771E-02  0.1259629E+00
         11   -1    0    0    0    0  0.00000000000E+00  0.00000000000E+00  0.30000000000E+02  0.30000000000E+02  0.00000000000E+00 0.  1.
        -11   -1    0    0    0    0 -0.00000000000E+00 -0.00000000000E+00 -0.30000000000E+02  0.30000000000E+02  0.00000000000E+00 0. -1.
         23    2    1    2    0    0  0.00000000000E+00  0.00000000000E+00  0.00000000000E+00  0.60000000000E+02  0.60000000000E+02 0.  0.
          5    1    3    3  501    0 -0.78992591925E+01 -0.17551162509E+02 -0.22527059258E+02  0.30000000000E+02  0.47000000000E+01 0. -1.
         -5    1    3    3    0  501  0.78992591925E+01  0.17551162509E+02  0.22527059258E+02  0.30000000000E+02  0.47000000000E+01 0.  1.
</event>
<event>
 5    1  0.7959189E-002  0.6000000E+02  0.7546771E-02  0.1259629E+00
         11   -1    0    0    0    0  0.00000000000E+00  0.00000000000E+00  0.30000000000E+02  0.30000000000E+02  0.00000000000E+00 0.  1.
        -11   -1    0    0    0    0 -0.00000000000E+00 -0.00000000000E+00 -0.30000000000E+02  0.30000000000E+02  0.00000000000E+00 0. -1.
         23    2    1    2    0    0  0.00000000000E+00  0.00000000000E+00  0.00000000000E+00  0.60000000000E+02  0.60000000000E+02 0.  0.
          5    1    3    3  501    0  0.12403589423E+00 -0.15385695794E+02 -0.25321433215E+02  0.30000000000E+02  0.47000000000E+01 0. -1.
         -5    1    3    3    0  501 -0.12403589423E+00  0.15385695794E+02  0.25321433215E+02  0.30000000000E+02  0.47000000000E+01 0.  1.
</event>
<event>
 5    1  0.7959189E-002  0.6000000E+02  0.7546771E-02  0.1259629E+00
         11   -1    0    0    0    0  0.00000000000E+00  0.00000000000E+00  0.30000000000E+02  0.30000000000E+02  0.00000000000E+00 0.  1.
        -11   -1    0    0    0    0 -0.00000000000E+00 -0.00000000000E+00 -0.30000000000E+02  0.30000000000E+02  0.00000000000E+00 0. -1.
         23    2    1    2    0    0  0.00000000000E+00  0.00000000000E+00  0.00000000000E+00  0.60000000000E+02  0.60000000000E+02 0.  0.
          5    1    3    3  501    0 -0.14153391231E+02  0.25887921391E+02 -0.27215882740E+01  0.30000000000E+02  0.47000000000E+01 0. -1.
         -5    1    3    3    0  501  0.14153391231E+02 -0.25887921391E+02  0.27215882740E+01  0.30000000000E+02  0.47000000000E+01 0.  1.
</event>
<event>
 5    1  0.7959189E-002  0.6000000E+02  0.7546771E-02  0.1259629E+00
         11   -1    0    0    0    0  0.00000000000E+00  0.00000000000E+00  0.30000000000E+02  0.30000000000E+02  0.00000000000E+00 0. -1.
        -11   -1    0    0    0    0 -0.00000000000E+00 -0.00000000000E+00 -0.30000000000E+02  0.30000000000E+02  0.00000000000E+00 0.  1.
         23    2    1    2    0    0  0.00000000000E+00  0.00000000000E+00  0.00000000000E+00  0.60000000000E+02  0.60000000000E+02 0.  0.
          5    1    3    3  501    0 -0.11653166682E+02 -0.18770173690E+02  0.19743208603E+02  0.30000000000E+02  0.47000000000E+01 0.  1.
         -5    1    3    3    0  501  0.11653166682E+02  0.18770173690E+02 -0.19743208603E+02  0.30000000000E+02  0.47000000000E+01 0. -1.
</event>
<event>
 5    1  0.7959189E-002  0.6000000E+02  0.7546771E-02  0.1259629E+00
         11   -1    0    0    0    0  0.00000000000E+00  0.00000000000E+00  0.30000000000E+02  0.30000000000E+02  0.00000000000E+00 0.  1.
        -11   -1    0    0    0    0 -0.00000000000E+00 -0.00000000000E+00 -0.30000000000E+02  0.30000000000E+02  0.00000000000E+00 0. -1.
         23    2    1    2    0    0  0.00000000000E+00  0.00000000000E+00  0.00000000000E+00  0.60000000000E+02  0.60000000000E+02 0.  0.
          5    1    3    3  501    0  0.11500720450E+02 -0.13386118010E+02  0.23800320875E+02  0.30000000000E+02  0.47000000000E+01 0.  1.
         -5    1    3    3    0  501 -0.11500720450E+02  0.13386118010E+02 -0.23800320875E+02  0.30000000000E+02  0.47000000000E+01 0. -1.
</event>
<event>
 5    1  0.7959189E-002  0.6000000E+02  0.7546771E-02  0.1259629E+00
         11   -1    0    0    0    0  0.00000000000E+00  0.00000000000E+00  0.30000000000E+02  0.30000000000E+02  0.00000000000E+00 0.  1.
        -11   -1    0    0    0    0 -0.00000000000E+00 -0.00000000000E+00 -0.30000000000E+02  0.30000000000E+02  0.00000000000E+00 0. -1.
         23    2    1    2    0    0  0.00000000000E+00  0.00000000000E+00  0.00000000000E+00  0.60000000000E+02  0.60000000000E+02 0.  0.
          5    1    3    3  501    0  0.28427633938E+01 -0.15912608223E+02  0.24831785998E+02  0.30000000000E+02  0.47000000000E+01 0.  1.
         -5    1    3    3    0  501 -0.28427633938E+01  0.15912608223E+02 -0.24831785998E+02  0.30000000000E+02  0.47000000000E+01 0. -1.
</event>
<event>
 5    1  0.7959189E-002  0.6000000E+02  0.7546771E-02  0.1259629E+00
         11   -1    0    0    0    0  0.00000000000E+00  0.00000000000E+00  0.30000000000E+02  0.30000000000E+02  0.00000000000E+00 0.  1.
        -11   -1    0    0    0    0 -0.00000000000E+00 -0.00000000000E+00 -0.30000000000E+02  0.30000000000E+02  0.00000000000E+00 0. -1.
         23    2    1    2    0    0  0.00000000000E+00  0.00000000000E+00  0.00000000000E+00  0.60000000000E+02  0.60000000000E+02 0.  0.
          5    1    3    3  501    0 -0.12226609413E+02 -0.94150051529E+01  0.25293827315E+02  0.30000000000E+02  0.47000000000E+01 0.  1.
         -5    1    3    3    0  501  0.12226609413E+02  0.94150051529E+01 -0.25293827315E+02  0.30000000000E+02  0.47000000000E+01 0. -1.
</event>
<event>
 5    1  0.7959189E-002  0.6000000E+02  0.7546771E-02  0.1259629E+00
         11   -1    0    0    0    0  0.00000000000E+00  0.00000000000E+00  0.30000000000E+02  0.30000000000E+02  0.00000000000E+00 0.  1.
        -11   -1    0    0    0    0 -0.00000000000E+00 -0.00000000000E+00 -0.30000000000E+02  0.30000000000E+02  0.00000000000E+00 0. -1.
         23    2    1    2    0    0  0.00000000000E+00  0.00000000000E+00  0.00000000000E+00  0.60000000000E+02  0.60000000000E+02 0.  0.
          5    1    3    3  501    0 -0.22157559488E+02 -0.19584455511E+02  0.18443589368E+01  0.30000000000E+02  0.47000000000E+01 0. -1.
         -5    1    3    3    0  501  0.22157559488E+02  0.19584455511E+02 -0.18443589368E+01  0.30000000000E+02  0.47000000000E+01 0.  1.
</event>
<event>
 5    1  0.7959189E-002  0.6000000E+02  0.7546771E-02  0.1259629E+00
         11   -1    0    0    0    0  0.00000000000E+00  0.00000000000E+00  0.30000000000E+02  0.30000000000E+02  0.00000000000E+00 0.  1.
        -11   -1    0    0    0    0 -0.00000000000E+00 -0.00000000000E+00 -0.30000000000E+02  0.30000000000E+02  0.00000000000E+00 0. -1.
         23    2    1    2    0    0  0.00000000000E+00  0.00000000000E+00  0.00000000000E+00  0.60000000000E+02  0.60000000000E+02 0.  0.
          5    1    3    3  501    0  0.74721843944E+01 -0.26101393573E+02 -0.11865652697E+02  0.30000000000E+02  0.47000000000E+01 0. -1.
         -5    1    3    3    0  501 -0.74721843944E+01  0.26101393573E+02  0.11865652697E+02  0.30000000000E+02  0.47000000000E+01 0.  1.
</event>
<event>
 5    1  0.7959189E-002  0.6000000E+02  0.7546771E-02  0.1259629E+00
         11   -1    0    0    0    0  0.00000000000E+00  0.00000000000E+00  0.30000000000E+02  0.30000000000E+02  0.00000000000E+00 0. -1.
        -11   -1    0    0    0    0 -0.00000000000E+00 -0.00000000000E+00 -0.30000000000E+02  0.30000000000E+02  0.00000000000E+00 0.  1.
         23    2    1    2    0    0  0.00000000000E+00  0.00000000000E+00  0.00000000000E+00  0.60000000000E+02  0.60000000000E+02 0.  0.
          5    1    3    3  501    0  0.18917907695E+02 -0.89332363052E+01 -0.20981421724E+02  0.30000000000E+02  0.47000000000E+01 0.  1.
         -5    1    3    3    0  501 -0.18917907695E+02  0.89332363052E+01  0.20981421724E+02  0.30000000000E+02  0.47000000000E+01 0. -1.
</event>
<event>
 5    1  0.7959189E-002  0.6000000E+02  0.7546771E-02  0.1259629E+00
         11   -1    0    0    0    0  0.00000000000E+00  0.00000000000E+00  0.30000000000E+02  0.30000000000E+02  0.00000000000E+00 0. -1.
        -11   -1    0    0    0    0 -0.00000000000E+00 -0.00000000000E+00 -0.30000000000E+02  0.30000000000E+02  0.00000000000E+00 0.  1.
         23    2    1    2    0    0  0.00000000000E+00  0.00000000000E+00  0.00000000000E+00  0.60000000000E+02  0.60000000000E+02 0.  0.
          5    1    3    3  501    0 -0.14657845592E+02 -0.16681523727E+02 -0.19615920289E+02  0.30000000000E+02  0.47000000000E+01 0.  1.
         -5    1    3    3    0  501  0.14657845592E+02  0.16681523727E+02  0.19615920289E+02  0.30000000000E+02  0.47000000000E+01 0. -1.
</event>
<event>
 5    1  0.7959189E-002  0.6000000E+02  0.7546771E-02  0.1259629E+00
         11   -1    0    0    0    0  0.00000000000E+00  0.00000000000E+00  0.30000000000E+02  0.30000000000E+02  0.00000000000E+00 0. -1.
        -11   -1    0    0    0    0 -0.00000000000E+00 -0.00000000000E+00 -0.30000000000E+02  0.30000000000E+02  0.00000000000E+00 0.  1.
         23    2    1    2    0    0  0.00000000000E+00  0.00000000000E+00  0.00000000000E+00  0.60000000000E+02  0.60000000000E+02 0.  0.
          5    1    3    3  501    0 -0.36154548789E+01 -0.28177987359E+02 -0.84166213172E+01  0.30000000000E+02  0.47000000000E+01 0.  1.
         -5    1    3    3    0  501  0.36154548789E+01  0.28177987359E+02  0.84166213172E+01  0.30000000000E+02  0.47000000000E+01 0. -1.
</event>
<event>
 5    1  0.7959189E-002  0.6000000E+02  0.7546771E-02  0.1259629E+00
         11   -1    0    0    0    0  0.00000000000E+00  0.00000000000E+00  0.30000000000E+02  0.30000000000E+02  0.00000000000E+00 0.  1.
        -11   -1    0    0    0    0 -0.00000000000E+00 -0.00000000000E+00 -0.30000000000E+02  0.30000000000E+02  0.00000000000E+00 0. -1.
         23    2    1    2    0    0  0.00000000000E+00  0.00000000000E+00  0.00000000000E+00  0.60000000000E+02  0.60000000000E+02 0.  0.
          5    1    3    3  501    0 -0.14743306101E+02 -0.89601168686E+01 -0.24088612059E+02  0.30000000000E+02  0.47000000000E+01 0. -1.
         -5    1    3    3    0  501  0.14743306101E+02  0.89601168686E+01  0.24088612059E+02  0.30000000000E+02  0.47000000000E+01 0.  1.
</event>
<event>
 5    1  0.7959189E-002  0.6000000E+02  0.7546771E-02  0.1259629E+00
         11   -1    0    0    0    0  0.00000000000E+00  0.00000000000E+00  0.30000000000E+02  0.30000000000E+02  0.00000000000E+00 0. -1.
        -11   -1    0    0    0    0 -0.00000000000E+00 -0.00000000000E+00 -0.30000000000E+02  0.30000000000E+02  0.00000000000E+00 0.  1.
         23    2    1    2    0    0  0.00000000000E+00  0.00000000000E+00  0.00000000000E+00  0.60000000000E+02  0.60000000000E+02 0.  0.
          5    1    3    3  501    0  0.12658999050E+02 -0.19745300806E+02 -0.18104773932E+02  0.30000000000E+02  0.47000000000E+01 0.  1.
         -5    1    3    3    0  501 -0.12658999050E+02  0.19745300806E+02  0.18104773932E+02  0.30000000000E+02  0.47000000000E+01 0. -1.
</event>
<event>
 5    1  0.7959189E-002  0.6000000E+02  0.7546771E-02  0.1259629E+00
         11   -1    0    0    0    0  0.00000000000E+00  0.00000000000E+00  0.30000000000E+02  0.30000000000E+02  0.00000000000E+00 0. -1.
        -11   -1    0    0    0    0 -0.00000000000E+00 -0.00000000000E+00 -0.30000000000E+02  0.30000000000E+02  0.00000000000E+00 0.  1.
         23    2    1    2    0    0  0.00000000000E+00  0.00000000000E+00  0.00000000000E+00  0.60000000000E+02  0.60000000000E+02 0.  0.
          5    1    3    3  501    0  0.15864269864E+02 -0.22513955593E+02  0.10925051270E+02  0.30000000000E+02  0.47000000000E+01 0. -1.
         -5    1    3    3    0  501 -0.15864269864E+02  0.22513955593E+02 -0.10925051270E+02  0.30000000000E+02  0.47000000000E+01 0.  1.
</event>
<event>
 5    1  0.7959189E-002  0.6000000E+02  0.7546771E-02  0.1259629E+00
         11   -1    0    0    0    0  0.00000000000E+00  0.00000000000E+00  0.30000000000E+02  0.30000000000E+02  0.00000000000E+00 0.  1.
        -11   -1    0    0    0    0 -0.00000000000E+00 -0.00000000000E+00 -0.30000000000E+02  0.30000000000E+02  0.00000000000E+00 0. -1.
         23    2    1    2    0    0  0.00000000000E+00  0.00000000000E+00  0.00000000000E+00  0.60000000000E+02  0.60000000000E+02 0.  0.
          5    1    3    3  501    0 -0.18297051409E+02 -0.14915761310E+02 -0.17906646093E+02  0.30000000000E+02  0.47000000000E+01 0. -1.
         -5    1    3    3    0  501  0.18297051409E+02  0.14915761310E+02  0.17906646093E+02  0.30000000000E+02  0.47000000000E+01 0.  1.
</event>
<event>
 5    1  0.7959189E-002  0.6000000E+02  0.7546771E-02  0.1259629E+00
         11   -1    0    0    0    0  0.00000000000E+00  0.00000000000E+00  0.30000000000E+02  0.30000000000E+02  0.00000000000E+00 0.  1.
        -11   -1    0    0    0    0 -0.00000000000E+00 -0.00000000000E+00 -0.30000000000E+02  0.30000000000E+02  0.00000000000E+00 0. -1.
         23    2    1    2    0    0  0.00000000000E+00  0.00000000000E+00  0.00000000000E+00  0.60000000000E+02  0.60000000000E+02 0.  0.
          5    1    3    3  501    0 -0.29213712571E+01  0.13208259020E+02 -0.26361287594E+02  0.30000000000E+02  0.47000000000E+01 0. -1.
         -5    1    3    3    0  501  0.29213712571E+01 -0.13208259020E+02  0.26361287594E+02  0.30000000000E+02  0.47000000000E+01 0.  1.
</event>
<event>
 5    1  0.7959189E-002  0.6000000E+02  0.7546771E-02  0.1259629E+00
         11   -1    0    0    0    0  0.00000000000E+00  0.00000000000E+00  0.30000000000E+02  0.30000000000E+02  0.00000000000E+00 0.  1.
        -11   -1    0    0    0    0 -0.00000000000E+00 -0.00000000000E+00 -0.30000000000E+02  0.30000000000E+02  0.00000000000E+00 0. -1.
         23    2    1    2    0    0  0.00000000000E+00  0.00000000000E+00  0.00000000000E+00  0.60000000000E+02  0.60000000000E+02 0.  0.
          5    1    3    3  501    0 -0.24808725702E+02  0.67362240065E+01  0.14732970344E+02  0.30000000000E+02  0.47000000000E+01 0. -1.
         -5    1    3    3    0  501  0.24808725702E+02 -0.67362240065E+01 -0.14732970344E+02  0.30000000000E+02  0.47000000000E+01 0.  1.
</event>
<event>
 5    1  0.7959189E-002  0.6000000E+02  0.7546771E-02  0.1259629E+00
         11   -1    0    0    0    0  0.00000000000E+00  0.00000000000E+00  0.30000000000E+02  0.30000000000E+02  0.00000000000E+00 0. -1.
        -11   -1    0    0    0    0 -0.00000000000E+00 -0.00000000000E+00 -0.30000000000E+02  0.30000000000E+02  0.00000000000E+00 0.  1.
         23    2    1    2    0    0  0.00000000000E+00  0.00000000000E+00  0.00000000000E+00  0.60000000000E+02  0.60000000000E+02 0.  0.
          5    1    3    3  501    0  0.19516855459E+02 -0.21929533442E+02 -0.40122208327E+01  0.30000000000E+02  0.47000000000E+01 0.  1.
         -5    1    3    3    0  501 -0.19516855459E+02  0.21929533442E+02  0.40122208327E+01  0.30000000000E+02  0.47000000000E+01 0. -1.
</event>
<event>
 5    1  0.7959189E-002  0.6000000E+02  0.7546771E-02  0.1259629E+00
         11   -1    0    0    0    0  0.00000000000E+00  0.00000000000E+00  0.30000000000E+02  0.30000000000E+02  0.00000000000E+00 0.  1.
        -11   -1    0    0    0    0 -0.00000000000E+00 -0.00000000000E+00 -0.30000000000E+02  0.30000000000E+02  0.00000000000E+00 0. -1.
         23    2    1    2    0    0  0.00000000000E+00  0.00000000000E+00  0.00000000000E+00  0.60000000000E+02  0.60000000000E+02 0.  0.
          5    1    3    3  501    0 -0.20458306050E+02 -0.21034470520E+02 -0.41132424602E+01  0.30000000000E+02  0.47000000000E+01 0. -1.
         -5    1    3    3    0  501  0.20458306050E+02  0.21034470520E+02  0.41132424602E+01  0.30000000000E+02  0.47000000000E+01 0.  1.
</event>
<event>
 5    1  0.7959189E-002  0.6000000E+02  0.7546771E-02  0.1259629E+00
         11   -1    0    0    0    0  0.00000000000E+00  0.00000000000E+00  0.30000000000E+02  0.30000000000E+02  0.00000000000E+00 0.  1.
        -11   -1    0    0    0    0 -0.00000000000E+00 -0.00000000000E+00 -0.30000000000E+02  0.30000000000E+02  0.00000000000E+00 0. -1.
         23    2    1    2    0    0  0.00000000000E+00  0.00000000000E+00  0.00000000000E+00  0.60000000000E+02  0.60000000000E+02 0.  0.
          5    1    3    3  501    0  0.59529135899E+01  0.19832585929E+02  0.21192955319E+02  0.30000000000E+02  0.47000000000E+01 0.  1.
         -5    1    3    3    0  501 -0.59529135899E+01 -0.19832585929E+02 -0.21192955319E+02  0.30000000000E+02  0.47000000000E+01 0. -1.
</event>
<event>
 5    1  0.7959189E-002  0.6000000E+02  0.7546771E-02  0.1259629E+00
         11   -1    0    0    0    0  0.00000000000E+00  0.00000000000E+00  0.30000000000E+02  0.30000000000E+02  0.00000000000E+00 0.  1.
        -11   -1    0    0    0    0 -0.00000000000E+00 -0.00000000000E+00 -0.30000000000E+02  0.30000000000E+02  0.00000000000E+00 0. -1.
         23    2    1    2    0    0  0.00000000000E+00  0.00000000000E+00  0.00000000000E+00  0.60000000000E+02  0.60000000000E+02 0.  0.
          5    1    3    3  501    0 -0.12482232140E+02  0.12440325698E+02 -0.23818945765E+02  0.30000000000E+02  0.47000000000E+01 0. -1.
         -5    1    3    3    0  501  0.12482232140E+02 -0.12440325698E+02  0.23818945765E+02  0.30000000000E+02  0.47000000000E+01 0.  1.
</event>
<event>
 5    1  0.7959189E-002  0.6000000E+02  0.7546771E-02  0.1259629E+00
         11   -1    0    0    0    0  0.00000000000E+00  0.00000000000E+00  0.30000000000E+02  0.30000000000E+02  0.00000000000E+00 0. -1.
        -11   -1    0    0    0    0 -0.00000000000E+00 -0.00000000000E+00 -0.30000000000E+02  0.30000000000E+02  0.00000000000E+00 0.  1.
         23    2    1    2    0    0  0.00000000000E+00  0.00000000000E+00  0.00000000000E+00  0.60000000000E+02  0.60000000000E+02 0.  0.
          5    1    3    3  501    0  0.50559496711E+01 -0.21104402079E+02  0.20173041065E+02  0.30000000000E+02  0.47000000000E+01 0. -1.
         -5    1    3    3    0  501 -0.50559496711E+01  0.21104402079E+02 -0.20173041065E+02  0.30000000000E+02  0.47000000000E+01 0.  1.
</event>
<event>
 5    1  0.7959189E-002  0.6000000E+02  0.7546771E-02  0.1259629E+00
         11   -1    0    0    0    0  0.00000000000E+00  0.00000000000E+00  0.30000000000E+02  0.30000000000E+02  0.00000000000E+00 0.  1.
        -11   -1    0    0    0    0 -0.00000000000E+00 -0.00000000000E+00 -0.30000000000E+02  0.30000000000E+02  0.00000000000E+00 0. -1.
         23    2    1    2    0    0  0.00000000000E+00  0.00000000000E+00  0.00000000000E+00  0.60000000000E+02  0.60000000000E+02 0.  0.
          5    1    3    3  501    0  0.27773237549E+02 -0.69422686643E+01 -0.76395145011E+01  0.30000000000E+02  0.47000000000E+01 0. -1.
         -5    1    3    3    0  501 -0.27773237549E+02  0.69422686643E+01  0.76395145011E+01  0.30000000000E+02  0.47000000000E+01 0.  1.
</event>
<event>
 5    1  0.7959189E-002  0.6000000E+02  0.7546771E-02  0.1259629E+00
         11   -1    0    0    0    0  0.00000000000E+00  0.00000000000E+00  0.30000000000E+02  0.30000000000E+02  0.00000000000E+00 0.  1.
        -11   -1    0    0    0    0 -0.00000000000E+00 -0.00000000000E+00 -0.30000000000E+02  0.30000000000E+02  0.00000000000E+00 0. -1.
         23    2    1    2    0    0  0.00000000000E+00  0.00000000000E+00  0.00000000000E+00  0.60000000000E+02  0.60000000000E+02 0.  0.
          5    1    3    3  501    0 -0.12445723983E+02 -0.26571687185E+02 -0.41181785649E+01  0.30000000000E+02  0.47000000000E+01 0. -1.
         -5    1    3    3    0  501  0.12445723983E+02  0.26571687185E+02  0.41181785649E+01  0.30000000000E+02  0.47000000000E+01 0.  1.
</event>
<event>
 5    1  0.7959189E-002  0.6000000E+02  0.7546771E-02  0.1259629E+00
         11   -1    0    0    0    0  0.00000000000E+00  0.00000000000E+00  0.30000000000E+02  0.30000000000E+02  0.00000000000E+00 0.  1.
        -11   -1    0    0    0    0 -0.00000000000E+00 -0.00000000000E+00 -0.30000000000E+02  0.30000000000E+02  0.00000000000E+00 0. -1.
         23    2    1    2    0    0  0.00000000000E+00  0.00000000000E+00  0.00000000000E+00  0.60000000000E+02  0.60000000000E+02 0.  0.
          5    1    3    3  501    0  0.12847734888E+02 -0.16730184376E+02 -0.20807369824E+02  0.30000000000E+02  0.47000000000E+01 0. -1.
         -5    1    3    3    0  501 -0.12847734888E+02  0.16730184376E+02  0.20807369824E+02  0.30000000000E+02  0.47000000000E+01 0.  1.
</event>
<event>
 5    1  0.7959189E-002  0.6000000E+02  0.7546771E-02  0.1259629E+00
         11   -1    0    0    0    0  0.00000000000E+00  0.00000000000E+00  0.30000000000E+02  0.30000000000E+02  0.00000000000E+00 0.  1.
        -11   -1    0    0    0    0 -0.00000000000E+00 -0.00000000000E+00 -0.30000000000E+02  0.30000000000E+02  0.00000000000E+00 0. -1.
         23    2    1    2    0    0  0.00000000000E+00  0.00000000000E+00  0.00000000000E+00  0.60000000000E+02  0.60000000000E+02 0.  0.
          5    1    3    3  501    0 -0.14559865685E+02 -0.18428400018E+02 -0.18064174048E+02  0.30000000000E+02  0.47000000000E+01 0. -1.
         -5    1    3    3    0  501  0.14559865685E+02  0.18428400018E+02  0.18064174048E+02  0.30000000000E+02  0.47000000000E+01 0.  1.
</event>
<event>
 5    1  0.7959189E-002  0.6000000E+02  0.7546771E-02  0.1259629E+00
         11   -1    0    0    0    0  0.00000000000E+00  0.00000000000E+00  0.30000000000E+02  0.30000000000E+02  0.00000000000E+00 0. -1.
        -11   -1    0    0    0    0 -0.00000000000E+00 -0.00000000000E+00 -0.30000000000E+02  0.30000000000E+02  0.00000000000E+00 0.  1.
         23    2    1    2    0    0  0.00000000000E+00  0.00000000000E+00  0.00000000000E+00  0.60000000000E+02  0.60000000000E+02 0.  0.
          5    1    3    3  501    0 -0.53397821102E+01 -0.17120364267E+02 -0.23585797726E+02  0.30000000000E+02  0.47000000000E+01 0.  1.
         -5    1    3    3    0  501  0.53397821102E+01  0.17120364267E+02  0.23585797726E+02  0.30000000000E+02  0.47000000000E+01 0. -1.
</event>
<event>
 5    1  0.7959189E-002  0.6000000E+02  0.7546771E-02  0.1259629E+00
         11   -1    0    0    0    0  0.00000000000E+00  0.00000000000E+00  0.30000000000E+02  0.30000000000E+02  0.00000000000E+00 0. -1.
        -11   -1    0    0    0    0 -0.00000000000E+00 -0.00000000000E+00 -0.30000000000E+02  0.30000000000E+02  0.00000000000E+00 0.  1.
         23    2    1    2    0    0  0.00000000000E+00  0.00000000000E+00  0.00000000000E+00  0.60000000000E+02  0.60000000000E+02 0.  0.
          5    1    3    3  501    0  0.24358988040E+02  0.13711796118E+02  0.98252912878E+01  0.30000000000E+02  0.47000000000E+01 0. -1.
         -5    1    3    3    0  501 -0.24358988040E+02 -0.13711796118E+02 -0.98252912878E+01  0.30000000000E+02  0.47000000000E+01 0.  1.
</event>
<event>
 5    1  0.7959189E-002  0.6000000E+02  0.7546771E-02  0.1259629E+00
         11   -1    0    0    0    0  0.00000000000E+00  0.00000000000E+00  0.30000000000E+02  0.30000000000E+02  0.00000000000E+00 0.  1.
        -11   -1    0    0    0    0 -0.00000000000E+00 -0.00000000000E+00 -0.30000000000E+02  0.30000000000E+02  0.00000000000E+00 0. -1.
         23    2    1    2    0    0  0.00000000000E+00  0.00000000000E+00  0.00000000000E+00  0.60000000000E+02  0.60000000000E+02 0.  0.
          5    1    3    3  501    0  0.16864968338E+02 -0.15987069531E+02 -0.18381959927E+02  0.30000000000E+02  0.47000000000E+01 0. -1.
         -5    1    3    3    0  501 -0.16864968338E+02  0.15987069531E+02  0.18381959927E+02  0.30000000000E+02  0.47000000000E+01 0.  1.
</event>
<event>
 5    1  0.7959189E-002  0.6000000E+02  0.7546771E-02  0.1259629E+00
         11   -1    0    0    0    0  0.00000000000E+00  0.00000000000E+00  0.30000000000E+02  0.30000000000E+02  0.00000000000E+00 0.  1.
        -11   -1    0    0    0    0 -0.00000000000E+00 -0.00000000000E+00 -0.30000000000E+02  0.30000000000E+02  0.00000000000E+00 0. -1.
         23    2    1    2    0    0  0.00000000000E+00  0.00000000000E+00  0.00000000000E+00  0.60000000000E+02  0.60000000000E+02 0.  0.
          5    1    3    3  501    0 -0.46879161967E+01 -0.24610229834E+02  0.15819925071E+02  0.30000000000E+02  0.47000000000E+01 0.  1.
         -5    1    3    3    0  501  0.46879161967E+01  0.24610229834E+02 -0.15819925071E+02  0.30000000000E+02  0.47000000000E+01 0. -1.
</event>
<event>
 5    1  0.7959189E-002  0.6000000E+02  0.7546771E-02  0.1259629E+00
         11   -1    0    0    0    0  0.00000000000E+00  0.00000000000E+00  0.30000000000E+02  0.30000000000E+02  0.00000000000E+00 0.  1.
        -11   -1    0    0    0    0 -0.00000000000E+00 -0.00000000000E+00 -0.30000000000E+02  0.30000000000E+02  0.00000000000E+00 0. -1.
         23    2    1    2    0    0  0.00000000000E+00  0.00000000000E+00  0.00000000000E+00  0.60000000000E+02  0.60000000000E+02 0.  0.
          5    1    3    3  501    0 -0.22702350361E+02 -0.69511019177E+00 -0.19027088845E+02  0.30000000000E+02  0.47000000000E+01 0. -1.
         -5    1    3    3    0  501  0.22702350361E+02  0.69511019177E+00  0.19027088845E+02  0.30000000000E+02  0.47000000000E+01 0.  1.
</event>
<event>
 5    1  0.7959189E-002  0.6000000E+02  0.7546771E-02  0.1259629E+00
         11   -1    0    0    0    0  0.00000000000E+00  0.00000000000E+00  0.30000000000E+02  0.30000000000E+02  0.00000000000E+00 0. -1.
        -11   -1    0    0    0    0 -0.00000000000E+00 -0.00000000000E+00 -0.30000000000E+02  0.30000000000E+02  0.00000000000E+00 0.  1.
         23    2    1    2    0    0  0.00000000000E+00  0.00000000000E+00  0.00000000000E+00  0.60000000000E+02  0.60000000000E+02 0.  0.
          5    1    3    3  501    0 -0.26839843885E+02 -0.11227693220E+02 -0.56099630259E+01  0.30000000000E+02  0.47000000000E+01 0.  1.
         -5    1    3    3    0  501  0.26839843885E+02  0.11227693220E+02  0.56099630259E+01  0.30000000000E+02  0.47000000000E+01 0. -1.
</event>
<event>
 5    1  0.7959189E-002  0.6000000E+02  0.7546771E-02  0.1259629E+00
         11   -1    0    0    0    0  0.00000000000E+00  0.00000000000E+00  0.30000000000E+02  0.30000000000E+02  0.00000000000E+00 0. -1.
        -11   -1    0    0    0    0 -0.00000000000E+00 -0.00000000000E+00 -0.30000000000E+02  0.30000000000E+02  0.00000000000E+00 0.  1.
         23    2    1    2    0    0  0.00000000000E+00  0.00000000000E+00  0.00000000000E+00  0.60000000000E+02  0.60000000000E+02 0.  0.
          5    1    3    3  501    0 -0.89519967247E+01 -0.19202094840E+02 -0.20713553737E+02  0.30000000000E+02  0.47000000000E+01 0.  1.
         -5    1    3    3    0  501  0.89519967247E+01  0.19202094840E+02  0.20713553737E+02  0.30000000000E+02  0.47000000000E+01 0. -1.
</event>
<event>
 5    1  0.7959189E-002  0.6000000E+02  0.7546771E-02  0.1259629E+00
         11   -1    0    0    0    0  0.00000000000E+00  0.00000000000E+00  0.30000000000E+02  0.30000000000E+02  0.00000000000E+00 0. -1.
        -11   -1    0    0    0    0 -0.00000000000E+00 -0.00000000000E+00 -0.30000000000E+02  0.30000000000E+02  0.00000000000E+00 0.  1.
         23    2    1    2    0    0  0.00000000000E+00  0.00000000000E+00  0.00000000000E+00  0.60000000000E+02  0.60000000000E+02 0.  0.
          5    1    3    3  501    0  0.20378157232E+02  0.80253708191E+01 -0.19955804445E+02  0.30000000000E+02  0.47000000000E+01 0.  1.
         -5    1    3    3    0  501 -0.20378157232E+02 -0.80253708191E+01  0.19955804445E+02  0.30000000000E+02  0.47000000000E+01 0. -1.
</event>
<event>
 5    1  0.7959189E-002  0.6000000E+02  0.7546771E-02  0.1259629E+00
         11   -1    0    0    0    0  0.00000000000E+00  0.00000000000E+00  0.30000000000E+02  0.30000000000E+02  0.00000000000E+00 0.  1.
        -11   -1    0    0    0    0 -0.00000000000E+00 -0.00000000000E+00 -0.30000000000E+02  0.30000000000E+02  0.00000000000E+00 0. -1.
         23    2    1    2    0    0  0.00000000000E+00  0.00000000000E+00  0.00000000000E+00  0.60000000000E+02  0.60000000000E+02 0.  0.
          5    1    3    3  501    0  0.16720197405E+02 -0.81988145619E+01 -0.23046137171E+02  0.30000000000E+02  0.47000000000E+01 0. -1.
         -5    1    3    3    0  501 -0.16720197405E+02  0.81988145619E+01  0.23046137171E+02  0.30000000000E+02  0.47000000000E+01 0.  1.
</event>
<event>
 5    1  0.7959189E-002  0.6000000E+02  0.7546771E-02  0.1259629E+00
         11   -1    0    0    0    0  0.00000000000E+00  0.00000000000E+00  0.30000000000E+02  0.30000000000E+02  0.00000000000E+00 0.  1.
        -11   -1    0    0    0    0 -0.00000000000E+00 -0.00000000000E+00 -0.30000000000E+02  0.30000000000E+02  0.00000000000E+00 0. -1.
         23    2    1    2    0    0  0.00000000000E+00  0.00000000000E+00  0.00000000000E+00  0.60000000000E+02  0.60000000000E+02 0.  0.
          5    1    3    3  501    0  0.74752620863E+01 -0.88175429640E+01 -0.27281521087E+02  0.30000000000E+02  0.47000000000E+01 0. -1.
         -5    1    3    3    0  501 -0.74752620863E+01  0.88175429640E+01  0.27281521087E+02  0.30000000000E+02  0.47000000000E+01 0.  1.
</event>
<event>
 5    1  0.7959189E-002  0.6000000E+02  0.7546771E-02  0.1259629E+00
         11   -1    0    0    0    0  0.00000000000E+00  0.00000000000E+00  0.30000000000E+02  0.30000000000E+02  0.00000000000E+00 0. -1.
        -11   -1    0    0    0    0 -0.00000000000E+00 -0.00000000000E+00 -0.30000000000E+02  0.30000000000E+02  0.00000000000E+00 0.  1.
         23    2    1    2    0    0  0.00000000000E+00  0.00000000000E+00  0.00000000000E+00  0.60000000000E+02  0.60000000000E+02 0.  0.
          5    1    3    3  501    0 -0.20685907193E+02 -0.20068034550E+02  0.68758441590E+01  0.30000000000E+02  0.47000000000E+01 0.  1.
         -5    1    3    3    0  501  0.20685907193E+02  0.20068034550E+02 -0.68758441590E+01  0.30000000000E+02  0.47000000000E+01 0. -1.
</event>
<event>
 5    1  0.7959189E-002  0.6000000E+02  0.7546771E-02  0.1259629E+00
         11   -1    0    0    0    0  0.00000000000E+00  0.00000000000E+00  0.30000000000E+02  0.30000000000E+02  0.00000000000E+00 0. -1.
        -11   -1    0    0    0    0 -0.00000000000E+00 -0.00000000000E+00 -0.30000000000E+02  0.30000000000E+02  0.00000000000E+00 0.  1.
         23    2    1    2    0    0  0.00000000000E+00  0.00000000000E+00  0.00000000000E+00  0.60000000000E+02  0.60000000000E+02 0.  0.
          5    1    3    3  501    0  0.14256650128E+02  0.25888784122E+02  0.21044675897E+01  0.30000000000E+02  0.47000000000E+01 0.  1.
         -5    1    3    3    0  501 -0.14256650128E+02 -0.25888784122E+02 -0.21044675897E+01  0.30000000000E+02  0.47000000000E+01 0. -1.
</event>
<event>
 5    1  0.7959189E-002  0.6000000E+02  0.7546771E-02  0.1259629E+00
         11   -1    0    0    0    0  0.00000000000E+00  0.00000000000E+00  0.30000000000E+02  0.30000000000E+02  0.00000000000E+00 0.  1.
        -11   -1    0    0    0    0 -0.00000000000E+00 -0.00000000000E+00 -0.30000000000E+02  0.30000000000E+02  0.00000000000E+00 0. -1.
         23    2    1    2    0    0  0.00000000000E+00  0.00000000000E+00  0.00000000000E+00  0.60000000000E+02  0.60000000000E+02 0.  0.
          5    1    3    3  501    0 -0.57508875290E+01  0.24003935881E+02 -0.16390495870E+02  0.30000000000E+02  0.47000000000E+01 0. -1.
         -5    1    3    3    0  501  0.57508875290E+01 -0.24003935881E+02  0.16390495870E+02  0.30000000000E+02  0.47000000000E+01 0.  1.
</event>
<event>
 5    1  0.7959189E-002  0.6000000E+02  0.7546771E-02  0.1259629E+00
         11   -1    0    0    0    0  0.00000000000E+00  0.00000000000E+00  0.30000000000E+02  0.30000000000E+02  0.00000000000E+00 0. -1.
        -11   -1    0    0    0    0 -0.00000000000E+00 -0.00000000000E+00 -0.30000000000E+02  0.30000000000E+02  0.00000000000E+00 0.  1.
         23    2    1    2    0    0  0.00000000000E+00  0.00000000000E+00  0.00000000000E+00  0.60000000000E+02  0.60000000000E+02 0.  0.
          5    1    3    3  501    0  0.37717869837E+01  0.23383283393E+02 -0.17801844868E+02  0.30000000000E+02  0.47000000000E+01 0.  1.
         -5    1    3    3    0  501 -0.37717869837E+01 -0.23383283393E+02  0.17801844868E+02  0.30000000000E+02  0.47000000000E+01 0. -1.
</event>
<event>
 5    1  0.7959189E-002  0.6000000E+02  0.7546771E-02  0.1259629E+00
         11   -1    0    0    0    0  0.00000000000E+00  0.00000000000E+00  0.30000000000E+02  0.30000000000E+02  0.00000000000E+00 0.  1.
        -11   -1    0    0    0    0 -0.00000000000E+00 -0.00000000000E+00 -0.30000000000E+02  0.30000000000E+02  0.00000000000E+00 0. -1.
         23    2    1    2    0    0  0.00000000000E+00  0.00000000000E+00  0.00000000000E+00  0.60000000000E+02  0.60000000000E+02 0.  0.
          5    1    3    3  501    0 -0.27806306022E+02  0.85843432650E+01 -0.55703138257E+01  0.30000000000E+02  0.47000000000E+01 0. -1.
         -5    1    3    3    0  501  0.27806306022E+02 -0.85843432650E+01  0.55703138257E+01  0.30000000000E+02  0.47000000000E+01 0.  1.
</event>
<event>
 5    1  0.7959189E-002  0.6000000E+02  0.7546771E-02  0.1259629E+00
         11   -1    0    0    0    0  0.00000000000E+00  0.00000000000E+00  0.30000000000E+02  0.30000000000E+02  0.00000000000E+00 0.  1.
        -11   -1    0    0    0    0 -0.00000000000E+00 -0.00000000000E+00 -0.30000000000E+02  0.30000000000E+02  0.00000000000E+00 0. -1.
         23    2    1    2    0    0  0.00000000000E+00  0.00000000000E+00  0.00000000000E+00  0.60000000000E+02  0.60000000000E+02 0.  0.
          5    1    3    3  501    0 -0.26895084780E+02 -0.11851108847E+02  0.37570778265E+01  0.30000000000E+02  0.47000000000E+01 0. -1.
         -5    1    3    3    0  501  0.26895084780E+02  0.11851108847E+02 -0.37570778265E+01  0.30000000000E+02  0.47000000000E+01 0.  1.
</event>
<event>
 5    1  0.7959189E-002  0.6000000E+02  0.7546771E-02  0.1259629E+00
         11   -1    0    0    0    0  0.00000000000E+00  0.00000000000E+00  0.30000000000E+02  0.30000000000E+02  0.00000000000E+00 0.  1.
        -11   -1    0    0    0    0 -0.00000000000E+00 -0.00000000000E+00 -0.30000000000E+02  0.30000000000E+02  0.00000000000E+00 0. -1.
         23    2    1    2    0    0  0.00000000000E+00  0.00000000000E+00  0.00000000000E+00  0.60000000000E+02  0.60000000000E+02 0.  0.
          5    1    3    3  501    0 -0.27962902960E+02  0.50315412763E+01 -0.84065242774E+01  0.30000000000E+02  0.47000000000E+01 0. -1.
         -5    1    3    3    0  501  0.27962902960E+02 -0.50315412763E+01  0.84065242774E+01  0.30000000000E+02  0.47000000000E+01 0.  1.
</event>
<event>
 5    1  0.7959189E-002  0.6000000E+02  0.7546771E-02  0.1259629E+00
         11   -1    0    0    0    0  0.00000000000E+00  0.00000000000E+00  0.30000000000E+02  0.30000000000E+02  0.00000000000E+00 0.  1.
        -11   -1    0    0    0    0 -0.00000000000E+00 -0.00000000000E+00 -0.30000000000E+02  0.30000000000E+02  0.00000000000E+00 0. -1.
         23    2    1    2    0    0  0.00000000000E+00  0.00000000000E+00  0.00000000000E+00  0.60000000000E+02  0.60000000000E+02 0.  0.
          5    1    3    3  501    0 -0.17998069709E+00 -0.23899464250E+02  0.17512658722E+02  0.30000000000E+02  0.47000000000E+01 0. -1.
         -5    1    3    3    0  501  0.17998069709E+00  0.23899464250E+02 -0.17512658722E+02  0.30000000000E+02  0.47000000000E+01 0.  1.
</event>
<event>
 5    1  0.7959189E-002  0.6000000E+02  0.7546771E-02  0.1259629E+00
         11   -1    0    0    0    0  0.00000000000E+00  0.00000000000E+00  0.30000000000E+02  0.30000000000E+02  0.00000000000E+00 0.  1.
        -11   -1    0    0    0    0 -0.00000000000E+00 -0.00000000000E+00 -0.30000000000E+02  0.30000000000E+02  0.00000000000E+00 0. -1.
         23    2    1    2    0    0  0.00000000000E+00  0.00000000000E+00  0.00000000000E+00  0.60000000000E+02  0.60000000000E+02 0.  0.
          5    1    3    3  501    0  0.15233732615E+01  0.58830893590E+01 -0.28999630920E+02  0.30000000000E+02  0.47000000000E+01 0. -1.
         -5    1    3    3    0  501 -0.15233732615E+01 -0.58830893590E+01  0.28999630920E+02  0.30000000000E+02  0.47000000000E+01 0.  1.
</event>
<event>
 5    1  0.7959189E-002  0.6000000E+02  0.7546771E-02  0.1259629E+00
         11   -1    0    0    0    0  0.00000000000E+00  0.00000000000E+00  0.30000000000E+02  0.30000000000E+02  0.00000000000E+00 0.  1.
        -11   -1    0    0    0    0 -0.00000000000E+00 -0.00000000000E+00 -0.30000000000E+02  0.30000000000E+02  0.00000000000E+00 0. -1.
         23    2    1    2    0    0  0.00000000000E+00  0.00000000000E+00  0.00000000000E+00  0.60000000000E+02  0.60000000000E+02 0.  0.
          5    1    3    3  501    0  0.34787336660E+01 -0.10421230856E+02 -0.27517382861E+02  0.30000000000E+02  0.47000000000E+01 0. -1.
         -5    1    3    3    0  501 -0.34787336660E+01  0.10421230856E+02  0.27517382861E+02  0.30000000000E+02  0.47000000000E+01 0.  1.
</event>
<event>
 5    1  0.7959189E-002  0.6000000E+02  0.7546771E-02  0.1259629E+00
         11   -1    0    0    0    0  0.00000000000E+00  0.00000000000E+00  0.30000000000E+02  0.30000000000E+02  0.00000000000E+00 0. -1.
        -11   -1    0    0    0    0 -0.00000000000E+00 -0.00000000000E+00 -0.30000000000E+02  0.30000000000E+02  0.00000000000E+00 0.  1.
         23    2    1    2    0    0  0.00000000000E+00  0.00000000000E+00  0.00000000000E+00  0.60000000000E+02  0.60000000000E+02 0.  0.
          5    1    3    3  501    0 -0.19414650068E+02  0.11368440785E+02 -0.19280558002E+02  0.30000000000E+02  0.47000000000E+01 0.  1.
         -5    1    3    3    0  501  0.19414650068E+02 -0.11368440785E+02  0.19280558002E+02  0.30000000000E+02  0.47000000000E+01 0. -1.
</event>
<event>
 5    1  0.7959189E-002  0.6000000E+02  0.7546771E-02  0.1259629E+00
         11   -1    0    0    0    0  0.00000000000E+00  0.00000000000E+00  0.30000000000E+02  0.30000000000E+02  0.00000000000E+00 0.  1.
        -11   -1    0    0    0    0 -0.00000000000E+00 -0.00000000000E+00 -0.30000000000E+02  0.30000000000E+02  0.00000000000E+00 0. -1.
         23    2    1    2    0    0  0.00000000000E+00  0.00000000000E+00  0.00000000000E+00  0.60000000000E+02  0.60000000000E+02 0.  0.
          5    1    3    3  501    0 -0.95052439555E+01  0.14152889395E+02 -0.24233366649E+02  0.30000000000E+02  0.47000000000E+01 0. -1.
         -5    1    3    3    0  501  0.95052439555E+01 -0.14152889395E+02  0.24233366649E+02  0.30000000000E+02  0.47000000000E+01 0.  1.
</event>
<event>
 5    1  0.7959189E-002  0.6000000E+02  0.7546771E-02  0.1259629E+00
         11   -1    0    0    0    0  0.00000000000E+00  0.00000000000E+00  0.30000000000E+02  0.30000000000E+02  0.00000000000E+00 0.  1.
        -11   -1    0    0    0    0 -0.00000000000E+00 -0.00000000000E+00 -0.30000000000E+02  0.30000000000E+02  0.00000000000E+00 0. -1.
         23    2    1    2    0    0  0.00000000000E+00  0.00000000000E+00  0.00000000000E+00  0.60000000000E+02  0.60000000000E+02 0.  0.
          5    1    3    3  501    0  0.15945292632E+02 -0.15624681928E+02 -0.19481451628E+02  0.30000000000E+02  0.47000000000E+01 0. -1.
         -5    1    3    3    0  501 -0.15945292632E+02  0.15624681928E+02  0.19481451628E+02  0.30000000000E+02  0.47000000000E+01 0.  1.
</event>
<event>
 5    1  0.7959189E-002  0.6000000E+02  0.7546771E-02  0.1259629E+00
         11   -1    0    0    0    0  0.00000000000E+00  0.00000000000E+00  0.30000000000E+02  0.30000000000E+02  0.00000000000E+00 0.  1.
        -11   -1    0    0    0    0 -0.00000000000E+00 -0.00000000000E+00 -0.30000000000E+02  0.30000000000E+02  0.00000000000E+00 0. -1.
         23    2    1    2    0    0  0.00000000000E+00  0.00000000000E+00  0.00000000000E+00  0.60000000000E+02  0.60000000000E+02 0.  0.
          5    1    3    3  501    0  0.11640389118E+02  0.53260309919E+01 -0.26721615503E+02  0.30000000000E+02  0.47000000000E+01 0. -1.
         -5    1    3    3    0  501 -0.11640389118E+02 -0.53260309919E+01  0.26721615503E+02  0.30000000000E+02  0.47000000000E+01 0.  1.
</event>
<event>
 5    1  0.7959189E-002  0.6000000E+02  0.7546771E-02  0.1259629E+00
         11   -1    0    0    0    0  0.00000000000E+00  0.00000000000E+00  0.30000000000E+02  0.30000000000E+02  0.00000000000E+00 0.  1.
        -11   -1    0    0    0    0 -0.00000000000E+00 -0.00000000000E+00 -0.30000000000E+02  0.30000000000E+02  0.00000000000E+00 0. -1.
         23    2    1    2    0    0  0.00000000000E+00  0.00000000000E+00  0.00000000000E+00  0.60000000000E+02  0.60000000000E+02 0.  0.
          5    1    3    3  501    0  0.70085913874E+01 -0.12509416991E+02 -0.25928828229E+02  0.30000000000E+02  0.47000000000E+01 0. -1.
         -5    1    3    3    0  501 -0.70085913874E+01  0.12509416991E+02  0.25928828229E+02  0.30000000000E+02  0.47000000000E+01 0.  1.
</event>
<event>
 5    1  0.7959189E-002  0.6000000E+02  0.7546771E-02  0.1259629E+00
         11   -1    0    0    0    0  0.00000000000E+00  0.00000000000E+00  0.30000000000E+02  0.30000000000E+02  0.00000000000E+00 0. -1.
        -11   -1    0    0    0    0 -0.00000000000E+00 -0.00000000000E+00 -0.30000000000E+02  0.30000000000E+02  0.00000000000E+00 0.  1.
         23    2    1    2    0    0  0.00000000000E+00  0.00000000000E+00  0.00000000000E+00  0.60000000000E+02  0.60000000000E+02 0.  0.
          5    1    3    3  501    0 -0.46677219229E+00  0.23540454310E+02 -0.17987193628E+02  0.30000000000E+02  0.47000000000E+01 0.  1.
         -5    1    3    3    0  501  0.46677219229E+00 -0.23540454310E+02  0.17987193628E+02  0.30000000000E+02  0.47000000000E+01 0. -1.
</event>
<event>
 5    1  0.7959189E-002  0.6000000E+02  0.7546771E-02  0.1259629E+00
         11   -1    0    0    0    0  0.00000000000E+00  0.00000000000E+00  0.30000000000E+02  0.30000000000E+02  0.00000000000E+00 0.  1.
        -11   -1    0    0    0    0 -0.00000000000E+00 -0.00000000000E+00 -0.30000000000E+02  0.30000000000E+02  0.00000000000E+00 0. -1.
         23    2    1    2    0    0  0.00000000000E+00  0.00000000000E+00  0.00000000000E+00  0.60000000000E+02  0.60000000000E+02 0.  0.
          5    1    3    3  501    0  0.19276603258E+02 -0.22270757034E+02 -0.32149569178E+01  0.30000000000E+02  0.47000000000E+01 0. -1.
         -5    1    3    3    0  501 -0.19276603258E+02  0.22270757034E+02  0.32149569178E+01  0.30000000000E+02  0.47000000000E+01 0.  1.
</event>
<event>
 5    1  0.7959189E-002  0.6000000E+02  0.7546771E-02  0.1259629E+00
         11   -1    0    0    0    0  0.00000000000E+00  0.00000000000E+00  0.30000000000E+02  0.30000000000E+02  0.00000000000E+00 0. -1.
        -11   -1    0    0    0    0 -0.00000000000E+00 -0.00000000000E+00 -0.30000000000E+02  0.30000000000E+02  0.00000000000E+00 0.  1.
         23    2    1    2    0    0  0.00000000000E+00  0.00000000000E+00  0.00000000000E+00  0.60000000000E+02  0.60000000000E+02 0.  0.
          5    1    3    3  501    0 -0.77429882520E+01 -0.20848239621E+02 -0.19578228664E+02  0.30000000000E+02  0.47000000000E+01 0.  1.
         -5    1    3    3    0  501  0.77429882520E+01  0.20848239621E+02  0.19578228664E+02  0.30000000000E+02  0.47000000000E+01 0. -1.
</event>
<event>
 5    1  0.7959189E-002  0.6000000E+02  0.7546771E-02  0.1259629E+00
         11   -1    0    0    0    0  0.00000000000E+00  0.00000000000E+00  0.30000000000E+02  0.30000000000E+02  0.00000000000E+00 0.  1.
        -11   -1    0    0    0    0 -0.00000000000E+00 -0.00000000000E+00 -0.30000000000E+02  0.30000000000E+02  0.00000000000E+00 0. -1.
         23    2    1    2    0    0  0.00000000000E+00  0.00000000000E+00  0.00000000000E+00  0.60000000000E+02  0.60000000000E+02 0.  0.
          5    1    3    3  501    0 -0.13074028130E+02 -0.26422901380E+02  0.29681763979E+01  0.30000000000E+02  0.47000000000E+01 0. -1.
         -5    1    3    3    0  501  0.13074028130E+02  0.26422901380E+02 -0.29681763979E+01  0.30000000000E+02  0.47000000000E+01 0.  1.
</event>
<event>
 5    1  0.7959189E-002  0.6000000E+02  0.7546771E-02  0.1259629E+00
         11   -1    0    0    0    0  0.00000000000E+00  0.00000000000E+00  0.30000000000E+02  0.30000000000E+02  0.00000000000E+00 0. -1.
        -11   -1    0    0    0    0 -0.00000000000E+00 -0.00000000000E+00 -0.30000000000E+02  0.30000000000E+02  0.00000000000E+00 0.  1.
         23    2    1    2    0    0  0.00000000000E+00  0.00000000000E+00  0.00000000000E+00  0.60000000000E+02  0.60000000000E+02 0.  0.
          5    1    3    3  501    0 -0.18857269465E+02 -0.19358477225E+02 -0.12147540815E+02  0.30000000000E+02  0.47000000000E+01 0.  1.
         -5    1    3    3    0  501  0.18857269465E+02  0.19358477225E+02  0.12147540815E+02  0.30000000000E+02  0.47000000000E+01 0. -1.
</event>
<event>
 5    1  0.7959189E-002  0.6000000E+02  0.7546771E-02  0.1259629E+00
         11   -1    0    0    0    0  0.00000000000E+00  0.00000000000E+00  0.30000000000E+02  0.30000000000E+02  0.00000000000E+00 0.  1.
        -11   -1    0    0    0    0 -0.00000000000E+00 -0.00000000000E+00 -0.30000000000E+02  0.30000000000E+02  0.00000000000E+00 0. -1.
         23    2    1    2    0    0  0.00000000000E+00  0.00000000000E+00  0.00000000000E+00  0.60000000000E+02  0.60000000000E+02 0.  0.
          5    1    3    3  501    0 -0.88792753856E+01 -0.18717953404E+02  0.21182697868E+02  0.30000000000E+02  0.47000000000E+01 0.  1.
         -5    1    3    3    0  501  0.88792753856E+01  0.18717953404E+02 -0.21182697868E+02  0.30000000000E+02  0.47000000000E+01 0. -1.
</event>
<event>
 5    1  0.7959189E-002  0.6000000E+02  0.7546771E-02  0.1259629E+00
         11   -1    0    0    0    0  0.00000000000E+00  0.00000000000E+00  0.30000000000E+02  0.30000000000E+02  0.00000000000E+00 0.  1.
        -11   -1    0    0    0    0 -0.00000000000E+00 -0.00000000000E+00 -0.30000000000E+02  0.30000000000E+02  0.00000000000E+00 0. -1.
         23    2    1    2    0    0  0.00000000000E+00  0.00000000000E+00  0.00000000000E+00  0.60000000000E+02  0.60000000000E+02 0.  0.
          5    1    3    3  501    0  0.18480586398E+02 -0.19415237324E+02 -0.12626420159E+02  0.30000000000E+02  0.47000000000E+01 0. -1.
         -5    1    3    3    0  501 -0.18480586398E+02  0.19415237324E+02  0.12626420159E+02  0.30000000000E+02  0.47000000000E+01 0.  1.
</event>
<event>
 5    1  0.7959189E-002  0.6000000E+02  0.7546771E-02  0.1259629E+00
         11   -1    0    0    0    0  0.00000000000E+00  0.00000000000E+00  0.30000000000E+02  0.30000000000E+02  0.00000000000E+00 0.  1.
        -11   -1    0    0    0    0 -0.00000000000E+00 -0.00000000000E+00 -0.30000000000E+02  0.30000000000E+02  0.00000000000E+00 0. -1.
         23    2    1    2    0    0  0.00000000000E+00  0.00000000000E+00  0.00000000000E+00  0.60000000000E+02  0.60000000000E+02 0.  0.
          5    1    3    3  501    0 -0.56596119316E+01  0.29054366117E+02 -0.13124794605E+01  0.30000000000E+02  0.47000000000E+01 0. -1.
         -5    1    3    3    0  501  0.56596119316E+01 -0.29054366117E+02  0.13124794605E+01  0.30000000000E+02  0.47000000000E+01 0.  1.
</event>
<event>
 5    1  0.7959189E-002  0.6000000E+02  0.7546771E-02  0.1259629E+00
         11   -1    0    0    0    0  0.00000000000E+00  0.00000000000E+00  0.30000000000E+02  0.30000000000E+02  0.00000000000E+00 0.  1.
        -11   -1    0    0    0    0 -0.00000000000E+00 -0.00000000000E+00 -0.30000000000E+02  0.30000000000E+02  0.00000000000E+00 0. -1.
         23    2    1    2    0    0  0.00000000000E+00  0.00000000000E+00  0.00000000000E+00  0.60000000000E+02  0.60000000000E+02 0.  0.
          5    1    3    3  501    0  0.19485018524E+02 -0.22208476321E+02 -0.22422383027E+01  0.30000000000E+02  0.47000000000E+01 0. -1.
         -5    1    3    3    0  501 -0.19485018524E+02  0.22208476321E+02  0.22422383027E+01  0.30000000000E+02  0.47000000000E+01 0.  1.
</event>
<event>
 5    1  0.7959189E-002  0.6000000E+02  0.7546771E-02  0.1259629E+00
         11   -1    0    0    0    0  0.00000000000E+00  0.00000000000E+00  0.30000000000E+02  0.30000000000E+02  0.00000000000E+00 0.  1.
        -11   -1    0    0    0    0 -0.00000000000E+00 -0.00000000000E+00 -0.30000000000E+02  0.30000000000E+02  0.00000000000E+00 0. -1.
         23    2    1    2    0    0  0.00000000000E+00  0.00000000000E+00  0.00000000000E+00  0.60000000000E+02  0.60000000000E+02 0.  0.
          5    1    3    3  501    0 -0.14108162971E+02 -0.25865113102E+02 -0.31409651030E+01  0.30000000000E+02  0.47000000000E+01 0. -1.
         -5    1    3    3    0  501  0.14108162971E+02  0.25865113102E+02  0.31409651030E+01  0.30000000000E+02  0.47000000000E+01 0.  1.
</event>
<event>
 5    1  0.7959189E-002  0.6000000E+02  0.7546771E-02  0.1259629E+00
         11   -1    0    0    0    0  0.00000000000E+00  0.00000000000E+00  0.30000000000E+02  0.30000000000E+02  0.00000000000E+00 0.  1.
        -11   -1    0    0    0    0 -0.00000000000E+00 -0.00000000000E+00 -0.30000000000E+02  0.30000000000E+02  0.00000000000E+00 0. -1.
         23    2    1    2    0    0  0.00000000000E+00  0.00000000000E+00  0.00000000000E+00  0.60000000000E+02  0.60000000000E+02 0.  0.
          5    1    3    3  501    0  0.17381484387E+01  0.25425618395E+02  0.15113794006E+02  0.30000000000E+02  0.47000000000E+01 0. -1.
         -5    1    3    3    0  501 -0.17381484387E+01 -0.25425618395E+02 -0.15113794006E+02  0.30000000000E+02  0.47000000000E+01 0.  1.
</event>
<event>
 5    1  0.7959189E-002  0.6000000E+02  0.7546771E-02  0.1259629E+00
         11   -1    0    0    0    0  0.00000000000E+00  0.00000000000E+00  0.30000000000E+02  0.30000000000E+02  0.00000000000E+00 0.  1.
        -11   -1    0    0    0    0 -0.00000000000E+00 -0.00000000000E+00 -0.30000000000E+02  0.30000000000E+02  0.00000000000E+00 0. -1.
         23    2    1    2    0    0  0.00000000000E+00  0.00000000000E+00  0.00000000000E+00  0.60000000000E+02  0.60000000000E+02 0.  0.
          5    1    3    3  501    0  0.10833141706E+02 -0.14942193102E+02 -0.23179385369E+02  0.30000000000E+02  0.47000000000E+01 0. -1.
         -5    1    3    3    0  501 -0.10833141706E+02  0.14942193102E+02  0.23179385369E+02  0.30000000000E+02  0.47000000000E+01 0.  1.
</event>
<event>
 5    1  0.7959189E-002  0.6000000E+02  0.7546771E-02  0.1259629E+00
         11   -1    0    0    0    0  0.00000000000E+00  0.00000000000E+00  0.30000000000E+02  0.30000000000E+02  0.00000000000E+00 0.  1.
        -11   -1    0    0    0    0 -0.00000000000E+00 -0.00000000000E+00 -0.30000000000E+02  0.30000000000E+02  0.00000000000E+00 0. -1.
         23    2    1    2    0    0  0.00000000000E+00  0.00000000000E+00  0.00000000000E+00  0.60000000000E+02  0.60000000000E+02 0.  0.
          5    1    3    3  501    0  0.15462545102E+02  0.24003567770E+02 -0.79150763279E+01  0.30000000000E+02  0.47000000000E+01 0. -1.
         -5    1    3    3    0  501 -0.15462545102E+02 -0.24003567770E+02  0.79150763279E+01  0.30000000000E+02  0.47000000000E+01 0.  1.
</event>
<event>
 5    1  0.7959189E-002  0.6000000E+02  0.7546771E-02  0.1259629E+00
         11   -1    0    0    0    0  0.00000000000E+00  0.00000000000E+00  0.30000000000E+02  0.30000000000E+02  0.00000000000E+00 0.  1.
        -11   -1    0    0    0    0 -0.00000000000E+00 -0.00000000000E+00 -0.30000000000E+02  0.30000000000E+02  0.00000000000E+00 0. -1.
         23    2    1    2    0    0  0.00000000000E+00  0.00000000000E+00  0.00000000000E+00  0.60000000000E+02  0.60000000000E+02 0.  0.
          5    1    3    3  501    0 -0.23886346489E+02 -0.15270928385E+02 -0.86111089671E+01  0.30000000000E+02  0.47000000000E+01 0. -1.
         -5    1    3    3    0  501  0.23886346489E+02  0.15270928385E+02  0.86111089671E+01  0.30000000000E+02  0.47000000000E+01 0.  1.
</event>
<event>
 5    1  0.7959189E-002  0.6000000E+02  0.7546771E-02  0.1259629E+00
         11   -1    0    0    0    0  0.00000000000E+00  0.00000000000E+00  0.30000000000E+02  0.30000000000E+02  0.00000000000E+00 0.  1.
        -11   -1    0    0    0    0 -0.00000000000E+00 -0.00000000000E+00 -0.30000000000E+02  0.30000000000E+02  0.00000000000E+00 0. -1.
         23    2    1    2    0    0  0.00000000000E+00  0.00000000000E+00  0.00000000000E+00  0.60000000000E+02  0.60000000000E+02 0.  0.
          5    1    3    3  501    0 -0.16442463507E+02  0.24363431899E+02 -0.37387939098E+01  0.30000000000E+02  0.47000000000E+01 0. -1.
         -5    1    3    3    0  501  0.16442463507E+02 -0.24363431899E+02  0.37387939098E+01  0.30000000000E+02  0.47000000000E+01 0.  1.
</event>
<event>
 5    1  0.7959189E-002  0.6000000E+02  0.7546771E-02  0.1259629E+00
         11   -1    0    0    0    0  0.00000000000E+00  0.00000000000E+00  0.30000000000E+02  0.30000000000E+02  0.00000000000E+00 0.  1.
        -11   -1    0    0    0    0 -0.00000000000E+00 -0.00000000000E+00 -0.30000000000E+02  0.30000000000E+02  0.00000000000E+00 0. -1.
         23    2    1    2    0    0  0.00000000000E+00  0.00000000000E+00  0.00000000000E+00  0.60000000000E+02  0.60000000000E+02 0.  0.
          5    1    3    3  501    0  0.21616970827E+02  0.19928754356E+02 -0.36689674400E+01  0.30000000000E+02  0.47000000000E+01 0. -1.
         -5    1    3    3    0  501 -0.21616970827E+02 -0.19928754356E+02  0.36689674400E+01  0.30000000000E+02  0.47000000000E+01 0.  1.
</event>
<event>
 5    1  0.7959189E-002  0.6000000E+02  0.7546771E-02  0.1259629E+00
         11   -1    0    0    0    0  0.00000000000E+00  0.00000000000E+00  0.30000000000E+02  0.30000000000E+02  0.00000000000E+00 0. -1.
        -11   -1    0    0    0    0 -0.00000000000E+00 -0.00000000000E+00 -0.30000000000E+02  0.30000000000E+02  0.00000000000E+00 0.  1.
         23    2    1    2    0    0  0.00000000000E+00  0.00000000000E+00  0.00000000000E+00  0.60000000000E+02  0.60000000000E+02 0.  0.
          5    1    3    3  501    0  0.22865794160E+01  0.18627381497E+02 -0.22928196901E+02  0.30000000000E+02  0.47000000000E+01 0.  1.
         -5    1    3    3    0  501 -0.22865794160E+01 -0.18627381497E+02  0.22928196901E+02  0.30000000000E+02  0.47000000000E+01 0. -1.
</event>
<event>
 5    1  0.7959189E-002  0.6000000E+02  0.7546771E-02  0.1259629E+00
         11   -1    0    0    0    0  0.00000000000E+00  0.00000000000E+00  0.30000000000E+02  0.30000000000E+02  0.00000000000E+00 0.  1.
        -11   -1    0    0    0    0 -0.00000000000E+00 -0.00000000000E+00 -0.30000000000E+02  0.30000000000E+02  0.00000000000E+00 0. -1.
         23    2    1    2    0    0  0.00000000000E+00  0.00000000000E+00  0.00000000000E+00  0.60000000000E+02  0.60000000000E+02 0.  0.
          5    1    3    3  501    0  0.20878774650E+01  0.13000022299E+02 -0.26543364292E+02  0.30000000000E+02  0.47000000000E+01 0. -1.
         -5    1    3    3    0  501 -0.20878774650E+01 -0.13000022299E+02  0.26543364292E+02  0.30000000000E+02  0.47000000000E+01 0.  1.
</event>
<event>
 5    1  0.7959189E-002  0.6000000E+02  0.7546771E-02  0.1259629E+00
         11   -1    0    0    0    0  0.00000000000E+00  0.00000000000E+00  0.30000000000E+02  0.30000000000E+02  0.00000000000E+00 0.  1.
        -11   -1    0    0    0    0 -0.00000000000E+00 -0.00000000000E+00 -0.30000000000E+02  0.30000000000E+02  0.00000000000E+00 0. -1.
         23    2    1    2    0    0  0.00000000000E+00  0.00000000000E+00  0.00000000000E+00  0.60000000000E+02  0.60000000000E+02 0.  0.
          5    1    3    3  501    0 -0.19533105864E+02  0.13013411582E+02 -0.18083663741E+02  0.30000000000E+02  0.47000000000E+01 0. -1.
         -5    1    3    3    0  501  0.19533105864E+02 -0.13013411582E+02  0.18083663741E+02  0.30000000000E+02  0.47000000000E+01 0.  1.
</event>
<event>
 5    1  0.7959189E-002  0.6000000E+02  0.7546771E-02  0.1259629E+00
         11   -1    0    0    0    0  0.00000000000E+00  0.00000000000E+00  0.30000000000E+02  0.30000000000E+02  0.00000000000E+00 0.  1.
        -11   -1    0    0    0    0 -0.00000000000E+00 -0.00000000000E+00 -0.30000000000E+02  0.30000000000E+02  0.00000000000E+00 0. -1.
         23    2    1    2    0    0  0.00000000000E+00  0.00000000000E+00  0.00000000000E+00  0.60000000000E+02  0.60000000000E+02 0.  0.
          5    1    3    3  501    0  0.27495447318E+01 -0.29254487838E+02  0.38111605964E+01  0.30000000000E+02  0.47000000000E+01 0. -1.
         -5    1    3    3    0  501 -0.27495447318E+01  0.29254487838E+02 -0.38111605964E+01  0.30000000000E+02  0.47000000000E+01 0.  1.
</event>
<event>
 5    1  0.7959189E-002  0.6000000E+02  0.7546771E-02  0.1259629E+00
         11   -1    0    0    0    0  0.00000000000E+00  0.00000000000E+00  0.30000000000E+02  0.30000000000E+02  0.00000000000E+00 0. -1.
        -11   -1    0    0    0    0 -0.00000000000E+00 -0.00000000000E+00 -0.30000000000E+02  0.30000000000E+02  0.00000000000E+00 0.  1.
         23    2    1    2    0    0  0.00000000000E+00  0.00000000000E+00  0.00000000000E+00  0.60000000000E+02  0.60000000000E+02 0.  0.
          5    1    3    3  501    0  0.19901601201E+02  0.80177161475E+01  0.20434101336E+02  0.30000000000E+02  0.47000000000E+01 0. -1.
         -5    1    3    3    0  501 -0.19901601201E+02 -0.80177161475E+01 -0.20434101336E+02  0.30000000000E+02  0.47000000000E+01 0.  1.
</event>
<event>
 5    1  0.7959189E-002  0.6000000E+02  0.7546771E-02  0.1259629E+00
         11   -1    0    0    0    0  0.00000000000E+00  0.00000000000E+00  0.30000000000E+02  0.30000000000E+02  0.00000000000E+00 0.  1.
        -11   -1    0    0    0    0 -0.00000000000E+00 -0.00000000000E+00 -0.30000000000E+02  0.30000000000E+02  0.00000000000E+00 0. -1.
         23    2    1    2    0    0  0.00000000000E+00  0.00000000000E+00  0.00000000000E+00  0.60000000000E+02  0.60000000000E+02 0.  0.
          5    1    3    3  501    0 -0.29352474126E+02  0.27393966381E+01 -0.29728721395E+01  0.30000000000E+02  0.47000000000E+01 0. -1.
         -5    1    3    3    0  501  0.29352474126E+02 -0.27393966381E+01  0.29728721395E+01  0.30000000000E+02  0.47000000000E+01 0.  1.
</event>
<event>
 5    1  0.7959189E-002  0.6000000E+02  0.7546771E-02  0.1259629E+00
         11   -1    0    0    0    0  0.00000000000E+00  0.00000000000E+00  0.30000000000E+02  0.30000000000E+02  0.00000000000E+00 0.  1.
        -11   -1    0    0    0    0 -0.00000000000E+00 -0.00000000000E+00 -0.30000000000E+02  0.30000000000E+02  0.00000000000E+00 0. -1.
         23    2    1    2    0    0  0.00000000000E+00  0.00000000000E+00  0.00000000000E+00  0.60000000000E+02  0.60000000000E+02 0.  0.
          5    1    3    3  501    0 -0.70176349195E+01  0.25791918340E+02 -0.12784355615E+02  0.30000000000E+02  0.47000000000E+01 0. -1.
         -5    1    3    3    0  501  0.70176349195E+01 -0.25791918340E+02  0.12784355615E+02  0.30000000000E+02  0.47000000000E+01 0.  1.
</event>
<event>
 5    1  0.7959189E-002  0.6000000E+02  0.7546771E-02  0.1259629E+00
         11   -1    0    0    0    0  0.00000000000E+00  0.00000000000E+00  0.30000000000E+02  0.30000000000E+02  0.00000000000E+00 0.  1.
        -11   -1    0    0    0    0 -0.00000000000E+00 -0.00000000000E+00 -0.30000000000E+02  0.30000000000E+02  0.00000000000E+00 0. -1.
         23    2    1    2    0    0  0.00000000000E+00  0.00000000000E+00  0.00000000000E+00  0.60000000000E+02  0.60000000000E+02 0.  0.
          5    1    3    3  501    0  0.39189530041E+01  0.21794175264E+01  0.29288256121E+02  0.30000000000E+02  0.47000000000E+01 0.  1.
         -5    1    3    3    0  501 -0.39189530041E+01 -0.21794175264E+01 -0.29288256121E+02  0.30000000000E+02  0.47000000000E+01 0. -1.
</event>
<event>
 5    1  0.7959189E-002  0.6000000E+02  0.7546771E-02  0.1259629E+00
         11   -1    0    0    0    0  0.00000000000E+00  0.00000000000E+00  0.30000000000E+02  0.30000000000E+02  0.00000000000E+00 0. -1.
        -11   -1    0    0    0    0 -0.00000000000E+00 -0.00000000000E+00 -0.30000000000E+02  0.30000000000E+02  0.00000000000E+00 0.  1.
         23    2    1    2    0    0  0.00000000000E+00  0.00000000000E+00  0.00000000000E+00  0.60000000000E+02  0.60000000000E+02 0.  0.
          5    1    3    3  501    0  0.29499658596E+02  0.90586206299E+00  0.26190755337E+01  0.30000000000E+02  0.47000000000E+01 0.  1.
         -5    1    3    3    0  501 -0.29499658596E+02 -0.90586206299E+00 -0.26190755337E+01  0.30000000000E+02  0.47000000000E+01 0. -1.
</event>
<event>
 5    1  0.7959189E-002  0.6000000E+02  0.7546771E-02  0.1259629E+00
         11   -1    0    0    0    0  0.00000000000E+00  0.00000000000E+00  0.30000000000E+02  0.30000000000E+02  0.00000000000E+00 0.  1.
        -11   -1    0    0    0    0 -0.00000000000E+00 -0.00000000000E+00 -0.30000000000E+02  0.30000000000E+02  0.00000000000E+00 0. -1.
         23    2    1    2    0    0  0.00000000000E+00  0.00000000000E+00  0.00000000000E+00  0.60000000000E+02  0.60000000000E+02 0.  0.
          5    1    3    3  501    0  0.20599974886E+02 -0.11790969369E+02 -0.17734826642E+02  0.30000000000E+02  0.47000000000E+01 0. -1.
         -5    1    3    3    0  501 -0.20599974886E+02  0.11790969369E+02  0.17734826642E+02  0.30000000000E+02  0.47000000000E+01 0.  1.
</event>
<event>
 5    1  0.7959189E-002  0.6000000E+02  0.7546771E-02  0.1259629E+00
         11   -1    0    0    0    0  0.00000000000E+00  0.00000000000E+00  0.30000000000E+02  0.30000000000E+02  0.00000000000E+00 0.  1.
        -11   -1    0    0    0    0 -0.00000000000E+00 -0.00000000000E+00 -0.30000000000E+02  0.30000000000E+02  0.00000000000E+00 0. -1.
         23    2    1    2    0    0  0.00000000000E+00  0.00000000000E+00  0.00000000000E+00  0.60000000000E+02  0.60000000000E+02 0.  0.
          5    1    3    3  501    0  0.16841267233E+02  0.16887590408E+02 -0.17580984278E+02  0.30000000000E+02  0.47000000000E+01 0. -1.
         -5    1    3    3    0  501 -0.16841267233E+02 -0.16887590408E+02  0.17580984278E+02  0.30000000000E+02  0.47000000000E+01 0.  1.
</event>
<event>
 5    1  0.7959189E-002  0.6000000E+02  0.7546771E-02  0.1259629E+00
         11   -1    0    0    0    0  0.00000000000E+00  0.00000000000E+00  0.30000000000E+02  0.30000000000E+02  0.00000000000E+00 0. -1.
        -11   -1    0    0    0    0 -0.00000000000E+00 -0.00000000000E+00 -0.30000000000E+02  0.30000000000E+02  0.00000000000E+00 0.  1.
         23    2    1    2    0    0  0.00000000000E+00  0.00000000000E+00  0.00000000000E+00  0.60000000000E+02  0.60000000000E+02 0.  0.
          5    1    3    3  501    0  0.11720097884E+02  0.11852412299E+02 -0.24496318668E+02  0.30000000000E+02  0.47000000000E+01 0.  1.
         -5    1    3    3    0  501 -0.11720097884E+02 -0.11852412299E+02  0.24496318668E+02  0.30000000000E+02  0.47000000000E+01 0. -1.
</event>
<event>
 5    1  0.7959189E-002  0.6000000E+02  0.7546771E-02  0.1259629E+00
         11   -1    0    0    0    0  0.00000000000E+00  0.00000000000E+00  0.30000000000E+02  0.30000000000E+02  0.00000000000E+00 0.  1.
        -11   -1    0    0    0    0 -0.00000000000E+00 -0.00000000000E+00 -0.30000000000E+02  0.30000000000E+02  0.00000000000E+00 0. -1.
         23    2    1    2    0    0  0.00000000000E+00  0.00000000000E+00  0.00000000000E+00  0.60000000000E+02  0.60000000000E+02 0.  0.
          5    1    3    3  501    0  0.25605351672E+02  0.14906656575E+02 -0.25991441810E+00  0.30000000000E+02  0.47000000000E+01 0. -1.
         -5    1    3    3    0  501 -0.25605351672E+02 -0.14906656575E+02  0.25991441810E+00  0.30000000000E+02  0.47000000000E+01 0.  1.
</event>
<event>
 5    1  0.7959189E-002  0.6000000E+02  0.7546771E-02  0.1259629E+00
         11   -1    0    0    0    0  0.00000000000E+00  0.00000000000E+00  0.30000000000E+02  0.30000000000E+02  0.00000000000E+00 0.  1.
        -11   -1    0    0    0    0 -0.00000000000E+00 -0.00000000000E+00 -0.30000000000E+02  0.30000000000E+02  0.00000000000E+00 0. -1.
         23    2    1    2    0    0  0.00000000000E+00  0.00000000000E+00  0.00000000000E+00  0.60000000000E+02  0.60000000000E+02 0.  0.
          5    1    3    3  501    0  0.76928257163E+01  0.15261797381E+02 -0.24203470272E+02  0.30000000000E+02  0.47000000000E+01 0. -1.
         -5    1    3    3    0  501 -0.76928257163E+01 -0.15261797381E+02  0.24203470272E+02  0.30000000000E+02  0.47000000000E+01 0.  1.
</event>
<event>
 5    1  0.7959189E-002  0.6000000E+02  0.7546771E-02  0.1259629E+00
         11   -1    0    0    0    0  0.00000000000E+00  0.00000000000E+00  0.30000000000E+02  0.30000000000E+02  0.00000000000E+00 0.  1.
        -11   -1    0    0    0    0 -0.00000000000E+00 -0.00000000000E+00 -0.30000000000E+02  0.30000000000E+02  0.00000000000E+00 0. -1.
         23    2    1    2    0    0  0.00000000000E+00  0.00000000000E+00  0.00000000000E+00  0.60000000000E+02  0.60000000000E+02 0.  0.
          5    1    3    3  501    0 -0.71946017425E+00  0.13058558754E+02 -0.26586959591E+02  0.30000000000E+02  0.47000000000E+01 0. -1.
         -5    1    3    3    0  501  0.71946017425E+00 -0.13058558754E+02  0.26586959591E+02  0.30000000000E+02  0.47000000000E+01 0.  1.
</event>
<event>
 5    1  0.7959189E-002  0.6000000E+02  0.7546771E-02  0.1259629E+00
         11   -1    0    0    0    0  0.00000000000E+00  0.00000000000E+00  0.30000000000E+02  0.30000000000E+02  0.00000000000E+00 0.  1.
        -11   -1    0    0    0    0 -0.00000000000E+00 -0.00000000000E+00 -0.30000000000E+02  0.30000000000E+02  0.00000000000E+00 0. -1.
         23    2    1    2    0    0  0.00000000000E+00  0.00000000000E+00  0.00000000000E+00  0.60000000000E+02  0.60000000000E+02 0.  0.
          5    1    3    3  501    0  0.21853907389E+02 -0.16364736717E+02  0.11511391055E+02  0.30000000000E+02  0.47000000000E+01 0. -1.
         -5    1    3    3    0  501 -0.21853907389E+02  0.16364736717E+02 -0.11511391055E+02  0.30000000000E+02  0.47000000000E+01 0.  1.
</event>
<event>
 5    1  0.7959189E-002  0.6000000E+02  0.7546771E-02  0.1259629E+00
         11   -1    0    0    0    0  0.00000000000E+00  0.00000000000E+00  0.30000000000E+02  0.30000000000E+02  0.00000000000E+00 0.  1.
        -11   -1    0    0    0    0 -0.00000000000E+00 -0.00000000000E+00 -0.30000000000E+02  0.30000000000E+02  0.00000000000E+00 0. -1.
         23    2    1    2    0    0  0.00000000000E+00  0.00000000000E+00  0.00000000000E+00  0.60000000000E+02  0.60000000000E+02 0.  0.
          5    1    3    3  501    0 -0.19024182723E+02 -0.16394297323E+02 -0.15723151306E+02  0.30000000000E+02  0.47000000000E+01 0. -1.
         -5    1    3    3    0  501  0.19024182723E+02  0.16394297323E+02  0.15723151306E+02  0.30000000000E+02  0.47000000000E+01 0.  1.
</event>
<event>
 5    1  0.7959189E-002  0.6000000E+02  0.7546771E-02  0.1259629E+00
         11   -1    0    0    0    0  0.00000000000E+00  0.00000000000E+00  0.30000000000E+02  0.30000000000E+02  0.00000000000E+00 0.  1.
        -11   -1    0    0    0    0 -0.00000000000E+00 -0.00000000000E+00 -0.30000000000E+02  0.30000000000E+02  0.00000000000E+00 0. -1.
         23    2    1    2    0    0  0.00000000000E+00  0.00000000000E+00  0.00000000000E+00  0.60000000000E+02  0.60000000000E+02 0.  0.
          5    1    3    3  501    0  0.25741958143E+02 -0.14666846271E+02  0.38106618748E+00  0.30000000000E+02  0.47000000000E+01 0. -1.
         -5    1    3    3    0  501 -0.25741958143E+02  0.14666846271E+02 -0.38106618748E+00  0.30000000000E+02  0.47000000000E+01 0.  1.
</event>
<event>
 5    1  0.7959189E-002  0.6000000E+02  0.7546771E-02  0.1259629E+00
         11   -1    0    0    0    0  0.00000000000E+00  0.00000000000E+00  0.30000000000E+02  0.30000000000E+02  0.00000000000E+00 0.  1.
        -11   -1    0    0    0    0 -0.00000000000E+00 -0.00000000000E+00 -0.30000000000E+02  0.30000000000E+02  0.00000000000E+00 0. -1.
         23    2    1    2    0    0  0.00000000000E+00  0.00000000000E+00  0.00000000000E+00  0.60000000000E+02  0.60000000000E+02 0.  0.
          5    1    3    3  501    0  0.22322074387E+02 -0.14084619947E+02 -0.13463226805E+02  0.30000000000E+02  0.47000000000E+01 0. -1.
         -5    1    3    3    0  501 -0.22322074387E+02  0.14084619947E+02  0.13463226805E+02  0.30000000000E+02  0.47000000000E+01 0.  1.
</event>
<event>
 5    1  0.7959189E-002  0.6000000E+02  0.7546771E-02  0.1259629E+00
         11   -1    0    0    0    0  0.00000000000E+00  0.00000000000E+00  0.30000000000E+02  0.30000000000E+02  0.00000000000E+00 0. -1.
        -11   -1    0    0    0    0 -0.00000000000E+00 -0.00000000000E+00 -0.30000000000E+02  0.30000000000E+02  0.00000000000E+00 0.  1.
         23    2    1    2    0    0  0.00000000000E+00  0.00000000000E+00  0.00000000000E+00  0.60000000000E+02  0.60000000000E+02 0.  0.
          5    1    3    3  501    0  0.39168420327E+01  0.23346184951E+02 -0.17819203033E+02  0.30000000000E+02  0.47000000000E+01 0.  1.
         -5    1    3    3    0  501 -0.39168420327E+01 -0.23346184951E+02  0.17819203033E+02  0.30000000000E+02  0.47000000000E+01 0. -1.
</event>
<event>
 5    1  0.7959189E-002  0.6000000E+02  0.7546771E-02  0.1259629E+00
         11   -1    0    0    0    0  0.00000000000E+00  0.00000000000E+00  0.30000000000E+02  0.30000000000E+02  0.00000000000E+00 0. -1.
        -11   -1    0    0    0    0 -0.00000000000E+00 -0.00000000000E+00 -0.30000000000E+02  0.30000000000E+02  0.00000000000E+00 0.  1.
         23    2    1    2    0    0  0.00000000000E+00  0.00000000000E+00  0.00000000000E+00  0.60000000000E+02  0.60000000000E+02 0.  0.
          5    1    3    3  501    0  0.27225617580E+02  0.96696174427E+00  0.11650782479E+02  0.30000000000E+02  0.47000000000E+01 0.  1.
         -5    1    3    3    0  501 -0.27225617580E+02 -0.96696174427E+00 -0.11650782479E+02  0.30000000000E+02  0.47000000000E+01 0. -1.
</event>
<event>
 5    1  0.7959189E-002  0.6000000E+02  0.7546771E-02  0.1259629E+00
         11   -1    0    0    0    0  0.00000000000E+00  0.00000000000E+00  0.30000000000E+02  0.30000000000E+02  0.00000000000E+00 0.  1.
        -11   -1    0    0    0    0 -0.00000000000E+00 -0.00000000000E+00 -0.30000000000E+02  0.30000000000E+02  0.00000000000E+00 0. -1.
         23    2    1    2    0    0  0.00000000000E+00  0.00000000000E+00  0.00000000000E+00  0.60000000000E+02  0.60000000000E+02 0.  0.
          5    1    3    3  501    0 -0.22917133928E+02  0.14214965826E+02 -0.12273944724E+02  0.30000000000E+02  0.47000000000E+01 0. -1.
         -5    1    3    3    0  501  0.22917133928E+02 -0.14214965826E+02  0.12273944724E+02  0.30000000000E+02  0.47000000000E+01 0.  1.
</event>
<event>
 5    1  0.7959189E-002  0.6000000E+02  0.7546771E-02  0.1259629E+00
         11   -1    0    0    0    0  0.00000000000E+00  0.00000000000E+00  0.30000000000E+02  0.30000000000E+02  0.00000000000E+00 0.  1.
        -11   -1    0    0    0    0 -0.00000000000E+00 -0.00000000000E+00 -0.30000000000E+02  0.30000000000E+02  0.00000000000E+00 0. -1.
         23    2    1    2    0    0  0.00000000000E+00  0.00000000000E+00  0.00000000000E+00  0.60000000000E+02  0.60000000000E+02 0.  0.
          5    1    3    3  501    0 -0.85608237104E+01 -0.97226657675E+01 -0.26647552754E+02  0.30000000000E+02  0.47000000000E+01 0. -1.
         -5    1    3    3    0  501  0.85608237104E+01  0.97226657675E+01  0.26647552754E+02  0.30000000000E+02  0.47000000000E+01 0.  1.
</event>
<event>
 5    1  0.7959189E-002  0.6000000E+02  0.7546771E-02  0.1259629E+00
         11   -1    0    0    0    0  0.00000000000E+00  0.00000000000E+00  0.30000000000E+02  0.30000000000E+02  0.00000000000E+00 0.  1.
        -11   -1    0    0    0    0 -0.00000000000E+00 -0.00000000000E+00 -0.30000000000E+02  0.30000000000E+02  0.00000000000E+00 0. -1.
         23    2    1    2    0    0  0.00000000000E+00  0.00000000000E+00  0.00000000000E+00  0.60000000000E+02  0.60000000000E+02 0.  0.
          5    1    3    3  501    0 -0.18403581729E+02 -0.18018498671E+02  0.14647589740E+02  0.30000000000E+02  0.47000000000E+01 0. -1.
         -5    1    3    3    0  501  0.18403581729E+02  0.18018498671E+02 -0.14647589740E+02  0.30000000000E+02  0.47000000000E+01 0.  1.
</event>
<event>
 5    1  0.7959189E-002  0.6000000E+02  0.7546771E-02  0.1259629E+00
         11   -1    0    0    0    0  0.00000000000E+00  0.00000000000E+00  0.30000000000E+02  0.30000000000E+02  0.00000000000E+00 0.  1.
        -11   -1    0    0    0    0 -0.00000000000E+00 -0.00000000000E+00 -0.30000000000E+02  0.30000000000E+02  0.00000000000E+00 0. -1.
         23    2    1    2    0    0  0.00000000000E+00  0.00000000000E+00  0.00000000000E+00  0.60000000000E+02  0.60000000000E+02 0.  0.
          5    1    3    3  501    0 -0.13788501307E+02 -0.85744643379E+01 -0.24784386073E+02  0.30000000000E+02  0.47000000000E+01 0. -1.
         -5    1    3    3    0  501  0.13788501307E+02  0.85744643379E+01  0.24784386073E+02  0.30000000000E+02  0.47000000000E+01 0.  1.
</event>
<event>
 5    1  0.7959189E-002  0.6000000E+02  0.7546771E-02  0.1259629E+00
         11   -1    0    0    0    0  0.00000000000E+00  0.00000000000E+00  0.30000000000E+02  0.30000000000E+02  0.00000000000E+00 0.  1.
        -11   -1    0    0    0    0 -0.00000000000E+00 -0.00000000000E+00 -0.30000000000E+02  0.30000000000E+02  0.00000000000E+00 0. -1.
         23    2    1    2    0    0  0.00000000000E+00  0.00000000000E+00  0.00000000000E+00  0.60000000000E+02  0.60000000000E+02 0.  0.
          5    1    3    3  501    0  0.42400457530E+01  0.19492713603E+02 -0.21908129277E+02  0.30000000000E+02  0.47000000000E+01 0. -1.
         -5    1    3    3    0  501 -0.42400457530E+01 -0.19492713603E+02  0.21908129277E+02  0.30000000000E+02  0.47000000000E+01 0.  1.
</event>
<event>
 5    1  0.7959189E-002  0.6000000E+02  0.7546771E-02  0.1259629E+00
         11   -1    0    0    0    0  0.00000000000E+00  0.00000000000E+00  0.30000000000E+02  0.30000000000E+02  0.00000000000E+00 0.  1.
        -11   -1    0    0    0    0 -0.00000000000E+00 -0.00000000000E+00 -0.30000000000E+02  0.30000000000E+02  0.00000000000E+00 0. -1.
         23    2    1    2    0    0  0.00000000000E+00  0.00000000000E+00  0.00000000000E+00  0.60000000000E+02  0.60000000000E+02 0.  0.
          5    1    3    3  501    0  0.37389095842E+01 -0.64765192267E+01 -0.28670285207E+02  0.30000000000E+02  0.47000000000E+01 0. -1.
         -5    1    3    3    0  501 -0.37389095842E+01  0.64765192267E+01  0.28670285207E+02  0.30000000000E+02  0.47000000000E+01 0.  1.
</event>
<event>
 5    1  0.7959189E-002  0.6000000E+02  0.7546771E-02  0.1259629E+00
         11   -1    0    0    0    0  0.00000000000E+00  0.00000000000E+00  0.30000000000E+02  0.30000000000E+02  0.00000000000E+00 0.  1.
        -11   -1    0    0    0    0 -0.00000000000E+00 -0.00000000000E+00 -0.30000000000E+02  0.30000000000E+02  0.00000000000E+00 0. -1.
         23    2    1    2    0    0  0.00000000000E+00  0.00000000000E+00  0.00000000000E+00  0.60000000000E+02  0.60000000000E+02 0.  0.
          5    1    3    3  501    0 -0.13495477581E+02  0.49038623597E+01 -0.25917835921E+02  0.30000000000E+02  0.47000000000E+01 0. -1.
         -5    1    3    3    0  501  0.13495477581E+02 -0.49038623597E+01  0.25917835921E+02  0.30000000000E+02  0.47000000000E+01 0.  1.
</event>
<event>
 5    1  0.7959189E-002  0.6000000E+02  0.7546771E-02  0.1259629E+00
         11   -1    0    0    0    0  0.00000000000E+00  0.00000000000E+00  0.30000000000E+02  0.30000000000E+02  0.00000000000E+00 0. -1.
        -11   -1    0    0    0    0 -0.00000000000E+00 -0.00000000000E+00 -0.30000000000E+02  0.30000000000E+02  0.00000000000E+00 0.  1.
         23    2    1    2    0    0  0.00000000000E+00  0.00000000000E+00  0.00000000000E+00  0.60000000000E+02  0.60000000000E+02 0.  0.
          5    1    3    3  501    0  0.14642974677E+02  0.13273570267E+02 -0.22074999999E+02  0.30000000000E+02  0.47000000000E+01 0.  1.
         -5    1    3    3    0  501 -0.14642974677E+02 -0.13273570267E+02  0.22074999999E+02  0.30000000000E+02  0.47000000000E+01 0. -1.
</event>
<event>
 5    1  0.7959189E-002  0.6000000E+02  0.7546771E-02  0.1259629E+00
         11   -1    0    0    0    0  0.00000000000E+00  0.00000000000E+00  0.30000000000E+02  0.30000000000E+02  0.00000000000E+00 0.  1.
        -11   -1    0    0    0    0 -0.00000000000E+00 -0.00000000000E+00 -0.30000000000E+02  0.30000000000E+02  0.00000000000E+00 0. -1.
         23    2    1    2    0    0  0.00000000000E+00  0.00000000000E+00  0.00000000000E+00  0.60000000000E+02  0.60000000000E+02 0.  0.
          5    1    3    3  501    0 -0.27310436863E+02 -0.78693602106E+01 -0.83739601276E+01  0.30000000000E+02  0.47000000000E+01 0. -1.
         -5    1    3    3    0  501  0.27310436863E+02  0.78693602106E+01  0.83739601276E+01  0.30000000000E+02  0.47000000000E+01 0.  1.
</event>
<event>
 5    1  0.7959189E-002  0.6000000E+02  0.7546771E-02  0.1259629E+00
         11   -1    0    0    0    0  0.00000000000E+00  0.00000000000E+00  0.30000000000E+02  0.30000000000E+02  0.00000000000E+00 0.  1.
        -11   -1    0    0    0    0 -0.00000000000E+00 -0.00000000000E+00 -0.30000000000E+02  0.30000000000E+02  0.00000000000E+00 0. -1.
         23    2    1    2    0    0  0.00000000000E+00  0.00000000000E+00  0.00000000000E+00  0.60000000000E+02  0.60000000000E+02 0.  0.
          5    1    3    3  501    0  0.21258989353E+02  0.93603968540E+01 -0.18394247537E+02  0.30000000000E+02  0.47000000000E+01 0. -1.
         -5    1    3    3    0  501 -0.21258989353E+02 -0.93603968540E+01  0.18394247537E+02  0.30000000000E+02  0.47000000000E+01 0.  1.
</event>
<event>
 5    1  0.7959189E-002  0.6000000E+02  0.7546771E-02  0.1259629E+00
         11   -1    0    0    0    0  0.00000000000E+00  0.00000000000E+00  0.30000000000E+02  0.30000000000E+02  0.00000000000E+00 0.  1.
        -11   -1    0    0    0    0 -0.00000000000E+00 -0.00000000000E+00 -0.30000000000E+02  0.30000000000E+02  0.00000000000E+00 0. -1.
         23    2    1    2    0    0  0.00000000000E+00  0.00000000000E+00  0.00000000000E+00  0.60000000000E+02  0.60000000000E+02 0.  0.
          5    1    3    3  501    0  0.46380693983E+01 -0.29220099305E+02 -0.16075163665E+01  0.30000000000E+02  0.47000000000E+01 0. -1.
         -5    1    3    3    0  501 -0.46380693983E+01  0.29220099305E+02  0.16075163665E+01  0.30000000000E+02  0.47000000000E+01 0.  1.
</event>
<event>
 5    1  0.7959189E-002  0.6000000E+02  0.7546771E-02  0.1259629E+00
         11   -1    0    0    0    0  0.00000000000E+00  0.00000000000E+00  0.30000000000E+02  0.30000000000E+02  0.00000000000E+00 0.  1.
        -11   -1    0    0    0    0 -0.00000000000E+00 -0.00000000000E+00 -0.30000000000E+02  0.30000000000E+02  0.00000000000E+00 0. -1.
         23    2    1    2    0    0  0.00000000000E+00  0.00000000000E+00  0.00000000000E+00  0.60000000000E+02  0.60000000000E+02 0.  0.
          5    1    3    3  501    0  0.21909662863E+02 -0.12242664588E+02 -0.15747820072E+02  0.30000000000E+02  0.47000000000E+01 0. -1.
         -5    1    3    3    0  501 -0.21909662863E+02  0.12242664588E+02  0.15747820072E+02  0.30000000000E+02  0.47000000000E+01 0.  1.
</event>
<event>
 5    1  0.7959189E-002  0.6000000E+02  0.7546771E-02  0.1259629E+00
         11   -1    0    0    0    0  0.00000000000E+00  0.00000000000E+00  0.30000000000E+02  0.30000000000E+02  0.00000000000E+00 0.  1.
        -11   -1    0    0    0    0 -0.00000000000E+00 -0.00000000000E+00 -0.30000000000E+02  0.30000000000E+02  0.00000000000E+00 0. -1.
         23    2    1    2    0    0  0.00000000000E+00  0.00000000000E+00  0.00000000000E+00  0.60000000000E+02  0.60000000000E+02 0.  0.
          5    1    3    3  501    0 -0.27422105167E+02  0.11122470866E+02 -0.14929132660E+01  0.30000000000E+02  0.47000000000E+01 0. -1.
         -5    1    3    3    0  501  0.27422105167E+02 -0.11122470866E+02  0.14929132660E+01  0.30000000000E+02  0.47000000000E+01 0.  1.
</event>
<event>
 5    1  0.7959189E-002  0.6000000E+02  0.7546771E-02  0.1259629E+00
         11   -1    0    0    0    0  0.00000000000E+00  0.00000000000E+00  0.30000000000E+02  0.30000000000E+02  0.00000000000E+00 0.  1.
        -11   -1    0    0    0    0 -0.00000000000E+00 -0.00000000000E+00 -0.30000000000E+02  0.30000000000E+02  0.00000000000E+00 0. -1.
         23    2    1    2    0    0  0.00000000000E+00  0.00000000000E+00  0.00000000000E+00  0.60000000000E+02  0.60000000000E+02 0.  0.
          5    1    3    3  501    0 -0.33591923336E+01 -0.88976669559E+01 -0.28061670471E+02  0.30000000000E+02  0.47000000000E+01 0. -1.
         -5    1    3    3    0  501  0.33591923336E+01  0.88976669559E+01  0.28061670471E+02  0.30000000000E+02  0.47000000000E+01 0.  1.
</event>
<event>
 5    1  0.7959189E-002  0.6000000E+02  0.7546771E-02  0.1259629E+00
         11   -1    0    0    0    0  0.00000000000E+00  0.00000000000E+00  0.30000000000E+02  0.30000000000E+02  0.00000000000E+00 0.  1.
        -11   -1    0    0    0    0 -0.00000000000E+00 -0.00000000000E+00 -0.30000000000E+02  0.30000000000E+02  0.00000000000E+00 0. -1.
         23    2    1    2    0    0  0.00000000000E+00  0.00000000000E+00  0.00000000000E+00  0.60000000000E+02  0.60000000000E+02 0.  0.
          5    1    3    3  501    0  0.68352074005E+01  0.16956445709E+02 -0.23316708360E+02  0.30000000000E+02  0.47000000000E+01 0. -1.
         -5    1    3    3    0  501 -0.68352074005E+01 -0.16956445709E+02  0.23316708360E+02  0.30000000000E+02  0.47000000000E+01 0.  1.
</event>
<event>
 5    1  0.7959189E-002  0.6000000E+02  0.7546771E-02  0.1259629E+00
         11   -1    0    0    0    0  0.00000000000E+00  0.00000000000E+00  0.30000000000E+02  0.30000000000E+02  0.00000000000E+00 0.  1.
        -11   -1    0    0    0    0 -0.00000000000E+00 -0.00000000000E+00 -0.30000000000E+02  0.30000000000E+02  0.00000000000E+00 0. -1.
         23    2    1    2    0    0  0.00000000000E+00  0.00000000000E+00  0.00000000000E+00  0.60000000000E+02  0.60000000000E+02 0.  0.
          5    1    3    3  501    0  0.16399259647E+02 -0.12185379531E+02 -0.21459049577E+02  0.30000000000E+02  0.47000000000E+01 0. -1.
         -5    1    3    3    0  501 -0.16399259647E+02  0.12185379531E+02  0.21459049577E+02  0.30000000000E+02  0.47000000000E+01 0.  1.
</event>
<event>
 5    1  0.7959189E-002  0.6000000E+02  0.7546771E-02  0.1259629E+00
         11   -1    0    0    0    0  0.00000000000E+00  0.00000000000E+00  0.30000000000E+02  0.30000000000E+02  0.00000000000E+00 0.  1.
        -11   -1    0    0    0    0 -0.00000000000E+00 -0.00000000000E+00 -0.30000000000E+02  0.30000000000E+02  0.00000000000E+00 0. -1.
         23    2    1    2    0    0  0.00000000000E+00  0.00000000000E+00  0.00000000000E+00  0.60000000000E+02  0.60000000000E+02 0.  0.
          5    1    3    3  501    0  0.19610495621E+02  0.13019710481E+02 -0.17995154917E+02  0.30000000000E+02  0.47000000000E+01 0. -1.
         -5    1    3    3    0  501 -0.19610495621E+02 -0.13019710481E+02  0.17995154917E+02  0.30000000000E+02  0.47000000000E+01 0.  1.
</event>
<event>
 5    1  0.7959189E-002  0.6000000E+02  0.7546771E-02  0.1259629E+00
         11   -1    0    0    0    0  0.00000000000E+00  0.00000000000E+00  0.30000000000E+02  0.30000000000E+02  0.00000000000E+00 0. -1.
        -11   -1    0    0    0    0 -0.00000000000E+00 -0.00000000000E+00 -0.30000000000E+02  0.30000000000E+02  0.00000000000E+00 0.  1.
         23    2    1    2    0    0  0.00000000000E+00  0.00000000000E+00  0.00000000000E+00  0.60000000000E+02  0.60000000000E+02 0.  0.
          5    1    3    3  501    0 -0.16170232919E+01  0.14598302688E+02 -0.25732951527E+02  0.30000000000E+02  0.47000000000E+01 0.  1.
         -5    1    3    3    0  501  0.16170232919E+01 -0.14598302688E+02  0.25732951527E+02  0.30000000000E+02  0.47000000000E+01 0. -1.
</event>
<event>
 5    1  0.7959189E-002  0.6000000E+02  0.7546771E-02  0.1259629E+00
         11   -1    0    0    0    0  0.00000000000E+00  0.00000000000E+00  0.30000000000E+02  0.30000000000E+02  0.00000000000E+00 0.  1.
        -11   -1    0    0    0    0 -0.00000000000E+00 -0.00000000000E+00 -0.30000000000E+02  0.30000000000E+02  0.00000000000E+00 0. -1.
         23    2    1    2    0    0  0.00000000000E+00  0.00000000000E+00  0.00000000000E+00  0.60000000000E+02  0.60000000000E+02 0.  0.
          5    1    3    3  501    0 -0.14161869160E+02 -0.18273576052E+02 -0.18531807256E+02  0.30000000000E+02  0.47000000000E+01 0. -1.
         -5    1    3    3    0  501  0.14161869160E+02  0.18273576052E+02  0.18531807256E+02  0.30000000000E+02  0.47000000000E+01 0.  1.
</event>
<event>
 5    1  0.7959189E-002  0.6000000E+02  0.7546771E-02  0.1259629E+00
         11   -1    0    0    0    0  0.00000000000E+00  0.00000000000E+00  0.30000000000E+02  0.30000000000E+02  0.00000000000E+00 0.  1.
        -11   -1    0    0    0    0 -0.00000000000E+00 -0.00000000000E+00 -0.30000000000E+02  0.30000000000E+02  0.00000000000E+00 0. -1.
         23    2    1    2    0    0  0.00000000000E+00  0.00000000000E+00  0.00000000000E+00  0.60000000000E+02  0.60000000000E+02 0.  0.
          5    1    3    3  501    0  0.67206981889E+01 -0.77344327564E+01 -0.27801452584E+02  0.30000000000E+02  0.47000000000E+01 0. -1.
         -5    1    3    3    0  501 -0.67206981889E+01  0.77344327564E+01  0.27801452584E+02  0.30000000000E+02  0.47000000000E+01 0.  1.
</event>
<event>
 5    1  0.7959189E-002  0.6000000E+02  0.7546771E-02  0.1259629E+00
         11   -1    0    0    0    0  0.00000000000E+00  0.00000000000E+00  0.30000000000E+02  0.30000000000E+02  0.00000000000E+00 0.  1.
        -11   -1    0    0    0    0 -0.00000000000E+00 -0.00000000000E+00 -0.30000000000E+02  0.30000000000E+02  0.00000000000E+00 0. -1.
         23    2    1    2    0    0  0.00000000000E+00  0.00000000000E+00  0.00000000000E+00  0.60000000000E+02  0.60000000000E+02 0.  0.
          5    1    3    3  501    0  0.26656822335E+02  0.66091449040E+01 -0.11119488595E+02  0.30000000000E+02  0.47000000000E+01 0. -1.
         -5    1    3    3    0  501 -0.26656822335E+02 -0.66091449040E+01  0.11119488595E+02  0.30000000000E+02  0.47000000000E+01 0.  1.
</event>
<event>
 5    1  0.7959189E-002  0.6000000E+02  0.7546771E-02  0.1259629E+00
         11   -1    0    0    0    0  0.00000000000E+00  0.00000000000E+00  0.30000000000E+02  0.30000000000E+02  0.00000000000E+00 0.  1.
        -11   -1    0    0    0    0 -0.00000000000E+00 -0.00000000000E+00 -0.30000000000E+02  0.30000000000E+02  0.00000000000E+00 0. -1.
         23    2    1    2    0    0  0.00000000000E+00  0.00000000000E+00  0.00000000000E+00  0.60000000000E+02  0.60000000000E+02 0.  0.
          5    1    3    3  501    0 -0.16419314780E+02 -0.21360752589E+02 -0.12330221043E+02  0.30000000000E+02  0.47000000000E+01 0. -1.
         -5    1    3    3    0  501  0.16419314780E+02  0.21360752589E+02  0.12330221043E+02  0.30000000000E+02  0.47000000000E+01 0.  1.
</event>
<event>
 5    1  0.7959189E-002  0.6000000E+02  0.7546771E-02  0.1259629E+00
         11   -1    0    0    0    0  0.00000000000E+00  0.00000000000E+00  0.30000000000E+02  0.30000000000E+02  0.00000000000E+00 0.  1.
        -11   -1    0    0    0    0 -0.00000000000E+00 -0.00000000000E+00 -0.30000000000E+02  0.30000000000E+02  0.00000000000E+00 0. -1.
         23    2    1    2    0    0  0.00000000000E+00  0.00000000000E+00  0.00000000000E+00  0.60000000000E+02  0.60000000000E+02 0.  0.
          5    1    3    3  501    0  0.14263155214E+02 -0.96502884341E+01 -0.24111083270E+02  0.30000000000E+02  0.47000000000E+01 0. -1.
         -5    1    3    3    0  501 -0.14263155214E+02  0.96502884341E+01  0.24111083270E+02  0.30000000000E+02  0.47000000000E+01 0.  1.
</event>
<event>
 5    1  0.7959189E-002  0.6000000E+02  0.7546771E-02  0.1259629E+00
         11   -1    0    0    0    0  0.00000000000E+00  0.00000000000E+00  0.30000000000E+02  0.30000000000E+02  0.00000000000E+00 0.  1.
        -11   -1    0    0    0    0 -0.00000000000E+00 -0.00000000000E+00 -0.30000000000E+02  0.30000000000E+02  0.00000000000E+00 0. -1.
         23    2    1    2    0    0  0.00000000000E+00  0.00000000000E+00  0.00000000000E+00  0.60000000000E+02  0.60000000000E+02 0.  0.
          5    1    3    3  501    0  0.27672102924E+01 -0.27881658987E+02  0.96366819681E+01  0.30000000000E+02  0.47000000000E+01 0. -1.
         -5    1    3    3    0  501 -0.27672102924E+01  0.27881658987E+02 -0.96366819681E+01  0.30000000000E+02  0.47000000000E+01 0.  1.
</event>
<event>
 5    1  0.7959189E-002  0.6000000E+02  0.7546771E-02  0.1259629E+00
         11   -1    0    0    0    0  0.00000000000E+00  0.00000000000E+00  0.30000000000E+02  0.30000000000E+02  0.00000000000E+00 0.  1.
        -11   -1    0    0    0    0 -0.00000000000E+00 -0.00000000000E+00 -0.30000000000E+02  0.30000000000E+02  0.00000000000E+00 0. -1.
         23    2    1    2    0    0  0.00000000000E+00  0.00000000000E+00  0.00000000000E+00  0.60000000000E+02  0.60000000000E+02 0.  0.
          5    1    3    3  501    0  0.17204260288E+01 -0.18938622836E+02  0.22721767083E+02  0.30000000000E+02  0.47000000000E+01 0.  1.
         -5    1    3    3    0  501 -0.17204260288E+01  0.18938622836E+02 -0.22721767083E+02  0.30000000000E+02  0.47000000000E+01 0. -1.
</event>
<event>
 5    1  0.7959189E-002  0.6000000E+02  0.7546771E-02  0.1259629E+00
         11   -1    0    0    0    0  0.00000000000E+00  0.00000000000E+00  0.30000000000E+02  0.30000000000E+02  0.00000000000E+00 0.  1.
        -11   -1    0    0    0    0 -0.00000000000E+00 -0.00000000000E+00 -0.30000000000E+02  0.30000000000E+02  0.00000000000E+00 0. -1.
         23    2    1    2    0    0  0.00000000000E+00  0.00000000000E+00  0.00000000000E+00  0.60000000000E+02  0.60000000000E+02 0.  0.
          5    1    3    3  501    0 -0.11789639276E+02 -0.23812672508E+02 -0.13109959335E+02  0.30000000000E+02  0.47000000000E+01 0. -1.
         -5    1    3    3    0  501  0.11789639276E+02  0.23812672508E+02  0.13109959335E+02  0.30000000000E+02  0.47000000000E+01 0.  1.
</event>
<event>
 5    1  0.7959189E-002  0.6000000E+02  0.7546771E-02  0.1259629E+00
         11   -1    0    0    0    0  0.00000000000E+00  0.00000000000E+00  0.30000000000E+02  0.30000000000E+02  0.00000000000E+00 0.  1.
        -11   -1    0    0    0    0 -0.00000000000E+00 -0.00000000000E+00 -0.30000000000E+02  0.30000000000E+02  0.00000000000E+00 0. -1.
         23    2    1    2    0    0  0.00000000000E+00  0.00000000000E+00  0.00000000000E+00  0.60000000000E+02  0.60000000000E+02 0.  0.
          5    1    3    3  501    0 -0.10487694423E+02  0.23449394902E+02 -0.14766317903E+02  0.30000000000E+02  0.47000000000E+01 0. -1.
         -5    1    3    3    0  501  0.10487694423E+02 -0.23449394902E+02  0.14766317903E+02  0.30000000000E+02  0.47000000000E+01 0.  1.
</event>
<event>
 5    1  0.7959189E-002  0.6000000E+02  0.7546771E-02  0.1259629E+00
         11   -1    0    0    0    0  0.00000000000E+00  0.00000000000E+00  0.30000000000E+02  0.30000000000E+02  0.00000000000E+00 0.  1.
        -11   -1    0    0    0    0 -0.00000000000E+00 -0.00000000000E+00 -0.30000000000E+02  0.30000000000E+02  0.00000000000E+00 0. -1.
         23    2    1    2    0    0  0.00000000000E+00  0.00000000000E+00  0.00000000000E+00  0.60000000000E+02  0.60000000000E+02 0.  0.
          5    1    3    3  501    0 -0.28736454101E+00  0.10583019182E+02 -0.27673581745E+02  0.30000000000E+02  0.47000000000E+01 0. -1.
         -5    1    3    3    0  501  0.28736454101E+00 -0.10583019182E+02  0.27673581745E+02  0.30000000000E+02  0.47000000000E+01 0.  1.
</event>
<event>
 5    1  0.7959189E-002  0.6000000E+02  0.7546771E-02  0.1259629E+00
         11   -1    0    0    0    0  0.00000000000E+00  0.00000000000E+00  0.30000000000E+02  0.30000000000E+02  0.00000000000E+00 0. -1.
        -11   -1    0    0    0    0 -0.00000000000E+00 -0.00000000000E+00 -0.30000000000E+02  0.30000000000E+02  0.00000000000E+00 0.  1.
         23    2    1    2    0    0  0.00000000000E+00  0.00000000000E+00  0.00000000000E+00  0.60000000000E+02  0.60000000000E+02 0.  0.
          5    1    3    3  501    0  0.25021537211E+02 -0.15422892593E+02  0.37372529570E+01  0.30000000000E+02  0.47000000000E+01 0.  1.
         -5    1    3    3    0  501 -0.25021537211E+02  0.15422892593E+02 -0.37372529570E+01  0.30000000000E+02  0.47000000000E+01 0. -1.
</event>
<event>
 5    1  0.7959189E-002  0.6000000E+02  0.7546771E-02  0.1259629E+00
         11   -1    0    0    0    0  0.00000000000E+00  0.00000000000E+00  0.30000000000E+02  0.30000000000E+02  0.00000000000E+00 0. -1.
        -11   -1    0    0    0    0 -0.00000000000E+00 -0.00000000000E+00 -0.30000000000E+02  0.30000000000E+02  0.00000000000E+00 0.  1.
         23    2    1    2    0    0  0.00000000000E+00  0.00000000000E+00  0.00000000000E+00  0.60000000000E+02  0.60000000000E+02 0.  0.
          5    1    3    3  501    0 -0.68225467248E+01 -0.18711933017E+02 -0.21936873500E+02  0.30000000000E+02  0.47000000000E+01 0.  1.
         -5    1    3    3    0  501  0.68225467248E+01  0.18711933017E+02  0.21936873500E+02  0.30000000000E+02  0.47000000000E+01 0. -1.
</event>
<event>
 5    1  0.7959189E-002  0.6000000E+02  0.7546771E-02  0.1259629E+00
         11   -1    0    0    0    0  0.00000000000E+00  0.00000000000E+00  0.30000000000E+02  0.30000000000E+02  0.00000000000E+00 0.  1.
        -11   -1    0    0    0    0 -0.00000000000E+00 -0.00000000000E+00 -0.30000000000E+02  0.30000000000E+02  0.00000000000E+00 0. -1.
         23    2    1    2    0    0  0.00000000000E+00  0.00000000000E+00  0.00000000000E+00  0.60000000000E+02  0.60000000000E+02 0.  0.
          5    1    3    3  501    0  0.84611458543E+01 -0.82348160011E+01 -0.27175481896E+02  0.30000000000E+02  0.47000000000E+01 0. -1.
         -5    1    3    3    0  501 -0.84611458543E+01  0.82348160011E+01  0.27175481896E+02  0.30000000000E+02  0.47000000000E+01 0.  1.
</event>
<event>
 5    1  0.7959189E-002  0.6000000E+02  0.7546771E-02  0.1259629E+00
         11   -1    0    0    0    0  0.00000000000E+00  0.00000000000E+00  0.30000000000E+02  0.30000000000E+02  0.00000000000E+00 0.  1.
        -11   -1    0    0    0    0 -0.00000000000E+00 -0.00000000000E+00 -0.30000000000E+02  0.30000000000E+02  0.00000000000E+00 0. -1.
         23    2    1    2    0    0  0.00000000000E+00  0.00000000000E+00  0.00000000000E+00  0.60000000000E+02  0.60000000000E+02 0.  0.
          5    1    3    3  501    0  0.21057904236E+02  0.20837936895E+02 -0.50502981172E+00  0.30000000000E+02  0.47000000000E+01 0. -1.
         -5    1    3    3    0  501 -0.21057904236E+02 -0.20837936895E+02  0.50502981172E+00  0.30000000000E+02  0.47000000000E+01 0.  1.
</event>
<event>
 5    1  0.7959189E-002  0.6000000E+02  0.7546771E-02  0.1259629E+00
         11   -1    0    0    0    0  0.00000000000E+00  0.00000000000E+00  0.30000000000E+02  0.30000000000E+02  0.00000000000E+00 0.  1.
        -11   -1    0    0    0    0 -0.00000000000E+00 -0.00000000000E+00 -0.30000000000E+02  0.30000000000E+02  0.00000000000E+00 0. -1.
         23    2    1    2    0    0  0.00000000000E+00  0.00000000000E+00  0.00000000000E+00  0.60000000000E+02  0.60000000000E+02 0.  0.
          5    1    3    3  501    0  0.12900496633E+02 -0.23804869322E+02  0.12033926342E+02  0.30000000000E+02  0.47000000000E+01 0. -1.
         -5    1    3    3    0  501 -0.12900496633E+02  0.23804869322E+02 -0.12033926342E+02  0.30000000000E+02  0.47000000000E+01 0.  1.
</event>
<event>
 5    1  0.7959189E-002  0.6000000E+02  0.7546771E-02  0.1259629E+00
         11   -1    0    0    0    0  0.00000000000E+00  0.00000000000E+00  0.30000000000E+02  0.30000000000E+02  0.00000000000E+00 0.  1.
        -11   -1    0    0    0    0 -0.00000000000E+00 -0.00000000000E+00 -0.30000000000E+02  0.30000000000E+02  0.00000000000E+00 0. -1.
         23    2    1    2    0    0  0.00000000000E+00  0.00000000000E+00  0.00000000000E+00  0.60000000000E+02  0.60000000000E+02 0.  0.
          5    1    3    3  501    0 -0.82588390657E+01  0.28118231613E+02  0.43665350358E+01  0.30000000000E+02  0.47000000000E+01 0. -1.
         -5    1    3    3    0  501  0.82588390657E+01 -0.28118231613E+02 -0.43665350358E+01  0.30000000000E+02  0.47000000000E+01 0.  1.
</event>
<event>
 5    1  0.7959189E-002  0.6000000E+02  0.7546771E-02  0.1259629E+00
         11   -1    0    0    0    0  0.00000000000E+00  0.00000000000E+00  0.30000000000E+02  0.30000000000E+02  0.00000000000E+00 0. -1.
        -11   -1    0    0    0    0 -0.00000000000E+00 -0.00000000000E+00 -0.30000000000E+02  0.30000000000E+02  0.00000000000E+00 0.  1.
         23    2    1    2    0    0  0.00000000000E+00  0.00000000000E+00  0.00000000000E+00  0.60000000000E+02  0.60000000000E+02 0.  0.
          5    1    3    3  501    0 -0.11612126909E+01 -0.17361935009E+02 -0.23981759690E+02  0.30000000000E+02  0.47000000000E+01 0.  1.
         -5    1    3    3    0  501  0.11612126909E+01  0.17361935009E+02  0.23981759690E+02  0.30000000000E+02  0.47000000000E+01 0. -1.
</event>
<event>
 5    1  0.7959189E-002  0.6000000E+02  0.7546771E-02  0.1259629E+00
         11   -1    0    0    0    0  0.00000000000E+00  0.00000000000E+00  0.30000000000E+02  0.30000000000E+02  0.00000000000E+00 0.  1.
        -11   -1    0    0    0    0 -0.00000000000E+00 -0.00000000000E+00 -0.30000000000E+02  0.30000000000E+02  0.00000000000E+00 0. -1.
         23    2    1    2    0    0  0.00000000000E+00  0.00000000000E+00  0.00000000000E+00  0.60000000000E+02  0.60000000000E+02 0.  0.
          5    1    3    3  501    0 -0.22528867876E+02  0.18931632928E+02  0.34573670457E+01  0.30000000000E+02  0.47000000000E+01 0.  1.
         -5    1    3    3    0  501  0.22528867876E+02 -0.18931632928E+02 -0.34573670457E+01  0.30000000000E+02  0.47000000000E+01 0. -1.
</event>
<event>
 5    1  0.7959189E-002  0.6000000E+02  0.7546771E-02  0.1259629E+00
         11   -1    0    0    0    0  0.00000000000E+00  0.00000000000E+00  0.30000000000E+02  0.30000000000E+02  0.00000000000E+00 0.  1.
        -11   -1    0    0    0    0 -0.00000000000E+00 -0.00000000000E+00 -0.30000000000E+02  0.30000000000E+02  0.00000000000E+00 0. -1.
         23    2    1    2    0    0  0.00000000000E+00  0.00000000000E+00  0.00000000000E+00  0.60000000000E+02  0.60000000000E+02 0.  0.
          5    1    3    3  501    0 -0.14709647662E+02  0.15028666603E+02 -0.20872839908E+02  0.30000000000E+02  0.47000000000E+01 0. -1.
         -5    1    3    3    0  501  0.14709647662E+02 -0.15028666603E+02  0.20872839908E+02  0.30000000000E+02  0.47000000000E+01 0.  1.
</event>
<event>
 5    1  0.7959189E-002  0.6000000E+02  0.7546771E-02  0.1259629E+00
         11   -1    0    0    0    0  0.00000000000E+00  0.00000000000E+00  0.30000000000E+02  0.30000000000E+02  0.00000000000E+00 0.  1.
        -11   -1    0    0    0    0 -0.00000000000E+00 -0.00000000000E+00 -0.30000000000E+02  0.30000000000E+02  0.00000000000E+00 0. -1.
         23    2    1    2    0    0  0.00000000000E+00  0.00000000000E+00  0.00000000000E+00  0.60000000000E+02  0.60000000000E+02 0.  0.
          5    1    3    3  501    0 -0.19037021048E+02  0.66892990057E+00 -0.22694809151E+02  0.30000000000E+02  0.47000000000E+01 0. -1.
         -5    1    3    3    0  501  0.19037021048E+02 -0.66892990057E+00  0.22694809151E+02  0.30000000000E+02  0.47000000000E+01 0.  1.
</event>
<event>
 5    1  0.7959189E-002  0.6000000E+02  0.7546771E-02  0.1259629E+00
         11   -1    0    0    0    0  0.00000000000E+00  0.00000000000E+00  0.30000000000E+02  0.30000000000E+02  0.00000000000E+00 0.  1.
        -11   -1    0    0    0    0 -0.00000000000E+00 -0.00000000000E+00 -0.30000000000E+02  0.30000000000E+02  0.00000000000E+00 0. -1.
         23    2    1    2    0    0  0.00000000000E+00  0.00000000000E+00  0.00000000000E+00  0.60000000000E+02  0.60000000000E+02 0.  0.
          5    1    3    3  501    0  0.13313000224E+02 -0.21845765375E+02 -0.14947794492E+02  0.30000000000E+02  0.47000000000E+01 0. -1.
         -5    1    3    3    0  501 -0.13313000224E+02  0.21845765375E+02  0.14947794492E+02  0.30000000000E+02  0.47000000000E+01 0.  1.
</event>
<event>
 5    1  0.7959189E-002  0.6000000E+02  0.7546771E-02  0.1259629E+00
         11   -1    0    0    0    0  0.00000000000E+00  0.00000000000E+00  0.30000000000E+02  0.30000000000E+02  0.00000000000E+00 0.  1.
        -11   -1    0    0    0    0 -0.00000000000E+00 -0.00000000000E+00 -0.30000000000E+02  0.30000000000E+02  0.00000000000E+00 0. -1.
         23    2    1    2    0    0  0.00000000000E+00  0.00000000000E+00  0.00000000000E+00  0.60000000000E+02  0.60000000000E+02 0.  0.
          5    1    3    3  501    0  0.26898206054E+02 -0.57303635416E+00 -0.12412418799E+02  0.30000000000E+02  0.47000000000E+01 0. -1.
         -5    1    3    3    0  501 -0.26898206054E+02  0.57303635416E+00  0.12412418799E+02  0.30000000000E+02  0.47000000000E+01 0.  1.
</event>
<event>
 5    1  0.7959189E-002  0.6000000E+02  0.7546771E-02  0.1259629E+00
         11   -1    0    0    0    0  0.00000000000E+00  0.00000000000E+00  0.30000000000E+02  0.30000000000E+02  0.00000000000E+00 0.  1.
        -11   -1    0    0    0    0 -0.00000000000E+00 -0.00000000000E+00 -0.30000000000E+02  0.30000000000E+02  0.00000000000E+00 0. -1.
         23    2    1    2    0    0  0.00000000000E+00  0.00000000000E+00  0.00000000000E+00  0.60000000000E+02  0.60000000000E+02 0.  0.
          5    1    3    3  501    0 -0.20012803236E+02  0.15062556760E+02 -0.15827731692E+02  0.30000000000E+02  0.47000000000E+01 0. -1.
         -5    1    3    3    0  501  0.20012803236E+02 -0.15062556760E+02  0.15827731692E+02  0.30000000000E+02  0.47000000000E+01 0.  1.
</event>
<event>
 5    1  0.7959189E-002  0.6000000E+02  0.7546771E-02  0.1259629E+00
         11   -1    0    0    0    0  0.00000000000E+00  0.00000000000E+00  0.30000000000E+02  0.30000000000E+02  0.00000000000E+00 0.  1.
        -11   -1    0    0    0    0 -0.00000000000E+00 -0.00000000000E+00 -0.30000000000E+02  0.30000000000E+02  0.00000000000E+00 0. -1.
         23    2    1    2    0    0  0.00000000000E+00  0.00000000000E+00  0.00000000000E+00  0.60000000000E+02  0.60000000000E+02 0.  0.
          5    1    3    3  501    0 -0.34569593282E+01  0.12865628768E+02 -0.26465733102E+02  0.30000000000E+02  0.47000000000E+01 0. -1.
         -5    1    3    3    0  501  0.34569593282E+01 -0.12865628768E+02  0.26465733102E+02  0.30000000000E+02  0.47000000000E+01 0.  1.
</event>
<event>
 5    1  0.7959189E-002  0.6000000E+02  0.7546771E-02  0.1259629E+00
         11   -1    0    0    0    0  0.00000000000E+00  0.00000000000E+00  0.30000000000E+02  0.30000000000E+02  0.00000000000E+00 0.  1.
        -11   -1    0    0    0    0 -0.00000000000E+00 -0.00000000000E+00 -0.30000000000E+02  0.30000000000E+02  0.00000000000E+00 0. -1.
         23    2    1    2    0    0  0.00000000000E+00  0.00000000000E+00  0.00000000000E+00  0.60000000000E+02  0.60000000000E+02 0.  0.
          5    1    3    3  501    0 -0.17536364315E+02  0.53074308301E+01 -0.23285555707E+02  0.30000000000E+02  0.47000000000E+01 0. -1.
         -5    1    3    3    0  501  0.17536364315E+02 -0.53074308301E+01  0.23285555707E+02  0.30000000000E+02  0.47000000000E+01 0.  1.
</event>
<event>
 5    1  0.7959189E-002  0.6000000E+02  0.7546771E-02  0.1259629E+00
         11   -1    0    0    0    0  0.00000000000E+00  0.00000000000E+00  0.30000000000E+02  0.30000000000E+02  0.00000000000E+00 0.  1.
        -11   -1    0    0    0    0 -0.00000000000E+00 -0.00000000000E+00 -0.30000000000E+02  0.30000000000E+02  0.00000000000E+00 0. -1.
         23    2    1    2    0    0  0.00000000000E+00  0.00000000000E+00  0.00000000000E+00  0.60000000000E+02  0.60000000000E+02 0.  0.
          5    1    3    3  501    0 -0.11512722328E+00  0.22470242892E+01 -0.29543994780E+02  0.30000000000E+02  0.47000000000E+01 0. -1.
         -5    1    3    3    0  501  0.11512722328E+00 -0.22470242892E+01  0.29543994780E+02  0.30000000000E+02  0.47000000000E+01 0.  1.
</event>
<event>
 5    1  0.7959189E-002  0.6000000E+02  0.7546771E-02  0.1259629E+00
         11   -1    0    0    0    0  0.00000000000E+00  0.00000000000E+00  0.30000000000E+02  0.30000000000E+02  0.00000000000E+00 0.  1.
        -11   -1    0    0    0    0 -0.00000000000E+00 -0.00000000000E+00 -0.30000000000E+02  0.30000000000E+02  0.00000000000E+00 0. -1.
         23    2    1    2    0    0  0.00000000000E+00  0.00000000000E+00  0.00000000000E+00  0.60000000000E+02  0.60000000000E+02 0.  0.
          5    1    3    3  501    0  0.20560361386E+02  0.20944550808E+02 -0.40629214967E+01  0.30000000000E+02  0.47000000000E+01 0. -1.
         -5    1    3    3    0  501 -0.20560361386E+02 -0.20944550808E+02  0.40629214967E+01  0.30000000000E+02  0.47000000000E+01 0.  1.
</event>
<event>
 5    1  0.7959189E-002  0.6000000E+02  0.7546771E-02  0.1259629E+00
         11   -1    0    0    0    0  0.00000000000E+00  0.00000000000E+00  0.30000000000E+02  0.30000000000E+02  0.00000000000E+00 0.  1.
        -11   -1    0    0    0    0 -0.00000000000E+00 -0.00000000000E+00 -0.30000000000E+02  0.30000000000E+02  0.00000000000E+00 0. -1.
         23    2    1    2    0    0  0.00000000000E+00  0.00000000000E+00  0.00000000000E+00  0.60000000000E+02  0.60000000000E+02 0.  0.
          5    1    3    3  501    0  0.85364906826E+00  0.51803493188E+01 -0.29160680105E+02  0.30000000000E+02  0.47000000000E+01 0. -1.
         -5    1    3    3    0  501 -0.85364906826E+00 -0.51803493188E+01  0.29160680105E+02  0.30000000000E+02  0.47000000000E+01 0.  1.
</event>
<event>
 5    1  0.7959189E-002  0.6000000E+02  0.7546771E-02  0.1259629E+00
         11   -1    0    0    0    0  0.00000000000E+00  0.00000000000E+00  0.30000000000E+02  0.30000000000E+02  0.00000000000E+00 0. -1.
        -11   -1    0    0    0    0 -0.00000000000E+00 -0.00000000000E+00 -0.30000000000E+02  0.30000000000E+02  0.00000000000E+00 0.  1.
         23    2    1    2    0    0  0.00000000000E+00  0.00000000000E+00  0.00000000000E+00  0.60000000000E+02  0.60000000000E+02 0.  0.
          5    1    3    3  501    0  0.44782788807E+01  0.27301190844E+00 -0.29287889695E+02  0.30000000000E+02  0.47000000000E+01 0.  1.
         -5    1    3    3    0  501 -0.44782788807E+01 -0.27301190844E+00  0.29287889695E+02  0.30000000000E+02  0.47000000000E+01 0. -1.
</event>
<event>
 5    1  0.7959189E-002  0.6000000E+02  0.7546771E-02  0.1259629E+00
         11   -1    0    0    0    0  0.00000000000E+00  0.00000000000E+00  0.30000000000E+02  0.30000000000E+02  0.00000000000E+00 0.  1.
        -11   -1    0    0    0    0 -0.00000000000E+00 -0.00000000000E+00 -0.30000000000E+02  0.30000000000E+02  0.00000000000E+00 0. -1.
         23    2    1    2    0    0  0.00000000000E+00  0.00000000000E+00  0.00000000000E+00  0.60000000000E+02  0.60000000000E+02 0.  0.
          5    1    3    3  501    0 -0.14601550282E+02  0.15468559978E+01 -0.25735422395E+02  0.30000000000E+02  0.47000000000E+01 0. -1.
         -5    1    3    3    0  501  0.14601550282E+02 -0.15468559978E+01  0.25735422395E+02  0.30000000000E+02  0.47000000000E+01 0.  1.
</event>
<event>
 5    1  0.7959189E-002  0.6000000E+02  0.7546771E-02  0.1259629E+00
         11   -1    0    0    0    0  0.00000000000E+00  0.00000000000E+00  0.30000000000E+02  0.30000000000E+02  0.00000000000E+00 0.  1.
        -11   -1    0    0    0    0 -0.00000000000E+00 -0.00000000000E+00 -0.30000000000E+02  0.30000000000E+02  0.00000000000E+00 0. -1.
         23    2    1    2    0    0  0.00000000000E+00  0.00000000000E+00  0.00000000000E+00  0.60000000000E+02  0.60000000000E+02 0.  0.
          5    1    3    3  501    0 -0.19736662483E+02 -0.16035750201E+02 -0.15206211544E+02  0.30000000000E+02  0.47000000000E+01 0. -1.
         -5    1    3    3    0  501  0.19736662483E+02  0.16035750201E+02  0.15206211544E+02  0.30000000000E+02  0.47000000000E+01 0.  1.
</event>
<event>
 5    1  0.7959189E-002  0.6000000E+02  0.7546771E-02  0.1259629E+00
         11   -1    0    0    0    0  0.00000000000E+00  0.00000000000E+00  0.30000000000E+02  0.30000000000E+02  0.00000000000E+00 0.  1.
        -11   -1    0    0    0    0 -0.00000000000E+00 -0.00000000000E+00 -0.30000000000E+02  0.30000000000E+02  0.00000000000E+00 0. -1.
         23    2    1    2    0    0  0.00000000000E+00  0.00000000000E+00  0.00000000000E+00  0.60000000000E+02  0.60000000000E+02 0.  0.
          5    1    3    3  501    0 -0.26074354402E+02  0.11977046584E+02 -0.73883961490E+01  0.30000000000E+02  0.47000000000E+01 0. -1.
         -5    1    3    3    0  501  0.26074354402E+02 -0.11977046584E+02  0.73883961490E+01  0.30000000000E+02  0.47000000000E+01 0.  1.
</event>
<event>
 5    1  0.7959189E-002  0.6000000E+02  0.7546771E-02  0.1259629E+00
         11   -1    0    0    0    0  0.00000000000E+00  0.00000000000E+00  0.30000000000E+02  0.30000000000E+02  0.00000000000E+00 0.  1.
        -11   -1    0    0    0    0 -0.00000000000E+00 -0.00000000000E+00 -0.30000000000E+02  0.30000000000E+02  0.00000000000E+00 0. -1.
         23    2    1    2    0    0  0.00000000000E+00  0.00000000000E+00  0.00000000000E+00  0.60000000000E+02  0.60000000000E+02 0.  0.
          5    1    3    3  501    0 -0.62918791131E+01  0.51029892707E+01 -0.28500557148E+02  0.30000000000E+02  0.47000000000E+01 0. -1.
         -5    1    3    3    0  501  0.62918791131E+01 -0.51029892707E+01  0.28500557148E+02  0.30000000000E+02  0.47000000000E+01 0.  1.
</event>
<event>
 5    1  0.7959189E-002  0.6000000E+02  0.7546771E-02  0.1259629E+00
         11   -1    0    0    0    0  0.00000000000E+00  0.00000000000E+00  0.30000000000E+02  0.30000000000E+02  0.00000000000E+00 0.  1.
        -11   -1    0    0    0    0 -0.00000000000E+00 -0.00000000000E+00 -0.30000000000E+02  0.30000000000E+02  0.00000000000E+00 0. -1.
         23    2    1    2    0    0  0.00000000000E+00  0.00000000000E+00  0.00000000000E+00  0.60000000000E+02  0.60000000000E+02 0.  0.
          5    1    3    3  501    0 -0.67181943803E+01 -0.24726386097E+02 -0.14878900995E+02  0.30000000000E+02  0.47000000000E+01 0. -1.
         -5    1    3    3    0  501  0.67181943803E+01  0.24726386097E+02  0.14878900995E+02  0.30000000000E+02  0.47000000000E+01 0.  1.
</event>
<event>
 5    1  0.7959189E-002  0.6000000E+02  0.7546771E-02  0.1259629E+00
         11   -1    0    0    0    0  0.00000000000E+00  0.00000000000E+00  0.30000000000E+02  0.30000000000E+02  0.00000000000E+00 0. -1.
        -11   -1    0    0    0    0 -0.00000000000E+00 -0.00000000000E+00 -0.30000000000E+02  0.30000000000E+02  0.00000000000E+00 0.  1.
         23    2    1    2    0    0  0.00000000000E+00  0.00000000000E+00  0.00000000000E+00  0.60000000000E+02  0.60000000000E+02 0.  0.
          5    1    3    3  501    0  0.19588744464E+02  0.10398533911E+02 -0.19648449884E+02  0.30000000000E+02  0.47000000000E+01 0.  1.
         -5    1    3    3    0  501 -0.19588744464E+02 -0.10398533911E+02  0.19648449884E+02  0.30000000000E+02  0.47000000000E+01 0. -1.
</event>
<event>
 5    1  0.7959189E-002  0.6000000E+02  0.7546771E-02  0.1259629E+00
         11   -1    0    0    0    0  0.00000000000E+00  0.00000000000E+00  0.30000000000E+02  0.30000000000E+02  0.00000000000E+00 0.  1.
        -11   -1    0    0    0    0 -0.00000000000E+00 -0.00000000000E+00 -0.30000000000E+02  0.30000000000E+02  0.00000000000E+00 0. -1.
         23    2    1    2    0    0  0.00000000000E+00  0.00000000000E+00  0.00000000000E+00  0.60000000000E+02  0.60000000000E+02 0.  0.
          5    1    3    3  501    0 -0.29428410487E+02  0.26227392651E+01 -0.22360444842E+01  0.30000000000E+02  0.47000000000E+01 0. -1.
         -5    1    3    3    0  501  0.29428410487E+02 -0.26227392651E+01  0.22360444842E+01  0.30000000000E+02  0.47000000000E+01 0.  1.
</event>
<event>
 5    1  0.7959189E-002  0.6000000E+02  0.7546771E-02  0.1259629E+00
         11   -1    0    0    0    0  0.00000000000E+00  0.00000000000E+00  0.30000000000E+02  0.30000000000E+02  0.00000000000E+00 0.  1.
        -11   -1    0    0    0    0 -0.00000000000E+00 -0.00000000000E+00 -0.30000000000E+02  0.30000000000E+02  0.00000000000E+00 0. -1.
         23    2    1    2    0    0  0.00000000000E+00  0.00000000000E+00  0.00000000000E+00  0.60000000000E+02  0.60000000000E+02 0.  0.
          5    1    3    3  501    0 -0.11467413267E+02 -0.65653045799E+01 -0.26519902125E+02  0.30000000000E+02  0.47000000000E+01 0. -1.
         -5    1    3    3    0  501  0.11467413267E+02  0.65653045799E+01  0.26519902125E+02  0.30000000000E+02  0.47000000000E+01 0.  1.
</event>
<event>
 5    1  0.7959189E-002  0.6000000E+02  0.7546771E-02  0.1259629E+00
         11   -1    0    0    0    0  0.00000000000E+00  0.00000000000E+00  0.30000000000E+02  0.30000000000E+02  0.00000000000E+00 0. -1.
        -11   -1    0    0    0    0 -0.00000000000E+00 -0.00000000000E+00 -0.30000000000E+02  0.30000000000E+02  0.00000000000E+00 0.  1.
         23    2    1    2    0    0  0.00000000000E+00  0.00000000000E+00  0.00000000000E+00  0.60000000000E+02  0.60000000000E+02 0.  0.
          5    1    3    3  501    0  0.22824164963E+02  0.15267706480E+02 -0.11129448890E+02  0.30000000000E+02  0.47000000000E+01 0.  1.
         -5    1    3    3    0  501 -0.22824164963E+02 -0.15267706480E+02  0.11129448890E+02  0.30000000000E+02  0.47000000000E+01 0. -1.
</event>
<event>
 5    1  0.7959189E-002  0.6000000E+02  0.7546771E-02  0.1259629E+00
         11   -1    0    0    0    0  0.00000000000E+00  0.00000000000E+00  0.30000000000E+02  0.30000000000E+02  0.00000000000E+00 0. -1.
        -11   -1    0    0    0    0 -0.00000000000E+00 -0.00000000000E+00 -0.30000000000E+02  0.30000000000E+02  0.00000000000E+00 0.  1.
         23    2    1    2    0    0  0.00000000000E+00  0.00000000000E+00  0.00000000000E+00  0.60000000000E+02  0.60000000000E+02 0.  0.
          5    1    3    3  501    0  0.10430232979E+02  0.17044783091E+02 -0.21876828138E+02  0.30000000000E+02  0.47000000000E+01 0.  1.
         -5    1    3    3    0  501 -0.10430232979E+02 -0.17044783091E+02  0.21876828138E+02  0.30000000000E+02  0.47000000000E+01 0. -1.
</event>
<event>
 5    1  0.7959189E-002  0.6000000E+02  0.7546771E-02  0.1259629E+00
         11   -1    0    0    0    0  0.00000000000E+00  0.00000000000E+00  0.30000000000E+02  0.30000000000E+02  0.00000000000E+00 0.  1.
        -11   -1    0    0    0    0 -0.00000000000E+00 -0.00000000000E+00 -0.30000000000E+02  0.30000000000E+02  0.00000000000E+00 0. -1.
         23    2    1    2    0    0  0.00000000000E+00  0.00000000000E+00  0.00000000000E+00  0.60000000000E+02  0.60000000000E+02 0.  0.
          5    1    3    3  501    0 -0.25276583588E+02  0.13471890794E+02 -0.75836983441E+01  0.30000000000E+02  0.47000000000E+01 0.  1.
         -5    1    3    3    0  501  0.25276583588E+02 -0.13471890794E+02  0.75836983441E+01  0.30000000000E+02  0.47000000000E+01 0. -1.
</event>
<event>
 5    1  0.7959189E-002  0.6000000E+02  0.7546771E-02  0.1259629E+00
         11   -1    0    0    0    0  0.00000000000E+00  0.00000000000E+00  0.30000000000E+02  0.30000000000E+02  0.00000000000E+00 0.  1.
        -11   -1    0    0    0    0 -0.00000000000E+00 -0.00000000000E+00 -0.30000000000E+02  0.30000000000E+02  0.00000000000E+00 0. -1.
         23    2    1    2    0    0  0.00000000000E+00  0.00000000000E+00  0.00000000000E+00  0.60000000000E+02  0.60000000000E+02 0.  0.
          5    1    3    3  501    0 -0.22074806937E+02  0.11547831261E+02 -0.16039342003E+02  0.30000000000E+02  0.47000000000E+01 0. -1.
         -5    1    3    3    0  501  0.22074806937E+02 -0.11547831261E+02  0.16039342003E+02  0.30000000000E+02  0.47000000000E+01 0.  1.
</event>
<event>
 5    1  0.7959189E-002  0.6000000E+02  0.7546771E-02  0.1259629E+00
         11   -1    0    0    0    0  0.00000000000E+00  0.00000000000E+00  0.30000000000E+02  0.30000000000E+02  0.00000000000E+00 0. -1.
        -11   -1    0    0    0    0 -0.00000000000E+00 -0.00000000000E+00 -0.30000000000E+02  0.30000000000E+02  0.00000000000E+00 0.  1.
         23    2    1    2    0    0  0.00000000000E+00  0.00000000000E+00  0.00000000000E+00  0.60000000000E+02  0.60000000000E+02 0.  0.
          5    1    3    3  501    0  0.14287519408E+02  0.82167913629E+01 -0.24622370496E+02  0.30000000000E+02  0.47000000000E+01 0.  1.
         -5    1    3    3    0  501 -0.14287519408E+02 -0.82167913629E+01  0.24622370496E+02  0.30000000000E+02  0.47000000000E+01 0. -1.
</event>
<event>
 5    1  0.7959189E-002  0.6000000E+02  0.7546771E-02  0.1259629E+00
         11   -1    0    0    0    0  0.00000000000E+00  0.00000000000E+00  0.30000000000E+02  0.30000000000E+02  0.00000000000E+00 0. -1.
        -11   -1    0    0    0    0 -0.00000000000E+00 -0.00000000000E+00 -0.30000000000E+02  0.30000000000E+02  0.00000000000E+00 0.  1.
         23    2    1    2    0    0  0.00000000000E+00  0.00000000000E+00  0.00000000000E+00  0.60000000000E+02  0.60000000000E+02 0.  0.
          5    1    3    3  501    0  0.28705360727E+01 -0.20193860917E+02 -0.21491347187E+02  0.30000000000E+02  0.47000000000E+01 0.  1.
         -5    1    3    3    0  501 -0.28705360727E+01  0.20193860917E+02  0.21491347187E+02  0.30000000000E+02  0.47000000000E+01 0. -1.
</event>
<event>
 5    1  0.7959189E-002  0.6000000E+02  0.7546771E-02  0.1259629E+00
         11   -1    0    0    0    0  0.00000000000E+00  0.00000000000E+00  0.30000000000E+02  0.30000000000E+02  0.00000000000E+00 0.  1.
        -11   -1    0    0    0    0 -0.00000000000E+00 -0.00000000000E+00 -0.30000000000E+02  0.30000000000E+02  0.00000000000E+00 0. -1.
         23    2    1    2    0    0  0.00000000000E+00  0.00000000000E+00  0.00000000000E+00  0.60000000000E+02  0.60000000000E+02 0.  0.
          5    1    3    3  501    0  0.21864123860E+01  0.28146408828E+02 -0.89949580864E+01  0.30000000000E+02  0.47000000000E+01 0. -1.
         -5    1    3    3    0  501 -0.21864123860E+01 -0.28146408828E+02  0.89949580864E+01  0.30000000000E+02  0.47000000000E+01 0.  1.
</event>
<event>
 5    1  0.7959189E-002  0.6000000E+02  0.7546771E-02  0.1259629E+00
         11   -1    0    0    0    0  0.00000000000E+00  0.00000000000E+00  0.30000000000E+02  0.30000000000E+02  0.00000000000E+00 0.  1.
        -11   -1    0    0    0    0 -0.00000000000E+00 -0.00000000000E+00 -0.30000000000E+02  0.30000000000E+02  0.00000000000E+00 0. -1.
         23    2    1    2    0    0  0.00000000000E+00  0.00000000000E+00  0.00000000000E+00  0.60000000000E+02  0.60000000000E+02 0.  0.
          5    1    3    3  501    0  0.69227451901E+01  0.18620152215E+02 -0.21983528619E+02  0.30000000000E+02  0.47000000000E+01 0. -1.
         -5    1    3    3    0  501 -0.69227451901E+01 -0.18620152215E+02  0.21983528619E+02  0.30000000000E+02  0.47000000000E+01 0.  1.
</event>
<event>
 5    1  0.7959189E-002  0.6000000E+02  0.7546771E-02  0.1259629E+00
         11   -1    0    0    0    0  0.00000000000E+00  0.00000000000E+00  0.30000000000E+02  0.30000000000E+02  0.00000000000E+00 0. -1.
        -11   -1    0    0    0    0 -0.00000000000E+00 -0.00000000000E+00 -0.30000000000E+02  0.30000000000E+02  0.00000000000E+00 0.  1.
         23    2    1    2    0    0  0.00000000000E+00  0.00000000000E+00  0.00000000000E+00  0.60000000000E+02  0.60000000000E+02 0.  0.
          5    1    3    3  501    0  0.15575799627E+02  0.10743137844E+02 -0.22801084519E+02  0.30000000000E+02  0.47000000000E+01 0.  1.
         -5    1    3    3    0  501 -0.15575799627E+02 -0.10743137844E+02  0.22801084519E+02  0.30000000000E+02  0.47000000000E+01 0. -1.
</event>
<event>
 5    1  0.7959189E-002  0.6000000E+02  0.7546771E-02  0.1259629E+00
         11   -1    0    0    0    0  0.00000000000E+00  0.00000000000E+00  0.30000000000E+02  0.30000000000E+02  0.00000000000E+00 0.  1.
        -11   -1    0    0    0    0 -0.00000000000E+00 -0.00000000000E+00 -0.30000000000E+02  0.30000000000E+02  0.00000000000E+00 0. -1.
         23    2    1    2    0    0  0.00000000000E+00  0.00000000000E+00  0.00000000000E+00  0.60000000000E+02  0.60000000000E+02 0.  0.
          5    1    3    3  501    0  0.51374528897E+01 -0.13379770622E+01 -0.29150066813E+02  0.30000000000E+02  0.47000000000E+01 0. -1.
         -5    1    3    3    0  501 -0.51374528897E+01  0.13379770622E+01  0.29150066813E+02  0.30000000000E+02  0.47000000000E+01 0.  1.
</event>
<event>
 5    1  0.7959189E-002  0.6000000E+02  0.7546771E-02  0.1259629E+00
         11   -1    0    0    0    0  0.00000000000E+00  0.00000000000E+00  0.30000000000E+02  0.30000000000E+02  0.00000000000E+00 0.  1.
        -11   -1    0    0    0    0 -0.00000000000E+00 -0.00000000000E+00 -0.30000000000E+02  0.30000000000E+02  0.00000000000E+00 0. -1.
         23    2    1    2    0    0  0.00000000000E+00  0.00000000000E+00  0.00000000000E+00  0.60000000000E+02  0.60000000000E+02 0.  0.
          5    1    3    3  501    0 -0.91443059153E+01  0.63282357003E+00  0.28176075022E+02  0.30000000000E+02  0.47000000000E+01 0.  1.
         -5    1    3    3    0  501  0.91443059153E+01 -0.63282357003E+00 -0.28176075022E+02  0.30000000000E+02  0.47000000000E+01 0. -1.
</event>
<event>
 5    1  0.7959189E-002  0.6000000E+02  0.7546771E-02  0.1259629E+00
         11   -1    0    0    0    0  0.00000000000E+00  0.00000000000E+00  0.30000000000E+02  0.30000000000E+02  0.00000000000E+00 0.  1.
        -11   -1    0    0    0    0 -0.00000000000E+00 -0.00000000000E+00 -0.30000000000E+02  0.30000000000E+02  0.00000000000E+00 0. -1.
         23    2    1    2    0    0  0.00000000000E+00  0.00000000000E+00  0.00000000000E+00  0.60000000000E+02  0.60000000000E+02 0.  0.
          5    1    3    3  501    0 -0.12311276268E+02  0.26320287777E+02 -0.57952504671E+01  0.30000000000E+02  0.47000000000E+01 0. -1.
         -5    1    3    3    0  501  0.12311276268E+02 -0.26320287777E+02  0.57952504671E+01  0.30000000000E+02  0.47000000000E+01 0.  1.
</event>
<event>
 5    1  0.7959189E-002  0.6000000E+02  0.7546771E-02  0.1259629E+00
         11   -1    0    0    0    0  0.00000000000E+00  0.00000000000E+00  0.30000000000E+02  0.30000000000E+02  0.00000000000E+00 0.  1.
        -11   -1    0    0    0    0 -0.00000000000E+00 -0.00000000000E+00 -0.30000000000E+02  0.30000000000E+02  0.00000000000E+00 0. -1.
         23    2    1    2    0    0  0.00000000000E+00  0.00000000000E+00  0.00000000000E+00  0.60000000000E+02  0.60000000000E+02 0.  0.
          5    1    3    3  501    0 -0.44149569909E+01 -0.29040279380E+02  0.38833398416E+01  0.30000000000E+02  0.47000000000E+01 0. -1.
         -5    1    3    3    0  501  0.44149569909E+01  0.29040279380E+02 -0.38833398416E+01  0.30000000000E+02  0.47000000000E+01 0.  1.
</event>
<event>
 5    1  0.7959189E-002  0.6000000E+02  0.7546771E-02  0.1259629E+00
         11   -1    0    0    0    0  0.00000000000E+00  0.00000000000E+00  0.30000000000E+02  0.30000000000E+02  0.00000000000E+00 0.  1.
        -11   -1    0    0    0    0 -0.00000000000E+00 -0.00000000000E+00 -0.30000000000E+02  0.30000000000E+02  0.00000000000E+00 0. -1.
         23    2    1    2    0    0  0.00000000000E+00  0.00000000000E+00  0.00000000000E+00  0.60000000000E+02  0.60000000000E+02 0.  0.
          5    1    3    3  501    0 -0.29466881781E+02 -0.16900720823E+01  0.25993334699E+01  0.30000000000E+02  0.47000000000E+01 0. -1.
         -5    1    3    3    0  501  0.29466881781E+02  0.16900720823E+01 -0.25993334699E+01  0.30000000000E+02  0.47000000000E+01 0. -1.
</event>
<event>
 5    1  0.7959189E-002  0.6000000E+02  0.7546771E-02  0.1259629E+00
         11   -1    0    0    0    0  0.00000000000E+00  0.00000000000E+00  0.30000000000E+02  0.30000000000E+02  0.00000000000E+00 0. -1.
        -11   -1    0    0    0    0 -0.00000000000E+00 -0.00000000000E+00 -0.30000000000E+02  0.30000000000E+02  0.00000000000E+00 0.  1.
         23    2    1    2    0    0  0.00000000000E+00  0.00000000000E+00  0.00000000000E+00  0.60000000000E+02  0.60000000000E+02 0.  0.
          5    1    3    3  501    0 -0.83719097036E+01  0.23218608833E+02  0.16392599909E+02  0.30000000000E+02  0.47000000000E+01 0. -1.
         -5    1    3    3    0  501  0.83719097036E+01 -0.23218608833E+02 -0.16392599909E+02  0.30000000000E+02  0.47000000000E+01 0.  1.
</event>
<event>
 5    1  0.7959189E-002  0.6000000E+02  0.7546771E-02  0.1259629E+00
         11   -1    0    0    0    0  0.00000000000E+00  0.00000000000E+00  0.30000000000E+02  0.30000000000E+02  0.00000000000E+00 0.  1.
        -11   -1    0    0    0    0 -0.00000000000E+00 -0.00000000000E+00 -0.30000000000E+02  0.30000000000E+02  0.00000000000E+00 0. -1.
         23    2    1    2    0    0  0.00000000000E+00  0.00000000000E+00  0.00000000000E+00  0.60000000000E+02  0.60000000000E+02 0.  0.
          5    1    3    3  501    0  0.11163886811E+02 -0.25452039587E+02 -0.10269922694E+02  0.30000000000E+02  0.47000000000E+01 0.  1.
         -5    1    3    3    0  501 -0.11163886811E+02  0.25452039587E+02  0.10269922694E+02  0.30000000000E+02  0.47000000000E+01 0.  1.
</event>
<event>
 5    1  0.7959189E-002  0.6000000E+02  0.7546771E-02  0.1259629E+00
         11   -1    0    0    0    0  0.00000000000E+00  0.00000000000E+00  0.30000000000E+02  0.30000000000E+02  0.00000000000E+00 0. -1.
        -11   -1    0    0    0    0 -0.00000000000E+00 -0.00000000000E+00 -0.30000000000E+02  0.30000000000E+02  0.00000000000E+00 0.  1.
         23    2    1    2    0    0  0.00000000000E+00  0.00000000000E+00  0.00000000000E+00  0.60000000000E+02  0.60000000000E+02 0.  0.
          5    1    3    3  501    0  0.28492082839E+02  0.70922265129E+01  0.39763725386E+01  0.30000000000E+02  0.47000000000E+01 0.  1.
         -5    1    3    3    0  501 -0.28492082839E+02 -0.70922265129E+01 -0.39763725386E+01  0.30000000000E+02  0.47000000000E+01 0. -1.
</event>
<event>
 5    1  0.7959189E-002  0.6000000E+02  0.7546771E-02  0.1259629E+00
         11   -1    0    0    0    0  0.00000000000E+00  0.00000000000E+00  0.30000000000E+02  0.30000000000E+02  0.00000000000E+00 0. -1.
        -11   -1    0    0    0    0 -0.00000000000E+00 -0.00000000000E+00 -0.30000000000E+02  0.30000000000E+02  0.00000000000E+00 0.  1.
         23    2    1    2    0    0  0.00000000000E+00  0.00000000000E+00  0.00000000000E+00  0.60000000000E+02  0.60000000000E+02 0.  0.
          5    1    3    3  501    0  0.11298074950E+02  0.25526719030E+02 -0.99322765769E+01  0.30000000000E+02  0.47000000000E+01 0.  1.
         -5    1    3    3    0  501 -0.11298074950E+02 -0.25526719030E+02  0.99322765769E+01  0.30000000000E+02  0.47000000000E+01 0. -1.
</event>
<event>
 5    1  0.7959189E-002  0.6000000E+02  0.7546771E-02  0.1259629E+00
         11   -1    0    0    0    0  0.00000000000E+00  0.00000000000E+00  0.30000000000E+02  0.30000000000E+02  0.00000000000E+00 0.  1.
        -11   -1    0    0    0    0 -0.00000000000E+00 -0.00000000000E+00 -0.30000000000E+02  0.30000000000E+02  0.00000000000E+00 0. -1.
         23    2    1    2    0    0  0.00000000000E+00  0.00000000000E+00  0.00000000000E+00  0.60000000000E+02  0.60000000000E+02 0.  0.
          5    1    3    3  501    0  0.15014397353E+02  0.25484907968E+02  0.17312821848E+01  0.30000000000E+02  0.47000000000E+01 0. -1.
         -5    1    3    3    0  501 -0.15014397353E+02 -0.25484907968E+02 -0.17312821848E+01  0.30000000000E+02  0.47000000000E+01 0.  1.
</event>
<event>
 5    1  0.7959189E-002  0.6000000E+02  0.7546771E-02  0.1259629E+00
         11   -1    0    0    0    0  0.00000000000E+00  0.00000000000E+00  0.30000000000E+02  0.30000000000E+02  0.00000000000E+00 0.  1.
        -11   -1    0    0    0    0 -0.00000000000E+00 -0.00000000000E+00 -0.30000000000E+02  0.30000000000E+02  0.00000000000E+00 0. -1.
         23    2    1    2    0    0  0.00000000000E+00  0.00000000000E+00  0.00000000000E+00  0.60000000000E+02  0.60000000000E+02 0.  0.
          5    1    3    3  501    0 -0.19361598184E+02 -0.20989559480E+02 -0.79042335875E+01  0.30000000000E+02  0.47000000000E+01 0. -1.
         -5    1    3    3    0  501  0.19361598184E+02  0.20989559480E+02  0.79042335875E+01  0.30000000000E+02  0.47000000000E+01 0.  1.
</event>
<event>
 5    1  0.7959189E-002  0.6000000E+02  0.7546771E-02  0.1259629E+00
         11   -1    0    0    0    0  0.00000000000E+00  0.00000000000E+00  0.30000000000E+02  0.30000000000E+02  0.00000000000E+00 0.  1.
        -11   -1    0    0    0    0 -0.00000000000E+00 -0.00000000000E+00 -0.30000000000E+02  0.30000000000E+02  0.00000000000E+00 0. -1.
         23    2    1    2    0    0  0.00000000000E+00  0.00000000000E+00  0.00000000000E+00  0.60000000000E+02  0.60000000000E+02 0.  0.
          5    1    3    3  501    0 -0.11424729637E+02  0.27153011260E+02 -0.31779761205E+01  0.30000000000E+02  0.47000000000E+01 0. -1.
         -5    1    3    3    0  501  0.11424729637E+02 -0.27153011260E+02  0.31779761205E+01  0.30000000000E+02  0.47000000000E+01 0.  1.
</event>
<event>
 5    1  0.7959189E-002  0.6000000E+02  0.7546771E-02  0.1259629E+00
         11   -1    0    0    0    0  0.00000000000E+00  0.00000000000E+00  0.30000000000E+02  0.30000000000E+02  0.00000000000E+00 0.  1.
        -11   -1    0    0    0    0 -0.00000000000E+00 -0.00000000000E+00 -0.30000000000E+02  0.30000000000E+02  0.00000000000E+00 0. -1.
         23    2    1    2    0    0  0.00000000000E+00  0.00000000000E+00  0.00000000000E+00  0.60000000000E+02  0.60000000000E+02 0.  0.
          5    1    3    3  501    0 -0.11519863043E+01  0.21780008851E+02 -0.20055277161E+02  0.30000000000E+02  0.47000000000E+01 0. -1.
         -5    1    3    3    0  501  0.11519863043E+01 -0.21780008851E+02  0.20055277161E+02  0.30000000000E+02  0.47000000000E+01 0.  1.
</event>
<event>
 5    1  0.7959189E-002  0.6000000E+02  0.7546771E-02  0.1259629E+00
         11   -1    0    0    0    0  0.00000000000E+00  0.00000000000E+00  0.30000000000E+02  0.30000000000E+02  0.00000000000E+00 0.  1.
        -11   -1    0    0    0    0 -0.00000000000E+00 -0.00000000000E+00 -0.30000000000E+02  0.30000000000E+02  0.00000000000E+00 0. -1.
         23    2    1    2    0    0  0.00000000000E+00  0.00000000000E+00  0.00000000000E+00  0.60000000000E+02  0.60000000000E+02 0.  0.
          5    1    3    3  501    0  0.10375504184E+02 -0.44643459919E+00  0.27749947911E+02  0.30000000000E+02  0.47000000000E+01 0.  1.
         -5    1    3    3    0  501 -0.10375504184E+02  0.44643459919E+00 -0.27749947911E+02  0.30000000000E+02  0.47000000000E+01 0. -1.
</event>
<event>
 5    1  0.7959189E-002  0.6000000E+02  0.7546771E-02  0.1259629E+00
         11   -1    0    0    0    0  0.00000000000E+00  0.00000000000E+00  0.30000000000E+02  0.30000000000E+02  0.00000000000E+00 0.  1.
        -11   -1    0    0    0    0 -0.00000000000E+00 -0.00000000000E+00 -0.30000000000E+02  0.30000000000E+02  0.00000000000E+00 0. -1.
         23    2    1    2    0    0  0.00000000000E+00  0.00000000000E+00  0.00000000000E+00  0.60000000000E+02  0.60000000000E+02 0.  0.
          5    1    3    3  501    0  0.21361388765E+02 -0.14934106549E+02 -0.14091612101E+02  0.30000000000E+02  0.47000000000E+01 0. -1.
         -5    1    3    3    0  501 -0.21361388765E+02  0.14934106549E+02  0.14091612101E+02  0.30000000000E+02  0.47000000000E+01 0.  1.
</event>
<event>
 5    1  0.7959189E-002  0.6000000E+02  0.7546771E-02  0.1259629E+00
         11   -1    0    0    0    0  0.00000000000E+00  0.00000000000E+00  0.30000000000E+02  0.30000000000E+02  0.00000000000E+00 0.  1.
        -11   -1    0    0    0    0 -0.00000000000E+00 -0.00000000000E+00 -0.30000000000E+02  0.30000000000E+02  0.00000000000E+00 0. -1.
         23    2    1    2    0    0  0.00000000000E+00  0.00000000000E+00  0.00000000000E+00  0.60000000000E+02  0.60000000000E+02 0.  0.
          5    1    3    3  501    0  0.20167487903E+02 -0.21687610649E+02  0.91103019883E+00  0.30000000000E+02  0.47000000000E+01 0. -1.
         -5    1    3    3    0  501 -0.20167487903E+02  0.21687610649E+02 -0.91103019883E+00  0.30000000000E+02  0.47000000000E+01 0.  1.
</event>
<event>
 5    1  0.7959189E-002  0.6000000E+02  0.7546771E-02  0.1259629E+00
         11   -1    0    0    0    0  0.00000000000E+00  0.00000000000E+00  0.30000000000E+02  0.30000000000E+02  0.00000000000E+00 0.  1.
        -11   -1    0    0    0    0 -0.00000000000E+00 -0.00000000000E+00 -0.30000000000E+02  0.30000000000E+02  0.00000000000E+00 0. -1.
         23    2    1    2    0    0  0.00000000000E+00  0.00000000000E+00  0.00000000000E+00  0.60000000000E+02  0.60000000000E+02 0.  0.
          5    1    3    3  501    0  0.15849715464E+02 -0.20913590618E+02 -0.13759296755E+02  0.30000000000E+02  0.47000000000E+01 0. -1.
         -5    1    3    3    0  501 -0.15849715464E+02  0.20913590618E+02  0.13759296755E+02  0.30000000000E+02  0.47000000000E+01 0.  1.
</event>
<event>
 5    1  0.7959189E-002  0.6000000E+02  0.7546771E-02  0.1259629E+00
         11   -1    0    0    0    0  0.00000000000E+00  0.00000000000E+00  0.30000000000E+02  0.30000000000E+02  0.00000000000E+00 0.  1.
        -11   -1    0    0    0    0 -0.00000000000E+00 -0.00000000000E+00 -0.30000000000E+02  0.30000000000E+02  0.00000000000E+00 0. -1.
         23    2    1    2    0    0  0.00000000000E+00  0.00000000000E+00  0.00000000000E+00  0.60000000000E+02  0.60000000000E+02 0.  0.
          5    1    3    3  501    0  0.84009147164E+01  0.16672750263E+02 -0.23007695030E+02  0.30000000000E+02  0.47000000000E+01 0. -1.
         -5    1    3    3    0  501 -0.84009147164E+01 -0.16672750263E+02  0.23007695030E+02  0.30000000000E+02  0.47000000000E+01 0.  1.
</event>
<event>
 5    1  0.7959189E-002  0.6000000E+02  0.7546771E-02  0.1259629E+00
         11   -1    0    0    0    0  0.00000000000E+00  0.00000000000E+00  0.30000000000E+02  0.30000000000E+02  0.00000000000E+00 0.  1.
        -11   -1    0    0    0    0 -0.00000000000E+00 -0.00000000000E+00 -0.30000000000E+02  0.30000000000E+02  0.00000000000E+00 0. -1.
         23    2    1    2    0    0  0.00000000000E+00  0.00000000000E+00  0.00000000000E+00  0.60000000000E+02  0.60000000000E+02 0.  0.
          5    1    3    3  501    0  0.21361764418E+02  0.10855115358E+02 -0.17428467848E+02  0.30000000000E+02  0.47000000000E+01 0. -1.
         -5    1    3    3    0  501 -0.21361764418E+02 -0.10855115358E+02  0.17428467848E+02  0.30000000000E+02  0.47000000000E+01 0.  1.
</event>
<event>
 5    1  0.7959189E-002  0.6000000E+02  0.7546771E-02  0.1259629E+00
         11   -1    0    0    0    0  0.00000000000E+00  0.00000000000E+00  0.30000000000E+02  0.30000000000E+02  0.00000000000E+00 0.  1.
        -11   -1    0    0    0    0 -0.00000000000E+00 -0.00000000000E+00 -0.30000000000E+02  0.30000000000E+02  0.00000000000E+00 0. -1.
         23    2    1    2    0    0  0.00000000000E+00  0.00000000000E+00  0.00000000000E+00  0.60000000000E+02  0.60000000000E+02 0.  0.
          5    1    3    3  501    0 -0.30126464830E+01 -0.70298907186E+01 -0.28625418733E+02  0.30000000000E+02  0.47000000000E+01 0. -1.
         -5    1    3    3    0  501  0.30126464830E+01  0.70298907186E+01  0.28625418733E+02  0.30000000000E+02  0.47000000000E+01 0.  1.
</event>
<event>
 5    1  0.7959189E-002  0.6000000E+02  0.7546771E-02  0.1259629E+00
         11   -1    0    0    0    0  0.00000000000E+00  0.00000000000E+00  0.30000000000E+02  0.30000000000E+02  0.00000000000E+00 0.  1.
        -11   -1    0    0    0    0 -0.00000000000E+00 -0.00000000000E+00 -0.30000000000E+02  0.30000000000E+02  0.00000000000E+00 0. -1.
         23    2    1    2    0    0  0.00000000000E+00  0.00000000000E+00  0.00000000000E+00  0.60000000000E+02  0.60000000000E+02 0.  0.
          5    1    3    3  501    0  0.27038575809E+02 -0.68825757992E+01 -0.99727412780E+01  0.30000000000E+02  0.47000000000E+01 0. -1.
         -5    1    3    3    0  501 -0.27038575809E+02  0.68825757992E+01  0.99727412780E+01  0.30000000000E+02  0.47000000000E+01 0.  1.
</event>
<event>
 5    1  0.7959189E-002  0.6000000E+02  0.7546771E-02  0.1259629E+00
         11   -1    0    0    0    0  0.00000000000E+00  0.00000000000E+00  0.30000000000E+02  0.30000000000E+02  0.00000000000E+00 0.  1.
        -11   -1    0    0    0    0 -0.00000000000E+00 -0.00000000000E+00 -0.30000000000E+02  0.30000000000E+02  0.00000000000E+00 0. -1.
         23    2    1    2    0    0  0.00000000000E+00  0.00000000000E+00  0.00000000000E+00  0.60000000000E+02  0.60000000000E+02 0.  0.
          5    1    3    3  501    0  0.17830307283E+02  0.31967817251E+01 -0.23447190211E+02  0.30000000000E+02  0.47000000000E+01 0. -1.
         -5    1    3    3    0  501 -0.17830307283E+02 -0.31967817251E+01  0.23447190211E+02  0.30000000000E+02  0.47000000000E+01 0.  1.
</event>
<event>
 5    1  0.7959189E-002  0.6000000E+02  0.7546771E-02  0.1259629E+00
         11   -1    0    0    0    0  0.00000000000E+00  0.00000000000E+00  0.30000000000E+02  0.30000000000E+02  0.00000000000E+00 0.  1.
        -11   -1    0    0    0    0 -0.00000000000E+00 -0.00000000000E+00 -0.30000000000E+02  0.30000000000E+02  0.00000000000E+00 0. -1.
         23    2    1    2    0    0  0.00000000000E+00  0.00000000000E+00  0.00000000000E+00  0.60000000000E+02  0.60000000000E+02 0.  0.
          5    1    3    3  501    0 -0.93076256632E+01  0.16208296715E+02 -0.22990633356E+02  0.30000000000E+02  0.47000000000E+01 0. -1.
         -5    1    3    3    0  501  0.93076256632E+01 -0.16208296715E+02  0.22990633356E+02  0.30000000000E+02  0.47000000000E+01 0.  1.
</event>
<event>
 5    1  0.7959189E-002  0.6000000E+02  0.7546771E-02  0.1259629E+00
         11   -1    0    0    0    0  0.00000000000E+00  0.00000000000E+00  0.30000000000E+02  0.30000000000E+02  0.00000000000E+00 0.  1.
        -11   -1    0    0    0    0 -0.00000000000E+00 -0.00000000000E+00 -0.30000000000E+02  0.30000000000E+02  0.00000000000E+00 0. -1.
         23    2    1    2    0    0  0.00000000000E+00  0.00000000000E+00  0.00000000000E+00  0.60000000000E+02  0.60000000000E+02 0.  0.
          5    1    3    3  501    0 -0.47349069939E+01  0.22321651789E+02 -0.18900648592E+02  0.30000000000E+02  0.47000000000E+01 0. -1.
         -5    1    3    3    0  501  0.47349069939E+01 -0.22321651789E+02  0.18900648592E+02  0.30000000000E+02  0.47000000000E+01 0.  1.
</event>
<event>
 5    1  0.7959189E-002  0.6000000E+02  0.7546771E-02  0.1259629E+00
         11   -1    0    0    0    0  0.00000000000E+00  0.00000000000E+00  0.30000000000E+02  0.30000000000E+02  0.00000000000E+00 0.  1.
        -11   -1    0    0    0    0 -0.00000000000E+00 -0.00000000000E+00 -0.30000000000E+02  0.30000000000E+02  0.00000000000E+00 0. -1.
         23    2    1    2    0    0  0.00000000000E+00  0.00000000000E+00  0.00000000000E+00  0.60000000000E+02  0.60000000000E+02 0.  0.
          5    1    3    3  501    0 -0.19506924231E+02  0.20481388003E+02 -0.88262479288E+01  0.30000000000E+02  0.47000000000E+01 0. -1.
         -5    1    3    3    0  501  0.19506924231E+02 -0.20481388003E+02  0.88262479288E+01  0.30000000000E+02  0.47000000000E+01 0.  1.
</event>
<event>
 5    1  0.7959189E-002  0.6000000E+02  0.7546771E-02  0.1259629E+00
         11   -1    0    0    0    0  0.00000000000E+00  0.00000000000E+00  0.30000000000E+02  0.30000000000E+02  0.00000000000E+00 0.  1.
        -11   -1    0    0    0    0 -0.00000000000E+00 -0.00000000000E+00 -0.30000000000E+02  0.30000000000E+02  0.00000000000E+00 0. -1.
         23    2    1    2    0    0  0.00000000000E+00  0.00000000000E+00  0.00000000000E+00  0.60000000000E+02  0.60000000000E+02 0.  0.
          5    1    3    3  501    0 -0.17629090813E+02  0.20543947174E+02 -0.12044558589E+02  0.30000000000E+02  0.47000000000E+01 0. -1.
         -5    1    3    3    0  501  0.17629090813E+02 -0.20543947174E+02  0.12044558589E+02  0.30000000000E+02  0.47000000000E+01 0.  1.
</event>
<event>
 5    1  0.7959189E-002  0.6000000E+02  0.7546771E-02  0.1259629E+00
         11   -1    0    0    0    0  0.00000000000E+00  0.00000000000E+00  0.30000000000E+02  0.30000000000E+02  0.00000000000E+00 0. -1.
        -11   -1    0    0    0    0 -0.00000000000E+00 -0.00000000000E+00 -0.30000000000E+02  0.30000000000E+02  0.00000000000E+00 0.  1.
         23    2    1    2    0    0  0.00000000000E+00  0.00000000000E+00  0.00000000000E+00  0.60000000000E+02  0.60000000000E+02 0.  0.
          5    1    3    3  501    0 -0.35721121719E+01  0.71114676612E+01 -0.28540796105E+02  0.30000000000E+02  0.47000000000E+01 0.  1.
         -5    1    3    3    0  501  0.35721121719E+01 -0.71114676612E+01  0.28540796105E+02  0.30000000000E+02  0.47000000000E+01 0. -1.
</event>
<event>
 5    1  0.7959189E-002  0.6000000E+02  0.7546771E-02  0.1259629E+00
         11   -1    0    0    0    0  0.00000000000E+00  0.00000000000E+00  0.30000000000E+02  0.30000000000E+02  0.00000000000E+00 0. -1.
        -11   -1    0    0    0    0 -0.00000000000E+00 -0.00000000000E+00 -0.30000000000E+02  0.30000000000E+02  0.00000000000E+00 0.  1.
         23    2    1    2    0    0  0.00000000000E+00  0.00000000000E+00  0.00000000000E+00  0.60000000000E+02  0.60000000000E+02 0.  0.
          5    1    3    3  501    0  0.89064052590E+00 -0.89249591386E+01  0.28239367270E+02  0.30000000000E+02  0.47000000000E+01 0. -1.
         -5    1    3    3    0  501 -0.89064052590E+00  0.89249591386E+01 -0.28239367270E+02  0.30000000000E+02  0.47000000000E+01 0.  1.
</event>
<event>
 5    1  0.7959189E-002  0.6000000E+02  0.7546771E-02  0.1259629E+00
         11   -1    0    0    0    0  0.00000000000E+00  0.00000000000E+00  0.30000000000E+02  0.30000000000E+02  0.00000000000E+00 0.  1.
        -11   -1    0    0    0    0 -0.00000000000E+00 -0.00000000000E+00 -0.30000000000E+02  0.30000000000E+02  0.00000000000E+00 0. -1.
         23    2    1    2    0    0  0.00000000000E+00  0.00000000000E+00  0.00000000000E+00  0.60000000000E+02  0.60000000000E+02 0.  0.
          5    1    3    3  501    0 -0.13983103653E+01 -0.29592742534E+02 -0.47362159198E+00  0.30000000000E+02  0.47000000000E+01 0. -1.
         -5    1    3    3    0  501  0.13983103653E+01  0.29592742534E+02  0.47362159198E+00  0.30000000000E+02  0.47000000000E+01 0.  1.
</event>
<event>
 5    1  0.7959189E-002  0.6000000E+02  0.7546771E-02  0.1259629E+00
         11   -1    0    0    0    0  0.00000000000E+00  0.00000000000E+00  0.30000000000E+02  0.30000000000E+02  0.00000000000E+00 0.  1.
        -11   -1    0    0    0    0 -0.00000000000E+00 -0.00000000000E+00 -0.30000000000E+02  0.30000000000E+02  0.00000000000E+00 0. -1.
         23    2    1    2    0    0  0.00000000000E+00  0.00000000000E+00  0.00000000000E+00  0.60000000000E+02  0.60000000000E+02 0.  0.
          5    1    3    3  501    0  0.25379654913E+02  0.10383851534E+02  0.11223134314E+02  0.30000000000E+02  0.47000000000E+01 0.  1.
         -5    1    3    3    0  501 -0.25379654913E+02 -0.10383851534E+02 -0.11223134314E+02  0.30000000000E+02  0.47000000000E+01 0. -1.
</event>
<event>
 5    1  0.7959189E-002  0.6000000E+02  0.7546771E-02  0.1259629E+00
         11   -1    0    0    0    0  0.00000000000E+00  0.00000000000E+00  0.30000000000E+02  0.30000000000E+02  0.00000000000E+00 0. -1.
        -11   -1    0    0    0    0 -0.00000000000E+00 -0.00000000000E+00 -0.30000000000E+02  0.30000000000E+02  0.00000000000E+00 0.  1.
         23    2    1    2    0    0  0.00000000000E+00  0.00000000000E+00  0.00000000000E+00  0.60000000000E+02  0.60000000000E+02 0.  0.
          5    1    3    3  501    0  0.14725967831E+02  0.25509333836E+02 -0.32139941910E+01  0.30000000000E+02  0.47000000000E+01 0.  1.
         -5    1    3    3    0  501 -0.14725967831E+02 -0.25509333836E+02  0.32139941910E+01  0.30000000000E+02  0.47000000000E+01 0. -1.
</event>
<event>
 5    1  0.7959189E-002  0.6000000E+02  0.7546771E-02  0.1259629E+00
         11   -1    0    0    0    0  0.00000000000E+00  0.00000000000E+00  0.30000000000E+02  0.30000000000E+02  0.00000000000E+00 0.  1.
        -11   -1    0    0    0    0 -0.00000000000E+00 -0.00000000000E+00 -0.30000000000E+02  0.30000000000E+02  0.00000000000E+00 0. -1.
         23    2    1    2    0    0  0.00000000000E+00  0.00000000000E+00  0.00000000000E+00  0.60000000000E+02  0.60000000000E+02 0.  0.
          5    1    3    3  501    0  0.13581058549E+02  0.15519237192E+02 -0.21274823752E+02  0.30000000000E+02  0.47000000000E+01 0. -1.
         -5    1    3    3    0  501 -0.13581058549E+02 -0.15519237192E+02  0.21274823752E+02  0.30000000000E+02  0.47000000000E+01 0.  1.
</event>
<event>
 5    1  0.7959189E-002  0.6000000E+02  0.7546771E-02  0.1259629E+00
         11   -1    0    0    0    0  0.00000000000E+00  0.00000000000E+00  0.30000000000E+02  0.30000000000E+02  0.00000000000E+00 0. -1.
        -11   -1    0    0    0    0 -0.00000000000E+00 -0.00000000000E+00 -0.30000000000E+02  0.30000000000E+02  0.00000000000E+00 0.  1.
         23    2    1    2    0    0  0.00000000000E+00  0.00000000000E+00  0.00000000000E+00  0.60000000000E+02  0.60000000000E+02 0.  0.
          5    1    3    3  501    0  0.65943652211E+01  0.16663758083E+02 -0.23595412984E+02  0.30000000000E+02  0.47000000000E+01 0.  1.
         -5    1    3    3    0  501 -0.65943652211E+01 -0.16663758083E+02  0.23595412984E+02  0.30000000000E+02  0.47000000000E+01 0. -1.
</event>
<event>
 5    1  0.7959189E-002  0.6000000E+02  0.7546771E-02  0.1259629E+00
         11   -1    0    0    0    0  0.00000000000E+00  0.00000000000E+00  0.30000000000E+02  0.30000000000E+02  0.00000000000E+00 0. -1.
        -11   -1    0    0    0    0 -0.00000000000E+00 -0.00000000000E+00 -0.30000000000E+02  0.30000000000E+02  0.00000000000E+00 0.  1.
         23    2    1    2    0    0  0.00000000000E+00  0.00000000000E+00  0.00000000000E+00  0.60000000000E+02  0.60000000000E+02 0.  0.
          5    1    3    3  501    0  0.23433860649E+02  0.18105784793E+02 -0.97197330326E+00  0.30000000000E+02  0.47000000000E+01 0.  1.
         -5    1    3    3    0  501 -0.23433860649E+02 -0.18105784793E+02  0.97197330326E+00  0.30000000000E+02  0.47000000000E+01 0. -1.
</event>
<event>
 5    1  0.7959189E-002  0.6000000E+02  0.7546771E-02  0.1259629E+00
         11   -1    0    0    0    0  0.00000000000E+00  0.00000000000E+00  0.30000000000E+02  0.30000000000E+02  0.00000000000E+00 0.  1.
        -11   -1    0    0    0    0 -0.00000000000E+00 -0.00000000000E+00 -0.30000000000E+02  0.30000000000E+02  0.00000000000E+00 0. -1.
         23    2    1    2    0    0  0.00000000000E+00  0.00000000000E+00  0.00000000000E+00  0.60000000000E+02  0.60000000000E+02 0.  0.
          5    1    3    3  501    0  0.22244802413E+02  0.16587199005E+02 -0.10389590694E+02  0.30000000000E+02  0.47000000000E+01 0. -1.
         -5    1    3    3    0  501 -0.22244802413E+02 -0.16587199005E+02  0.10389590694E+02  0.30000000000E+02  0.47000000000E+01 0.  1.
</event>
<event>
 5    1  0.7959189E-002  0.6000000E+02  0.7546771E-02  0.1259629E+00
         11   -1    0    0    0    0  0.00000000000E+00  0.00000000000E+00  0.30000000000E+02  0.30000000000E+02  0.00000000000E+00 0. -1.
        -11   -1    0    0    0    0 -0.00000000000E+00 -0.00000000000E+00 -0.30000000000E+02  0.30000000000E+02  0.00000000000E+00 0.  1.
         23    2    1    2    0    0  0.00000000000E+00  0.00000000000E+00  0.00000000000E+00  0.60000000000E+02  0.60000000000E+02 0.  0.
          5    1    3    3  501    0  0.23595994348E+01 -0.26859430950E+02 -0.12284675800E+02  0.30000000000E+02  0.47000000000E+01 0. -1.
         -5    1    3    3    0  501 -0.23595994348E+01  0.26859430950E+02  0.12284675800E+02  0.30000000000E+02  0.47000000000E+01 0.  1.
</event>
<event>
 5    1  0.7959189E-002  0.6000000E+02  0.7546771E-02  0.1259629E+00
         11   -1    0    0    0    0  0.00000000000E+00  0.00000000000E+00  0.30000000000E+02  0.30000000000E+02  0.00000000000E+00 0.  1.
        -11   -1    0    0    0    0 -0.00000000000E+00 -0.00000000000E+00 -0.30000000000E+02  0.30000000000E+02  0.00000000000E+00 0. -1.
         23    2    1    2    0    0  0.00000000000E+00  0.00000000000E+00  0.00000000000E+00  0.60000000000E+02  0.60000000000E+02 0.  0.
          5    1    3    3  501    0  0.23268147306E+01  0.29492103222E+02 -0.16467485447E+01  0.30000000000E+02  0.47000000000E+01 0. -1.
         -5    1    3    3    0  501 -0.23268147306E+01 -0.29492103222E+02  0.16467485447E+01  0.30000000000E+02  0.47000000000E+01 0.  1.
</event>
<event>
 5    1  0.7959189E-002  0.6000000E+02  0.7546771E-02  0.1259629E+00
         11   -1    0    0    0    0  0.00000000000E+00  0.00000000000E+00  0.30000000000E+02  0.30000000000E+02  0.00000000000E+00 0.  1.
        -11   -1    0    0    0    0 -0.00000000000E+00 -0.00000000000E+00 -0.30000000000E+02  0.30000000000E+02  0.00000000000E+00 0. -1.
         23    2    1    2    0    0  0.00000000000E+00  0.00000000000E+00  0.00000000000E+00  0.60000000000E+02  0.60000000000E+02 0.  0.
          5    1    3    3  501    0 -0.37106415774E+01 -0.59840784910E+01 -0.28780756482E+02  0.30000000000E+02  0.47000000000E+01 0. -1.
         -5    1    3    3    0  501  0.37106415774E+01  0.59840784910E+01  0.28780756482E+02  0.30000000000E+02  0.47000000000E+01 0.  1.
</event>
<event>
 5    1  0.7959189E-002  0.6000000E+02  0.7546771E-02  0.1259629E+00
         11   -1    0    0    0    0  0.00000000000E+00  0.00000000000E+00  0.30000000000E+02  0.30000000000E+02  0.00000000000E+00 0.  1.
        -11   -1    0    0    0    0 -0.00000000000E+00 -0.00000000000E+00 -0.30000000000E+02  0.30000000000E+02  0.00000000000E+00 0. -1.
         23    2    1    2    0    0  0.00000000000E+00  0.00000000000E+00  0.00000000000E+00  0.60000000000E+02  0.60000000000E+02 0.  0.
          5    1    3    3  501    0  0.13407787329E+02 -0.17096804535E+02 -0.20145483703E+02  0.30000000000E+02  0.47000000000E+01 0. -1.
         -5    1    3    3    0  501 -0.13407787329E+02  0.17096804535E+02  0.20145483703E+02  0.30000000000E+02  0.47000000000E+01 0.  1.
</event>
<event>
 5    1  0.7959189E-002  0.6000000E+02  0.7546771E-02  0.1259629E+00
         11   -1    0    0    0    0  0.00000000000E+00  0.00000000000E+00  0.30000000000E+02  0.30000000000E+02  0.00000000000E+00 0.  1.
        -11   -1    0    0    0    0 -0.00000000000E+00 -0.00000000000E+00 -0.30000000000E+02  0.30000000000E+02  0.00000000000E+00 0. -1.
         23    2    1    2    0    0  0.00000000000E+00  0.00000000000E+00  0.00000000000E+00  0.60000000000E+02  0.60000000000E+02 0.  0.
          5    1    3    3  501    0  0.10038699110E+01 -0.57435835003E+01 -0.29050189221E+02  0.30000000000E+02  0.47000000000E+01 0. -1.
         -5    1    3    3    0  501 -0.10038699110E+01  0.57435835003E+01  0.29050189221E+02  0.30000000000E+02  0.47000000000E+01 0.  1.
</event>
<event>
 5    1  0.7959189E-002  0.6000000E+02  0.7546771E-02  0.1259629E+00
         11   -1    0    0    0    0  0.00000000000E+00  0.00000000000E+00  0.30000000000E+02  0.30000000000E+02  0.00000000000E+00 0. -1.
        -11   -1    0    0    0    0 -0.00000000000E+00 -0.00000000000E+00 -0.30000000000E+02  0.30000000000E+02  0.00000000000E+00 0.  1.
         23    2    1    2    0    0  0.00000000000E+00  0.00000000000E+00  0.00000000000E+00  0.60000000000E+02  0.60000000000E+02 0.  0.
          5    1    3    3  501    0  0.12472456905E+02  0.18023054051E+02 -0.19937836929E+02  0.30000000000E+02  0.47000000000E+01 0.  1.
         -5    1    3    3    0  501 -0.12472456905E+02 -0.18023054051E+02  0.19937836929E+02  0.30000000000E+02  0.47000000000E+01 0. -1.
</event>
<event>
 5    1  0.7959189E-002  0.6000000E+02  0.7546771E-02  0.1259629E+00
         11   -1    0    0    0    0  0.00000000000E+00  0.00000000000E+00  0.30000000000E+02  0.30000000000E+02  0.00000000000E+00 0.  1.
        -11   -1    0    0    0    0 -0.00000000000E+00 -0.00000000000E+00 -0.30000000000E+02  0.30000000000E+02  0.00000000000E+00 0. -1.
         23    2    1    2    0    0  0.00000000000E+00  0.00000000000E+00  0.00000000000E+00  0.60000000000E+02  0.60000000000E+02 0.  0.
          5    1    3    3  501    0  0.63731800207E+01  0.72794922278E+01 -0.28005384649E+02  0.30000000000E+02  0.47000000000E+01 0. -1.
         -5    1    3    3    0  501 -0.63731800207E+01 -0.72794922278E+01  0.28005384649E+02  0.30000000000E+02  0.47000000000E+01 0.  1.
</event>
<event>
 5    1  0.7959189E-002  0.6000000E+02  0.7546771E-02  0.1259629E+00
         11   -1    0    0    0    0  0.00000000000E+00  0.00000000000E+00  0.30000000000E+02  0.30000000000E+02  0.00000000000E+00 0. -1.
        -11   -1    0    0    0    0 -0.00000000000E+00 -0.00000000000E+00 -0.30000000000E+02  0.30000000000E+02  0.00000000000E+00 0.  1.
         23    2    1    2    0    0  0.00000000000E+00  0.00000000000E+00  0.00000000000E+00  0.60000000000E+02  0.60000000000E+02 0.  0.
          5    1    3    3  501    0 -0.12021170323E+02 -0.20949560929E+02 -0.17161508120E+02  0.30000000000E+02  0.47000000000E+01 0.  1.
         -5    1    3    3    0  501  0.12021170323E+02  0.20949560929E+02  0.17161508120E+02  0.30000000000E+02  0.47000000000E+01 0. -1.
</event>
<event>
 5    1  0.7959189E-002  0.6000000E+02  0.7546771E-02  0.1259629E+00
         11   -1    0    0    0    0  0.00000000000E+00  0.00000000000E+00  0.30000000000E+02  0.30000000000E+02  0.00000000000E+00 0.  1.
        -11   -1    0    0    0    0 -0.00000000000E+00 -0.00000000000E+00 -0.30000000000E+02  0.30000000000E+02  0.00000000000E+00 0. -1.
         23    2    1    2    0    0  0.00000000000E+00  0.00000000000E+00  0.00000000000E+00  0.60000000000E+02  0.60000000000E+02 0.  0.
          5    1    3    3  501    0 -0.20580631858E+02 -0.21315094389E+02 -0.11976434170E+00  0.30000000000E+02  0.47000000000E+01 0. -1.
         -5    1    3    3    0  501  0.20580631858E+02  0.21315094389E+02  0.11976434170E+00  0.30000000000E+02  0.47000000000E+01 0.  1.
</event>
<event>
 5    1  0.7959189E-002  0.6000000E+02  0.7546771E-02  0.1259629E+00
         11   -1    0    0    0    0  0.00000000000E+00  0.00000000000E+00  0.30000000000E+02  0.30000000000E+02  0.00000000000E+00 0.  1.
        -11   -1    0    0    0    0 -0.00000000000E+00 -0.00000000000E+00 -0.30000000000E+02  0.30000000000E+02  0.00000000000E+00 0. -1.
         23    2    1    2    0    0  0.00000000000E+00  0.00000000000E+00  0.00000000000E+00  0.60000000000E+02  0.60000000000E+02 0.  0.
          5    1    3    3  501    0  0.21592900178E+01 -0.29155596267E+02  0.48165000727E+01  0.30000000000E+02  0.47000000000E+01 0. -1.
         -5    1    3    3    0  501 -0.21592900178E+01  0.29155596267E+02 -0.48165000727E+01  0.30000000000E+02  0.47000000000E+01 0.  1.
</event>
<event>
 5    1  0.7959189E-002  0.6000000E+02  0.7546771E-02  0.1259629E+00
         11   -1    0    0    0    0  0.00000000000E+00  0.00000000000E+00  0.30000000000E+02  0.30000000000E+02  0.00000000000E+00 0. -1.
        -11   -1    0    0    0    0 -0.00000000000E+00 -0.00000000000E+00 -0.30000000000E+02  0.30000000000E+02  0.00000000000E+00 0.  1.
         23    2    1    2    0    0  0.00000000000E+00  0.00000000000E+00  0.00000000000E+00  0.60000000000E+02  0.60000000000E+02 0.  0.
          5    1    3    3  501    0 -0.21321224660E+02  0.17555792807E+02 -0.10728910380E+02  0.30000000000E+02  0.47000000000E+01 0.  1.
         -5    1    3    3    0  501  0.21321224660E+02 -0.17555792807E+02  0.10728910380E+02  0.30000000000E+02  0.47000000000E+01 0. -1.
</event>
<event>
 5    1  0.7959189E-002  0.6000000E+02  0.7546771E-02  0.1259629E+00
         11   -1    0    0    0    0  0.00000000000E+00  0.00000000000E+00  0.30000000000E+02  0.30000000000E+02  0.00000000000E+00 0.  1.
        -11   -1    0    0    0    0 -0.00000000000E+00 -0.00000000000E+00 -0.30000000000E+02  0.30000000000E+02  0.00000000000E+00 0. -1.
         23    2    1    2    0    0  0.00000000000E+00  0.00000000000E+00  0.00000000000E+00  0.60000000000E+02  0.60000000000E+02 0.  0.
          5    1    3    3  501    0 -0.58180123262E+01 -0.53146567893E+01  0.28562478110E+02  0.30000000000E+02  0.47000000000E+01 0.  1.
         -5    1    3    3    0  501  0.58180123262E+01  0.53146567893E+01 -0.28562478110E+02  0.30000000000E+02  0.47000000000E+01 0. -1.
</event>
<event>
 5    1  0.7959189E-002  0.6000000E+02  0.7546771E-02  0.1259629E+00
         11   -1    0    0    0    0  0.00000000000E+00  0.00000000000E+00  0.30000000000E+02  0.30000000000E+02  0.00000000000E+00 0.  1.
        -11   -1    0    0    0    0 -0.00000000000E+00 -0.00000000000E+00 -0.30000000000E+02  0.30000000000E+02  0.00000000000E+00 0. -1.
         23    2    1    2    0    0  0.00000000000E+00  0.00000000000E+00  0.00000000000E+00  0.60000000000E+02  0.60000000000E+02 0.  0.
          5    1    3    3  501    0  0.23562701455E+02 -0.11425938983E+02 -0.13862071220E+02  0.30000000000E+02  0.47000000000E+01 0. -1.
         -5    1    3    3    0  501 -0.23562701455E+02  0.11425938983E+02  0.13862071220E+02  0.30000000000E+02  0.47000000000E+01 0.  1.
</event>
<event>
 5    1  0.7959189E-002  0.6000000E+02  0.7546771E-02  0.1259629E+00
         11   -1    0    0    0    0  0.00000000000E+00  0.00000000000E+00  0.30000000000E+02  0.30000000000E+02  0.00000000000E+00 0. -1.
        -11   -1    0    0    0    0 -0.00000000000E+00 -0.00000000000E+00 -0.30000000000E+02  0.30000000000E+02  0.00000000000E+00 0.  1.
         23    2    1    2    0    0  0.00000000000E+00  0.00000000000E+00  0.00000000000E+00  0.60000000000E+02  0.60000000000E+02 0.  0.
          5    1    3    3  501    0 -0.86084001252E+01 -0.81067040053E+01  0.27167752897E+02  0.30000000000E+02  0.47000000000E+01 0. -1.
         -5    1    3    3    0  501  0.86084001252E+01  0.81067040053E+01 -0.27167752897E+02  0.30000000000E+02  0.47000000000E+01 0.  1.
</event>
<event>
 5    1  0.7959189E-002  0.6000000E+02  0.7546771E-02  0.1259629E+00
         11   -1    0    0    0    0  0.00000000000E+00  0.00000000000E+00  0.30000000000E+02  0.30000000000E+02  0.00000000000E+00 0. -1.
        -11   -1    0    0    0    0 -0.00000000000E+00 -0.00000000000E+00 -0.30000000000E+02  0.30000000000E+02  0.00000000000E+00 0.  1.
         23    2    1    2    0    0  0.00000000000E+00  0.00000000000E+00  0.00000000000E+00  0.60000000000E+02  0.60000000000E+02 0.  0.
          5    1    3    3  501    0 -0.14255089330E+02 -0.67909199948E+00 -0.25966156093E+02  0.30000000000E+02  0.47000000000E+01 0.  1.
         -5    1    3    3    0  501  0.14255089330E+02  0.67909199948E+00  0.25966156093E+02  0.30000000000E+02  0.47000000000E+01 0. -1.
</event>
<event>
 5    1  0.7959189E-002  0.6000000E+02  0.7546771E-02  0.1259629E+00
         11   -1    0    0    0    0  0.00000000000E+00  0.00000000000E+00  0.30000000000E+02  0.30000000000E+02  0.00000000000E+00 0.  1.
        -11   -1    0    0    0    0 -0.00000000000E+00 -0.00000000000E+00 -0.30000000000E+02  0.30000000000E+02  0.00000000000E+00 0. -1.
         23    2    1    2    0    0  0.00000000000E+00  0.00000000000E+00  0.00000000000E+00  0.60000000000E+02  0.60000000000E+02 0.  0.
          5    1    3    3  501    0  0.27361376635E+02  0.98726556248E+01  0.56387711019E+01  0.30000000000E+02  0.47000000000E+01 0. -1.
         -5    1    3    3    0  501 -0.27361376635E+02 -0.98726556248E+01 -0.56387711019E+01  0.30000000000E+02  0.47000000000E+01 0.  1.
</event>
<event>
 5    1  0.7959189E-002  0.6000000E+02  0.7546771E-02  0.1259629E+00
         11   -1    0    0    0    0  0.00000000000E+00  0.00000000000E+00  0.30000000000E+02  0.30000000000E+02  0.00000000000E+00 0.  1.
        -11   -1    0    0    0    0 -0.00000000000E+00 -0.00000000000E+00 -0.30000000000E+02  0.30000000000E+02  0.00000000000E+00 0. -1.
         23    2    1    2    0    0  0.00000000000E+00  0.00000000000E+00  0.00000000000E+00  0.60000000000E+02  0.60000000000E+02 0.  0.
          5    1    3    3  501    0 -0.22197684819E+02  0.81440526051E+01  0.17856292891E+02  0.30000000000E+02  0.47000000000E+01 0.  1.
         -5    1    3    3    0  501  0.22197684819E+02 -0.81440526051E+01 -0.17856292891E+02  0.30000000000E+02  0.47000000000E+01 0. -1.
</event>
<event>
 5    1  0.7959189E-002  0.6000000E+02  0.7546771E-02  0.1259629E+00
         11   -1    0    0    0    0  0.00000000000E+00  0.00000000000E+00  0.30000000000E+02  0.30000000000E+02  0.00000000000E+00 0.  1.
        -11   -1    0    0    0    0 -0.00000000000E+00 -0.00000000000E+00 -0.30000000000E+02  0.30000000000E+02  0.00000000000E+00 0. -1.
         23    2    1    2    0    0  0.00000000000E+00  0.00000000000E+00  0.00000000000E+00  0.60000000000E+02  0.60000000000E+02 0.  0.
          5    1    3    3  501    0  0.25345217575E+02 -0.14186424261E+02 -0.58545121729E+01  0.30000000000E+02  0.47000000000E+01 0. -1.
         -5    1    3    3    0  501 -0.25345217575E+02  0.14186424261E+02  0.58545121729E+01  0.30000000000E+02  0.47000000000E+01 0.  1.
</event>
<event>
 5    1  0.7959189E-002  0.6000000E+02  0.7546771E-02  0.1259629E+00
         11   -1    0    0    0    0  0.00000000000E+00  0.00000000000E+00  0.30000000000E+02  0.30000000000E+02  0.00000000000E+00 0.  1.
        -11   -1    0    0    0    0 -0.00000000000E+00 -0.00000000000E+00 -0.30000000000E+02  0.30000000000E+02  0.00000000000E+00 0. -1.
         23    2    1    2    0    0  0.00000000000E+00  0.00000000000E+00  0.00000000000E+00  0.60000000000E+02  0.60000000000E+02 0.  0.
          5    1    3    3  501    0  0.15279291006E+02 -0.23081081271E+02  0.10569624106E+02  0.30000000000E+02  0.47000000000E+01 0.  1.
         -5    1    3    3    0  501 -0.15279291006E+02  0.23081081271E+02 -0.10569624106E+02  0.30000000000E+02  0.47000000000E+01 0. -1.
</event>
<event>
 5    1  0.7959189E-002  0.6000000E+02  0.7546771E-02  0.1259629E+00
         11   -1    0    0    0    0  0.00000000000E+00  0.00000000000E+00  0.30000000000E+02  0.30000000000E+02  0.00000000000E+00 0.  1.
        -11   -1    0    0    0    0 -0.00000000000E+00 -0.00000000000E+00 -0.30000000000E+02  0.30000000000E+02  0.00000000000E+00 0. -1.
         23    2    1    2    0    0  0.00000000000E+00  0.00000000000E+00  0.00000000000E+00  0.60000000000E+02  0.60000000000E+02 0.  0.
          5    1    3    3  501    0 -0.71229411537E+01 -0.22108276615E+02 -0.18395592255E+02  0.30000000000E+02  0.47000000000E+01 0. -1.
         -5    1    3    3    0  501  0.71229411537E+01  0.22108276615E+02  0.18395592255E+02  0.30000000000E+02  0.47000000000E+01 0.  1.
</event>
<event>
 5    1  0.7959189E-002  0.6000000E+02  0.7546771E-02  0.1259629E+00
         11   -1    0    0    0    0  0.00000000000E+00  0.00000000000E+00  0.30000000000E+02  0.30000000000E+02  0.00000000000E+00 0. -1.
        -11   -1    0    0    0    0 -0.00000000000E+00 -0.00000000000E+00 -0.30000000000E+02  0.30000000000E+02  0.00000000000E+00 0.  1.
         23    2    1    2    0    0  0.00000000000E+00  0.00000000000E+00  0.00000000000E+00  0.60000000000E+02  0.60000000000E+02 0.  0.
          5    1    3    3  501    0  0.14716937664E+02  0.13929680369E+02 -0.21616793255E+02  0.30000000000E+02  0.47000000000E+01 0.  1.
         -5    1    3    3    0  501 -0.14716937664E+02 -0.13929680369E+02  0.21616793255E+02  0.30000000000E+02  0.47000000000E+01 0. -1.
</event>
<event>
 5    1  0.7959189E-002  0.6000000E+02  0.7546771E-02  0.1259629E+00
         11   -1    0    0    0    0  0.00000000000E+00  0.00000000000E+00  0.30000000000E+02  0.30000000000E+02  0.00000000000E+00 0.  1.
        -11   -1    0    0    0    0 -0.00000000000E+00 -0.00000000000E+00 -0.30000000000E+02  0.30000000000E+02  0.00000000000E+00 0. -1.
         23    2    1    2    0    0  0.00000000000E+00  0.00000000000E+00  0.00000000000E+00  0.60000000000E+02  0.60000000000E+02 0.  0.
          5    1    3    3  501    0 -0.23397699657E+02  0.29547449819E+00 -0.18176092693E+02  0.30000000000E+02  0.47000000000E+01 0. -1.
         -5    1    3    3    0  501  0.23397699657E+02 -0.29547449819E+00  0.18176092693E+02  0.30000000000E+02  0.47000000000E+01 0.  1.
</event>
<event>
 5    1  0.7959189E-002  0.6000000E+02  0.7546771E-02  0.1259629E+00
         11   -1    0    0    0    0  0.00000000000E+00  0.00000000000E+00  0.30000000000E+02  0.30000000000E+02  0.00000000000E+00 0. -1.
        -11   -1    0    0    0    0 -0.00000000000E+00 -0.00000000000E+00 -0.30000000000E+02  0.30000000000E+02  0.00000000000E+00 0.  1.
         23    2    1    2    0    0  0.00000000000E+00  0.00000000000E+00  0.00000000000E+00  0.60000000000E+02  0.60000000000E+02 0.  0.
          5    1    3    3  501    0 -0.33998459889E+00  0.15232764318E+02 -0.25411755187E+02  0.30000000000E+02  0.47000000000E+01 0.  1.
         -5    1    3    3    0  501  0.33998459889E+00 -0.15232764318E+02  0.25411755187E+02  0.30000000000E+02  0.47000000000E+01 0. -1.
</event>
<event>
 5    1  0.7959189E-002  0.6000000E+02  0.7546771E-02  0.1259629E+00
         11   -1    0    0    0    0  0.00000000000E+00  0.00000000000E+00  0.30000000000E+02  0.30000000000E+02  0.00000000000E+00 0.  1.
        -11   -1    0    0    0    0 -0.00000000000E+00 -0.00000000000E+00 -0.30000000000E+02  0.30000000000E+02  0.00000000000E+00 0. -1.
         23    2    1    2    0    0  0.00000000000E+00  0.00000000000E+00  0.00000000000E+00  0.60000000000E+02  0.60000000000E+02 0.  0.
          5    1    3    3  501    0 -0.15049094461E+01  0.29407433513E+02  0.32936456623E+01  0.30000000000E+02  0.47000000000E+01 0. -1.
         -5    1    3    3    0  501  0.15049094461E+01 -0.29407433513E+02 -0.32936456623E+01  0.30000000000E+02  0.47000000000E+01 0.  1.
</event>
<event>
 5    1  0.7959189E-002  0.6000000E+02  0.7546771E-02  0.1259629E+00
         11   -1    0    0    0    0  0.00000000000E+00  0.00000000000E+00  0.30000000000E+02  0.30000000000E+02  0.00000000000E+00 0.  1.
        -11   -1    0    0    0    0 -0.00000000000E+00 -0.00000000000E+00 -0.30000000000E+02  0.30000000000E+02  0.00000000000E+00 0. -1.
         23    2    1    2    0    0  0.00000000000E+00  0.00000000000E+00  0.00000000000E+00  0.60000000000E+02  0.60000000000E+02 0.  0.
          5    1    3    3  501    0  0.22219833549E+01  0.20385897252E+02 -0.21386630945E+02  0.30000000000E+02  0.47000000000E+01 0. -1.
         -5    1    3    3    0  501 -0.22219833549E+01 -0.20385897252E+02  0.21386630945E+02  0.30000000000E+02  0.47000000000E+01 0.  1.
</event>
<event>
 5    1  0.7959189E-002  0.6000000E+02  0.7546771E-02  0.1259629E+00
         11   -1    0    0    0    0  0.00000000000E+00  0.00000000000E+00  0.30000000000E+02  0.30000000000E+02  0.00000000000E+00 0. -1.
        -11   -1    0    0    0    0 -0.00000000000E+00 -0.00000000000E+00 -0.30000000000E+02  0.30000000000E+02  0.00000000000E+00 0.  1.
         23    2    1    2    0    0  0.00000000000E+00  0.00000000000E+00  0.00000000000E+00  0.60000000000E+02  0.60000000000E+02 0.  0.
          5    1    3    3  501    0  0.45773412635E+01  0.11088390029E+02 -0.27092536860E+02  0.30000000000E+02  0.47000000000E+01 0.  1.
         -5    1    3    3    0  501 -0.45773412635E+01 -0.11088390029E+02  0.27092536860E+02  0.30000000000E+02  0.47000000000E+01 0. -1.
</event>
<event>
 5    1  0.7959189E-002  0.6000000E+02  0.7546771E-02  0.1259629E+00
         11   -1    0    0    0    0  0.00000000000E+00  0.00000000000E+00  0.30000000000E+02  0.30000000000E+02  0.00000000000E+00 0.  1.
        -11   -1    0    0    0    0 -0.00000000000E+00 -0.00000000000E+00 -0.30000000000E+02  0.30000000000E+02  0.00000000000E+00 0. -1.
         23    2    1    2    0    0  0.00000000000E+00  0.00000000000E+00  0.00000000000E+00  0.60000000000E+02  0.60000000000E+02 0.  0.
          5    1    3    3  501    0  0.26456784375E+02 -0.33792502813E+01  0.12904620415E+02  0.30000000000E+02  0.47000000000E+01 0. -1.
         -5    1    3    3    0  501 -0.26456784375E+02  0.33792502813E+01 -0.12904620415E+02  0.30000000000E+02  0.47000000000E+01 0.  1.
</event>
<event>
 5    1  0.7959189E-002  0.6000000E+02  0.7546771E-02  0.1259629E+00
         11   -1    0    0    0    0  0.00000000000E+00  0.00000000000E+00  0.30000000000E+02  0.30000000000E+02  0.00000000000E+00 0. -1.
        -11   -1    0    0    0    0 -0.00000000000E+00 -0.00000000000E+00 -0.30000000000E+02  0.30000000000E+02  0.00000000000E+00 0.  1.
         23    2    1    2    0    0  0.00000000000E+00  0.00000000000E+00  0.00000000000E+00  0.60000000000E+02  0.60000000000E+02 0.  0.
          5    1    3    3  501    0  0.15944245433E+02 -0.20697618228E+02  0.13974964661E+02  0.30000000000E+02  0.47000000000E+01 0. -1.
         -5    1    3    3    0  501 -0.15944245433E+02  0.20697618228E+02 -0.13974964661E+02  0.30000000000E+02  0.47000000000E+01 0.  1.
</event>
<event>
 5    1  0.7959189E-002  0.6000000E+02  0.7546771E-02  0.1259629E+00
         11   -1    0    0    0    0  0.00000000000E+00  0.00000000000E+00  0.30000000000E+02  0.30000000000E+02  0.00000000000E+00 0.  1.
        -11   -1    0    0    0    0 -0.00000000000E+00 -0.00000000000E+00 -0.30000000000E+02  0.30000000000E+02  0.00000000000E+00 0. -1.
         23    2    1    2    0    0  0.00000000000E+00  0.00000000000E+00  0.00000000000E+00  0.60000000000E+02  0.60000000000E+02 0.  0.
          5    1    3    3  501    0 -0.17656007790E+01  0.29524107944E+02 -0.17662683908E+01  0.30000000000E+02  0.47000000000E+01 0. -1.
         -5    1    3    3    0  501  0.17656007790E+01 -0.29524107944E+02  0.17662683908E+01  0.30000000000E+02  0.47000000000E+01 0.  1.
</event>
<event>
 5    1  0.7959189E-002  0.6000000E+02  0.7546771E-02  0.1259629E+00
         11   -1    0    0    0    0  0.00000000000E+00  0.00000000000E+00  0.30000000000E+02  0.30000000000E+02  0.00000000000E+00 0.  1.
        -11   -1    0    0    0    0 -0.00000000000E+00 -0.00000000000E+00 -0.30000000000E+02  0.30000000000E+02  0.00000000000E+00 0. -1.
         23    2    1    2    0    0  0.00000000000E+00  0.00000000000E+00  0.00000000000E+00  0.60000000000E+02  0.60000000000E+02 0.  0.
          5    1    3    3  501    0 -0.21428502901E+02 -0.19733982561E+02 -0.54128731481E+01  0.30000000000E+02  0.47000000000E+01 0. -1.
         -5    1    3    3    0  501  0.21428502901E+02  0.19733982561E+02  0.54128731481E+01  0.30000000000E+02  0.47000000000E+01 0.  1.
</event>
<event>
 5    1  0.7959189E-002  0.6000000E+02  0.7546771E-02  0.1259629E+00
         11   -1    0    0    0    0  0.00000000000E+00  0.00000000000E+00  0.30000000000E+02  0.30000000000E+02  0.00000000000E+00 0. -1.
        -11   -1    0    0    0    0 -0.00000000000E+00 -0.00000000000E+00 -0.30000000000E+02  0.30000000000E+02  0.00000000000E+00 0.  1.
         23    2    1    2    0    0  0.00000000000E+00  0.00000000000E+00  0.00000000000E+00  0.60000000000E+02  0.60000000000E+02 0.  0.
          5    1    3    3  501    0  0.82907300618E+01  0.21306599226E+02 -0.18846820009E+02  0.30000000000E+02  0.47000000000E+01 0.  1.
         -5    1    3    3    0  501 -0.82907300618E+01 -0.21306599226E+02  0.18846820009E+02  0.30000000000E+02  0.47000000000E+01 0. -1.
</event>
<event>
 5    1  0.7959189E-002  0.6000000E+02  0.7546771E-02  0.1259629E+00
         11   -1    0    0    0    0  0.00000000000E+00  0.00000000000E+00  0.30000000000E+02  0.30000000000E+02  0.00000000000E+00 0.  1.
        -11   -1    0    0    0    0 -0.00000000000E+00 -0.00000000000E+00 -0.30000000000E+02  0.30000000000E+02  0.00000000000E+00 0. -1.
         23    2    1    2    0    0  0.00000000000E+00  0.00000000000E+00  0.00000000000E+00  0.60000000000E+02  0.60000000000E+02 0.  0.
          5    1    3    3  501    0 -0.73012374678E+01 -0.12041222858E+02 -0.26069347585E+02  0.30000000000E+02  0.47000000000E+01 0. -1.
         -5    1    3    3    0  501  0.73012374678E+01  0.12041222858E+02  0.26069347585E+02  0.30000000000E+02  0.47000000000E+01 0.  1.
</event>
<event>
 5    1  0.7959189E-002  0.6000000E+02  0.7546771E-02  0.1259629E+00
         11   -1    0    0    0    0  0.00000000000E+00  0.00000000000E+00  0.30000000000E+02  0.30000000000E+02  0.00000000000E+00 0. -1.
        -11   -1    0    0    0    0 -0.00000000000E+00 -0.00000000000E+00 -0.30000000000E+02  0.30000000000E+02  0.00000000000E+00 0.  1.
         23    2    1    2    0    0  0.00000000000E+00  0.00000000000E+00  0.00000000000E+00  0.60000000000E+02  0.60000000000E+02 0.  0.
          5    1    3    3  501    0  0.99457524929E-01  0.80763544905E+00 -0.29618369860E+02  0.30000000000E+02  0.47000000000E+01 0.  1.
         -5    1    3    3    0  501 -0.99457524929E-01 -0.80763544905E+00  0.29618369860E+02  0.30000000000E+02  0.47000000000E+01 0. -1.
</event>
<event>
 5    1  0.7959189E-002  0.6000000E+02  0.7546771E-02  0.1259629E+00
         11   -1    0    0    0    0  0.00000000000E+00  0.00000000000E+00  0.30000000000E+02  0.30000000000E+02  0.00000000000E+00 0.  1.
        -11   -1    0    0    0    0 -0.00000000000E+00 -0.00000000000E+00 -0.30000000000E+02  0.30000000000E+02  0.00000000000E+00 0. -1.
         23    2    1    2    0    0  0.00000000000E+00  0.00000000000E+00  0.00000000000E+00  0.60000000000E+02  0.60000000000E+02 0.  0.
          5    1    3    3  501    0  0.10867422531E+02  0.26782364022E+02  0.65202841155E+01  0.30000000000E+02  0.47000000000E+01 0.  1.
         -5    1    3    3    0  501 -0.10867422531E+02 -0.26782364022E+02 -0.65202841155E+01  0.30000000000E+02  0.47000000000E+01 0. -1.
</event>
<event>
 5    1  0.7959189E-002  0.6000000E+02  0.7546771E-02  0.1259629E+00
         11   -1    0    0    0    0  0.00000000000E+00  0.00000000000E+00  0.30000000000E+02  0.30000000000E+02  0.00000000000E+00 0.  1.
        -11   -1    0    0    0    0 -0.00000000000E+00 -0.00000000000E+00 -0.30000000000E+02  0.30000000000E+02  0.00000000000E+00 0. -1.
         23    2    1    2    0    0  0.00000000000E+00  0.00000000000E+00  0.00000000000E+00  0.60000000000E+02  0.60000000000E+02 0.  0.
          5    1    3    3  501    0  0.23396915474E+02  0.92688279583E+01 -0.15639155174E+02  0.30000000000E+02  0.47000000000E+01 0. -1.
         -5    1    3    3    0  501 -0.23396915474E+02 -0.92688279583E+01  0.15639155174E+02  0.30000000000E+02  0.47000000000E+01 0.  1.
</event>
<event>
 5    1  0.7959189E-002  0.6000000E+02  0.7546771E-02  0.1259629E+00
         11   -1    0    0    0    0  0.00000000000E+00  0.00000000000E+00  0.30000000000E+02  0.30000000000E+02  0.00000000000E+00 0.  1.
        -11   -1    0    0    0    0 -0.00000000000E+00 -0.00000000000E+00 -0.30000000000E+02  0.30000000000E+02  0.00000000000E+00 0. -1.
         23    2    1    2    0    0  0.00000000000E+00  0.00000000000E+00  0.00000000000E+00  0.60000000000E+02  0.60000000000E+02 0.  0.
          5    1    3    3  501    0 -0.18167676437E+02 -0.10477950909E+02 -0.20929837018E+02  0.30000000000E+02  0.47000000000E+01 0. -1.
         -5    1    3    3    0  501  0.18167676437E+02  0.10477950909E+02  0.20929837018E+02  0.30000000000E+02  0.47000000000E+01 0.  1.
</event>
<event>
 5    1  0.7959189E-002  0.6000000E+02  0.7546771E-02  0.1259629E+00
         11   -1    0    0    0    0  0.00000000000E+00  0.00000000000E+00  0.30000000000E+02  0.30000000000E+02  0.00000000000E+00 0.  1.
        -11   -1    0    0    0    0 -0.00000000000E+00 -0.00000000000E+00 -0.30000000000E+02  0.30000000000E+02  0.00000000000E+00 0. -1.
         23    2    1    2    0    0  0.00000000000E+00  0.00000000000E+00  0.00000000000E+00  0.60000000000E+02  0.60000000000E+02 0.  0.
          5    1    3    3  501    0  0.10053096822E+02  0.73886949251E+01 -0.26874754540E+02  0.30000000000E+02  0.47000000000E+01 0. -1.
         -5    1    3    3    0  501 -0.10053096822E+02 -0.73886949251E+01  0.26874754540E+02  0.30000000000E+02  0.47000000000E+01 0.  1.
</event>
<event>
 5    1  0.7959189E-002  0.6000000E+02  0.7546771E-02  0.1259629E+00
         11   -1    0    0    0    0  0.00000000000E+00  0.00000000000E+00  0.30000000000E+02  0.30000000000E+02  0.00000000000E+00 0.  1.
        -11   -1    0    0    0    0 -0.00000000000E+00 -0.00000000000E+00 -0.30000000000E+02  0.30000000000E+02  0.00000000000E+00 0. -1.
         23    2    1    2    0    0  0.00000000000E+00  0.00000000000E+00  0.00000000000E+00  0.60000000000E+02  0.60000000000E+02 0.  0.
          5    1    3    3  501    0  0.11462600173E+02  0.24869217677E+02  0.11315511893E+02  0.30000000000E+02  0.47000000000E+01 0.  1.
         -5    1    3    3    0  501 -0.11462600173E+02 -0.24869217677E+02 -0.11315511893E+02  0.30000000000E+02  0.47000000000E+01 0. -1.
</event>
<event>
 5    1  0.7959189E-002  0.6000000E+02  0.7546771E-02  0.1259629E+00
         11   -1    0    0    0    0  0.00000000000E+00  0.00000000000E+00  0.30000000000E+02  0.30000000000E+02  0.00000000000E+00 0.  1.
        -11   -1    0    0    0    0 -0.00000000000E+00 -0.00000000000E+00 -0.30000000000E+02  0.30000000000E+02  0.00000000000E+00 0. -1.
         23    2    1    2    0    0  0.00000000000E+00  0.00000000000E+00  0.00000000000E+00  0.60000000000E+02  0.60000000000E+02 0.  0.
          5    1    3    3  501    0 -0.20439056277E+02 -0.11741324833E+02 -0.17952611779E+02  0.30000000000E+02  0.47000000000E+01 0. -1.
         -5    1    3    3    0  501  0.20439056277E+02  0.11741324833E+02  0.17952611779E+02  0.30000000000E+02  0.47000000000E+01 0.  1.
</event>
<event>
 5    1  0.7959189E-002  0.6000000E+02  0.7546771E-02  0.1259629E+00
         11   -1    0    0    0    0  0.00000000000E+00  0.00000000000E+00  0.30000000000E+02  0.30000000000E+02  0.00000000000E+00 0.  1.
        -11   -1    0    0    0    0 -0.00000000000E+00 -0.00000000000E+00 -0.30000000000E+02  0.30000000000E+02  0.00000000000E+00 0. -1.
         23    2    1    2    0    0  0.00000000000E+00  0.00000000000E+00  0.00000000000E+00  0.60000000000E+02  0.60000000000E+02 0.  0.
          5    1    3    3  501    0  0.12052211062E+02  0.84307675386E+01 -0.25721126865E+02  0.30000000000E+02  0.47000000000E+01 0. -1.
         -5    1    3    3    0  501 -0.12052211062E+02 -0.84307675386E+01  0.25721126865E+02  0.30000000000E+02  0.47000000000E+01 0.  1.
</event>
<event>
 5    1  0.7959189E-002  0.6000000E+02  0.7546771E-02  0.1259629E+00
         11   -1    0    0    0    0  0.00000000000E+00  0.00000000000E+00  0.30000000000E+02  0.30000000000E+02  0.00000000000E+00 0.  1.
        -11   -1    0    0    0    0 -0.00000000000E+00 -0.00000000000E+00 -0.30000000000E+02  0.30000000000E+02  0.00000000000E+00 0. -1.
         23    2    1    2    0    0  0.00000000000E+00  0.00000000000E+00  0.00000000000E+00  0.60000000000E+02  0.60000000000E+02 0.  0.
          5    1    3    3  501    0  0.14121954637E+02  0.24338793277E+02 -0.92791992664E+01  0.30000000000E+02  0.47000000000E+01 0. -1.
         -5    1    3    3    0  501 -0.14121954637E+02 -0.24338793277E+02  0.92791992664E+01  0.30000000000E+02  0.47000000000E+01 0.  1.
</event>
<event>
 5    1  0.7959189E-002  0.6000000E+02  0.7546771E-02  0.1259629E+00
         11   -1    0    0    0    0  0.00000000000E+00  0.00000000000E+00  0.30000000000E+02  0.30000000000E+02  0.00000000000E+00 0.  1.
        -11   -1    0    0    0    0 -0.00000000000E+00 -0.00000000000E+00 -0.30000000000E+02  0.30000000000E+02  0.00000000000E+00 0. -1.
         23    2    1    2    0    0  0.00000000000E+00  0.00000000000E+00  0.00000000000E+00  0.60000000000E+02  0.60000000000E+02 0.  0.
          5    1    3    3  501    0 -0.10274310850E+02  0.25246740693E+02 -0.11616824907E+02  0.30000000000E+02  0.47000000000E+01 0. -1.
         -5    1    3    3    0  501  0.10274310850E+02 -0.25246740693E+02  0.11616824907E+02  0.30000000000E+02  0.47000000000E+01 0.  1.
</event>
<event>
 5    1  0.7959189E-002  0.6000000E+02  0.7546771E-02  0.1259629E+00
         11   -1    0    0    0    0  0.00000000000E+00  0.00000000000E+00  0.30000000000E+02  0.30000000000E+02  0.00000000000E+00 0.  1.
        -11   -1    0    0    0    0 -0.00000000000E+00 -0.00000000000E+00 -0.30000000000E+02  0.30000000000E+02  0.00000000000E+00 0. -1.
         23    2    1    2    0    0  0.00000000000E+00  0.00000000000E+00  0.00000000000E+00  0.60000000000E+02  0.60000000000E+02 0.  0.
          5    1    3    3  501    0  0.21783052510E+02  0.20026690241E+02 -0.15298043475E+01  0.30000000000E+02  0.47000000000E+01 0. -1.
         -5    1    3    3    0  501 -0.21783052510E+02 -0.20026690241E+02  0.15298043475E+01  0.30000000000E+02  0.47000000000E+01 0.  1.
</event>
<event>
 5    1  0.7959189E-002  0.6000000E+02  0.7546771E-02  0.1259629E+00
         11   -1    0    0    0    0  0.00000000000E+00  0.00000000000E+00  0.30000000000E+02  0.30000000000E+02  0.00000000000E+00 0.  1.
        -11   -1    0    0    0    0 -0.00000000000E+00 -0.00000000000E+00 -0.30000000000E+02  0.30000000000E+02  0.00000000000E+00 0. -1.
         23    2    1    2    0    0  0.00000000000E+00  0.00000000000E+00  0.00000000000E+00  0.60000000000E+02  0.60000000000E+02 0.  0.
          5    1    3    3  501    0  0.21596141668E+01 -0.14678406601E+02 -0.25647425724E+02  0.30000000000E+02  0.47000000000E+01 0. -1.
         -5    1    3    3    0  501 -0.21596141668E+01  0.14678406601E+02  0.25647425724E+02  0.30000000000E+02  0.47000000000E+01 0.  1.
</event>
<event>
 5    1  0.7959189E-002  0.6000000E+02  0.7546771E-02  0.1259629E+00
         11   -1    0    0    0    0  0.00000000000E+00  0.00000000000E+00  0.30000000000E+02  0.30000000000E+02  0.00000000000E+00 0.  1.
        -11   -1    0    0    0    0 -0.00000000000E+00 -0.00000000000E+00 -0.30000000000E+02  0.30000000000E+02  0.00000000000E+00 0. -1.
         23    2    1    2    0    0  0.00000000000E+00  0.00000000000E+00  0.00000000000E+00  0.60000000000E+02  0.60000000000E+02 0.  0.
          5    1    3    3  501    0 -0.66535191255E+01 -0.18151754792E+02 -0.22453384627E+02  0.30000000000E+02  0.47000000000E+01 0. -1.
         -5    1    3    3    0  501  0.66535191255E+01  0.18151754792E+02  0.22453384627E+02  0.30000000000E+02  0.47000000000E+01 0.  1.
</event>
<event>
 5    1  0.7959189E-002  0.6000000E+02  0.7546771E-02  0.1259629E+00
         11   -1    0    0    0    0  0.00000000000E+00  0.00000000000E+00  0.30000000000E+02  0.30000000000E+02  0.00000000000E+00 0.  1.
        -11   -1    0    0    0    0 -0.00000000000E+00 -0.00000000000E+00 -0.30000000000E+02  0.30000000000E+02  0.00000000000E+00 0. -1.
         23    2    1    2    0    0  0.00000000000E+00  0.00000000000E+00  0.00000000000E+00  0.60000000000E+02  0.60000000000E+02 0.  0.
          5    1    3    3  501    0 -0.83656487755E+01 -0.17703391643E+02 -0.22237712223E+02  0.30000000000E+02  0.47000000000E+01 0. -1.
         -5    1    3    3    0  501  0.83656487755E+01  0.17703391643E+02  0.22237712223E+02  0.30000000000E+02  0.47000000000E+01 0.  1.
</event>
<event>
 5    1  0.7959189E-002  0.6000000E+02  0.7546771E-02  0.1259629E+00
         11   -1    0    0    0    0  0.00000000000E+00  0.00000000000E+00  0.30000000000E+02  0.30000000000E+02  0.00000000000E+00 0.  1.
        -11   -1    0    0    0    0 -0.00000000000E+00 -0.00000000000E+00 -0.30000000000E+02  0.30000000000E+02  0.00000000000E+00 0. -1.
         23    2    1    2    0    0  0.00000000000E+00  0.00000000000E+00  0.00000000000E+00  0.60000000000E+02  0.60000000000E+02 0.  0.
          5    1    3    3  501    0  0.51627596833E+01  0.26226900882E+02 -0.12783019306E+02  0.30000000000E+02  0.47000000000E+01 0. -1.
         -5    1    3    3    0  501 -0.51627596833E+01 -0.26226900882E+02  0.12783019306E+02  0.30000000000E+02  0.47000000000E+01 0.  1.
</event>
<event>
 5    1  0.7959189E-002  0.6000000E+02  0.7546771E-02  0.1259629E+00
         11   -1    0    0    0    0  0.00000000000E+00  0.00000000000E+00  0.30000000000E+02  0.30000000000E+02  0.00000000000E+00 0. -1.
        -11   -1    0    0    0    0 -0.00000000000E+00 -0.00000000000E+00 -0.30000000000E+02  0.30000000000E+02  0.00000000000E+00 0.  1.
         23    2    1    2    0    0  0.00000000000E+00  0.00000000000E+00  0.00000000000E+00  0.60000000000E+02  0.60000000000E+02 0.  0.
          5    1    3    3  501    0  0.80612755756E+01 -0.28390657483E+02  0.26261004874E+01  0.30000000000E+02  0.47000000000E+01 0.  1.
         -5    1    3    3    0  501 -0.80612755756E+01  0.28390657483E+02 -0.26261004874E+01  0.30000000000E+02  0.47000000000E+01 0. -1.
</event>
<event>
 5    1  0.7959189E-002  0.6000000E+02  0.7546771E-02  0.1259629E+00
         11   -1    0    0    0    0  0.00000000000E+00  0.00000000000E+00  0.30000000000E+02  0.30000000000E+02  0.00000000000E+00 0.  1.
        -11   -1    0    0    0    0 -0.00000000000E+00 -0.00000000000E+00 -0.30000000000E+02  0.30000000000E+02  0.00000000000E+00 0. -1.
         23    2    1    2    0    0  0.00000000000E+00  0.00000000000E+00  0.00000000000E+00  0.60000000000E+02  0.60000000000E+02 0.  0.
          5    1    3    3  501    0 -0.16146151459E+02  0.20627882538E+02 -0.13845658347E+02  0.30000000000E+02  0.47000000000E+01 0. -1.
         -5    1    3    3    0  501  0.16146151459E+02 -0.20627882538E+02  0.13845658347E+02  0.30000000000E+02  0.47000000000E+01 0.  1.
</event>
<event>
 5    1  0.7959189E-002  0.6000000E+02  0.7546771E-02  0.1259629E+00
         11   -1    0    0    0    0  0.00000000000E+00  0.00000000000E+00  0.30000000000E+02  0.30000000000E+02  0.00000000000E+00 0.  1.
        -11   -1    0    0    0    0 -0.00000000000E+00 -0.00000000000E+00 -0.30000000000E+02  0.30000000000E+02  0.00000000000E+00 0. -1.
         23    2    1    2    0    0  0.00000000000E+00  0.00000000000E+00  0.00000000000E+00  0.60000000000E+02  0.60000000000E+02 0.  0.
          5    1    3    3  501    0 -0.16984092264E+01  0.12644294358E+02  0.26742236748E+02  0.30000000000E+02  0.47000000000E+01 0.  1.
         -5    1    3    3    0  501  0.16984092264E+01 -0.12644294358E+02 -0.26742236748E+02  0.30000000000E+02  0.47000000000E+01 0. -1.
</event>
<event>
 5    1  0.7959189E-002  0.6000000E+02  0.7546771E-02  0.1259629E+00
         11   -1    0    0    0    0  0.00000000000E+00  0.00000000000E+00  0.30000000000E+02  0.30000000000E+02  0.00000000000E+00 0.  1.
        -11   -1    0    0    0    0 -0.00000000000E+00 -0.00000000000E+00 -0.30000000000E+02  0.30000000000E+02  0.00000000000E+00 0. -1.
         23    2    1    2    0    0  0.00000000000E+00  0.00000000000E+00  0.00000000000E+00  0.60000000000E+02  0.60000000000E+02 0.  0.
          5    1    3    3  501    0  0.12860862634E+02 -0.26405646849E+02 -0.39051282657E+01  0.30000000000E+02  0.47000000000E+01 0. -1.
         -5    1    3    3    0  501 -0.12860862634E+02  0.26405646849E+02  0.39051282657E+01  0.30000000000E+02  0.47000000000E+01 0.  1.
</event>
<event>
 5    1  0.7959189E-002  0.6000000E+02  0.7546771E-02  0.1259629E+00
         11   -1    0    0    0    0  0.00000000000E+00  0.00000000000E+00  0.30000000000E+02  0.30000000000E+02  0.00000000000E+00 0.  1.
        -11   -1    0    0    0    0 -0.00000000000E+00 -0.00000000000E+00 -0.30000000000E+02  0.30000000000E+02  0.00000000000E+00 0. -1.
         23    2    1    2    0    0  0.00000000000E+00  0.00000000000E+00  0.00000000000E+00  0.60000000000E+02  0.60000000000E+02 0.  0.
          5    1    3    3  501    0 -0.28594360575E+02 -0.99885736085E+00 -0.76990146936E+01  0.30000000000E+02  0.47000000000E+01 0. -1.
         -5    1    3    3    0  501  0.28594360575E+02  0.99885736085E+00  0.76990146936E+01  0.30000000000E+02  0.47000000000E+01 0.  1.
</event>
<event>
 5    1  0.7959189E-002  0.6000000E+02  0.7546771E-02  0.1259629E+00
         11   -1    0    0    0    0  0.00000000000E+00  0.00000000000E+00  0.30000000000E+02  0.30000000000E+02  0.00000000000E+00 0.  1.
        -11   -1    0    0    0    0 -0.00000000000E+00 -0.00000000000E+00 -0.30000000000E+02  0.30000000000E+02  0.00000000000E+00 0. -1.
         23    2    1    2    0    0  0.00000000000E+00  0.00000000000E+00  0.00000000000E+00  0.60000000000E+02  0.60000000000E+02 0.  0.
          5    1    3    3  501    0 -0.17315987296E+02  0.21468915883E+01 -0.23946971426E+02  0.30000000000E+02  0.47000000000E+01 0. -1.
         -5    1    3    3    0  501  0.17315987296E+02 -0.21468915883E+01  0.23946971426E+02  0.30000000000E+02  0.47000000000E+01 0.  1.
</event>
<event>
 5    1  0.7959189E-002  0.6000000E+02  0.7546771E-02  0.1259629E+00
         11   -1    0    0    0    0  0.00000000000E+00  0.00000000000E+00  0.30000000000E+02  0.30000000000E+02  0.00000000000E+00 0. -1.
        -11   -1    0    0    0    0 -0.00000000000E+00 -0.00000000000E+00 -0.30000000000E+02  0.30000000000E+02  0.00000000000E+00 0.  1.
         23    2    1    2    0    0  0.00000000000E+00  0.00000000000E+00  0.00000000000E+00  0.60000000000E+02  0.60000000000E+02 0.  0.
          5    1    3    3  501    0  0.22578774662E+02  0.64516375914E+01 -0.18068904425E+02  0.30000000000E+02  0.47000000000E+01 0.  1.
         -5    1    3    3    0  501 -0.22578774662E+02 -0.64516375914E+01  0.18068904425E+02  0.30000000000E+02  0.47000000000E+01 0. -1.
</event>
<event>
 5    1  0.7959189E-002  0.6000000E+02  0.7546771E-02  0.1259629E+00
         11   -1    0    0    0    0  0.00000000000E+00  0.00000000000E+00  0.30000000000E+02  0.30000000000E+02  0.00000000000E+00 0.  1.
        -11   -1    0    0    0    0 -0.00000000000E+00 -0.00000000000E+00 -0.30000000000E+02  0.30000000000E+02  0.00000000000E+00 0. -1.
         23    2    1    2    0    0  0.00000000000E+00  0.00000000000E+00  0.00000000000E+00  0.60000000000E+02  0.60000000000E+02 0.  0.
          5    1    3    3  501    0  0.25247230744E+02 -0.13977228413E+02 -0.67174716722E+01  0.30000000000E+02  0.47000000000E+01 0. -1.
         -5    1    3    3    0  501 -0.25247230744E+02  0.13977228413E+02  0.67174716722E+01  0.30000000000E+02  0.47000000000E+01 0.  1.
</event>
<event>
 5    1  0.7959189E-002  0.6000000E+02  0.7546771E-02  0.1259629E+00
         11   -1    0    0    0    0  0.00000000000E+00  0.00000000000E+00  0.30000000000E+02  0.30000000000E+02  0.00000000000E+00 0.  1.
        -11   -1    0    0    0    0 -0.00000000000E+00 -0.00000000000E+00 -0.30000000000E+02  0.30000000000E+02  0.00000000000E+00 0. -1.
         23    2    1    2    0    0  0.00000000000E+00  0.00000000000E+00  0.00000000000E+00  0.60000000000E+02  0.60000000000E+02 0.  0.
          5    1    3    3  501    0 -0.18710385631E+02 -0.14297363421E+02 -0.17983794615E+02  0.30000000000E+02  0.47000000000E+01 0. -1.
         -5    1    3    3    0  501  0.18710385631E+02  0.14297363421E+02  0.17983794615E+02  0.30000000000E+02  0.47000000000E+01 0.  1.
</event>
<event>
 5    1  0.7959189E-002  0.6000000E+02  0.7546771E-02  0.1259629E+00
         11   -1    0    0    0    0  0.00000000000E+00  0.00000000000E+00  0.30000000000E+02  0.30000000000E+02  0.00000000000E+00 0.  1.
        -11   -1    0    0    0    0 -0.00000000000E+00 -0.00000000000E+00 -0.30000000000E+02  0.30000000000E+02  0.00000000000E+00 0. -1.
         23    2    1    2    0    0  0.00000000000E+00  0.00000000000E+00  0.00000000000E+00  0.60000000000E+02  0.60000000000E+02 0.  0.
          5    1    3    3  501    0 -0.11256157094E+02  0.13868248470E+02 -0.23640655910E+02  0.30000000000E+02  0.47000000000E+01 0. -1.
         -5    1    3    3    0  501  0.11256157094E+02 -0.13868248470E+02  0.23640655910E+02  0.30000000000E+02  0.47000000000E+01 0.  1.
</event>
<event>
 5    1  0.7959189E-002  0.6000000E+02  0.7546771E-02  0.1259629E+00
         11   -1    0    0    0    0  0.00000000000E+00  0.00000000000E+00  0.30000000000E+02  0.30000000000E+02  0.00000000000E+00 0.  1.
        -11   -1    0    0    0    0 -0.00000000000E+00 -0.00000000000E+00 -0.30000000000E+02  0.30000000000E+02  0.00000000000E+00 0. -1.
         23    2    1    2    0    0  0.00000000000E+00  0.00000000000E+00  0.00000000000E+00  0.60000000000E+02  0.60000000000E+02 0.  0.
          5    1    3    3  501    0  0.18077369051E+02 -0.18022415146E+02 -0.15043645852E+02  0.30000000000E+02  0.47000000000E+01 0. -1.
         -5    1    3    3    0  501 -0.18077369051E+02  0.18022415146E+02  0.15043645852E+02  0.30000000000E+02  0.47000000000E+01 0.  1.
</event>
<event>
 5    1  0.7959189E-002  0.6000000E+02  0.7546771E-02  0.1259629E+00
         11   -1    0    0    0    0  0.00000000000E+00  0.00000000000E+00  0.30000000000E+02  0.30000000000E+02  0.00000000000E+00 0.  1.
        -11   -1    0    0    0    0 -0.00000000000E+00 -0.00000000000E+00 -0.30000000000E+02  0.30000000000E+02  0.00000000000E+00 0. -1.
         23    2    1    2    0    0  0.00000000000E+00  0.00000000000E+00  0.00000000000E+00  0.60000000000E+02  0.60000000000E+02 0.  0.
          5    1    3    3  501    0  0.13722215900E+02  0.78606656003E+01 -0.25056351034E+02  0.30000000000E+02  0.47000000000E+01 0. -1.
         -5    1    3    3    0  501 -0.13722215900E+02 -0.78606656003E+01  0.25056351034E+02  0.30000000000E+02  0.47000000000E+01 0.  1.
</event>
<event>
 5    1  0.7959189E-002  0.6000000E+02  0.7546771E-02  0.1259629E+00
         11   -1    0    0    0    0  0.00000000000E+00  0.00000000000E+00  0.30000000000E+02  0.30000000000E+02  0.00000000000E+00 0. -1.
        -11   -1    0    0    0    0 -0.00000000000E+00 -0.00000000000E+00 -0.30000000000E+02  0.30000000000E+02  0.00000000000E+00 0.  1.
         23    2    1    2    0    0  0.00000000000E+00  0.00000000000E+00  0.00000000000E+00  0.60000000000E+02  0.60000000000E+02 0.  0.
          5    1    3    3  501    0  0.23192339292E+02  0.20471146307E+01 -0.18325793840E+02  0.30000000000E+02  0.47000000000E+01 0.  1.
         -5    1    3    3    0  501 -0.23192339292E+02 -0.20471146307E+01  0.18325793840E+02  0.30000000000E+02  0.47000000000E+01 0. -1.
</event>
<event>
 5    1  0.7959189E-002  0.6000000E+02  0.7546771E-02  0.1259629E+00
         11   -1    0    0    0    0  0.00000000000E+00  0.00000000000E+00  0.30000000000E+02  0.30000000000E+02  0.00000000000E+00 0.  1.
        -11   -1    0    0    0    0 -0.00000000000E+00 -0.00000000000E+00 -0.30000000000E+02  0.30000000000E+02  0.00000000000E+00 0. -1.
         23    2    1    2    0    0  0.00000000000E+00  0.00000000000E+00  0.00000000000E+00  0.60000000000E+02  0.60000000000E+02 0.  0.
          5    1    3    3  501    0  0.26950502085E+02 -0.42152647779E+01  0.11567712834E+02  0.30000000000E+02  0.47000000000E+01 0.  1.
         -5    1    3    3    0  501 -0.26950502085E+02  0.42152647779E+01 -0.11567712834E+02  0.30000000000E+02  0.47000000000E+01 0. -1.
</event>
<event>
 5    1  0.7959189E-002  0.6000000E+02  0.7546771E-02  0.1259629E+00
         11   -1    0    0    0    0  0.00000000000E+00  0.00000000000E+00  0.30000000000E+02  0.30000000000E+02  0.00000000000E+00 0.  1.
        -11   -1    0    0    0    0 -0.00000000000E+00 -0.00000000000E+00 -0.30000000000E+02  0.30000000000E+02  0.00000000000E+00 0. -1.
         23    2    1    2    0    0  0.00000000000E+00  0.00000000000E+00  0.00000000000E+00  0.60000000000E+02  0.60000000000E+02 0.  0.
          5    1    3    3  501    0 -0.10494142292E+01 -0.29253895978E+02  0.45845719437E+01  0.30000000000E+02  0.47000000000E+01 0. -1.
         -5    1    3    3    0  501  0.10494142292E+01  0.29253895978E+02 -0.45845719437E+01  0.30000000000E+02  0.47000000000E+01 0.  1.
</event>
<event>
 5    1  0.7959189E-002  0.6000000E+02  0.7546771E-02  0.1259629E+00
         11   -1    0    0    0    0  0.00000000000E+00  0.00000000000E+00  0.30000000000E+02  0.30000000000E+02  0.00000000000E+00 0.  1.
        -11   -1    0    0    0    0 -0.00000000000E+00 -0.00000000000E+00 -0.30000000000E+02  0.30000000000E+02  0.00000000000E+00 0. -1.
         23    2    1    2    0    0  0.00000000000E+00  0.00000000000E+00  0.00000000000E+00  0.60000000000E+02  0.60000000000E+02 0.  0.
          5    1    3    3  501    0  0.67123885523E+01 -0.11337387468E+02 -0.26538980487E+02  0.30000000000E+02  0.47000000000E+01 0. -1.
         -5    1    3    3    0  501 -0.67123885523E+01  0.11337387468E+02  0.26538980487E+02  0.30000000000E+02  0.47000000000E+01 0.  1.
</event>
<event>
 5    1  0.7959189E-002  0.6000000E+02  0.7546771E-02  0.1259629E+00
         11   -1    0    0    0    0  0.00000000000E+00  0.00000000000E+00  0.30000000000E+02  0.30000000000E+02  0.00000000000E+00 0. -1.
        -11   -1    0    0    0    0 -0.00000000000E+00 -0.00000000000E+00 -0.30000000000E+02  0.30000000000E+02  0.00000000000E+00 0.  1.
         23    2    1    2    0    0  0.00000000000E+00  0.00000000000E+00  0.00000000000E+00  0.60000000000E+02  0.60000000000E+02 0.  0.
          5    1    3    3  501    0 -0.18816042264E+02 -0.16084540903E+01  0.22831544603E+02  0.30000000000E+02  0.47000000000E+01 0. -1.
         -5    1    3    3    0  501  0.18816042264E+02  0.16084540903E+01 -0.22831544603E+02  0.30000000000E+02  0.47000000000E+01 0.  1.
</event>
<event>
 5    1  0.7959189E-002  0.6000000E+02  0.7546771E-02  0.1259629E+00
         11   -1    0    0    0    0  0.00000000000E+00  0.00000000000E+00  0.30000000000E+02  0.30000000000E+02  0.00000000000E+00 0.  1.
        -11   -1    0    0    0    0 -0.00000000000E+00 -0.00000000000E+00 -0.30000000000E+02  0.30000000000E+02  0.00000000000E+00 0. -1.
         23    2    1    2    0    0  0.00000000000E+00  0.00000000000E+00  0.00000000000E+00  0.60000000000E+02  0.60000000000E+02 0.  0.
          5    1    3    3  501    0 -0.25598940752E+01  0.24069151736E+02 -0.17088969455E+02  0.30000000000E+02  0.47000000000E+01 0. -1.
         -5    1    3    3    0  501  0.25598940752E+01 -0.24069151736E+02  0.17088969455E+02  0.30000000000E+02  0.47000000000E+01 0.  1.
</event>
<event>
 5    1  0.7959189E-002  0.6000000E+02  0.7546771E-02  0.1259629E+00
         11   -1    0    0    0    0  0.00000000000E+00  0.00000000000E+00  0.30000000000E+02  0.30000000000E+02  0.00000000000E+00 0.  1.
        -11   -1    0    0    0    0 -0.00000000000E+00 -0.00000000000E+00 -0.30000000000E+02  0.30000000000E+02  0.00000000000E+00 0. -1.
         23    2    1    2    0    0  0.00000000000E+00  0.00000000000E+00  0.00000000000E+00  0.60000000000E+02  0.60000000000E+02 0.  0.
          5    1    3    3  501    0 -0.17199155388E+02 -0.16949175594E+02 -0.17170454293E+02  0.30000000000E+02  0.47000000000E+01 0. -1.
         -5    1    3    3    0  501  0.17199155388E+02  0.16949175594E+02  0.17170454293E+02  0.30000000000E+02  0.47000000000E+01 0.  1.
</event>
<event>
 5    1  0.7959189E-002  0.6000000E+02  0.7546771E-02  0.1259629E+00
         11   -1    0    0    0    0  0.00000000000E+00  0.00000000000E+00  0.30000000000E+02  0.30000000000E+02  0.00000000000E+00 0.  1.
        -11   -1    0    0    0    0 -0.00000000000E+00 -0.00000000000E+00 -0.30000000000E+02  0.30000000000E+02  0.00000000000E+00 0. -1.
         23    2    1    2    0    0  0.00000000000E+00  0.00000000000E+00  0.00000000000E+00  0.60000000000E+02  0.60000000000E+02 0.  0.
          5    1    3    3  501    0  0.49149283650E+01  0.45665200618E+01 -0.28860013404E+02  0.30000000000E+02  0.47000000000E+01 0. -1.
         -5    1    3    3    0  501 -0.49149283650E+01 -0.45665200618E+01  0.28860013404E+02  0.30000000000E+02  0.47000000000E+01 0.  1.
</event>
<event>
 5    1  0.7959189E-002  0.6000000E+02  0.7546771E-02  0.1259629E+00
         11   -1    0    0    0    0  0.00000000000E+00  0.00000000000E+00  0.30000000000E+02  0.30000000000E+02  0.00000000000E+00 0.  1.
        -11   -1    0    0    0    0 -0.00000000000E+00 -0.00000000000E+00 -0.30000000000E+02  0.30000000000E+02  0.00000000000E+00 0. -1.
         23    2    1    2    0    0  0.00000000000E+00  0.00000000000E+00  0.00000000000E+00  0.60000000000E+02  0.60000000000E+02 0.  0.
          5    1    3    3  501    0 -0.22376254280E+02  0.79635998200E+01 -0.17714240664E+02  0.30000000000E+02  0.47000000000E+01 0. -1.
         -5    1    3    3    0  501  0.22376254280E+02 -0.79635998200E+01  0.17714240664E+02  0.30000000000E+02  0.47000000000E+01 0.  1.
</event>
<event>
 5    1  0.7959189E-002  0.6000000E+02  0.7546771E-02  0.1259629E+00
         11   -1    0    0    0    0  0.00000000000E+00  0.00000000000E+00  0.30000000000E+02  0.30000000000E+02  0.00000000000E+00 0. -1.
        -11   -1    0    0    0    0 -0.00000000000E+00 -0.00000000000E+00 -0.30000000000E+02  0.30000000000E+02  0.00000000000E+00 0.  1.
         23    2    1    2    0    0  0.00000000000E+00  0.00000000000E+00  0.00000000000E+00  0.60000000000E+02  0.60000000000E+02 0.  0.
          5    1    3    3  501    0 -0.11293023575E+02 -0.24315882613E+02  0.12614098116E+02  0.30000000000E+02  0.47000000000E+01 0. -1.
         -5    1    3    3    0  501  0.11293023575E+02  0.24315882613E+02 -0.12614098116E+02  0.30000000000E+02  0.47000000000E+01 0.  1.
</event>
<event>
 5    1  0.7959189E-002  0.6000000E+02  0.7546771E-02  0.1259629E+00
         11   -1    0    0    0    0  0.00000000000E+00  0.00000000000E+00  0.30000000000E+02  0.30000000000E+02  0.00000000000E+00 0.  1.
        -11   -1    0    0    0    0 -0.00000000000E+00 -0.00000000000E+00 -0.30000000000E+02  0.30000000000E+02  0.00000000000E+00 0. -1.
         23    2    1    2    0    0  0.00000000000E+00  0.00000000000E+00  0.00000000000E+00  0.60000000000E+02  0.60000000000E+02 0.  0.
          5    1    3    3  501    0 -0.47278777556E+01  0.63100777070E+01  0.28561164039E+02  0.30000000000E+02  0.47000000000E+01 0.  1.
         -5    1    3    3    0  501  0.47278777556E+01 -0.63100777070E+01 -0.28561164039E+02  0.30000000000E+02  0.47000000000E+01 0. -1.
</event>
<event>
 5    1  0.7959189E-002  0.6000000E+02  0.7546771E-02  0.1259629E+00
         11   -1    0    0    0    0  0.00000000000E+00  0.00000000000E+00  0.30000000000E+02  0.30000000000E+02  0.00000000000E+00 0. -1.
        -11   -1    0    0    0    0 -0.00000000000E+00 -0.00000000000E+00 -0.30000000000E+02  0.30000000000E+02  0.00000000000E+00 0.  1.
         23    2    1    2    0    0  0.00000000000E+00  0.00000000000E+00  0.00000000000E+00  0.60000000000E+02  0.60000000000E+02 0.  0.
          5    1    3    3  501    0  0.13682312150E+02  0.70506095608E+01 -0.25317844281E+02  0.30000000000E+02  0.47000000000E+01 0.  1.
         -5    1    3    3    0  501 -0.13682312150E+02 -0.70506095608E+01  0.25317844281E+02  0.30000000000E+02  0.47000000000E+01 0. -1.
</event>
<event>
 5    1  0.7959189E-002  0.6000000E+02  0.7546771E-02  0.1259629E+00
         11   -1    0    0    0    0  0.00000000000E+00  0.00000000000E+00  0.30000000000E+02  0.30000000000E+02  0.00000000000E+00 0.  1.
        -11   -1    0    0    0    0 -0.00000000000E+00 -0.00000000000E+00 -0.30000000000E+02  0.30000000000E+02  0.00000000000E+00 0. -1.
         23    2    1    2    0    0  0.00000000000E+00  0.00000000000E+00  0.00000000000E+00  0.60000000000E+02  0.60000000000E+02 0.  0.
          5    1    3    3  501    0 -0.73491652351E+01  0.13162389291E+02 -0.25507866992E+02  0.30000000000E+02  0.47000000000E+01 0. -1.
         -5    1    3    3    0  501  0.73491652351E+01 -0.13162389291E+02  0.25507866992E+02  0.30000000000E+02  0.47000000000E+01 0.  1.
</event>
<event>
 5    1  0.7959189E-002  0.6000000E+02  0.7546771E-02  0.1259629E+00
         11   -1    0    0    0    0  0.00000000000E+00  0.00000000000E+00  0.30000000000E+02  0.30000000000E+02  0.00000000000E+00 0.  1.
        -11   -1    0    0    0    0 -0.00000000000E+00 -0.00000000000E+00 -0.30000000000E+02  0.30000000000E+02  0.00000000000E+00 0. -1.
         23    2    1    2    0    0  0.00000000000E+00  0.00000000000E+00  0.00000000000E+00  0.60000000000E+02  0.60000000000E+02 0.  0.
          5    1    3    3  501    0  0.13660733226E+01  0.24852632024E+02 -0.16074530324E+02  0.30000000000E+02  0.47000000000E+01 0. -1.
         -5    1    3    3    0  501 -0.13660733226E+01 -0.24852632024E+02  0.16074530324E+02  0.30000000000E+02  0.47000000000E+01 0.  1.
</event>
<event>
 5    1  0.7959189E-002  0.6000000E+02  0.7546771E-02  0.1259629E+00
         11   -1    0    0    0    0  0.00000000000E+00  0.00000000000E+00  0.30000000000E+02  0.30000000000E+02  0.00000000000E+00 0. -1.
        -11   -1    0    0    0    0 -0.00000000000E+00 -0.00000000000E+00 -0.30000000000E+02  0.30000000000E+02  0.00000000000E+00 0.  1.
         23    2    1    2    0    0  0.00000000000E+00  0.00000000000E+00  0.00000000000E+00  0.60000000000E+02  0.60000000000E+02 0.  0.
          5    1    3    3  501    0 -0.10765194344E+02  0.27099259878E+02  0.52583937460E+01  0.30000000000E+02  0.47000000000E+01 0.  1.
         -5    1    3    3    0  501  0.10765194344E+02 -0.27099259878E+02 -0.52583937460E+01  0.30000000000E+02  0.47000000000E+01 0. -1.
</event>
<event>
 5    1  0.7959189E-002  0.6000000E+02  0.7546771E-02  0.1259629E+00
         11   -1    0    0    0    0  0.00000000000E+00  0.00000000000E+00  0.30000000000E+02  0.30000000000E+02  0.00000000000E+00 0.  1.
        -11   -1    0    0    0    0 -0.00000000000E+00 -0.00000000000E+00 -0.30000000000E+02  0.30000000000E+02  0.00000000000E+00 0. -1.
         23    2    1    2    0    0  0.00000000000E+00  0.00000000000E+00  0.00000000000E+00  0.60000000000E+02  0.60000000000E+02 0.  0.
          5    1    3    3  501    0 -0.28873961191E+02  0.64527402440E+01  0.16020326034E+01  0.30000000000E+02  0.47000000000E+01 0. -1.
         -5    1    3    3    0  501  0.28873961191E+02 -0.64527402440E+01 -0.16020326034E+01  0.30000000000E+02  0.47000000000E+01 0.  1.
</event>
<event>
 5    1  0.7959189E-002  0.6000000E+02  0.7546771E-02  0.1259629E+00
         11   -1    0    0    0    0  0.00000000000E+00  0.00000000000E+00  0.30000000000E+02  0.30000000000E+02  0.00000000000E+00 0.  1.
        -11   -1    0    0    0    0 -0.00000000000E+00 -0.00000000000E+00 -0.30000000000E+02  0.30000000000E+02  0.00000000000E+00 0. -1.
         23    2    1    2    0    0  0.00000000000E+00  0.00000000000E+00  0.00000000000E+00  0.60000000000E+02  0.60000000000E+02 0.  0.
          5    1    3    3  501    0  0.17048417979E+02 -0.11673939708E+01 -0.24205343123E+02  0.30000000000E+02  0.47000000000E+01 0. -1.
         -5    1    3    3    0  501 -0.17048417979E+02  0.11673939708E+01  0.24205343123E+02  0.30000000000E+02  0.47000000000E+01 0.  1.
</event>
<event>
 5    1  0.7959189E-002  0.6000000E+02  0.7546771E-02  0.1259629E+00
         11   -1    0    0    0    0  0.00000000000E+00  0.00000000000E+00  0.30000000000E+02  0.30000000000E+02  0.00000000000E+00 0. -1.
        -11   -1    0    0    0    0 -0.00000000000E+00 -0.00000000000E+00 -0.30000000000E+02  0.30000000000E+02  0.00000000000E+00 0.  1.
         23    2    1    2    0    0  0.00000000000E+00  0.00000000000E+00  0.00000000000E+00  0.60000000000E+02  0.60000000000E+02 0.  0.
          5    1    3    3  501    0  0.24421724196E+02 -0.15687084344E+02 -0.59501909282E+01  0.30000000000E+02  0.47000000000E+01 0.  1.
         -5    1    3    3    0  501 -0.24421724196E+02  0.15687084344E+02  0.59501909282E+01  0.30000000000E+02  0.47000000000E+01 0. -1.
</event>
<event>
 5    1  0.7959189E-002  0.6000000E+02  0.7546771E-02  0.1259629E+00
         11   -1    0    0    0    0  0.00000000000E+00  0.00000000000E+00  0.30000000000E+02  0.30000000000E+02  0.00000000000E+00 0. -1.
        -11   -1    0    0    0    0 -0.00000000000E+00 -0.00000000000E+00 -0.30000000000E+02  0.30000000000E+02  0.00000000000E+00 0.  1.
         23    2    1    2    0    0  0.00000000000E+00  0.00000000000E+00  0.00000000000E+00  0.60000000000E+02  0.60000000000E+02 0.  0.
          5    1    3    3  501    0 -0.85008861675E+01 -0.45533890155E+00 -0.28380232572E+02  0.30000000000E+02  0.47000000000E+01 0.  1.
         -5    1    3    3    0  501  0.85008861675E+01  0.45533890155E+00  0.28380232572E+02  0.30000000000E+02  0.47000000000E+01 0. -1.
</event>
<event>
 5    1  0.7959189E-002  0.6000000E+02  0.7546771E-02  0.1259629E+00
         11   -1    0    0    0    0  0.00000000000E+00  0.00000000000E+00  0.30000000000E+02  0.30000000000E+02  0.00000000000E+00 0. -1.
        -11   -1    0    0    0    0 -0.00000000000E+00 -0.00000000000E+00 -0.30000000000E+02  0.30000000000E+02  0.00000000000E+00 0.  1.
         23    2    1    2    0    0  0.00000000000E+00  0.00000000000E+00  0.00000000000E+00  0.60000000000E+02  0.60000000000E+02 0.  0.
          5    1    3    3  501    0  0.12113465343E+02 -0.22792350032E+02 -0.14549320857E+02  0.30000000000E+02  0.47000000000E+01 0.  1.
         -5    1    3    3    0  501 -0.12113465343E+02  0.22792350032E+02  0.14549320857E+02  0.30000000000E+02  0.47000000000E+01 0. -1.
</event>
<event>
 5    1  0.7959189E-002  0.6000000E+02  0.7546771E-02  0.1259629E+00
         11   -1    0    0    0    0  0.00000000000E+00  0.00000000000E+00  0.30000000000E+02  0.30000000000E+02  0.00000000000E+00 0. -1.
        -11   -1    0    0    0    0 -0.00000000000E+00 -0.00000000000E+00 -0.30000000000E+02  0.30000000000E+02  0.00000000000E+00 0.  1.
         23    2    1    2    0    0  0.00000000000E+00  0.00000000000E+00  0.00000000000E+00  0.60000000000E+02  0.60000000000E+02 0.  0.
          5    1    3    3  501    0  0.27573779056E+02 -0.10333971457E+02 -0.32872089169E+01  0.30000000000E+02  0.47000000000E+01 0.  1.
         -5    1    3    3    0  501 -0.27573779056E+02  0.10333971457E+02  0.32872089169E+01  0.30000000000E+02  0.47000000000E+01 0. -1.
</event>
<event>
 5    1  0.7959189E-002  0.6000000E+02  0.7546771E-02  0.1259629E+00
         11   -1    0    0    0    0  0.00000000000E+00  0.00000000000E+00  0.30000000000E+02  0.30000000000E+02  0.00000000000E+00 0.  1.
        -11   -1    0    0    0    0 -0.00000000000E+00 -0.00000000000E+00 -0.30000000000E+02  0.30000000000E+02  0.00000000000E+00 0. -1.
         23    2    1    2    0    0  0.00000000000E+00  0.00000000000E+00  0.00000000000E+00  0.60000000000E+02  0.60000000000E+02 0.  0.
          5    1    3    3  501    0 -0.14077538162E+02  0.19370618055E+02 -0.17450274366E+02  0.30000000000E+02  0.47000000000E+01 0. -1.
         -5    1    3    3    0  501  0.14077538162E+02 -0.19370618055E+02  0.17450274366E+02  0.30000000000E+02  0.47000000000E+01 0.  1.
</event>
<event>
 5    1  0.7959189E-002  0.6000000E+02  0.7546771E-02  0.1259629E+00
         11   -1    0    0    0    0  0.00000000000E+00  0.00000000000E+00  0.30000000000E+02  0.30000000000E+02  0.00000000000E+00 0.  1.
        -11   -1    0    0    0    0 -0.00000000000E+00 -0.00000000000E+00 -0.30000000000E+02  0.30000000000E+02  0.00000000000E+00 0. -1.
         23    2    1    2    0    0  0.00000000000E+00  0.00000000000E+00  0.00000000000E+00  0.60000000000E+02  0.60000000000E+02 0.  0.
          5    1    3    3  501    0 -0.15170621426E+02 -0.10524840021E+02 -0.23173044428E+02  0.30000000000E+02  0.47000000000E+01 0. -1.
         -5    1    3    3    0  501  0.15170621426E+02  0.10524840021E+02  0.23173044428E+02  0.30000000000E+02  0.47000000000E+01 0.  1.
</event>
<event>
 5    1  0.7959189E-002  0.6000000E+02  0.7546771E-02  0.1259629E+00
         11   -1    0    0    0    0  0.00000000000E+00  0.00000000000E+00  0.30000000000E+02  0.30000000000E+02  0.00000000000E+00 0.  1.
        -11   -1    0    0    0    0 -0.00000000000E+00 -0.00000000000E+00 -0.30000000000E+02  0.30000000000E+02  0.00000000000E+00 0. -1.
         23    2    1    2    0    0  0.00000000000E+00  0.00000000000E+00  0.00000000000E+00  0.60000000000E+02  0.60000000000E+02 0.  0.
          5    1    3    3  501    0  0.62579331516E+01 -0.18192357226E+02 -0.22534116606E+02  0.30000000000E+02  0.47000000000E+01 0. -1.
         -5    1    3    3    0  501 -0.62579331516E+01  0.18192357226E+02  0.22534116606E+02  0.30000000000E+02  0.47000000000E+01 0.  1.
</event>
<event>
 5    1  0.7959189E-002  0.6000000E+02  0.7546771E-02  0.1259629E+00
         11   -1    0    0    0    0  0.00000000000E+00  0.00000000000E+00  0.30000000000E+02  0.30000000000E+02  0.00000000000E+00 0. -1.
        -11   -1    0    0    0    0 -0.00000000000E+00 -0.00000000000E+00 -0.30000000000E+02  0.30000000000E+02  0.00000000000E+00 0.  1.
         23    2    1    2    0    0  0.00000000000E+00  0.00000000000E+00  0.00000000000E+00  0.60000000000E+02  0.60000000000E+02 0.  0.
          5    1    3    3  501    0  0.40733285545E+00  0.15405737699E+02 -0.25306270486E+02  0.30000000000E+02  0.47000000000E+01 0.  1.
         -5    1    3    3    0  501 -0.40733285545E+00 -0.15405737699E+02  0.25306270486E+02  0.30000000000E+02  0.47000000000E+01 0. -1.
</event>
<event>
 5    1  0.7959189E-002  0.6000000E+02  0.7546771E-02  0.1259629E+00
         11   -1    0    0    0    0  0.00000000000E+00  0.00000000000E+00  0.30000000000E+02  0.30000000000E+02  0.00000000000E+00 0.  1.
        -11   -1    0    0    0    0 -0.00000000000E+00 -0.00000000000E+00 -0.30000000000E+02  0.30000000000E+02  0.00000000000E+00 0. -1.
         23    2    1    2    0    0  0.00000000000E+00  0.00000000000E+00  0.00000000000E+00  0.60000000000E+02  0.60000000000E+02 0.  0.
          5    1    3    3  501    0  0.18692248715E+02  0.18679167351E+02 -0.13401438171E+02  0.30000000000E+02  0.47000000000E+01 0. -1.
         -5    1    3    3    0  501 -0.18692248715E+02 -0.18679167351E+02  0.13401438171E+02  0.30000000000E+02  0.47000000000E+01 0.  1.
</event>
<event>
 5    1  0.7959189E-002  0.6000000E+02  0.7546771E-02  0.1259629E+00
         11   -1    0    0    0    0  0.00000000000E+00  0.00000000000E+00  0.30000000000E+02  0.30000000000E+02  0.00000000000E+00 0.  1.
        -11   -1    0    0    0    0 -0.00000000000E+00 -0.00000000000E+00 -0.30000000000E+02  0.30000000000E+02  0.00000000000E+00 0. -1.
         23    2    1    2    0    0  0.00000000000E+00  0.00000000000E+00  0.00000000000E+00  0.60000000000E+02  0.60000000000E+02 0.  0.
          5    1    3    3  501    0  0.27006046611E+02 -0.69952538209E+01 -0.99824781696E+01  0.30000000000E+02  0.47000000000E+01 0. -1.
         -5    1    3    3    0  501 -0.27006046611E+02  0.69952538209E+01  0.99824781696E+01  0.30000000000E+02  0.47000000000E+01 0.  1.
</event>
<event>
 5    1  0.7959189E-002  0.6000000E+02  0.7546771E-02  0.1259629E+00
         11   -1    0    0    0    0  0.00000000000E+00  0.00000000000E+00  0.30000000000E+02  0.30000000000E+02  0.00000000000E+00 0.  1.
        -11   -1    0    0    0    0 -0.00000000000E+00 -0.00000000000E+00 -0.30000000000E+02  0.30000000000E+02  0.00000000000E+00 0. -1.
         23    2    1    2    0    0  0.00000000000E+00  0.00000000000E+00  0.00000000000E+00  0.60000000000E+02  0.60000000000E+02 0.  0.
          5    1    3    3  501    0 -0.58106934081E+01  0.12263132497E+02 -0.26339351235E+02  0.30000000000E+02  0.47000000000E+01 0. -1.
         -5    1    3    3    0  501  0.58106934081E+01 -0.12263132497E+02  0.26339351235E+02  0.30000000000E+02  0.47000000000E+01 0.  1.
</event>
<event>
 5    1  0.7959189E-002  0.6000000E+02  0.7546771E-02  0.1259629E+00
         11   -1    0    0    0    0  0.00000000000E+00  0.00000000000E+00  0.30000000000E+02  0.30000000000E+02  0.00000000000E+00 0.  1.
        -11   -1    0    0    0    0 -0.00000000000E+00 -0.00000000000E+00 -0.30000000000E+02  0.30000000000E+02  0.00000000000E+00 0. -1.
         23    2    1    2    0    0  0.00000000000E+00  0.00000000000E+00  0.00000000000E+00  0.60000000000E+02  0.60000000000E+02 0.  0.
          5    1    3    3  501    0  0.10711218127E+02  0.13735167949E+02 -0.23969250461E+02  0.30000000000E+02  0.47000000000E+01 0. -1.
         -5    1    3    3    0  501 -0.10711218127E+02 -0.13735167949E+02  0.23969250461E+02  0.30000000000E+02  0.47000000000E+01 0.  1.
</event>
<event>
 5    1  0.7959189E-002  0.6000000E+02  0.7546771E-02  0.1259629E+00
         11   -1    0    0    0    0  0.00000000000E+00  0.00000000000E+00  0.30000000000E+02  0.30000000000E+02  0.00000000000E+00 0.  1.
        -11   -1    0    0    0    0 -0.00000000000E+00 -0.00000000000E+00 -0.30000000000E+02  0.30000000000E+02  0.00000000000E+00 0. -1.
         23    2    1    2    0    0  0.00000000000E+00  0.00000000000E+00  0.00000000000E+00  0.60000000000E+02  0.60000000000E+02 0.  0.
          5    1    3    3  501    0  0.27661019850E+02 -0.10617315502E+02 -0.22492747765E+00  0.30000000000E+02  0.47000000000E+01 0. -1.
         -5    1    3    3    0  501 -0.27661019850E+02  0.10617315502E+02  0.22492747765E+00  0.30000000000E+02  0.47000000000E+01 0.  1.
</event>
<event>
 5    1  0.7959189E-002  0.6000000E+02  0.7546771E-02  0.1259629E+00
         11   -1    0    0    0    0  0.00000000000E+00  0.00000000000E+00  0.30000000000E+02  0.30000000000E+02  0.00000000000E+00 0.  1.
        -11   -1    0    0    0    0 -0.00000000000E+00 -0.00000000000E+00 -0.30000000000E+02  0.30000000000E+02  0.00000000000E+00 0. -1.
         23    2    1    2    0    0  0.00000000000E+00  0.00000000000E+00  0.00000000000E+00  0.60000000000E+02  0.60000000000E+02 0.  0.
          5    1    3    3  501    0 -0.10278540523E+01  0.16133834052E+02 -0.24830483580E+02  0.30000000000E+02  0.47000000000E+01 0. -1.
         -5    1    3    3    0  501  0.10278540523E+01 -0.16133834052E+02  0.24830483580E+02  0.30000000000E+02  0.47000000000E+01 0.  1.
</event>
<event>
 5    1  0.7959189E-002  0.6000000E+02  0.7546771E-02  0.1259629E+00
         11   -1    0    0    0    0  0.00000000000E+00  0.00000000000E+00  0.30000000000E+02  0.30000000000E+02  0.00000000000E+00 0.  1.
        -11   -1    0    0    0    0 -0.00000000000E+00 -0.00000000000E+00 -0.30000000000E+02  0.30000000000E+02  0.00000000000E+00 0. -1.
         23    2    1    2    0    0  0.00000000000E+00  0.00000000000E+00  0.00000000000E+00  0.60000000000E+02  0.60000000000E+02 0.  0.
          5    1    3    3  501    0  0.91696343378E+01  0.18664826228E+02 -0.21105735429E+02  0.30000000000E+02  0.47000000000E+01 0. -1.
         -5    1    3    3    0  501 -0.91696343378E+01 -0.18664826228E+02  0.21105735429E+02  0.30000000000E+02  0.47000000000E+01 0.  1.
</event>
<event>
 5    1  0.7959189E-002  0.6000000E+02  0.7546771E-02  0.1259629E+00
         11   -1    0    0    0    0  0.00000000000E+00  0.00000000000E+00  0.30000000000E+02  0.30000000000E+02  0.00000000000E+00 0.  1.
        -11   -1    0    0    0    0 -0.00000000000E+00 -0.00000000000E+00 -0.30000000000E+02  0.30000000000E+02  0.00000000000E+00 0. -1.
         23    2    1    2    0    0  0.00000000000E+00  0.00000000000E+00  0.00000000000E+00  0.60000000000E+02  0.60000000000E+02 0.  0.
          5    1    3    3  501    0 -0.74859027610E+01  0.25219090707E+02 -0.13633368027E+02  0.30000000000E+02  0.47000000000E+01 0. -1.
         -5    1    3    3    0  501  0.74859027610E+01 -0.25219090707E+02  0.13633368027E+02  0.30000000000E+02  0.47000000000E+01 0.  1.
</event>
<event>
 5    1  0.7959189E-002  0.6000000E+02  0.7546771E-02  0.1259629E+00
         11   -1    0    0    0    0  0.00000000000E+00  0.00000000000E+00  0.30000000000E+02  0.30000000000E+02  0.00000000000E+00 0.  1.
        -11   -1    0    0    0    0 -0.00000000000E+00 -0.00000000000E+00 -0.30000000000E+02  0.30000000000E+02  0.00000000000E+00 0. -1.
         23    2    1    2    0    0  0.00000000000E+00  0.00000000000E+00  0.00000000000E+00  0.60000000000E+02  0.60000000000E+02 0.  0.
          5    1    3    3  501    0 -0.74821332333E+01 -0.28669077850E+02  0.10796997870E+00  0.30000000000E+02  0.47000000000E+01 0. -1.
         -5    1    3    3    0  501  0.74821332333E+01  0.28669077850E+02 -0.10796997870E+00  0.30000000000E+02  0.47000000000E+01 0.  1.
</event>
<event>
 5    1  0.7959189E-002  0.6000000E+02  0.7546771E-02  0.1259629E+00
         11   -1    0    0    0    0  0.00000000000E+00  0.00000000000E+00  0.30000000000E+02  0.30000000000E+02  0.00000000000E+00 0.  1.
        -11   -1    0    0    0    0 -0.00000000000E+00 -0.00000000000E+00 -0.30000000000E+02  0.30000000000E+02  0.00000000000E+00 0. -1.
         23    2    1    2    0    0  0.00000000000E+00  0.00000000000E+00  0.00000000000E+00  0.60000000000E+02  0.60000000000E+02 0.  0.
          5    1    3    3  501    0  0.96680998697E+01  0.20538598274E+01 -0.27932409576E+02  0.30000000000E+02  0.47000000000E+01 0. -1.
         -5    1    3    3    0  501 -0.96680998697E+01 -0.20538598274E+01  0.27932409576E+02  0.30000000000E+02  0.47000000000E+01 0.  1.
</event>
<event>
 5    1  0.7959189E-002  0.6000000E+02  0.7546771E-02  0.1259629E+00
         11   -1    0    0    0    0  0.00000000000E+00  0.00000000000E+00  0.30000000000E+02  0.30000000000E+02  0.00000000000E+00 0.  1.
        -11   -1    0    0    0    0 -0.00000000000E+00 -0.00000000000E+00 -0.30000000000E+02  0.30000000000E+02  0.00000000000E+00 0. -1.
         23    2    1    2    0    0  0.00000000000E+00  0.00000000000E+00  0.00000000000E+00  0.60000000000E+02  0.60000000000E+02 0.  0.
          5    1    3    3  501    0 -0.83321808497E+00  0.34836643417E+01 -0.29412239466E+02  0.30000000000E+02  0.47000000000E+01 0. -1.
         -5    1    3    3    0  501  0.83321808497E+00 -0.34836643417E+01  0.29412239466E+02  0.30000000000E+02  0.47000000000E+01 0.  1.
</event>
<event>
 5    1  0.7959189E-002  0.6000000E+02  0.7546771E-02  0.1259629E+00
         11   -1    0    0    0    0  0.00000000000E+00  0.00000000000E+00  0.30000000000E+02  0.30000000000E+02  0.00000000000E+00 0.  1.
        -11   -1    0    0    0    0 -0.00000000000E+00 -0.00000000000E+00 -0.30000000000E+02  0.30000000000E+02  0.00000000000E+00 0. -1.
         23    2    1    2    0    0  0.00000000000E+00  0.00000000000E+00  0.00000000000E+00  0.60000000000E+02  0.60000000000E+02 0.  0.
          5    1    3    3  501    0 -0.43190567481E+00 -0.29351214640E+02  0.40286047995E+01  0.30000000000E+02  0.47000000000E+01 0. -1.
         -5    1    3    3    0  501  0.43190567481E+00  0.29351214640E+02 -0.40286047995E+01  0.30000000000E+02  0.47000000000E+01 0.  1.
</event>
<event>
 5    1  0.7959189E-002  0.6000000E+02  0.7546771E-02  0.1259629E+00
         11   -1    0    0    0    0  0.00000000000E+00  0.00000000000E+00  0.30000000000E+02  0.30000000000E+02  0.00000000000E+00 0.  1.
        -11   -1    0    0    0    0 -0.00000000000E+00 -0.00000000000E+00 -0.30000000000E+02  0.30000000000E+02  0.00000000000E+00 0. -1.
         23    2    1    2    0    0  0.00000000000E+00  0.00000000000E+00  0.00000000000E+00  0.60000000000E+02  0.60000000000E+02 0.  0.
          5    1    3    3  501    0  0.25123223105E+02 -0.60371242896E+01 -0.14501268604E+02  0.30000000000E+02  0.47000000000E+01 0. -1.
         -5    1    3    3    0  501 -0.25123223105E+02  0.60371242896E+01  0.14501268604E+02  0.30000000000E+02  0.47000000000E+01 0.  1.
</event>
<event>
 5    1  0.7959189E-002  0.6000000E+02  0.7546771E-02  0.1259629E+00
         11   -1    0    0    0    0  0.00000000000E+00  0.00000000000E+00  0.30000000000E+02  0.30000000000E+02  0.00000000000E+00 0. -1.
        -11   -1    0    0    0    0 -0.00000000000E+00 -0.00000000000E+00 -0.30000000000E+02  0.30000000000E+02  0.00000000000E+00 0.  1.
         23    2    1    2    0    0  0.00000000000E+00  0.00000000000E+00  0.00000000000E+00  0.60000000000E+02  0.60000000000E+02 0.  0.
          5    1    3    3  501    0 -0.14720360245E+02 -0.25681094512E+02 -0.13047524323E+01  0.30000000000E+02  0.47000000000E+01 0.  1.
         -5    1    3    3    0  501  0.14720360245E+02  0.25681094512E+02  0.13047524323E+01  0.30000000000E+02  0.47000000000E+01 0. -1.
</event>
<event>
 5    1  0.7959189E-002  0.6000000E+02  0.7546771E-02  0.1259629E+00
         11   -1    0    0    0    0  0.00000000000E+00  0.00000000000E+00  0.30000000000E+02  0.30000000000E+02  0.00000000000E+00 0. -1.
        -11   -1    0    0    0    0 -0.00000000000E+00 -0.00000000000E+00 -0.30000000000E+02  0.30000000000E+02  0.00000000000E+00 0.  1.
         23    2    1    2    0    0  0.00000000000E+00  0.00000000000E+00  0.00000000000E+00  0.60000000000E+02  0.60000000000E+02 0.  0.
          5    1    3    3  501    0 -0.15069717945E+02  0.18043785651E+01 -0.25447157386E+02  0.30000000000E+02  0.47000000000E+01 0.  1.
         -5    1    3    3    0  501  0.15069717945E+02 -0.18043785651E+01  0.25447157386E+02  0.30000000000E+02  0.47000000000E+01 0. -1.
</event>
<event>
 5    1  0.7959189E-002  0.6000000E+02  0.7546771E-02  0.1259629E+00
         11   -1    0    0    0    0  0.00000000000E+00  0.00000000000E+00  0.30000000000E+02  0.30000000000E+02  0.00000000000E+00 0.  1.
        -11   -1    0    0    0    0 -0.00000000000E+00 -0.00000000000E+00 -0.30000000000E+02  0.30000000000E+02  0.00000000000E+00 0. -1.
         23    2    1    2    0    0  0.00000000000E+00  0.00000000000E+00  0.00000000000E+00  0.60000000000E+02  0.60000000000E+02 0.  0.
          5    1    3    3  501    0 -0.14975045376E+01 -0.26275109656E+02 -0.13611983424E+02  0.30000000000E+02  0.47000000000E+01 0. -1.
         -5    1    3    3    0  501  0.14975045376E+01  0.26275109656E+02  0.13611983424E+02  0.30000000000E+02  0.47000000000E+01 0.  1.
</event>
<event>
 5    1  0.7959189E-002  0.6000000E+02  0.7546771E-02  0.1259629E+00
         11   -1    0    0    0    0  0.00000000000E+00  0.00000000000E+00  0.30000000000E+02  0.30000000000E+02  0.00000000000E+00 0. -1.
        -11   -1    0    0    0    0 -0.00000000000E+00 -0.00000000000E+00 -0.30000000000E+02  0.30000000000E+02  0.00000000000E+00 0.  1.
         23    2    1    2    0    0  0.00000000000E+00  0.00000000000E+00  0.00000000000E+00  0.60000000000E+02  0.60000000000E+02 0.  0.
          5    1    3    3  501    0  0.22771601105E+02  0.73422838183E+01 -0.17477272426E+02  0.30000000000E+02  0.47000000000E+01 0.  1.
         -5    1    3    3    0  501 -0.22771601105E+02 -0.73422838183E+01  0.17477272426E+02  0.30000000000E+02  0.47000000000E+01 0. -1.
</event>
<event>
 5    1  0.7959189E-002  0.6000000E+02  0.7546771E-02  0.1259629E+00
         11   -1    0    0    0    0  0.00000000000E+00  0.00000000000E+00  0.30000000000E+02  0.30000000000E+02  0.00000000000E+00 0.  1.
        -11   -1    0    0    0    0 -0.00000000000E+00 -0.00000000000E+00 -0.30000000000E+02  0.30000000000E+02  0.00000000000E+00 0. -1.
         23    2    1    2    0    0  0.00000000000E+00  0.00000000000E+00  0.00000000000E+00  0.60000000000E+02  0.60000000000E+02 0.  0.
          5    1    3    3  501    0  0.94047536429E+00 -0.29613022058E+02  0.30729575684E+00  0.30000000000E+02  0.47000000000E+01 0. -1.
         -5    1    3    3    0  501 -0.94047536429E+00  0.29613022058E+02 -0.30729575684E+00  0.30000000000E+02  0.47000000000E+01 0.  1.
</event>
<event>
 5    1  0.7959189E-002  0.6000000E+02  0.7546771E-02  0.1259629E+00
         11   -1    0    0    0    0  0.00000000000E+00  0.00000000000E+00  0.30000000000E+02  0.30000000000E+02  0.00000000000E+00 0.  1.
        -11   -1    0    0    0    0 -0.00000000000E+00 -0.00000000000E+00 -0.30000000000E+02  0.30000000000E+02  0.00000000000E+00 0. -1.
         23    2    1    2    0    0  0.00000000000E+00  0.00000000000E+00  0.00000000000E+00  0.60000000000E+02  0.60000000000E+02 0.  0.
          5    1    3    3  501    0  0.13717372968E+02  0.17849526730E+02 -0.19264944183E+02  0.30000000000E+02  0.47000000000E+01 0. -1.
         -5    1    3    3    0  501 -0.13717372968E+02 -0.17849526730E+02  0.19264944183E+02  0.30000000000E+02  0.47000000000E+01 0.  1.
</event>
<event>
 5    1  0.7959189E-002  0.6000000E+02  0.7546771E-02  0.1259629E+00
         11   -1    0    0    0    0  0.00000000000E+00  0.00000000000E+00  0.30000000000E+02  0.30000000000E+02  0.00000000000E+00 0.  1.
        -11   -1    0    0    0    0 -0.00000000000E+00 -0.00000000000E+00 -0.30000000000E+02  0.30000000000E+02  0.00000000000E+00 0. -1.
         23    2    1    2    0    0  0.00000000000E+00  0.00000000000E+00  0.00000000000E+00  0.60000000000E+02  0.60000000000E+02 0.  0.
          5    1    3    3  501    0  0.78507466253E+01 -0.15226168851E+02 -0.24175184788E+02  0.30000000000E+02  0.47000000000E+01 0. -1.
         -5    1    3    3    0  501 -0.78507466253E+01  0.15226168851E+02  0.24175184788E+02  0.30000000000E+02  0.47000000000E+01 0.  1.
</event>
<event>
 5    1  0.7959189E-002  0.6000000E+02  0.7546771E-02  0.1259629E+00
         11   -1    0    0    0    0  0.00000000000E+00  0.00000000000E+00  0.30000000000E+02  0.30000000000E+02  0.00000000000E+00 0. -1.
        -11   -1    0    0    0    0 -0.00000000000E+00 -0.00000000000E+00 -0.30000000000E+02  0.30000000000E+02  0.00000000000E+00 0.  1.
         23    2    1    2    0    0  0.00000000000E+00  0.00000000000E+00  0.00000000000E+00  0.60000000000E+02  0.60000000000E+02 0.  0.
          5    1    3    3  501    0  0.12912308141E+02  0.61686965531E+01 -0.25944738991E+02  0.30000000000E+02  0.47000000000E+01 0.  1.
         -5    1    3    3    0  501 -0.12912308141E+02 -0.61686965531E+01  0.25944738991E+02  0.30000000000E+02  0.47000000000E+01 0. -1.
</event>
<event>
 5    1  0.7959189E-002  0.6000000E+02  0.7546771E-02  0.1259629E+00
         11   -1    0    0    0    0  0.00000000000E+00  0.00000000000E+00  0.30000000000E+02  0.30000000000E+02  0.00000000000E+00 0.  1.
        -11   -1    0    0    0    0 -0.00000000000E+00 -0.00000000000E+00 -0.30000000000E+02  0.30000000000E+02  0.00000000000E+00 0. -1.
         23    2    1    2    0    0  0.00000000000E+00  0.00000000000E+00  0.00000000000E+00  0.60000000000E+02  0.60000000000E+02 0.  0.
          5    1    3    3  501    0  0.11549905051E+02 -0.69881456601E+01 -0.26375661386E+02  0.30000000000E+02  0.47000000000E+01 0. -1.
         -5    1    3    3    0  501 -0.11549905051E+02  0.69881456601E+01  0.26375661386E+02  0.30000000000E+02  0.47000000000E+01 0.  1.
</event>
<event>
 5    1  0.7959189E-002  0.6000000E+02  0.7546771E-02  0.1259629E+00
         11   -1    0    0    0    0  0.00000000000E+00  0.00000000000E+00  0.30000000000E+02  0.30000000000E+02  0.00000000000E+00 0.  1.
        -11   -1    0    0    0    0 -0.00000000000E+00 -0.00000000000E+00 -0.30000000000E+02  0.30000000000E+02  0.00000000000E+00 0. -1.
         23    2    1    2    0    0  0.00000000000E+00  0.00000000000E+00  0.00000000000E+00  0.60000000000E+02  0.60000000000E+02 0.  0.
          5    1    3    3  501    0  0.19304825274E+02  0.14985578377E+02 -0.16753094098E+02  0.30000000000E+02  0.47000000000E+01 0. -1.
         -5    1    3    3    0  501 -0.19304825274E+02 -0.14985578377E+02  0.16753094098E+02  0.30000000000E+02  0.47000000000E+01 0.  1.
</event>
<event>
 5    1  0.7959189E-002  0.6000000E+02  0.7546771E-02  0.1259629E+00
         11   -1    0    0    0    0  0.00000000000E+00  0.00000000000E+00  0.30000000000E+02  0.30000000000E+02  0.00000000000E+00 0. -1.
        -11   -1    0    0    0    0 -0.00000000000E+00 -0.00000000000E+00 -0.30000000000E+02  0.30000000000E+02  0.00000000000E+00 0.  1.
         23    2    1    2    0    0  0.00000000000E+00  0.00000000000E+00  0.00000000000E+00  0.60000000000E+02  0.60000000000E+02 0.  0.
          5    1    3    3  501    0 -0.28930090155E+01  0.11663368994E+02 -0.27083321852E+02  0.30000000000E+02  0.47000000000E+01 0.  1.
         -5    1    3    3    0  501  0.28930090155E+01 -0.11663368994E+02  0.27083321852E+02  0.30000000000E+02  0.47000000000E+01 0. -1.
</event>
<event>
 5    1  0.7959189E-002  0.6000000E+02  0.7546771E-02  0.1259629E+00
         11   -1    0    0    0    0  0.00000000000E+00  0.00000000000E+00  0.30000000000E+02  0.30000000000E+02  0.00000000000E+00 0.  1.
        -11   -1    0    0    0    0 -0.00000000000E+00 -0.00000000000E+00 -0.30000000000E+02  0.30000000000E+02  0.00000000000E+00 0. -1.
         23    2    1    2    0    0  0.00000000000E+00  0.00000000000E+00  0.00000000000E+00  0.60000000000E+02  0.60000000000E+02 0.  0.
          5    1    3    3  501    0 -0.10317582017E+02  0.16648166113E+02 -0.22232770102E+02  0.30000000000E+02  0.47000000000E+01 0. -1.
         -5    1    3    3    0  501  0.10317582017E+02 -0.16648166113E+02  0.22232770102E+02  0.30000000000E+02  0.47000000000E+01 0.  1.
</event>
<event>
 5    1  0.7959189E-002  0.6000000E+02  0.7546771E-02  0.1259629E+00
         11   -1    0    0    0    0  0.00000000000E+00  0.00000000000E+00  0.30000000000E+02  0.30000000000E+02  0.00000000000E+00 0.  1.
        -11   -1    0    0    0    0 -0.00000000000E+00 -0.00000000000E+00 -0.30000000000E+02  0.30000000000E+02  0.00000000000E+00 0. -1.
         23    2    1    2    0    0  0.00000000000E+00  0.00000000000E+00  0.00000000000E+00  0.60000000000E+02  0.60000000000E+02 0.  0.
          5    1    3    3  501    0 -0.25775843504E+02 -0.11421680990E+02  0.91137859874E+01  0.30000000000E+02  0.47000000000E+01 0. -1.
         -5    1    3    3    0  501  0.25775843504E+02  0.11421680990E+02 -0.91137859874E+01  0.30000000000E+02  0.47000000000E+01 0.  1.
</event>
<event>
 5    1  0.7959189E-002  0.6000000E+02  0.7546771E-02  0.1259629E+00
         11   -1    0    0    0    0  0.00000000000E+00  0.00000000000E+00  0.30000000000E+02  0.30000000000E+02  0.00000000000E+00 0.  1.
        -11   -1    0    0    0    0 -0.00000000000E+00 -0.00000000000E+00 -0.30000000000E+02  0.30000000000E+02  0.00000000000E+00 0. -1.
         23    2    1    2    0    0  0.00000000000E+00  0.00000000000E+00  0.00000000000E+00  0.60000000000E+02  0.60000000000E+02 0.  0.
          5    1    3    3  501    0 -0.70034033108E+01  0.18792896815E+02 -0.21810304248E+02  0.30000000000E+02  0.47000000000E+01 0. -1.
         -5    1    3    3    0  501  0.70034033108E+01 -0.18792896815E+02  0.21810304248E+02  0.30000000000E+02  0.47000000000E+01 0.  1.
</event>
<event>
 5    1  0.7959189E-002  0.6000000E+02  0.7546771E-02  0.1259629E+00
         11   -1    0    0    0    0  0.00000000000E+00  0.00000000000E+00  0.30000000000E+02  0.30000000000E+02  0.00000000000E+00 0.  1.
        -11   -1    0    0    0    0 -0.00000000000E+00 -0.00000000000E+00 -0.30000000000E+02  0.30000000000E+02  0.00000000000E+00 0. -1.
         23    2    1    2    0    0  0.00000000000E+00  0.00000000000E+00  0.00000000000E+00  0.60000000000E+02  0.60000000000E+02 0.  0.
          5    1    3    3  501    0  0.57835952410E+01  0.28237430470E+02  0.68634937569E+01  0.30000000000E+02  0.47000000000E+01 0. -1.
         -5    1    3    3    0  501 -0.57835952410E+01 -0.28237430470E+02 -0.68634937569E+01  0.30000000000E+02  0.47000000000E+01 0.  1.
</event>
<event>
 5    1  0.7959189E-002  0.6000000E+02  0.7546771E-02  0.1259629E+00
         11   -1    0    0    0    0  0.00000000000E+00  0.00000000000E+00  0.30000000000E+02  0.30000000000E+02  0.00000000000E+00 0. -1.
        -11   -1    0    0    0    0 -0.00000000000E+00 -0.00000000000E+00 -0.30000000000E+02  0.30000000000E+02  0.00000000000E+00 0.  1.
         23    2    1    2    0    0  0.00000000000E+00  0.00000000000E+00  0.00000000000E+00  0.60000000000E+02  0.60000000000E+02 0.  0.
          5    1    3    3  501    0  0.19560109281E+01 -0.10850596307E+02 -0.27501792324E+02  0.30000000000E+02  0.47000000000E+01 0.  1.
         -5    1    3    3    0  501 -0.19560109281E+01  0.10850596307E+02  0.27501792324E+02  0.30000000000E+02  0.47000000000E+01 0. -1.
</event>
<event>
 5    1  0.7959189E-002  0.6000000E+02  0.7546771E-02  0.1259629E+00
         11   -1    0    0    0    0  0.00000000000E+00  0.00000000000E+00  0.30000000000E+02  0.30000000000E+02  0.00000000000E+00 0.  1.
        -11   -1    0    0    0    0 -0.00000000000E+00 -0.00000000000E+00 -0.30000000000E+02  0.30000000000E+02  0.00000000000E+00 0. -1.
         23    2    1    2    0    0  0.00000000000E+00  0.00000000000E+00  0.00000000000E+00  0.60000000000E+02  0.60000000000E+02 0.  0.
          5    1    3    3  501    0  0.87831819323E+01 -0.21409288412E+02 -0.18504272070E+02  0.30000000000E+02  0.47000000000E+01 0. -1.
         -5    1    3    3    0  501 -0.87831819323E+01  0.21409288412E+02  0.18504272070E+02  0.30000000000E+02  0.47000000000E+01 0.  1.
</event>
<event>
 5    1  0.7959189E-002  0.6000000E+02  0.7546771E-02  0.1259629E+00
         11   -1    0    0    0    0  0.00000000000E+00  0.00000000000E+00  0.30000000000E+02  0.30000000000E+02  0.00000000000E+00 0.  1.
        -11   -1    0    0    0    0 -0.00000000000E+00 -0.00000000000E+00 -0.30000000000E+02  0.30000000000E+02  0.00000000000E+00 0. -1.
         23    2    1    2    0    0  0.00000000000E+00  0.00000000000E+00  0.00000000000E+00  0.60000000000E+02  0.60000000000E+02 0.  0.
          5    1    3    3  501    0  0.20665129429E+02 -0.69108324526E+01 -0.20077420663E+02  0.30000000000E+02  0.47000000000E+01 0. -1.
         -5    1    3    3    0  501 -0.20665129429E+02  0.69108324526E+01  0.20077420663E+02  0.30000000000E+02  0.47000000000E+01 0.  1.
</event>
<event>
 5    1  0.7959189E-002  0.6000000E+02  0.7546771E-02  0.1259629E+00
         11   -1    0    0    0    0  0.00000000000E+00  0.00000000000E+00  0.30000000000E+02  0.30000000000E+02  0.00000000000E+00 0.  1.
        -11   -1    0    0    0    0 -0.00000000000E+00 -0.00000000000E+00 -0.30000000000E+02  0.30000000000E+02  0.00000000000E+00 0. -1.
         23    2    1    2    0    0  0.00000000000E+00  0.00000000000E+00  0.00000000000E+00  0.60000000000E+02  0.60000000000E+02 0.  0.
          5    1    3    3  501    0 -0.16950259480E+02 -0.21093650527E+02 -0.12068828070E+02  0.30000000000E+02  0.47000000000E+01 0. -1.
         -5    1    3    3    0  501  0.16950259480E+02  0.21093650527E+02  0.12068828070E+02  0.30000000000E+02  0.47000000000E+01 0.  1.
</event>
<event>
 5    1  0.7959189E-002  0.6000000E+02  0.7546771E-02  0.1259629E+00
         11   -1    0    0    0    0  0.00000000000E+00  0.00000000000E+00  0.30000000000E+02  0.30000000000E+02  0.00000000000E+00 0.  1.
        -11   -1    0    0    0    0 -0.00000000000E+00 -0.00000000000E+00 -0.30000000000E+02  0.30000000000E+02  0.00000000000E+00 0. -1.
         23    2    1    2    0    0  0.00000000000E+00  0.00000000000E+00  0.00000000000E+00  0.60000000000E+02  0.60000000000E+02 0.  0.
          5    1    3    3  501    0  0.28044686394E+02 -0.32440618235E+01  0.89934213690E+01  0.30000000000E+02  0.47000000000E+01 0.  1.
         -5    1    3    3    0  501 -0.28044686394E+02  0.32440618235E+01 -0.89934213690E+01  0.30000000000E+02  0.47000000000E+01 0. -1.
</event>
<event>
 5    1  0.7959189E-002  0.6000000E+02  0.7546771E-02  0.1259629E+00
         11   -1    0    0    0    0  0.00000000000E+00  0.00000000000E+00  0.30000000000E+02  0.30000000000E+02  0.00000000000E+00 0. -1.
        -11   -1    0    0    0    0 -0.00000000000E+00 -0.00000000000E+00 -0.30000000000E+02  0.30000000000E+02  0.00000000000E+00 0.  1.
         23    2    1    2    0    0  0.00000000000E+00  0.00000000000E+00  0.00000000000E+00  0.60000000000E+02  0.60000000000E+02 0.  0.
          5    1    3    3  501    0 -0.18962737506E+02 -0.12519295551E+02 -0.19015567969E+02  0.30000000000E+02  0.47000000000E+01 0.  1.
         -5    1    3    3    0  501  0.18962737506E+02  0.12519295551E+02  0.19015567969E+02  0.30000000000E+02  0.47000000000E+01 0. -1.
</event>
<event>
 5    1  0.7959189E-002  0.6000000E+02  0.7546771E-02  0.1259629E+00
         11   -1    0    0    0    0  0.00000000000E+00  0.00000000000E+00  0.30000000000E+02  0.30000000000E+02  0.00000000000E+00 0. -1.
        -11   -1    0    0    0    0 -0.00000000000E+00 -0.00000000000E+00 -0.30000000000E+02  0.30000000000E+02  0.00000000000E+00 0.  1.
         23    2    1    2    0    0  0.00000000000E+00  0.00000000000E+00  0.00000000000E+00  0.60000000000E+02  0.60000000000E+02 0.  0.
          5    1    3    3  501    0 -0.11722672634E+02  0.18212657658E+02  0.20218507545E+02  0.30000000000E+02  0.47000000000E+01 0. -1.
         -5    1    3    3    0  501  0.11722672634E+02 -0.18212657658E+02 -0.20218507545E+02  0.30000000000E+02  0.47000000000E+01 0.  1.
</event>
<event>
 5    1  0.7959189E-002  0.6000000E+02  0.7546771E-02  0.1259629E+00
         11   -1    0    0    0    0  0.00000000000E+00  0.00000000000E+00  0.30000000000E+02  0.30000000000E+02  0.00000000000E+00 0.  1.
        -11   -1    0    0    0    0 -0.00000000000E+00 -0.00000000000E+00 -0.30000000000E+02  0.30000000000E+02  0.00000000000E+00 0. -1.
         23    2    1    2    0    0  0.00000000000E+00  0.00000000000E+00  0.00000000000E+00  0.60000000000E+02  0.60000000000E+02 0.  0.
          5    1    3    3  501    0 -0.62381149240E+01  0.22955232610E+02 -0.17665028107E+02  0.30000000000E+02  0.47000000000E+01 0. -1.
         -5    1    3    3    0  501  0.62381149240E+01 -0.22955232610E+02  0.17665028107E+02  0.30000000000E+02  0.47000000000E+01 0.  1.
</event>
<event>
 5    1  0.7959189E-002  0.6000000E+02  0.7546771E-02  0.1259629E+00
         11   -1    0    0    0    0  0.00000000000E+00  0.00000000000E+00  0.30000000000E+02  0.30000000000E+02  0.00000000000E+00 0.  1.
        -11   -1    0    0    0    0 -0.00000000000E+00 -0.00000000000E+00 -0.30000000000E+02  0.30000000000E+02  0.00000000000E+00 0. -1.
         23    2    1    2    0    0  0.00000000000E+00  0.00000000000E+00  0.00000000000E+00  0.60000000000E+02  0.60000000000E+02 0.  0.
          5    1    3    3  501    0 -0.23269961480E+02 -0.17293318781E+02  0.61122842095E+01  0.30000000000E+02  0.47000000000E+01 0. -1.
         -5    1    3    3    0  501  0.23269961480E+02  0.17293318781E+02 -0.61122842095E+01  0.30000000000E+02  0.47000000000E+01 0.  1.
</event>
<event>
 5    1  0.7959189E-002  0.6000000E+02  0.7546771E-02  0.1259629E+00
         11   -1    0    0    0    0  0.00000000000E+00  0.00000000000E+00  0.30000000000E+02  0.30000000000E+02  0.00000000000E+00 0.  1.
        -11   -1    0    0    0    0 -0.00000000000E+00 -0.00000000000E+00 -0.30000000000E+02  0.30000000000E+02  0.00000000000E+00 0. -1.
         23    2    1    2    0    0  0.00000000000E+00  0.00000000000E+00  0.00000000000E+00  0.60000000000E+02  0.60000000000E+02 0.  0.
          5    1    3    3  501    0 -0.16167063500E+02  0.11693509804E+02 -0.21904289221E+02  0.30000000000E+02  0.47000000000E+01 0. -1.
         -5    1    3    3    0  501  0.16167063500E+02 -0.11693509804E+02  0.21904289221E+02  0.30000000000E+02  0.47000000000E+01 0.  1.
</event>
<event>
 5    1  0.7959189E-002  0.6000000E+02  0.7546771E-02  0.1259629E+00
         11   -1    0    0    0    0  0.00000000000E+00  0.00000000000E+00  0.30000000000E+02  0.30000000000E+02  0.00000000000E+00 0.  1.
        -11   -1    0    0    0    0 -0.00000000000E+00 -0.00000000000E+00 -0.30000000000E+02  0.30000000000E+02  0.00000000000E+00 0. -1.
         23    2    1    2    0    0  0.00000000000E+00  0.00000000000E+00  0.00000000000E+00  0.60000000000E+02  0.60000000000E+02 0.  0.
          5    1    3    3  501    0  0.99808223739E+01 -0.20322730983E+00 -0.27897166225E+02  0.30000000000E+02  0.47000000000E+01 0. -1.
         -5    1    3    3    0  501 -0.99808223739E+01  0.20322730983E+00  0.27897166225E+02  0.30000000000E+02  0.47000000000E+01 0.  1.
</event>
<event>
 5    1  0.7959189E-002  0.6000000E+02  0.7546771E-02  0.1259629E+00
         11   -1    0    0    0    0  0.00000000000E+00  0.00000000000E+00  0.30000000000E+02  0.30000000000E+02  0.00000000000E+00 0.  1.
        -11   -1    0    0    0    0 -0.00000000000E+00 -0.00000000000E+00 -0.30000000000E+02  0.30000000000E+02  0.00000000000E+00 0. -1.
         23    2    1    2    0    0  0.00000000000E+00  0.00000000000E+00  0.00000000000E+00  0.60000000000E+02  0.60000000000E+02 0.  0.
          5    1    3    3  501    0  0.18185108223E+01 -0.24368490881E+02 -0.16756481450E+02  0.30000000000E+02  0.47000000000E+01 0. -1.
         -5    1    3    3    0  501 -0.18185108223E+01  0.24368490881E+02  0.16756481450E+02  0.30000000000E+02  0.47000000000E+01 0.  1.
</event>
<event>
 5    1  0.7959189E-002  0.6000000E+02  0.7546771E-02  0.1259629E+00
         11   -1    0    0    0    0  0.00000000000E+00  0.00000000000E+00  0.30000000000E+02  0.30000000000E+02  0.00000000000E+00 0.  1.
        -11   -1    0    0    0    0 -0.00000000000E+00 -0.00000000000E+00 -0.30000000000E+02  0.30000000000E+02  0.00000000000E+00 0. -1.
         23    2    1    2    0    0  0.00000000000E+00  0.00000000000E+00  0.00000000000E+00  0.60000000000E+02  0.60000000000E+02 0.  0.
          5    1    3    3  501    0  0.13639657089E+02 -0.86825960634E+01 -0.24829061200E+02  0.30000000000E+02  0.47000000000E+01 0. -1.
         -5    1    3    3    0  501 -0.13639657089E+02  0.86825960634E+01  0.24829061200E+02  0.30000000000E+02  0.47000000000E+01 0.  1.
</event>
<event>
 5    1  0.7959189E-002  0.6000000E+02  0.7546771E-02  0.1259629E+00
         11   -1    0    0    0    0  0.00000000000E+00  0.00000000000E+00  0.30000000000E+02  0.30000000000E+02  0.00000000000E+00 0. -1.
        -11   -1    0    0    0    0 -0.00000000000E+00 -0.00000000000E+00 -0.30000000000E+02  0.30000000000E+02  0.00000000000E+00 0.  1.
         23    2    1    2    0    0  0.00000000000E+00  0.00000000000E+00  0.00000000000E+00  0.60000000000E+02  0.60000000000E+02 0.  0.
          5    1    3    3  501    0  0.56229575729E+01 -0.11472234865E+02 -0.26733502863E+02  0.30000000000E+02  0.47000000000E+01 0.  1.
         -5    1    3    3    0  501 -0.56229575729E+01  0.11472234865E+02  0.26733502863E+02  0.30000000000E+02  0.47000000000E+01 0. -1.
</event>
<event>
 5    1  0.7959189E-002  0.6000000E+02  0.7546771E-02  0.1259629E+00
         11   -1    0    0    0    0  0.00000000000E+00  0.00000000000E+00  0.30000000000E+02  0.30000000000E+02  0.00000000000E+00 0.  1.
        -11   -1    0    0    0    0 -0.00000000000E+00 -0.00000000000E+00 -0.30000000000E+02  0.30000000000E+02  0.00000000000E+00 0. -1.
         23    2    1    2    0    0  0.00000000000E+00  0.00000000000E+00  0.00000000000E+00  0.60000000000E+02  0.60000000000E+02 0.  0.
          5    1    3    3  501    0 -0.10768512702E+02 -0.10253695204E+02  0.25628321616E+02  0.30000000000E+02  0.47000000000E+01 0.  1.
         -5    1    3    3    0  501  0.10768512702E+02  0.10253695204E+02 -0.25628321616E+02  0.30000000000E+02  0.47000000000E+01 0. -1.
</event>
<event>
 5    1  0.7959189E-002  0.6000000E+02  0.7546771E-02  0.1259629E+00
         11   -1    0    0    0    0  0.00000000000E+00  0.00000000000E+00  0.30000000000E+02  0.30000000000E+02  0.00000000000E+00 0.  1.
        -11   -1    0    0    0    0 -0.00000000000E+00 -0.00000000000E+00 -0.30000000000E+02  0.30000000000E+02  0.00000000000E+00 0. -1.
         23    2    1    2    0    0  0.00000000000E+00  0.00000000000E+00  0.00000000000E+00  0.60000000000E+02  0.60000000000E+02 0.  0.
          5    1    3    3  501    0 -0.14874343130E+02 -0.21268741281E+02 -0.14293514641E+02  0.30000000000E+02  0.47000000000E+01 0. -1.
         -5    1    3    3    0  501  0.14874343130E+02  0.21268741281E+02  0.14293514641E+02  0.30000000000E+02  0.47000000000E+01 0.  1.
</event>
<event>
 5    1  0.7959189E-002  0.6000000E+02  0.7546771E-02  0.1259629E+00
         11   -1    0    0    0    0  0.00000000000E+00  0.00000000000E+00  0.30000000000E+02  0.30000000000E+02  0.00000000000E+00 0.  1.
        -11   -1    0    0    0    0 -0.00000000000E+00 -0.00000000000E+00 -0.30000000000E+02  0.30000000000E+02  0.00000000000E+00 0. -1.
         23    2    1    2    0    0  0.00000000000E+00  0.00000000000E+00  0.00000000000E+00  0.60000000000E+02  0.60000000000E+02 0.  0.
          5    1    3    3  501    0  0.49260467512E+01 -0.83693478936E+00 -0.29205198228E+02  0.30000000000E+02  0.47000000000E+01 0. -1.
         -5    1    3    3    0  501 -0.49260467512E+01  0.83693478936E+00  0.29205198228E+02  0.30000000000E+02  0.47000000000E+01 0.  1.
</event>
<event>
 5    1  0.7959189E-002  0.6000000E+02  0.7546771E-02  0.1259629E+00
         11   -1    0    0    0    0  0.00000000000E+00  0.00000000000E+00  0.30000000000E+02  0.30000000000E+02  0.00000000000E+00 0.  1.
        -11   -1    0    0    0    0 -0.00000000000E+00 -0.00000000000E+00 -0.30000000000E+02  0.30000000000E+02  0.00000000000E+00 0. -1.
         23    2    1    2    0    0  0.00000000000E+00  0.00000000000E+00  0.00000000000E+00  0.60000000000E+02  0.60000000000E+02 0.  0.
          5    1    3    3  501    0  0.25343958827E+01  0.28874502394E+02 -0.61440987156E+01  0.30000000000E+02  0.47000000000E+01 0. -1.
         -5    1    3    3    0  501 -0.25343958827E+01 -0.28874502394E+02  0.61440987156E+01  0.30000000000E+02  0.47000000000E+01 0.  1.
</event>
<event>
 5    1  0.7959189E-002  0.6000000E+02  0.7546771E-02  0.1259629E+00
         11   -1    0    0    0    0  0.00000000000E+00  0.00000000000E+00  0.30000000000E+02  0.30000000000E+02  0.00000000000E+00 0.  1.
        -11   -1    0    0    0    0 -0.00000000000E+00 -0.00000000000E+00 -0.30000000000E+02  0.30000000000E+02  0.00000000000E+00 0. -1.
         23    2    1    2    0    0  0.00000000000E+00  0.00000000000E+00  0.00000000000E+00  0.60000000000E+02  0.60000000000E+02 0.  0.
          5    1    3    3  501    0  0.14649350516E+02 -0.24458998435E+02  0.80662212345E+01  0.30000000000E+02  0.47000000000E+01 0. -1.
         -5    1    3    3    0  501 -0.14649350516E+02  0.24458998435E+02 -0.80662212345E+01  0.30000000000E+02  0.47000000000E+01 0.  1.
</event>
<event>
 5    1  0.7959189E-002  0.6000000E+02  0.7546771E-02  0.1259629E+00
         11   -1    0    0    0    0  0.00000000000E+00  0.00000000000E+00  0.30000000000E+02  0.30000000000E+02  0.00000000000E+00 0.  1.
        -11   -1    0    0    0    0 -0.00000000000E+00 -0.00000000000E+00 -0.30000000000E+02  0.30000000000E+02  0.00000000000E+00 0. -1.
         23    2    1    2    0    0  0.00000000000E+00  0.00000000000E+00  0.00000000000E+00  0.60000000000E+02  0.60000000000E+02 0.  0.
          5    1    3    3  501    0 -0.11303760135E+02 -0.27319960629E+02  0.19377198070E+01  0.30000000000E+02  0.47000000000E+01 0.  1.
         -5    1    3    3    0  501  0.11303760135E+02  0.27319960629E+02 -0.19377198070E+01  0.30000000000E+02  0.47000000000E+01 0. -1.
</event>
<event>
 5    1  0.7959189E-002  0.6000000E+02  0.7546771E-02  0.1259629E+00
         11   -1    0    0    0    0  0.00000000000E+00  0.00000000000E+00  0.30000000000E+02  0.30000000000E+02  0.00000000000E+00 0.  1.
        -11   -1    0    0    0    0 -0.00000000000E+00 -0.00000000000E+00 -0.30000000000E+02  0.30000000000E+02  0.00000000000E+00 0. -1.
         23    2    1    2    0    0  0.00000000000E+00  0.00000000000E+00  0.00000000000E+00  0.60000000000E+02  0.60000000000E+02 0.  0.
          5    1    3    3  501    0  0.17307378988E+02  0.12602968974E+02 -0.20482426752E+02  0.30000000000E+02  0.47000000000E+01 0. -1.
         -5    1    3    3    0  501 -0.17307378988E+02 -0.12602968974E+02  0.20482426752E+02  0.30000000000E+02  0.47000000000E+01 0.  1.
</event>
<event>
 5    1  0.7959189E-002  0.6000000E+02  0.7546771E-02  0.1259629E+00
         11   -1    0    0    0    0  0.00000000000E+00  0.00000000000E+00  0.30000000000E+02  0.30000000000E+02  0.00000000000E+00 0.  1.
        -11   -1    0    0    0    0 -0.00000000000E+00 -0.00000000000E+00 -0.30000000000E+02  0.30000000000E+02  0.00000000000E+00 0. -1.
         23    2    1    2    0    0  0.00000000000E+00  0.00000000000E+00  0.00000000000E+00  0.60000000000E+02  0.60000000000E+02 0.  0.
          5    1    3    3  501    0 -0.20643925343E+02  0.13556993094E+02 -0.16369064869E+02  0.30000000000E+02  0.47000000000E+01 0. -1.
         -5    1    3    3    0  501  0.20643925343E+02 -0.13556993094E+02  0.16369064869E+02  0.30000000000E+02  0.47000000000E+01 0.  1.
</event>
<event>
 5    1  0.7959189E-002  0.6000000E+02  0.7546771E-02  0.1259629E+00
         11   -1    0    0    0    0  0.00000000000E+00  0.00000000000E+00  0.30000000000E+02  0.30000000000E+02  0.00000000000E+00 0.  1.
        -11   -1    0    0    0    0 -0.00000000000E+00 -0.00000000000E+00 -0.30000000000E+02  0.30000000000E+02  0.00000000000E+00 0. -1.
         23    2    1    2    0    0  0.00000000000E+00  0.00000000000E+00  0.00000000000E+00  0.60000000000E+02  0.60000000000E+02 0.  0.
          5    1    3    3  501    0 -0.20418229449E+02  0.34091349945E+01  0.21198672241E+02  0.30000000000E+02  0.47000000000E+01 0.  1.
         -5    1    3    3    0  501  0.20418229449E+02 -0.34091349945E+01 -0.21198672241E+02  0.30000000000E+02  0.47000000000E+01 0. -1.
</event>
<event>
 5    1  0.7959189E-002  0.6000000E+02  0.7546771E-02  0.1259629E+00
         11   -1    0    0    0    0  0.00000000000E+00  0.00000000000E+00  0.30000000000E+02  0.30000000000E+02  0.00000000000E+00 0. -1.
        -11   -1    0    0    0    0 -0.00000000000E+00 -0.00000000000E+00 -0.30000000000E+02  0.30000000000E+02  0.00000000000E+00 0.  1.
         23    2    1    2    0    0  0.00000000000E+00  0.00000000000E+00  0.00000000000E+00  0.60000000000E+02  0.60000000000E+02 0.  0.
          5    1    3    3  501    0  0.59137508770E+01 -0.28967458060E+02 -0.19554856508E+01  0.30000000000E+02  0.47000000000E+01 0.  1.
         -5    1    3    3    0  501 -0.59137508770E+01  0.28967458060E+02  0.19554856508E+01  0.30000000000E+02  0.47000000000E+01 0. -1.
</event>
<event>
 5    1  0.7959189E-002  0.6000000E+02  0.7546771E-02  0.1259629E+00
         11   -1    0    0    0    0  0.00000000000E+00  0.00000000000E+00  0.30000000000E+02  0.30000000000E+02  0.00000000000E+00 0.  1.
        -11   -1    0    0    0    0 -0.00000000000E+00 -0.00000000000E+00 -0.30000000000E+02  0.30000000000E+02  0.00000000000E+00 0. -1.
         23    2    1    2    0    0  0.00000000000E+00  0.00000000000E+00  0.00000000000E+00  0.60000000000E+02  0.60000000000E+02 0.  0.
          5    1    3    3  501    0  0.23108565777E+02  0.61619564589E+00 -0.18534413686E+02  0.30000000000E+02  0.47000000000E+01 0. -1.
         -5    1    3    3    0  501 -0.23108565777E+02 -0.61619564589E+00  0.18534413686E+02  0.30000000000E+02  0.47000000000E+01 0.  1.
</event>
<event>
 5    1  0.7959189E-002  0.6000000E+02  0.7546771E-02  0.1259629E+00
         11   -1    0    0    0    0  0.00000000000E+00  0.00000000000E+00  0.30000000000E+02  0.30000000000E+02  0.00000000000E+00 0.  1.
        -11   -1    0    0    0    0 -0.00000000000E+00 -0.00000000000E+00 -0.30000000000E+02  0.30000000000E+02  0.00000000000E+00 0. -1.
         23    2    1    2    0    0  0.00000000000E+00  0.00000000000E+00  0.00000000000E+00  0.60000000000E+02  0.60000000000E+02 0.  0.
          5    1    3    3  501    0 -0.54917348778E+01 -0.27526861352E+02  0.94880320471E+01  0.30000000000E+02  0.47000000000E+01 0. -1.
         -5    1    3    3    0  501  0.54917348778E+01  0.27526861352E+02 -0.94880320471E+01  0.30000000000E+02  0.47000000000E+01 0.  1.
</event>
<event>
 5    1  0.7959189E-002  0.6000000E+02  0.7546771E-02  0.1259629E+00
         11   -1    0    0    0    0  0.00000000000E+00  0.00000000000E+00  0.30000000000E+02  0.30000000000E+02  0.00000000000E+00 0. -1.
        -11   -1    0    0    0    0 -0.00000000000E+00 -0.00000000000E+00 -0.30000000000E+02  0.30000000000E+02  0.00000000000E+00 0.  1.
         23    2    1    2    0    0  0.00000000000E+00  0.00000000000E+00  0.00000000000E+00  0.60000000000E+02  0.60000000000E+02 0.  0.
          5    1    3    3  501    0 -0.16242028883E+02  0.16148622018E+01 -0.24728500113E+02  0.30000000000E+02  0.47000000000E+01 0.  1.
         -5    1    3    3    0  501  0.16242028883E+02 -0.16148622018E+01  0.24728500113E+02  0.30000000000E+02  0.47000000000E+01 0. -1.
</event>
<event>
 5    1  0.7959189E-002  0.6000000E+02  0.7546771E-02  0.1259629E+00
         11   -1    0    0    0    0  0.00000000000E+00  0.00000000000E+00  0.30000000000E+02  0.30000000000E+02  0.00000000000E+00 0.  1.
        -11   -1    0    0    0    0 -0.00000000000E+00 -0.00000000000E+00 -0.30000000000E+02  0.30000000000E+02  0.00000000000E+00 0. -1.
         23    2    1    2    0    0  0.00000000000E+00  0.00000000000E+00  0.00000000000E+00  0.60000000000E+02  0.60000000000E+02 0.  0.
          5    1    3    3  501    0  0.40462548903E+01 -0.28965979397E+02  0.47444555998E+01  0.30000000000E+02  0.47000000000E+01 0.  1.
         -5    1    3    3    0  501 -0.40462548903E+01  0.28965979397E+02 -0.47444555998E+01  0.30000000000E+02  0.47000000000E+01 0. -1.
</event>
<event>
 5    1  0.7959189E-002  0.6000000E+02  0.7546771E-02  0.1259629E+00
         11   -1    0    0    0    0  0.00000000000E+00  0.00000000000E+00  0.30000000000E+02  0.30000000000E+02  0.00000000000E+00 0. -1.
        -11   -1    0    0    0    0 -0.00000000000E+00 -0.00000000000E+00 -0.30000000000E+02  0.30000000000E+02  0.00000000000E+00 0.  1.
         23    2    1    2    0    0  0.00000000000E+00  0.00000000000E+00  0.00000000000E+00  0.60000000000E+02  0.60000000000E+02 0.  0.
          5    1    3    3  501    0  0.25680553405E+02 -0.38829321568E+01 -0.14259804159E+02  0.30000000000E+02  0.47000000000E+01 0.  1.
         -5    1    3    3    0  501 -0.25680553405E+02  0.38829321568E+01  0.14259804159E+02  0.30000000000E+02  0.47000000000E+01 0. -1.
</event>
<event>
 5    1  0.7959189E-002  0.6000000E+02  0.7546771E-02  0.1259629E+00
         11   -1    0    0    0    0  0.00000000000E+00  0.00000000000E+00  0.30000000000E+02  0.30000000000E+02  0.00000000000E+00 0.  1.
        -11   -1    0    0    0    0 -0.00000000000E+00 -0.00000000000E+00 -0.30000000000E+02  0.30000000000E+02  0.00000000000E+00 0. -1.
         23    2    1    2    0    0  0.00000000000E+00  0.00000000000E+00  0.00000000000E+00  0.60000000000E+02  0.60000000000E+02 0.  0.
          5    1    3    3  501    0  0.22463481318E+02 -0.49937065263E+01 -0.18664535950E+02  0.30000000000E+02  0.47000000000E+01 0. -1.
         -5    1    3    3    0  501 -0.22463481318E+02  0.49937065263E+01  0.18664535950E+02  0.30000000000E+02  0.47000000000E+01 0.  1.
</event>
<event>
 5    1  0.7959189E-002  0.6000000E+02  0.7546771E-02  0.1259629E+00
         11   -1    0    0    0    0  0.00000000000E+00  0.00000000000E+00  0.30000000000E+02  0.30000000000E+02  0.00000000000E+00 0.  1.
        -11   -1    0    0    0    0 -0.00000000000E+00 -0.00000000000E+00 -0.30000000000E+02  0.30000000000E+02  0.00000000000E+00 0. -1.
         23    2    1    2    0    0  0.00000000000E+00  0.00000000000E+00  0.00000000000E+00  0.60000000000E+02  0.60000000000E+02 0.  0.
          5    1    3    3  501    0 -0.26433871099E+02  0.11810402465E+02 -0.62987976911E+01  0.30000000000E+02  0.47000000000E+01 0. -1.
         -5    1    3    3    0  501  0.26433871099E+02 -0.11810402465E+02  0.62987976911E+01  0.30000000000E+02  0.47000000000E+01 0.  1.
</event>
<event>
 5    1  0.7959189E-002  0.6000000E+02  0.7546771E-02  0.1259629E+00
         11   -1    0    0    0    0  0.00000000000E+00  0.00000000000E+00  0.30000000000E+02  0.30000000000E+02  0.00000000000E+00 0.  1.
        -11   -1    0    0    0    0 -0.00000000000E+00 -0.00000000000E+00 -0.30000000000E+02  0.30000000000E+02  0.00000000000E+00 0. -1.
         23    2    1    2    0    0  0.00000000000E+00  0.00000000000E+00  0.00000000000E+00  0.60000000000E+02  0.60000000000E+02 0.  0.
          5    1    3    3  501    0  0.20733795150E+02 -0.19686017124E+02 -0.77769189584E+01  0.30000000000E+02  0.47000000000E+01 0. -1.
         -5    1    3    3    0  501 -0.20733795150E+02  0.19686017124E+02  0.77769189584E+01  0.30000000000E+02  0.47000000000E+01 0.  1.
</event>
<event>
 5    1  0.7959189E-002  0.6000000E+02  0.7546771E-02  0.1259629E+00
         11   -1    0    0    0    0  0.00000000000E+00  0.00000000000E+00  0.30000000000E+02  0.30000000000E+02  0.00000000000E+00 0. -1.
        -11   -1    0    0    0    0 -0.00000000000E+00 -0.00000000000E+00 -0.30000000000E+02  0.30000000000E+02  0.00000000000E+00 0.  1.
         23    2    1    2    0    0  0.00000000000E+00  0.00000000000E+00  0.00000000000E+00  0.60000000000E+02  0.60000000000E+02 0.  0.
          5    1    3    3  501    0  0.13673523436E+02 -0.17041746776E+02 -0.20013086311E+02  0.30000000000E+02  0.47000000000E+01 0.  1.
         -5    1    3    3    0  501 -0.13673523436E+02  0.17041746776E+02  0.20013086311E+02  0.30000000000E+02  0.47000000000E+01 0. -1.
</event>
<event>
 5    1  0.7959189E-002  0.6000000E+02  0.7546771E-02  0.1259629E+00
         11   -1    0    0    0    0  0.00000000000E+00  0.00000000000E+00  0.30000000000E+02  0.30000000000E+02  0.00000000000E+00 0.  1.
        -11   -1    0    0    0    0 -0.00000000000E+00 -0.00000000000E+00 -0.30000000000E+02  0.30000000000E+02  0.00000000000E+00 0. -1.
         23    2    1    2    0    0  0.00000000000E+00  0.00000000000E+00  0.00000000000E+00  0.60000000000E+02  0.60000000000E+02 0.  0.
          5    1    3    3  501    0  0.14916350729E+02 -0.23384257513E+02  0.10420603701E+02  0.30000000000E+02  0.47000000000E+01 0. -1.
         -5    1    3    3    0  501 -0.14916350729E+02  0.23384257513E+02 -0.10420603701E+02  0.30000000000E+02  0.47000000000E+01 0.  1.
</event>
<event>
 5    1  0.7959189E-002  0.6000000E+02  0.7546771E-02  0.1259629E+00
         11   -1    0    0    0    0  0.00000000000E+00  0.00000000000E+00  0.30000000000E+02  0.30000000000E+02  0.00000000000E+00 0. -1.
        -11   -1    0    0    0    0 -0.00000000000E+00 -0.00000000000E+00 -0.30000000000E+02  0.30000000000E+02  0.00000000000E+00 0.  1.
         23    2    1    2    0    0  0.00000000000E+00  0.00000000000E+00  0.00000000000E+00  0.60000000000E+02  0.60000000000E+02 0.  0.
          5    1    3    3  501    0  0.31267272195E+01  0.27451221834E+02  0.10703457232E+02  0.30000000000E+02  0.47000000000E+01 0.  1.
         -5    1    3    3    0  501 -0.31267272195E+01 -0.27451221834E+02 -0.10703457232E+02  0.30000000000E+02  0.47000000000E+01 0. -1.
</event>
<event>
 5    1  0.7959189E-002  0.6000000E+02  0.7546771E-02  0.1259629E+00
         11   -1    0    0    0    0  0.00000000000E+00  0.00000000000E+00  0.30000000000E+02  0.30000000000E+02  0.00000000000E+00 0. -1.
        -11   -1    0    0    0    0 -0.00000000000E+00 -0.00000000000E+00 -0.30000000000E+02  0.30000000000E+02  0.00000000000E+00 0.  1.
         23    2    1    2    0    0  0.00000000000E+00  0.00000000000E+00  0.00000000000E+00  0.60000000000E+02  0.60000000000E+02 0.  0.
          5    1    3    3  501    0 -0.33179836496E+01 -0.57279501349E+01 -0.28880643548E+02  0.30000000000E+02  0.47000000000E+01 0.  1.
         -5    1    3    3    0  501  0.33179836496E+01  0.57279501349E+01  0.28880643548E+02  0.30000000000E+02  0.47000000000E+01 0. -1.
</event>
<event>
 5    1  0.7959189E-002  0.6000000E+02  0.7546771E-02  0.1259629E+00
         11   -1    0    0    0    0  0.00000000000E+00  0.00000000000E+00  0.30000000000E+02  0.30000000000E+02  0.00000000000E+00 0. -1.
        -11   -1    0    0    0    0 -0.00000000000E+00 -0.00000000000E+00 -0.30000000000E+02  0.30000000000E+02  0.00000000000E+00 0.  1.
         23    2    1    2    0    0  0.00000000000E+00  0.00000000000E+00  0.00000000000E+00  0.60000000000E+02  0.60000000000E+02 0.  0.
          5    1    3    3  501    0  0.34879629821E+01  0.25533650493E+02 -0.14621108259E+02  0.30000000000E+02  0.47000000000E+01 0.  1.
         -5    1    3    3    0  501 -0.34879629821E+01 -0.25533650493E+02  0.14621108259E+02  0.30000000000E+02  0.47000000000E+01 0. -1.
</event>
<event>
 5    1  0.7959189E-002  0.6000000E+02  0.7546771E-02  0.1259629E+00
         11   -1    0    0    0    0  0.00000000000E+00  0.00000000000E+00  0.30000000000E+02  0.30000000000E+02  0.00000000000E+00 0.  1.
        -11   -1    0    0    0    0 -0.00000000000E+00 -0.00000000000E+00 -0.30000000000E+02  0.30000000000E+02  0.00000000000E+00 0. -1.
         23    2    1    2    0    0  0.00000000000E+00  0.00000000000E+00  0.00000000000E+00  0.60000000000E+02  0.60000000000E+02 0.  0.
          5    1    3    3  501    0 -0.18812978633E+02  0.22835695914E+02  0.15851899208E+01  0.30000000000E+02  0.47000000000E+01 0. -1.
         -5    1    3    3    0  501  0.18812978633E+02 -0.22835695914E+02 -0.15851899208E+01  0.30000000000E+02  0.47000000000E+01 0.  1.
</event>
<event>
 5    1  0.7959189E-002  0.6000000E+02  0.7546771E-02  0.1259629E+00
         11   -1    0    0    0    0  0.00000000000E+00  0.00000000000E+00  0.30000000000E+02  0.30000000000E+02  0.00000000000E+00 0.  1.
        -11   -1    0    0    0    0 -0.00000000000E+00 -0.00000000000E+00 -0.30000000000E+02  0.30000000000E+02  0.00000000000E+00 0. -1.
         23    2    1    2    0    0  0.00000000000E+00  0.00000000000E+00  0.00000000000E+00  0.60000000000E+02  0.60000000000E+02 0.  0.
          5    1    3    3  501    0  0.23319337464E+02 -0.44390717514E+01 -0.17731698798E+02  0.30000000000E+02  0.47000000000E+01 0. -1.
         -5    1    3    3    0  501 -0.23319337464E+02  0.44390717514E+01  0.17731698798E+02  0.30000000000E+02  0.47000000000E+01 0.  1.
</event>
<event>
 5    1  0.7959189E-002  0.6000000E+02  0.7546771E-02  0.1259629E+00
         11   -1    0    0    0    0  0.00000000000E+00  0.00000000000E+00  0.30000000000E+02  0.30000000000E+02  0.00000000000E+00 0. -1.
        -11   -1    0    0    0    0 -0.00000000000E+00 -0.00000000000E+00 -0.30000000000E+02  0.30000000000E+02  0.00000000000E+00 0.  1.
         23    2    1    2    0    0  0.00000000000E+00  0.00000000000E+00  0.00000000000E+00  0.60000000000E+02  0.60000000000E+02 0.  0.
          5    1    3    3  501    0  0.13821816639E+02  0.10102951767E+02 -0.24182591887E+02  0.30000000000E+02  0.47000000000E+01 0.  1.
         -5    1    3    3    0  501 -0.13821816639E+02 -0.10102951767E+02  0.24182591887E+02  0.30000000000E+02  0.47000000000E+01 0. -1.
</event>
<event>
 5    1  0.7959189E-002  0.6000000E+02  0.7546771E-02  0.1259629E+00
         11   -1    0    0    0    0  0.00000000000E+00  0.00000000000E+00  0.30000000000E+02  0.30000000000E+02  0.00000000000E+00 0.  1.
        -11   -1    0    0    0    0 -0.00000000000E+00 -0.00000000000E+00 -0.30000000000E+02  0.30000000000E+02  0.00000000000E+00 0. -1.
         23    2    1    2    0    0  0.00000000000E+00  0.00000000000E+00  0.00000000000E+00  0.60000000000E+02  0.60000000000E+02 0.  0.
          5    1    3    3  501    0  0.14797911716E+02 -0.18155456550E+02 -0.18146933799E+02  0.30000000000E+02  0.47000000000E+01 0. -1.
         -5    1    3    3    0  501 -0.14797911716E+02  0.18155456550E+02  0.18146933799E+02  0.30000000000E+02  0.47000000000E+01 0.  1.
</event>
<event>
 5    1  0.7959189E-002  0.6000000E+02  0.7546771E-02  0.1259629E+00
         11   -1    0    0    0    0  0.00000000000E+00  0.00000000000E+00  0.30000000000E+02  0.30000000000E+02  0.00000000000E+00 0.  1.
        -11   -1    0    0    0    0 -0.00000000000E+00 -0.00000000000E+00 -0.30000000000E+02  0.30000000000E+02  0.00000000000E+00 0. -1.
         23    2    1    2    0    0  0.00000000000E+00  0.00000000000E+00  0.00000000000E+00  0.60000000000E+02  0.60000000000E+02 0.  0.
          5    1    3    3  501    0  0.38970485684E+00  0.28532314182E+02  0.79790461561E+01  0.30000000000E+02  0.47000000000E+01 0.  1.
         -5    1    3    3    0  501 -0.38970485684E+00 -0.28532314182E+02 -0.79790461561E+01  0.30000000000E+02  0.47000000000E+01 0. -1.
</event>
<event>
 5    1  0.7959189E-002  0.6000000E+02  0.7546771E-02  0.1259629E+00
         11   -1    0    0    0    0  0.00000000000E+00  0.00000000000E+00  0.30000000000E+02  0.30000000000E+02  0.00000000000E+00 0.  1.
        -11   -1    0    0    0    0 -0.00000000000E+00 -0.00000000000E+00 -0.30000000000E+02  0.30000000000E+02  0.00000000000E+00 0. -1.
         23    2    1    2    0    0  0.00000000000E+00  0.00000000000E+00  0.00000000000E+00  0.60000000000E+02  0.60000000000E+02 0.  0.
          5    1    3    3  501    0  0.15484337083E+02  0.13024628099E+02  0.21644961723E+02  0.30000000000E+02  0.47000000000E+01 0.  1.
         -5    1    3    3    0  501 -0.15484337083E+02 -0.13024628099E+02 -0.21644961723E+02  0.30000000000E+02  0.47000000000E+01 0. -1.
</event>
<event>
 5    1  0.7959189E-002  0.6000000E+02  0.7546771E-02  0.1259629E+00
         11   -1    0    0    0    0  0.00000000000E+00  0.00000000000E+00  0.30000000000E+02  0.30000000000E+02  0.00000000000E+00 0. -1.
        -11   -1    0    0    0    0 -0.00000000000E+00 -0.00000000000E+00 -0.30000000000E+02  0.30000000000E+02  0.00000000000E+00 0.  1.
         23    2    1    2    0    0  0.00000000000E+00  0.00000000000E+00  0.00000000000E+00  0.60000000000E+02  0.60000000000E+02 0.  0.
          5    1    3    3  501    0  0.10721209748E+02 -0.10428293323E+02 -0.25577653526E+02  0.30000000000E+02  0.47000000000E+01 0.  1.
         -5    1    3    3    0  501 -0.10721209748E+02  0.10428293323E+02  0.25577653526E+02  0.30000000000E+02  0.47000000000E+01 0. -1.
</event>
<event>
 5    1  0.7959189E-002  0.6000000E+02  0.7546771E-02  0.1259629E+00
         11   -1    0    0    0    0  0.00000000000E+00  0.00000000000E+00  0.30000000000E+02  0.30000000000E+02  0.00000000000E+00 0.  1.
        -11   -1    0    0    0    0 -0.00000000000E+00 -0.00000000000E+00 -0.30000000000E+02  0.30000000000E+02  0.00000000000E+00 0. -1.
         23    2    1    2    0    0  0.00000000000E+00  0.00000000000E+00  0.00000000000E+00  0.60000000000E+02  0.60000000000E+02 0.  0.
          5    1    3    3  501    0 -0.18992618648E+02 -0.23670848779E+01 -0.22618296711E+02  0.30000000000E+02  0.47000000000E+01 0. -1.
         -5    1    3    3    0  501  0.18992618648E+02  0.23670848779E+01  0.22618296711E+02  0.30000000000E+02  0.47000000000E+01 0.  1.
</event>
<event>
 5    1  0.7959189E-002  0.6000000E+02  0.7546771E-02  0.1259629E+00
         11   -1    0    0    0    0  0.00000000000E+00  0.00000000000E+00  0.30000000000E+02  0.30000000000E+02  0.00000000000E+00 0. -1.
        -11   -1    0    0    0    0 -0.00000000000E+00 -0.00000000000E+00 -0.30000000000E+02  0.30000000000E+02  0.00000000000E+00 0.  1.
         23    2    1    2    0    0  0.00000000000E+00  0.00000000000E+00  0.00000000000E+00  0.60000000000E+02  0.60000000000E+02 0.  0.
          5    1    3    3  501    0 -0.12173918785E+02 -0.26363389287E+02 -0.58887525604E+01  0.30000000000E+02  0.47000000000E+01 0.  1.
         -5    1    3    3    0  501  0.12173918785E+02  0.26363389287E+02  0.58887525604E+01  0.30000000000E+02  0.47000000000E+01 0. -1.
</event>
<event>
 5    1  0.7959189E-002  0.6000000E+02  0.7546771E-02  0.1259629E+00
         11   -1    0    0    0    0  0.00000000000E+00  0.00000000000E+00  0.30000000000E+02  0.30000000000E+02  0.00000000000E+00 0.  1.
        -11   -1    0    0    0    0 -0.00000000000E+00 -0.00000000000E+00 -0.30000000000E+02  0.30000000000E+02  0.00000000000E+00 0. -1.
         23    2    1    2    0    0  0.00000000000E+00  0.00000000000E+00  0.00000000000E+00  0.60000000000E+02  0.60000000000E+02 0.  0.
          5    1    3    3  501    0 -0.33460116131E+01 -0.27998366202E+02  0.90997635310E+01  0.30000000000E+02  0.47000000000E+01 0. -1.
         -5    1    3    3    0  501  0.33460116131E+01  0.27998366202E+02 -0.90997635310E+01  0.30000000000E+02  0.47000000000E+01 0.  1.
</event>
<event>
 5    1  0.7959189E-002  0.6000000E+02  0.7546771E-02  0.1259629E+00
         11   -1    0    0    0    0  0.00000000000E+00  0.00000000000E+00  0.30000000000E+02  0.30000000000E+02  0.00000000000E+00 0.  1.
        -11   -1    0    0    0    0 -0.00000000000E+00 -0.00000000000E+00 -0.30000000000E+02  0.30000000000E+02  0.00000000000E+00 0. -1.
         23    2    1    2    0    0  0.00000000000E+00  0.00000000000E+00  0.00000000000E+00  0.60000000000E+02  0.60000000000E+02 0.  0.
          5    1    3    3  501    0  0.16696534154E+02  0.10118515779E+02 -0.22287920174E+02  0.30000000000E+02  0.47000000000E+01 0. -1.
         -5    1    3    3    0  501 -0.16696534154E+02 -0.10118515779E+02  0.22287920174E+02  0.30000000000E+02  0.47000000000E+01 0.  1.
</event>
<event>
 5    1  0.7959189E-002  0.6000000E+02  0.7546771E-02  0.1259629E+00
         11   -1    0    0    0    0  0.00000000000E+00  0.00000000000E+00  0.30000000000E+02  0.30000000000E+02  0.00000000000E+00 0.  1.
        -11   -1    0    0    0    0 -0.00000000000E+00 -0.00000000000E+00 -0.30000000000E+02  0.30000000000E+02  0.00000000000E+00 0. -1.
         23    2    1    2    0    0  0.00000000000E+00  0.00000000000E+00  0.00000000000E+00  0.60000000000E+02  0.60000000000E+02 0.  0.
          5    1    3    3  501    0 -0.19529337522E+02  0.32915950630E+01 -0.22038157317E+02  0.30000000000E+02  0.47000000000E+01 0. -1.
         -5    1    3    3    0  501  0.19529337522E+02 -0.32915950630E+01  0.22038157317E+02  0.30000000000E+02  0.47000000000E+01 0.  1.
</event>
<event>
 5    1  0.7959189E-002  0.6000000E+02  0.7546771E-02  0.1259629E+00
         11   -1    0    0    0    0  0.00000000000E+00  0.00000000000E+00  0.30000000000E+02  0.30000000000E+02  0.00000000000E+00 0.  1.
        -11   -1    0    0    0    0 -0.00000000000E+00 -0.00000000000E+00 -0.30000000000E+02  0.30000000000E+02  0.00000000000E+00 0. -1.
         23    2    1    2    0    0  0.00000000000E+00  0.00000000000E+00  0.00000000000E+00  0.60000000000E+02  0.60000000000E+02 0.  0.
          5    1    3    3  501    0 -0.24996798444E+01  0.16382259842E+00 -0.29523461227E+02  0.30000000000E+02  0.47000000000E+01 0. -1.
         -5    1    3    3    0  501  0.24996798444E+01 -0.16382259842E+00  0.29523461227E+02  0.30000000000E+02  0.47000000000E+01 0.  1.
</event>
<event>
 5    1  0.7959189E-002  0.6000000E+02  0.7546771E-02  0.1259629E+00
         11   -1    0    0    0    0  0.00000000000E+00  0.00000000000E+00  0.30000000000E+02  0.30000000000E+02  0.00000000000E+00 0.  1.
        -11   -1    0    0    0    0 -0.00000000000E+00 -0.00000000000E+00 -0.30000000000E+02  0.30000000000E+02  0.00000000000E+00 0. -1.
         23    2    1    2    0    0  0.00000000000E+00  0.00000000000E+00  0.00000000000E+00  0.60000000000E+02  0.60000000000E+02 0.  0.
          5    1    3    3  501    0  0.13113842604E+02 -0.19153248856E+02 -0.18414401712E+02  0.30000000000E+02  0.47000000000E+01 0. -1.
         -5    1    3    3    0  501 -0.13113842604E+02  0.19153248856E+02  0.18414401712E+02  0.30000000000E+02  0.47000000000E+01 0.  1.
</event>
<event>
 5    1  0.7959189E-002  0.6000000E+02  0.7546771E-02  0.1259629E+00
         11   -1    0    0    0    0  0.00000000000E+00  0.00000000000E+00  0.30000000000E+02  0.30000000000E+02  0.00000000000E+00 0. -1.
        -11   -1    0    0    0    0 -0.00000000000E+00 -0.00000000000E+00 -0.30000000000E+02  0.30000000000E+02  0.00000000000E+00 0.  1.
         23    2    1    2    0    0  0.00000000000E+00  0.00000000000E+00  0.00000000000E+00  0.60000000000E+02  0.60000000000E+02 0.  0.
          5    1    3    3  501    0  0.11358861418E+02 -0.19647436255E+01 -0.27295165319E+02  0.30000000000E+02  0.47000000000E+01 0.  1.
         -5    1    3    3    0  501 -0.11358861418E+02  0.19647436255E+01  0.27295165319E+02  0.30000000000E+02  0.47000000000E+01 0. -1.
</event>
<event>
 5    1  0.7959189E-002  0.6000000E+02  0.7546771E-02  0.1259629E+00
         11   -1    0    0    0    0  0.00000000000E+00  0.00000000000E+00  0.30000000000E+02  0.30000000000E+02  0.00000000000E+00 0.  1.
        -11   -1    0    0    0    0 -0.00000000000E+00 -0.00000000000E+00 -0.30000000000E+02  0.30000000000E+02  0.00000000000E+00 0. -1.
         23    2    1    2    0    0  0.00000000000E+00  0.00000000000E+00  0.00000000000E+00  0.60000000000E+02  0.60000000000E+02 0.  0.
          5    1    3    3  501    0 -0.12317632224E+02  0.13071134202E+02 -0.23565470228E+02  0.30000000000E+02  0.47000000000E+01 0. -1.
         -5    1    3    3    0  501  0.12317632224E+02 -0.13071134202E+02  0.23565470228E+02  0.30000000000E+02  0.47000000000E+01 0.  1.
</event>
<event>
 5    1  0.7959189E-002  0.6000000E+02  0.7546771E-02  0.1259629E+00
         11   -1    0    0    0    0  0.00000000000E+00  0.00000000000E+00  0.30000000000E+02  0.30000000000E+02  0.00000000000E+00 0.  1.
        -11   -1    0    0    0    0 -0.00000000000E+00 -0.00000000000E+00 -0.30000000000E+02  0.30000000000E+02  0.00000000000E+00 0. -1.
         23    2    1    2    0    0  0.00000000000E+00  0.00000000000E+00  0.00000000000E+00  0.60000000000E+02  0.60000000000E+02 0.  0.
          5    1    3    3  501    0 -0.11640406289E+02 -0.93326270895E+01 -0.25599082270E+02  0.30000000000E+02  0.47000000000E+01 0. -1.
         -5    1    3    3    0  501  0.11640406289E+02  0.93326270895E+01  0.25599082270E+02  0.30000000000E+02  0.47000000000E+01 0.  1.
</event>
<event>
 5    1  0.7959189E-002  0.6000000E+02  0.7546771E-02  0.1259629E+00
         11   -1    0    0    0    0  0.00000000000E+00  0.00000000000E+00  0.30000000000E+02  0.30000000000E+02  0.00000000000E+00 0.  1.
        -11   -1    0    0    0    0 -0.00000000000E+00 -0.00000000000E+00 -0.30000000000E+02  0.30000000000E+02  0.00000000000E+00 0. -1.
         23    2    1    2    0    0  0.00000000000E+00  0.00000000000E+00  0.00000000000E+00  0.60000000000E+02  0.60000000000E+02 0.  0.
          5    1    3    3  501    0  0.84657067889E+00  0.24632410408E+02 -0.16444989376E+02  0.30000000000E+02  0.47000000000E+01 0. -1.
         -5    1    3    3    0  501 -0.84657067889E+00 -0.24632410408E+02  0.16444989376E+02  0.30000000000E+02  0.47000000000E+01 0. -1.
</event>
<event>
 5    1  0.7959189E-002  0.6000000E+02  0.7546771E-02  0.1259629E+00
         11   -1    0    0    0    0  0.00000000000E+00  0.00000000000E+00  0.30000000000E+02  0.30000000000E+02  0.00000000000E+00 0.  1.
        -11   -1    0    0    0    0 -0.00000000000E+00 -0.00000000000E+00 -0.30000000000E+02  0.30000000000E+02  0.00000000000E+00 0. -1.
         23    2    1    2    0    0  0.00000000000E+00  0.00000000000E+00  0.00000000000E+00  0.60000000000E+02  0.60000000000E+02 0.  0.
          5    1    3    3  501    0 -0.75091812069E+00  0.26502653713E+02  0.13227073302E+02  0.30000000000E+02  0.47000000000E+01 0. -1.
         -5    1    3    3    0  501  0.75091812069E+00 -0.26502653713E+02 -0.13227073302E+02  0.30000000000E+02  0.47000000000E+01 0.  1.
</event>
<event>
 5    1  0.7959189E-002  0.6000000E+02  0.7546771E-02  0.1259629E+00
         11   -1    0    0    0    0  0.00000000000E+00  0.00000000000E+00  0.30000000000E+02  0.30000000000E+02  0.00000000000E+00 0. -1.
        -11   -1    0    0    0    0 -0.00000000000E+00 -0.00000000000E+00 -0.30000000000E+02  0.30000000000E+02  0.00000000000E+00 0.  1.
         23    2    1    2    0    0  0.00000000000E+00  0.00000000000E+00  0.00000000000E+00  0.60000000000E+02  0.60000000000E+02 0.  0.
          5    1    3    3  501    0  0.84378613435E+01  0.21721325048E+02 -0.18300178527E+02  0.30000000000E+02  0.47000000000E+01 0.  1.
         -5    1    3    3    0  501 -0.84378613435E+01 -0.21721325048E+02  0.18300178527E+02  0.30000000000E+02  0.47000000000E+01 0. -1.
</event>
<event>
 5    1  0.7959189E-002  0.6000000E+02  0.7546771E-02  0.1259629E+00
         11   -1    0    0    0    0  0.00000000000E+00  0.00000000000E+00  0.30000000000E+02  0.30000000000E+02  0.00000000000E+00 0. -1.
        -11   -1    0    0    0    0 -0.00000000000E+00 -0.00000000000E+00 -0.30000000000E+02  0.30000000000E+02  0.00000000000E+00 0.  1.
         23    2    1    2    0    0  0.00000000000E+00  0.00000000000E+00  0.00000000000E+00  0.60000000000E+02  0.60000000000E+02 0.  0.
          5    1    3    3  501    0  0.10419735420E+02  0.47393049497E+01 -0.27329070646E+02  0.30000000000E+02  0.47000000000E+01 0.  1.
         -5    1    3    3    0  501 -0.10419735420E+02 -0.47393049497E+01  0.27329070646E+02  0.30000000000E+02  0.47000000000E+01 0. -1.
</event>
<event>
 5    1  0.7959189E-002  0.6000000E+02  0.7546771E-02  0.1259629E+00
         11   -1    0    0    0    0  0.00000000000E+00  0.00000000000E+00  0.30000000000E+02  0.30000000000E+02  0.00000000000E+00 0.  1.
        -11   -1    0    0    0    0 -0.00000000000E+00 -0.00000000000E+00 -0.30000000000E+02  0.30000000000E+02  0.00000000000E+00 0. -1.
         23    2    1    2    0    0  0.00000000000E+00  0.00000000000E+00  0.00000000000E+00  0.60000000000E+02  0.60000000000E+02 0.  0.
          5    1    3    3  501    0 -0.26667507559E+02  0.54207733537E+01 -0.11720463166E+02  0.30000000000E+02  0.47000000000E+01 0. -1.
         -5    1    3    3    0  501  0.26667507559E+02 -0.54207733537E+01  0.11720463166E+02  0.30000000000E+02  0.47000000000E+01 0.  1.
</event>
<event>
 5    1  0.7959189E-002  0.6000000E+02  0.7546771E-02  0.1259629E+00
         11   -1    0    0    0    0  0.00000000000E+00  0.00000000000E+00  0.30000000000E+02  0.30000000000E+02  0.00000000000E+00 0.  1.
        -11   -1    0    0    0    0 -0.00000000000E+00 -0.00000000000E+00 -0.30000000000E+02  0.30000000000E+02  0.00000000000E+00 0. -1.
         23    2    1    2    0    0  0.00000000000E+00  0.00000000000E+00  0.00000000000E+00  0.60000000000E+02  0.60000000000E+02 0.  0.
          5    1    3    3  501    0 -0.22434701043E+02 -0.19239005808E+02  0.21106502894E+01  0.30000000000E+02  0.47000000000E+01 0. -1.
         -5    1    3    3    0  501  0.22434701043E+02  0.19239005808E+02 -0.21106502894E+01  0.30000000000E+02  0.47000000000E+01 0.  1.
</event>
<event>
 5    1  0.7959189E-002  0.6000000E+02  0.7546771E-02  0.1259629E+00
         11   -1    0    0    0    0  0.00000000000E+00  0.00000000000E+00  0.30000000000E+02  0.30000000000E+02  0.00000000000E+00 0.  1.
        -11   -1    0    0    0    0 -0.00000000000E+00 -0.00000000000E+00 -0.30000000000E+02  0.30000000000E+02  0.00000000000E+00 0. -1.
         23    2    1    2    0    0  0.00000000000E+00  0.00000000000E+00  0.00000000000E+00  0.60000000000E+02  0.60000000000E+02 0.  0.
          5    1    3    3  501    0 -0.26612404825E+02  0.91498972202E+01 -0.92719625911E+01  0.30000000000E+02  0.47000000000E+01 0. -1.
         -5    1    3    3    0  501  0.26612404825E+02 -0.91498972202E+01  0.92719625911E+01  0.30000000000E+02  0.47000000000E+01 0.  1.
</event>
<event>
 5    1  0.7959189E-002  0.6000000E+02  0.7546771E-02  0.1259629E+00
         11   -1    0    0    0    0  0.00000000000E+00  0.00000000000E+00  0.30000000000E+02  0.30000000000E+02  0.00000000000E+00 0.  1.
        -11   -1    0    0    0    0 -0.00000000000E+00 -0.00000000000E+00 -0.30000000000E+02  0.30000000000E+02  0.00000000000E+00 0. -1.
         23    2    1    2    0    0  0.00000000000E+00  0.00000000000E+00  0.00000000000E+00  0.60000000000E+02  0.60000000000E+02 0.  0.
          5    1    3    3  501    0  0.14228000251E+02 -0.25815985144E+02 -0.30014862797E+01  0.30000000000E+02  0.47000000000E+01 0. -1.
         -5    1    3    3    0  501 -0.14228000251E+02  0.25815985144E+02  0.30014862797E+01  0.30000000000E+02  0.47000000000E+01 0.  1.
</event>
<event>
 5    1  0.7959189E-002  0.6000000E+02  0.7546771E-02  0.1259629E+00
         11   -1    0    0    0    0  0.00000000000E+00  0.00000000000E+00  0.30000000000E+02  0.30000000000E+02  0.00000000000E+00 0.  1.
        -11   -1    0    0    0    0 -0.00000000000E+00 -0.00000000000E+00 -0.30000000000E+02  0.30000000000E+02  0.00000000000E+00 0. -1.
         23    2    1    2    0    0  0.00000000000E+00  0.00000000000E+00  0.00000000000E+00  0.60000000000E+02  0.60000000000E+02 0.  0.
          5    1    3    3  501    0  0.15700835512E+02  0.22750211286E+02  0.10668723009E+02  0.30000000000E+02  0.47000000000E+01 0. -1.
         -5    1    3    3    0  501 -0.15700835512E+02 -0.22750211286E+02 -0.10668723009E+02  0.30000000000E+02  0.47000000000E+01 0.  1.
</event>
<event>
 5    1  0.7959189E-002  0.6000000E+02  0.7546771E-02  0.1259629E+00
         11   -1    0    0    0    0  0.00000000000E+00  0.00000000000E+00  0.30000000000E+02  0.30000000000E+02  0.00000000000E+00 0.  1.
        -11   -1    0    0    0    0 -0.00000000000E+00 -0.00000000000E+00 -0.30000000000E+02  0.30000000000E+02  0.00000000000E+00 0. -1.
         23    2    1    2    0    0  0.00000000000E+00  0.00000000000E+00  0.00000000000E+00  0.60000000000E+02  0.60000000000E+02 0.  0.
          5    1    3    3  501    0 -0.20589945155E+02  0.20021110658E+02  0.72882979196E+01  0.30000000000E+02  0.47000000000E+01 0. -1.
         -5    1    3    3    0  501  0.20589945155E+02 -0.20021110658E+02 -0.72882979196E+01  0.30000000000E+02  0.47000000000E+01 0.  1.
</event>
<event>
 5    1  0.7959189E-002  0.6000000E+02  0.7546771E-02  0.1259629E+00
         11   -1    0    0    0    0  0.00000000000E+00  0.00000000000E+00  0.30000000000E+02  0.30000000000E+02  0.00000000000E+00 0.  1.
        -11   -1    0    0    0    0 -0.00000000000E+00 -0.00000000000E+00 -0.30000000000E+02  0.30000000000E+02  0.00000000000E+00 0. -1.
         23    2    1    2    0    0  0.00000000000E+00  0.00000000000E+00  0.00000000000E+00  0.60000000000E+02  0.60000000000E+02 0.  0.
          5    1    3    3  501    0 -0.24282222560E+02 -0.10424585982E+02 -0.13401928020E+02  0.30000000000E+02  0.47000000000E+01 0. -1.
         -5    1    3    3    0  501  0.24282222560E+02  0.10424585982E+02  0.13401928020E+02  0.30000000000E+02  0.47000000000E+01 0.  1.
</event>
<event>
 5    1  0.7959189E-002  0.6000000E+02  0.7546771E-02  0.1259629E+00
         11   -1    0    0    0    0  0.00000000000E+00  0.00000000000E+00  0.30000000000E+02  0.30000000000E+02  0.00000000000E+00 0. -1.
        -11   -1    0    0    0    0 -0.00000000000E+00 -0.00000000000E+00 -0.30000000000E+02  0.30000000000E+02  0.00000000000E+00 0.  1.
         23    2    1    2    0    0  0.00000000000E+00  0.00000000000E+00  0.00000000000E+00  0.60000000000E+02  0.60000000000E+02 0.  0.
          5    1    3    3  501    0 -0.28652191336E+02  0.17171679144E+00  0.75453591696E+01  0.30000000000E+02  0.47000000000E+01 0.  1.
         -5    1    3    3    0  501  0.28652191336E+02 -0.17171679144E+00 -0.75453591696E+01  0.30000000000E+02  0.47000000000E+01 0. -1.
</event>
<event>
 5    1  0.7959189E-002  0.6000000E+02  0.7546771E-02  0.1259629E+00
         11   -1    0    0    0    0  0.00000000000E+00  0.00000000000E+00  0.30000000000E+02  0.30000000000E+02  0.00000000000E+00 0.  1.
        -11   -1    0    0    0    0 -0.00000000000E+00 -0.00000000000E+00 -0.30000000000E+02  0.30000000000E+02  0.00000000000E+00 0. -1.
         23    2    1    2    0    0  0.00000000000E+00  0.00000000000E+00  0.00000000000E+00  0.60000000000E+02  0.60000000000E+02 0.  0.
          5    1    3    3  501    0 -0.11526982411E+02 -0.25580308401E+02 -0.95229458999E+01  0.30000000000E+02  0.47000000000E+01 0. -1.
         -5    1    3    3    0  501  0.11526982411E+02  0.25580308401E+02  0.95229458999E+01  0.30000000000E+02  0.47000000000E+01 0.  1.
</event>
<event>
 5    1  0.7959189E-002  0.6000000E+02  0.7546771E-02  0.1259629E+00
         11   -1    0    0    0    0  0.00000000000E+00  0.00000000000E+00  0.30000000000E+02  0.30000000000E+02  0.00000000000E+00 0.  1.
        -11   -1    0    0    0    0 -0.00000000000E+00 -0.00000000000E+00 -0.30000000000E+02  0.30000000000E+02  0.00000000000E+00 0. -1.
         23    2    1    2    0    0  0.00000000000E+00  0.00000000000E+00  0.00000000000E+00  0.60000000000E+02  0.60000000000E+02 0.  0.
          5    1    3    3  501    0  0.14813901695E+02 -0.17494672929E+02 -0.18772179833E+02  0.30000000000E+02  0.47000000000E+01 0. -1.
         -5    1    3    3    0  501 -0.14813901695E+02  0.17494672929E+02  0.18772179833E+02  0.30000000000E+02  0.47000000000E+01 0.  1.
</event>
<event>
 5    1  0.7959189E-002  0.6000000E+02  0.7546771E-02  0.1259629E+00
         11   -1    0    0    0    0  0.00000000000E+00  0.00000000000E+00  0.30000000000E+02  0.30000000000E+02  0.00000000000E+00 0. -1.
        -11   -1    0    0    0    0 -0.00000000000E+00 -0.00000000000E+00 -0.30000000000E+02  0.30000000000E+02  0.00000000000E+00 0.  1.
         23    2    1    2    0    0  0.00000000000E+00  0.00000000000E+00  0.00000000000E+00  0.60000000000E+02  0.60000000000E+02 0.  0.
          5    1    3    3  501    0 -0.10205844402E+02  0.27692323302E+02 -0.26241132197E+01  0.30000000000E+02  0.47000000000E+01 0.  1.
         -5    1    3    3    0  501  0.10205844402E+02 -0.27692323302E+02  0.26241132197E+01  0.30000000000E+02  0.47000000000E+01 0. -1.
</event>
<event>
 5    1  0.7959189E-002  0.6000000E+02  0.7546771E-02  0.1259629E+00
         11   -1    0    0    0    0  0.00000000000E+00  0.00000000000E+00  0.30000000000E+02  0.30000000000E+02  0.00000000000E+00 0.  1.
        -11   -1    0    0    0    0 -0.00000000000E+00 -0.00000000000E+00 -0.30000000000E+02  0.30000000000E+02  0.00000000000E+00 0. -1.
         23    2    1    2    0    0  0.00000000000E+00  0.00000000000E+00  0.00000000000E+00  0.60000000000E+02  0.60000000000E+02 0.  0.
          5    1    3    3  501    0  0.14597587873E+01  0.28768105786E+02 -0.69408352343E+01  0.30000000000E+02  0.47000000000E+01 0. -1.
         -5    1    3    3    0  501 -0.14597587873E+01 -0.28768105786E+02  0.69408352343E+01  0.30000000000E+02  0.47000000000E+01 0.  1.
</event>
<event>
 5    1  0.7959189E-002  0.6000000E+02  0.7546771E-02  0.1259629E+00
         11   -1    0    0    0    0  0.00000000000E+00  0.00000000000E+00  0.30000000000E+02  0.30000000000E+02  0.00000000000E+00 0.  1.
        -11   -1    0    0    0    0 -0.00000000000E+00 -0.00000000000E+00 -0.30000000000E+02  0.30000000000E+02  0.00000000000E+00 0. -1.
         23    2    1    2    0    0  0.00000000000E+00  0.00000000000E+00  0.00000000000E+00  0.60000000000E+02  0.60000000000E+02 0.  0.
          5    1    3    3  501    0  0.23440721045E+02 -0.15233362344E+02 -0.98177017990E+01  0.30000000000E+02  0.47000000000E+01 0. -1.
         -5    1    3    3    0  501 -0.23440721045E+02  0.15233362344E+02  0.98177017990E+01  0.30000000000E+02  0.47000000000E+01 0.  1.
</event>
<event>
 5    1  0.7959189E-002  0.6000000E+02  0.7546771E-02  0.1259629E+00
         11   -1    0    0    0    0  0.00000000000E+00  0.00000000000E+00  0.30000000000E+02  0.30000000000E+02  0.00000000000E+00 0. -1.
        -11   -1    0    0    0    0 -0.00000000000E+00 -0.00000000000E+00 -0.30000000000E+02  0.30000000000E+02  0.00000000000E+00 0.  1.
         23    2    1    2    0    0  0.00000000000E+00  0.00000000000E+00  0.00000000000E+00  0.60000000000E+02  0.60000000000E+02 0.  0.
          5    1    3    3  501    0 -0.27951596162E+02  0.63715293178E+01 -0.74847769589E+01  0.30000000000E+02  0.47000000000E+01 0.  1.
         -5    1    3    3    0  501  0.27951596162E+02 -0.63715293178E+01  0.74847769589E+01  0.30000000000E+02  0.47000000000E+01 0. -1.
</event>
<event>
 5    1  0.7959189E-002  0.6000000E+02  0.7546771E-02  0.1259629E+00
         11   -1    0    0    0    0  0.00000000000E+00  0.00000000000E+00  0.30000000000E+02  0.30000000000E+02  0.00000000000E+00 0.  1.
        -11   -1    0    0    0    0 -0.00000000000E+00 -0.00000000000E+00 -0.30000000000E+02  0.30000000000E+02  0.00000000000E+00 0. -1.
         23    2    1    2    0    0  0.00000000000E+00  0.00000000000E+00  0.00000000000E+00  0.60000000000E+02  0.60000000000E+02 0.  0.
          5    1    3    3  501    0  0.10470386647E+02 -0.69173567712E+01 -0.26840849069E+02  0.30000000000E+02  0.47000000000E+01 0. -1.
         -5    1    3    3    0  501 -0.10470386647E+02  0.69173567712E+01  0.26840849069E+02  0.30000000000E+02  0.47000000000E+01 0.  1.
</event>
<event>
 5    1  0.7959189E-002  0.6000000E+02  0.7546771E-02  0.1259629E+00
         11   -1    0    0    0    0  0.00000000000E+00  0.00000000000E+00  0.30000000000E+02  0.30000000000E+02  0.00000000000E+00 0. -1.
        -11   -1    0    0    0    0 -0.00000000000E+00 -0.00000000000E+00 -0.30000000000E+02  0.30000000000E+02  0.00000000000E+00 0.  1.
         23    2    1    2    0    0  0.00000000000E+00  0.00000000000E+00  0.00000000000E+00  0.60000000000E+02  0.60000000000E+02 0.  0.
          5    1    3    3  501    0  0.20952015465E+02  0.20808123042E+02  0.24382500768E+01  0.30000000000E+02  0.47000000000E+01 0.  1.
         -5    1    3    3    0  501 -0.20952015465E+02 -0.20808123042E+02 -0.24382500768E+01  0.30000000000E+02  0.47000000000E+01 0. -1.
</event>
<event>
 5    1  0.7959189E-002  0.6000000E+02  0.7546771E-02  0.1259629E+00
         11   -1    0    0    0    0  0.00000000000E+00  0.00000000000E+00  0.30000000000E+02  0.30000000000E+02  0.00000000000E+00 0.  1.
        -11   -1    0    0    0    0 -0.00000000000E+00 -0.00000000000E+00 -0.30000000000E+02  0.30000000000E+02  0.00000000000E+00 0. -1.
         23    2    1    2    0    0  0.00000000000E+00  0.00000000000E+00  0.00000000000E+00  0.60000000000E+02  0.60000000000E+02 0.  0.
          5    1    3    3  501    0  0.10979420154E+02  0.14141043285E+02 -0.23609176773E+02  0.30000000000E+02  0.47000000000E+01 0. -1.
         -5    1    3    3    0  501 -0.10979420154E+02 -0.14141043285E+02  0.23609176773E+02  0.30000000000E+02  0.47000000000E+01 0.  1.
</event>
<event>
 5    1  0.7959189E-002  0.6000000E+02  0.7546771E-02  0.1259629E+00
         11   -1    0    0    0    0  0.00000000000E+00  0.00000000000E+00  0.30000000000E+02  0.30000000000E+02  0.00000000000E+00 0.  1.
        -11   -1    0    0    0    0 -0.00000000000E+00 -0.00000000000E+00 -0.30000000000E+02  0.30000000000E+02  0.00000000000E+00 0. -1.
         23    2    1    2    0    0  0.00000000000E+00  0.00000000000E+00  0.00000000000E+00  0.60000000000E+02  0.60000000000E+02 0.  0.
          5    1    3    3  501    0  0.18366452695E+01 -0.40299753816E+01 -0.29296689789E+02  0.30000000000E+02  0.47000000000E+01 0. -1.
         -5    1    3    3    0  501 -0.18366452695E+01  0.40299753816E+01  0.29296689789E+02  0.30000000000E+02  0.47000000000E+01 0.  1.
</event>
<event>
 5    1  0.7959189E-002  0.6000000E+02  0.7546771E-02  0.1259629E+00
         11   -1    0    0    0    0  0.00000000000E+00  0.00000000000E+00  0.30000000000E+02  0.30000000000E+02  0.00000000000E+00 0.  1.
        -11   -1    0    0    0    0 -0.00000000000E+00 -0.00000000000E+00 -0.30000000000E+02  0.30000000000E+02  0.00000000000E+00 0. -1.
         23    2    1    2    0    0  0.00000000000E+00  0.00000000000E+00  0.00000000000E+00  0.60000000000E+02  0.60000000000E+02 0.  0.
          5    1    3    3  501    0 -0.47075236648E+01 -0.19174011442E+02 -0.22093132556E+02  0.30000000000E+02  0.47000000000E+01 0. -1.
         -5    1    3    3    0  501  0.47075236648E+01  0.19174011442E+02  0.22093132556E+02  0.30000000000E+02  0.47000000000E+01 0.  1.
</event>
<event>
 5    1  0.7959189E-002  0.6000000E+02  0.7546771E-02  0.1259629E+00
         11   -1    0    0    0    0  0.00000000000E+00  0.00000000000E+00  0.30000000000E+02  0.30000000000E+02  0.00000000000E+00 0.  1.
        -11   -1    0    0    0    0 -0.00000000000E+00 -0.00000000000E+00 -0.30000000000E+02  0.30000000000E+02  0.00000000000E+00 0. -1.
         23    2    1    2    0    0  0.00000000000E+00  0.00000000000E+00  0.00000000000E+00  0.60000000000E+02  0.60000000000E+02 0.  0.
          5    1    3    3  501    0  0.12133801215E+02  0.13883179773E+01 -0.26995433712E+02  0.30000000000E+02  0.47000000000E+01 0. -1.
         -5    1    3    3    0  501 -0.12133801215E+02 -0.13883179773E+01  0.26995433712E+02  0.30000000000E+02  0.47000000000E+01 0.  1.
</event>
<event>
 5    1  0.7959189E-002  0.6000000E+02  0.7546771E-02  0.1259629E+00
         11   -1    0    0    0    0  0.00000000000E+00  0.00000000000E+00  0.30000000000E+02  0.30000000000E+02  0.00000000000E+00 0.  1.
        -11   -1    0    0    0    0 -0.00000000000E+00 -0.00000000000E+00 -0.30000000000E+02  0.30000000000E+02  0.00000000000E+00 0. -1.
         23    2    1    2    0    0  0.00000000000E+00  0.00000000000E+00  0.00000000000E+00  0.60000000000E+02  0.60000000000E+02 0.  0.
          5    1    3    3  501    0  0.55461774399E+01 -0.27942323580E+02 -0.81471755086E+01  0.30000000000E+02  0.47000000000E+01 0. -1.
         -5    1    3    3    0  501 -0.55461774399E+01  0.27942323580E+02  0.81471755086E+01  0.30000000000E+02  0.47000000000E+01 0.  1.
</event>
<event>
 5    1  0.7959189E-002  0.6000000E+02  0.7546771E-02  0.1259629E+00
         11   -1    0    0    0    0  0.00000000000E+00  0.00000000000E+00  0.30000000000E+02  0.30000000000E+02  0.00000000000E+00 0.  1.
        -11   -1    0    0    0    0 -0.00000000000E+00 -0.00000000000E+00 -0.30000000000E+02  0.30000000000E+02  0.00000000000E+00 0. -1.
         23    2    1    2    0    0  0.00000000000E+00  0.00000000000E+00  0.00000000000E+00  0.60000000000E+02  0.60000000000E+02 0.  0.
          5    1    3    3  501    0 -0.10380204717E+02 -0.11126780695E+02 -0.25423534400E+02  0.30000000000E+02  0.47000000000E+01 0. -1.
         -5    1    3    3    0  501  0.10380204717E+02  0.11126780695E+02  0.25423534400E+02  0.30000000000E+02  0.47000000000E+01 0.  1.
</event>
<event>
 5    1  0.7959189E-002  0.6000000E+02  0.7546771E-02  0.1259629E+00
         11   -1    0    0    0    0  0.00000000000E+00  0.00000000000E+00  0.30000000000E+02  0.30000000000E+02  0.00000000000E+00 0.  1.
        -11   -1    0    0    0    0 -0.00000000000E+00 -0.00000000000E+00 -0.30000000000E+02  0.30000000000E+02  0.00000000000E+00 0. -1.
         23    2    1    2    0    0  0.00000000000E+00  0.00000000000E+00  0.00000000000E+00  0.60000000000E+02  0.60000000000E+02 0.  0.
          5    1    3    3  501    0  0.14425934864E+02 -0.25718377680E+02 -0.28926549792E+01  0.30000000000E+02  0.47000000000E+01 0. -1.
         -5    1    3    3    0  501 -0.14425934864E+02  0.25718377680E+02  0.28926549792E+01  0.30000000000E+02  0.47000000000E+01 0.  1.
</event>
<event>
 5    1  0.7959189E-002  0.6000000E+02  0.7546771E-02  0.1259629E+00
         11   -1    0    0    0    0  0.00000000000E+00  0.00000000000E+00  0.30000000000E+02  0.30000000000E+02  0.00000000000E+00 0. -1.
        -11   -1    0    0    0    0 -0.00000000000E+00 -0.00000000000E+00 -0.30000000000E+02  0.30000000000E+02  0.00000000000E+00 0.  1.
         23    2    1    2    0    0  0.00000000000E+00  0.00000000000E+00  0.00000000000E+00  0.60000000000E+02  0.60000000000E+02 0.  0.
          5    1    3    3  501    0  0.12766924923E+02 -0.48144636510E+01 -0.26300885304E+02  0.30000000000E+02  0.47000000000E+01 0.  1.
         -5    1    3    3    0  501 -0.12766924923E+02  0.48144636510E+01  0.26300885304E+02  0.30000000000E+02  0.47000000000E+01 0. -1.
</event>
<event>
 5    1  0.7959189E-002  0.6000000E+02  0.7546771E-02  0.1259629E+00
         11   -1    0    0    0    0  0.00000000000E+00  0.00000000000E+00  0.30000000000E+02  0.30000000000E+02  0.00000000000E+00 0. -1.
        -11   -1    0    0    0    0 -0.00000000000E+00 -0.00000000000E+00 -0.30000000000E+02  0.30000000000E+02  0.00000000000E+00 0.  1.
         23    2    1    2    0    0  0.00000000000E+00  0.00000000000E+00  0.00000000000E+00  0.60000000000E+02  0.60000000000E+02 0.  0.
          5    1    3    3  501    0  0.25142943731E+02  0.14227058605E+02 -0.65827945435E+01  0.30000000000E+02  0.47000000000E+01 0.  1.
         -5    1    3    3    0  501 -0.25142943731E+02 -0.14227058605E+02  0.65827945435E+01  0.30000000000E+02  0.47000000000E+01 0. -1.
</event>
<event>
 5    1  0.7959189E-002  0.6000000E+02  0.7546771E-02  0.1259629E+00
         11   -1    0    0    0    0  0.00000000000E+00  0.00000000000E+00  0.30000000000E+02  0.30000000000E+02  0.00000000000E+00 0.  1.
        -11   -1    0    0    0    0 -0.00000000000E+00 -0.00000000000E+00 -0.30000000000E+02  0.30000000000E+02  0.00000000000E+00 0. -1.
         23    2    1    2    0    0  0.00000000000E+00  0.00000000000E+00  0.00000000000E+00  0.60000000000E+02  0.60000000000E+02 0.  0.
          5    1    3    3  501    0  0.10551967736E+02  0.23996799507E+02  0.13810126368E+02  0.30000000000E+02  0.47000000000E+01 0. -1.
         -5    1    3    3    0  501 -0.10551967736E+02 -0.23996799507E+02 -0.13810126368E+02  0.30000000000E+02  0.47000000000E+01 0.  1.
</event>
<event>
 5    1  0.7959189E-002  0.6000000E+02  0.7546771E-02  0.1259629E+00
         11   -1    0    0    0    0  0.00000000000E+00  0.00000000000E+00  0.30000000000E+02  0.30000000000E+02  0.00000000000E+00 0. -1.
        -11   -1    0    0    0    0 -0.00000000000E+00 -0.00000000000E+00 -0.30000000000E+02  0.30000000000E+02  0.00000000000E+00 0.  1.
         23    2    1    2    0    0  0.00000000000E+00  0.00000000000E+00  0.00000000000E+00  0.60000000000E+02  0.60000000000E+02 0.  0.
          5    1    3    3  501    0  0.14271422594E+02 -0.17930170399E+02 -0.18781519816E+02  0.30000000000E+02  0.47000000000E+01 0.  1.
         -5    1    3    3    0  501 -0.14271422594E+02  0.17930170399E+02  0.18781519816E+02  0.30000000000E+02  0.47000000000E+01 0. -1.
</event>
<event>
 5    1  0.7959189E-002  0.6000000E+02  0.7546771E-02  0.1259629E+00
         11   -1    0    0    0    0  0.00000000000E+00  0.00000000000E+00  0.30000000000E+02  0.30000000000E+02  0.00000000000E+00 0.  1.
        -11   -1    0    0    0    0 -0.00000000000E+00 -0.00000000000E+00 -0.30000000000E+02  0.30000000000E+02  0.00000000000E+00 0. -1.
         23    2    1    2    0    0  0.00000000000E+00  0.00000000000E+00  0.00000000000E+00  0.60000000000E+02  0.60000000000E+02 0.  0.
          5    1    3    3  501    0 -0.23458631958E+02 -0.10821392632E+02 -0.14508619788E+02  0.30000000000E+02  0.47000000000E+01 0. -1.
         -5    1    3    3    0  501  0.23458631958E+02  0.10821392632E+02  0.14508619788E+02  0.30000000000E+02  0.47000000000E+01 0.  1.
</event>
<event>
 5    1  0.7959189E-002  0.6000000E+02  0.7546771E-02  0.1259629E+00
         11   -1    0    0    0    0  0.00000000000E+00  0.00000000000E+00  0.30000000000E+02  0.30000000000E+02  0.00000000000E+00 0. -1.
        -11   -1    0    0    0    0 -0.00000000000E+00 -0.00000000000E+00 -0.30000000000E+02  0.30000000000E+02  0.00000000000E+00 0.  1.
         23    2    1    2    0    0  0.00000000000E+00  0.00000000000E+00  0.00000000000E+00  0.60000000000E+02  0.60000000000E+02 0.  0.
          5    1    3    3  501    0 -0.71968757588E+01  0.27590551585E+02 -0.80545913958E+01  0.30000000000E+02  0.47000000000E+01 0.  1.
         -5    1    3    3    0  501  0.71968757588E+01 -0.27590551585E+02  0.80545913958E+01  0.30000000000E+02  0.47000000000E+01 0. -1.
</event>
<event>
 5    1  0.7959189E-002  0.6000000E+02  0.7546771E-02  0.1259629E+00
         11   -1    0    0    0    0  0.00000000000E+00  0.00000000000E+00  0.30000000000E+02  0.30000000000E+02  0.00000000000E+00 0.  1.
        -11   -1    0    0    0    0 -0.00000000000E+00 -0.00000000000E+00 -0.30000000000E+02  0.30000000000E+02  0.00000000000E+00 0. -1.
         23    2    1    2    0    0  0.00000000000E+00  0.00000000000E+00  0.00000000000E+00  0.60000000000E+02  0.60000000000E+02 0.  0.
          5    1    3    3  501    0 -0.23111874888E+02  0.11741283573E+02 -0.14348989483E+02  0.30000000000E+02  0.47000000000E+01 0. -1.
         -5    1    3    3    0  501  0.23111874888E+02 -0.11741283573E+02  0.14348989483E+02  0.30000000000E+02  0.47000000000E+01 0.  1.
</event>
<event>
 5    1  0.7959189E-002  0.6000000E+02  0.7546771E-02  0.1259629E+00
         11   -1    0    0    0    0  0.00000000000E+00  0.00000000000E+00  0.30000000000E+02  0.30000000000E+02  0.00000000000E+00 0.  1.
        -11   -1    0    0    0    0 -0.00000000000E+00 -0.00000000000E+00 -0.30000000000E+02  0.30000000000E+02  0.00000000000E+00 0. -1.
         23    2    1    2    0    0  0.00000000000E+00  0.00000000000E+00  0.00000000000E+00  0.60000000000E+02  0.60000000000E+02 0.  0.
          5    1    3    3  501    0  0.58525099218E+01 -0.49292226869E+01 -0.28624480630E+02  0.30000000000E+02  0.47000000000E+01 0. -1.
         -5    1    3    3    0  501 -0.58525099218E+01  0.49292226869E+01  0.28624480630E+02  0.30000000000E+02  0.47000000000E+01 0.  1.
</event>
<event>
 5    1  0.7959189E-002  0.6000000E+02  0.7546771E-02  0.1259629E+00
         11   -1    0    0    0    0  0.00000000000E+00  0.00000000000E+00  0.30000000000E+02  0.30000000000E+02  0.00000000000E+00 0. -1.
        -11   -1    0    0    0    0 -0.00000000000E+00 -0.00000000000E+00 -0.30000000000E+02  0.30000000000E+02  0.00000000000E+00 0.  1.
         23    2    1    2    0    0  0.00000000000E+00  0.00000000000E+00  0.00000000000E+00  0.60000000000E+02  0.60000000000E+02 0.  0.
          5    1    3    3  501    0  0.24995683139E+00  0.22174551806E+02 -0.19650363198E+02  0.30000000000E+02  0.47000000000E+01 0.  1.
         -5    1    3    3    0  501 -0.24995683139E+00 -0.22174551806E+02  0.19650363198E+02  0.30000000000E+02  0.47000000000E+01 0. -1.
</event>
<event>
 5    1  0.7959189E-002  0.6000000E+02  0.7546771E-02  0.1259629E+00
         11   -1    0    0    0    0  0.00000000000E+00  0.00000000000E+00  0.30000000000E+02  0.30000000000E+02  0.00000000000E+00 0.  1.
        -11   -1    0    0    0    0 -0.00000000000E+00 -0.00000000000E+00 -0.30000000000E+02  0.30000000000E+02  0.00000000000E+00 0. -1.
         23    2    1    2    0    0  0.00000000000E+00  0.00000000000E+00  0.00000000000E+00  0.60000000000E+02  0.60000000000E+02 0.  0.
          5    1    3    3  501    0 -0.20330466109E+02  0.12239412067E+02  0.17742010598E+02  0.30000000000E+02  0.47000000000E+01 0.  1.
         -5    1    3    3    0  501  0.20330466109E+02 -0.12239412067E+02 -0.17742010598E+02  0.30000000000E+02  0.47000000000E+01 0. -1.
</event>
<event>
 5    1  0.7959189E-002  0.6000000E+02  0.7546771E-02  0.1259629E+00
         11   -1    0    0    0    0  0.00000000000E+00  0.00000000000E+00  0.30000000000E+02  0.30000000000E+02  0.00000000000E+00 0.  1.
        -11   -1    0    0    0    0 -0.00000000000E+00 -0.00000000000E+00 -0.30000000000E+02  0.30000000000E+02  0.00000000000E+00 0. -1.
         23    2    1    2    0    0  0.00000000000E+00  0.00000000000E+00  0.00000000000E+00  0.60000000000E+02  0.60000000000E+02 0.  0.
          5    1    3    3  501    0  0.48016701899E+01 -0.53097547846E+01 -0.28751703732E+02  0.30000000000E+02  0.47000000000E+01 0. -1.
         -5    1    3    3    0  501 -0.48016701899E+01  0.53097547846E+01  0.28751703732E+02  0.30000000000E+02  0.47000000000E+01 0.  1.
</event>
<event>
 5    1  0.7959189E-002  0.6000000E+02  0.7546771E-02  0.1259629E+00
         11   -1    0    0    0    0  0.00000000000E+00  0.00000000000E+00  0.30000000000E+02  0.30000000000E+02  0.00000000000E+00 0. -1.
        -11   -1    0    0    0    0 -0.00000000000E+00 -0.00000000000E+00 -0.30000000000E+02  0.30000000000E+02  0.00000000000E+00 0.  1.
         23    2    1    2    0    0  0.00000000000E+00  0.00000000000E+00  0.00000000000E+00  0.60000000000E+02  0.60000000000E+02 0.  0.
          5    1    3    3  501    0  0.12105417513E+02 -0.24529940453E+02 -0.11386434395E+02  0.30000000000E+02  0.47000000000E+01 0.  1.
         -5    1    3    3    0  501 -0.12105417513E+02  0.24529940453E+02  0.11386434395E+02  0.30000000000E+02  0.47000000000E+01 0. -1.
</event>
<event>
 5    1  0.7959189E-002  0.6000000E+02  0.7546771E-02  0.1259629E+00
         11   -1    0    0    0    0  0.00000000000E+00  0.00000000000E+00  0.30000000000E+02  0.30000000000E+02  0.00000000000E+00 0.  1.
        -11   -1    0    0    0    0 -0.00000000000E+00 -0.00000000000E+00 -0.30000000000E+02  0.30000000000E+02  0.00000000000E+00 0. -1.
         23    2    1    2    0    0  0.00000000000E+00  0.00000000000E+00  0.00000000000E+00  0.60000000000E+02  0.60000000000E+02 0.  0.
          5    1    3    3  501    0 -0.80715968307E+01  0.10583705523E+02 -0.26471579137E+02  0.30000000000E+02  0.47000000000E+01 0. -1.
         -5    1    3    3    0  501  0.80715968307E+01 -0.10583705523E+02  0.26471579137E+02  0.30000000000E+02  0.47000000000E+01 0.  1.
</event>
<event>
 5    1  0.7959189E-002  0.6000000E+02  0.7546771E-02  0.1259629E+00
         11   -1    0    0    0    0  0.00000000000E+00  0.00000000000E+00  0.30000000000E+02  0.30000000000E+02  0.00000000000E+00 0.  1.
        -11   -1    0    0    0    0 -0.00000000000E+00 -0.00000000000E+00 -0.30000000000E+02  0.30000000000E+02  0.00000000000E+00 0. -1.
         23    2    1    2    0    0  0.00000000000E+00  0.00000000000E+00  0.00000000000E+00  0.60000000000E+02  0.60000000000E+02 0.  0.
          5    1    3    3  501    0  0.13820396339E+02  0.25189391472E+02 -0.72388674733E+01  0.30000000000E+02  0.47000000000E+01 0. -1.
         -5    1    3    3    0  501 -0.13820396339E+02 -0.25189391472E+02  0.72388674733E+01  0.30000000000E+02  0.47000000000E+01 0.  1.
</event>
<event>
 5    1  0.7959189E-002  0.6000000E+02  0.7546771E-02  0.1259629E+00
         11   -1    0    0    0    0  0.00000000000E+00  0.00000000000E+00  0.30000000000E+02  0.30000000000E+02  0.00000000000E+00 0.  1.
        -11   -1    0    0    0    0 -0.00000000000E+00 -0.00000000000E+00 -0.30000000000E+02  0.30000000000E+02  0.00000000000E+00 0. -1.
         23    2    1    2    0    0  0.00000000000E+00  0.00000000000E+00  0.00000000000E+00  0.60000000000E+02  0.60000000000E+02 0.  0.
          5    1    3    3  501    0 -0.80504157262E+01  0.26481878714E+02 -0.10574067637E+02  0.30000000000E+02  0.47000000000E+01 0. -1.
         -5    1    3    3    0  501  0.80504157262E+01 -0.26481878714E+02  0.10574067637E+02  0.30000000000E+02  0.47000000000E+01 0.  1.
</event>
<event>
 5    1  0.7959189E-002  0.6000000E+02  0.7546771E-02  0.1259629E+00
         11   -1    0    0    0    0  0.00000000000E+00  0.00000000000E+00  0.30000000000E+02  0.30000000000E+02  0.00000000000E+00 0.  1.
        -11   -1    0    0    0    0 -0.00000000000E+00 -0.00000000000E+00 -0.30000000000E+02  0.30000000000E+02  0.00000000000E+00 0. -1.
         23    2    1    2    0    0  0.00000000000E+00  0.00000000000E+00  0.00000000000E+00  0.60000000000E+02  0.60000000000E+02 0.  0.
          5    1    3    3  501    0  0.29325438474E+02  0.41329811397E+01  0.92039405037E+00  0.30000000000E+02  0.47000000000E+01 0. -1.
         -5    1    3    3    0  501 -0.29325438474E+02 -0.41329811397E+01 -0.92039405037E+00  0.30000000000E+02  0.47000000000E+01 0.  1.
</event>
<event>
 5    1  0.7959189E-002  0.6000000E+02  0.7546771E-02  0.1259629E+00
         11   -1    0    0    0    0  0.00000000000E+00  0.00000000000E+00  0.30000000000E+02  0.30000000000E+02  0.00000000000E+00 0.  1.
        -11   -1    0    0    0    0 -0.00000000000E+00 -0.00000000000E+00 -0.30000000000E+02  0.30000000000E+02  0.00000000000E+00 0. -1.
         23    2    1    2    0    0  0.00000000000E+00  0.00000000000E+00  0.00000000000E+00  0.60000000000E+02  0.60000000000E+02 0.  0.
          5    1    3    3  501    0 -0.11219364480E+02  0.27317300936E+02  0.24085120314E+01  0.30000000000E+02  0.47000000000E+01 0. -1.
         -5    1    3    3    0  501  0.11219364480E+02 -0.27317300936E+02 -0.24085120314E+01  0.30000000000E+02  0.47000000000E+01 0.  1.
</event>
<event>
 5    1  0.7959189E-002  0.6000000E+02  0.7546771E-02  0.1259629E+00
         11   -1    0    0    0    0  0.00000000000E+00  0.00000000000E+00  0.30000000000E+02  0.30000000000E+02  0.00000000000E+00 0.  1.
        -11   -1    0    0    0    0 -0.00000000000E+00 -0.00000000000E+00 -0.30000000000E+02  0.30000000000E+02  0.00000000000E+00 0. -1.
         23    2    1    2    0    0  0.00000000000E+00  0.00000000000E+00  0.00000000000E+00  0.60000000000E+02  0.60000000000E+02 0.  0.
          5    1    3    3  501    0  0.31971694881E+01  0.11667174329E+02 -0.27047461072E+02  0.30000000000E+02  0.47000000000E+01 0. -1.
         -5    1    3    3    0  501 -0.31971694881E+01 -0.11667174329E+02  0.27047461072E+02  0.30000000000E+02  0.47000000000E+01 0.  1.
</event>
<event>
 5    1  0.7959189E-002  0.6000000E+02  0.7546771E-02  0.1259629E+00
         11   -1    0    0    0    0  0.00000000000E+00  0.00000000000E+00  0.30000000000E+02  0.30000000000E+02  0.00000000000E+00 0.  1.
        -11   -1    0    0    0    0 -0.00000000000E+00 -0.00000000000E+00 -0.30000000000E+02  0.30000000000E+02  0.00000000000E+00 0. -1.
         23    2    1    2    0    0  0.00000000000E+00  0.00000000000E+00  0.00000000000E+00  0.60000000000E+02  0.60000000000E+02 0.  0.
          5    1    3    3  501    0  0.17305790102E+02  0.21961753494E+02  0.98031123842E+01  0.30000000000E+02  0.47000000000E+01 0. -1.
         -5    1    3    3    0  501 -0.17305790102E+02 -0.21961753494E+02 -0.98031123842E+01  0.30000000000E+02  0.47000000000E+01 0.  1.
</event>
<event>
 5    1  0.7959189E-002  0.6000000E+02  0.7546771E-02  0.1259629E+00
         11   -1    0    0    0    0  0.00000000000E+00  0.00000000000E+00  0.30000000000E+02  0.30000000000E+02  0.00000000000E+00 0.  1.
        -11   -1    0    0    0    0 -0.00000000000E+00 -0.00000000000E+00 -0.30000000000E+02  0.30000000000E+02  0.00000000000E+00 0. -1.
         23    2    1    2    0    0  0.00000000000E+00  0.00000000000E+00  0.00000000000E+00  0.60000000000E+02  0.60000000000E+02 0.  0.
          5    1    3    3  501    0  0.22479393188E+02  0.54514297026E-02 -0.19302508961E+02  0.30000000000E+02  0.47000000000E+01 0. -1.
         -5    1    3    3    0  501 -0.22479393188E+02 -0.54514297026E-02  0.19302508961E+02  0.30000000000E+02  0.47000000000E+01 0.  1.
</event>
<event>
 5    1  0.7959189E-002  0.6000000E+02  0.7546771E-02  0.1259629E+00
         11   -1    0    0    0    0  0.00000000000E+00  0.00000000000E+00  0.30000000000E+02  0.30000000000E+02  0.00000000000E+00 0.  1.
        -11   -1    0    0    0    0 -0.00000000000E+00 -0.00000000000E+00 -0.30000000000E+02  0.30000000000E+02  0.00000000000E+00 0. -1.
         23    2    1    2    0    0  0.00000000000E+00  0.00000000000E+00  0.00000000000E+00  0.60000000000E+02  0.60000000000E+02 0.  0.
          5    1    3    3  501    0 -0.21268106082E+02 -0.16772310473E+02 -0.12011130883E+02  0.30000000000E+02  0.47000000000E+01 0. -1.
         -5    1    3    3    0  501  0.21268106082E+02  0.16772310473E+02  0.12011130883E+02  0.30000000000E+02  0.47000000000E+01 0.  1.
</event>
<event>
 5    1  0.7959189E-002  0.6000000E+02  0.7546771E-02  0.1259629E+00
         11   -1    0    0    0    0  0.00000000000E+00  0.00000000000E+00  0.30000000000E+02  0.30000000000E+02  0.00000000000E+00 0. -1.
        -11   -1    0    0    0    0 -0.00000000000E+00 -0.00000000000E+00 -0.30000000000E+02  0.30000000000E+02  0.00000000000E+00 0.  1.
         23    2    1    2    0    0  0.00000000000E+00  0.00000000000E+00  0.00000000000E+00  0.60000000000E+02  0.60000000000E+02 0.  0.
          5    1    3    3  501    0 -0.13572546224E-01 -0.17153865110E+02  0.24158947154E+02  0.30000000000E+02  0.47000000000E+01 0. -1.
         -5    1    3    3    0  501  0.13572546224E-01  0.17153865110E+02 -0.24158947154E+02  0.30000000000E+02  0.47000000000E+01 0.  1.
</event>
<event>
 5    1  0.7959189E-002  0.6000000E+02  0.7546771E-02  0.1259629E+00
         11   -1    0    0    0    0  0.00000000000E+00  0.00000000000E+00  0.30000000000E+02  0.30000000000E+02  0.00000000000E+00 0.  1.
        -11   -1    0    0    0    0 -0.00000000000E+00 -0.00000000000E+00 -0.30000000000E+02  0.30000000000E+02  0.00000000000E+00 0. -1.
         23    2    1    2    0    0  0.00000000000E+00  0.00000000000E+00  0.00000000000E+00  0.60000000000E+02  0.60000000000E+02 0.  0.
          5    1    3    3  501    0  0.25675823473E+02  0.10928651943E+02 -0.99612577366E+01  0.30000000000E+02  0.47000000000E+01 0. -1.
         -5    1    3    3    0  501 -0.25675823473E+02 -0.10928651943E+02  0.99612577366E+01  0.30000000000E+02  0.47000000000E+01 0.  1.
</event>
<event>
 5    1  0.7959189E-002  0.6000000E+02  0.7546771E-02  0.1259629E+00
         11   -1    0    0    0    0  0.00000000000E+00  0.00000000000E+00  0.30000000000E+02  0.30000000000E+02  0.00000000000E+00 0.  1.
        -11   -1    0    0    0    0 -0.00000000000E+00 -0.00000000000E+00 -0.30000000000E+02  0.30000000000E+02  0.00000000000E+00 0. -1.
         23    2    1    2    0    0  0.00000000000E+00  0.00000000000E+00  0.00000000000E+00  0.60000000000E+02  0.60000000000E+02 0.  0.
          5    1    3    3  501    0 -0.59560713398E+01  0.18743699133E+02  0.22160978250E+02  0.30000000000E+02  0.47000000000E+01 0.  1.
         -5    1    3    3    0  501  0.59560713398E+01 -0.18743699133E+02 -0.22160978250E+02  0.30000000000E+02  0.47000000000E+01 0. -1.
</event>
<event>
 5    1  0.7959189E-002  0.6000000E+02  0.7546771E-02  0.1259629E+00
         11   -1    0    0    0    0  0.00000000000E+00  0.00000000000E+00  0.30000000000E+02  0.30000000000E+02  0.00000000000E+00 0.  1.
        -11   -1    0    0    0    0 -0.00000000000E+00 -0.00000000000E+00 -0.30000000000E+02  0.30000000000E+02  0.00000000000E+00 0. -1.
         23    2    1    2    0    0  0.00000000000E+00  0.00000000000E+00  0.00000000000E+00  0.60000000000E+02  0.60000000000E+02 0.  0.
          5    1    3    3  501    0  0.60451811193E+01  0.23690572087E+02 -0.16736862891E+02  0.30000000000E+02  0.47000000000E+01 0. -1.
         -5    1    3    3    0  501 -0.60451811193E+01 -0.23690572087E+02  0.16736862891E+02  0.30000000000E+02  0.47000000000E+01 0.  1.
</event>
<event>
 5    1  0.7959189E-002  0.6000000E+02  0.7546771E-02  0.1259629E+00
         11   -1    0    0    0    0  0.00000000000E+00  0.00000000000E+00  0.30000000000E+02  0.30000000000E+02  0.00000000000E+00 0.  1.
        -11   -1    0    0    0    0 -0.00000000000E+00 -0.00000000000E+00 -0.30000000000E+02  0.30000000000E+02  0.00000000000E+00 0. -1.
         23    2    1    2    0    0  0.00000000000E+00  0.00000000000E+00  0.00000000000E+00  0.60000000000E+02  0.60000000000E+02 0.  0.
          5    1    3    3  501    0  0.11628498683E+02  0.24283575230E+02 -0.12369154879E+02  0.30000000000E+02  0.47000000000E+01 0. -1.
         -5    1    3    3    0  501 -0.11628498683E+02 -0.24283575230E+02  0.12369154879E+02  0.30000000000E+02  0.47000000000E+01 0.  1.
</event>
<event>
 5    1  0.7959189E-002  0.6000000E+02  0.7546771E-02  0.1259629E+00
         11   -1    0    0    0    0  0.00000000000E+00  0.00000000000E+00  0.30000000000E+02  0.30000000000E+02  0.00000000000E+00 0. -1.
        -11   -1    0    0    0    0 -0.00000000000E+00 -0.00000000000E+00 -0.30000000000E+02  0.30000000000E+02  0.00000000000E+00 0.  1.
         23    2    1    2    0    0  0.00000000000E+00  0.00000000000E+00  0.00000000000E+00  0.60000000000E+02  0.60000000000E+02 0.  0.
          5    1    3    3  501    0 -0.23800493431E+02  0.16013415624E+02  0.74173467266E+01  0.30000000000E+02  0.47000000000E+01 0.  1.
         -5    1    3    3    0  501  0.23800493431E+02 -0.16013415624E+02 -0.74173467266E+01  0.30000000000E+02  0.47000000000E+01 0. -1.
</event>
<event>
 5    1  0.7959189E-002  0.6000000E+02  0.7546771E-02  0.1259629E+00
         11   -1    0    0    0    0  0.00000000000E+00  0.00000000000E+00  0.30000000000E+02  0.30000000000E+02  0.00000000000E+00 0.  1.
        -11   -1    0    0    0    0 -0.00000000000E+00 -0.00000000000E+00 -0.30000000000E+02  0.30000000000E+02  0.00000000000E+00 0. -1.
         23    2    1    2    0    0  0.00000000000E+00  0.00000000000E+00  0.00000000000E+00  0.60000000000E+02  0.60000000000E+02 0.  0.
          5    1    3    3  501    0 -0.15909757174E+02  0.24139371739E+02 -0.64869375434E+01  0.30000000000E+02  0.47000000000E+01 0. -1.
         -5    1    3    3    0  501  0.15909757174E+02 -0.24139371739E+02  0.64869375434E+01  0.30000000000E+02  0.47000000000E+01 0.  1.
</event>
<event>
 5    1  0.7959189E-002  0.6000000E+02  0.7546771E-02  0.1259629E+00
         11   -1    0    0    0    0  0.00000000000E+00  0.00000000000E+00  0.30000000000E+02  0.30000000000E+02  0.00000000000E+00 0.  1.
        -11   -1    0    0    0    0 -0.00000000000E+00 -0.00000000000E+00 -0.30000000000E+02  0.30000000000E+02  0.00000000000E+00 0. -1.
         23    2    1    2    0    0  0.00000000000E+00  0.00000000000E+00  0.00000000000E+00  0.60000000000E+02  0.60000000000E+02 0.  0.
          5    1    3    3  501    0  0.27679979127E+02 -0.50761618413E+01 -0.92715336636E+01  0.30000000000E+02  0.47000000000E+01 0. -1.
         -5    1    3    3    0  501 -0.27679979127E+02  0.50761618413E+01  0.92715336636E+01  0.30000000000E+02  0.47000000000E+01 0.  1.
</event>
<event>
 5    1  0.7959189E-002  0.6000000E+02  0.7546771E-02  0.1259629E+00
         11   -1    0    0    0    0  0.00000000000E+00  0.00000000000E+00  0.30000000000E+02  0.30000000000E+02  0.00000000000E+00 0.  1.
        -11   -1    0    0    0    0 -0.00000000000E+00 -0.00000000000E+00 -0.30000000000E+02  0.30000000000E+02  0.00000000000E+00 0. -1.
         23    2    1    2    0    0  0.00000000000E+00  0.00000000000E+00  0.00000000000E+00  0.60000000000E+02  0.60000000000E+02 0.  0.
          5    1    3    3  501    0 -0.23782810173E+02 -0.12826439599E+02  0.12156084381E+02  0.30000000000E+02  0.47000000000E+01 0. -1.
         -5    1    3    3    0  501  0.23782810173E+02  0.12826439599E+02 -0.12156084381E+02  0.30000000000E+02  0.47000000000E+01 0.  1.
</event>
<event>
 5    1  0.7959189E-002  0.6000000E+02  0.7546771E-02  0.1259629E+00
         11   -1    0    0    0    0  0.00000000000E+00  0.00000000000E+00  0.30000000000E+02  0.30000000000E+02  0.00000000000E+00 0. -1.
        -11   -1    0    0    0    0 -0.00000000000E+00 -0.00000000000E+00 -0.30000000000E+02  0.30000000000E+02  0.00000000000E+00 0.  1.
         23    2    1    2    0    0  0.00000000000E+00  0.00000000000E+00  0.00000000000E+00  0.60000000000E+02  0.60000000000E+02 0.  0.
          5    1    3    3  501    0  0.46183328792E+01  0.10621197081E+02 -0.27272168487E+02  0.30000000000E+02  0.47000000000E+01 0.  1.
         -5    1    3    3    0  501 -0.46183328792E+01 -0.10621197081E+02  0.27272168487E+02  0.30000000000E+02  0.47000000000E+01 0. -1.
</event>
<event>
 5    1  0.7959189E-002  0.6000000E+02  0.7546771E-02  0.1259629E+00
         11   -1    0    0    0    0  0.00000000000E+00  0.00000000000E+00  0.30000000000E+02  0.30000000000E+02  0.00000000000E+00 0.  1.
        -11   -1    0    0    0    0 -0.00000000000E+00 -0.00000000000E+00 -0.30000000000E+02  0.30000000000E+02  0.00000000000E+00 0. -1.
         23    2    1    2    0    0  0.00000000000E+00  0.00000000000E+00  0.00000000000E+00  0.60000000000E+02  0.60000000000E+02 0.  0.
          5    1    3    3  501    0 -0.38320572176E+01 -0.24176211482E+02 -0.16695392653E+02  0.30000000000E+02  0.47000000000E+01 0. -1.
         -5    1    3    3    0  501  0.38320572176E+01  0.24176211482E+02  0.16695392653E+02  0.30000000000E+02  0.47000000000E+01 0.  1.
</event>
<event>
 5    1  0.7959189E-002  0.6000000E+02  0.7546771E-02  0.1259629E+00
         11   -1    0    0    0    0  0.00000000000E+00  0.00000000000E+00  0.30000000000E+02  0.30000000000E+02  0.00000000000E+00 0.  1.
        -11   -1    0    0    0    0 -0.00000000000E+00 -0.00000000000E+00 -0.30000000000E+02  0.30000000000E+02  0.00000000000E+00 0. -1.
         23    2    1    2    0    0  0.00000000000E+00  0.00000000000E+00  0.00000000000E+00  0.60000000000E+02  0.60000000000E+02 0.  0.
          5    1    3    3  501    0  0.28604948482E+02  0.58256732153E+01 -0.50723223391E+01  0.30000000000E+02  0.47000000000E+01 0. -1.
         -5    1    3    3    0  501 -0.28604948482E+02 -0.58256732153E+01  0.50723223391E+01  0.30000000000E+02  0.47000000000E+01 0.  1.
</event>
<event>
 5    1  0.7959189E-002  0.6000000E+02  0.7546771E-02  0.1259629E+00
         11   -1    0    0    0    0  0.00000000000E+00  0.00000000000E+00  0.30000000000E+02  0.30000000000E+02  0.00000000000E+00 0.  1.
        -11   -1    0    0    0    0 -0.00000000000E+00 -0.00000000000E+00 -0.30000000000E+02  0.30000000000E+02  0.00000000000E+00 0. -1.
         23    2    1    2    0    0  0.00000000000E+00  0.00000000000E+00  0.00000000000E+00  0.60000000000E+02  0.60000000000E+02 0.  0.
          5    1    3    3  501    0  0.13997287732E+02 -0.25676016099E+02 -0.47674032176E+01  0.30000000000E+02  0.47000000000E+01 0. -1.
         -5    1    3    3    0  501 -0.13997287732E+02  0.25676016099E+02  0.47674032176E+01  0.30000000000E+02  0.47000000000E+01 0.  1.
</event>
<event>
 5    1  0.7959189E-002  0.6000000E+02  0.7546771E-02  0.1259629E+00
         11   -1    0    0    0    0  0.00000000000E+00  0.00000000000E+00  0.30000000000E+02  0.30000000000E+02  0.00000000000E+00 0.  1.
        -11   -1    0    0    0    0 -0.00000000000E+00 -0.00000000000E+00 -0.30000000000E+02  0.30000000000E+02  0.00000000000E+00 0. -1.
         23    2    1    2    0    0  0.00000000000E+00  0.00000000000E+00  0.00000000000E+00  0.60000000000E+02  0.60000000000E+02 0.  0.
          5    1    3    3  501    0  0.56408187618E+01 -0.91494301535E+01 -0.27611213149E+02  0.30000000000E+02  0.47000000000E+01 0. -1.
         -5    1    3    3    0  501 -0.56408187618E+01  0.91494301535E+01  0.27611213149E+02  0.30000000000E+02  0.47000000000E+01 0.  1.
</event>
<event>
 5    1  0.7959189E-002  0.6000000E+02  0.7546771E-02  0.1259629E+00
         11   -1    0    0    0    0  0.00000000000E+00  0.00000000000E+00  0.30000000000E+02  0.30000000000E+02  0.00000000000E+00 0.  1.
        -11   -1    0    0    0    0 -0.00000000000E+00 -0.00000000000E+00 -0.30000000000E+02  0.30000000000E+02  0.00000000000E+00 0. -1.
         23    2    1    2    0    0  0.00000000000E+00  0.00000000000E+00  0.00000000000E+00  0.60000000000E+02  0.60000000000E+02 0.  0.
          5    1    3    3  501    0 -0.44639323190E+01 -0.23812973511E+02 -0.17056541291E+02  0.30000000000E+02  0.47000000000E+01 0. -1.
         -5    1    3    3    0  501  0.44639323190E+01  0.23812973511E+02  0.17056541291E+02  0.30000000000E+02  0.47000000000E+01 0.  1.
</event>
<event>
 5    1  0.7959189E-002  0.6000000E+02  0.7546771E-02  0.1259629E+00
         11   -1    0    0    0    0  0.00000000000E+00  0.00000000000E+00  0.30000000000E+02  0.30000000000E+02  0.00000000000E+00 0.  1.
        -11   -1    0    0    0    0 -0.00000000000E+00 -0.00000000000E+00 -0.30000000000E+02  0.30000000000E+02  0.00000000000E+00 0. -1.
         23    2    1    2    0    0  0.00000000000E+00  0.00000000000E+00  0.00000000000E+00  0.60000000000E+02  0.60000000000E+02 0.  0.
          5    1    3    3  501    0 -0.42047860107E+01  0.12736315027E+02  0.26419993455E+02  0.30000000000E+02  0.47000000000E+01 0.  1.
         -5    1    3    3    0  501  0.42047860107E+01 -0.12736315027E+02 -0.26419993455E+02  0.30000000000E+02  0.47000000000E+01 0. -1.
</event>
<event>
 5    1  0.7959189E-002  0.6000000E+02  0.7546771E-02  0.1259629E+00
         11   -1    0    0    0    0  0.00000000000E+00  0.00000000000E+00  0.30000000000E+02  0.30000000000E+02  0.00000000000E+00 0.  1.
        -11   -1    0    0    0    0 -0.00000000000E+00 -0.00000000000E+00 -0.30000000000E+02  0.30000000000E+02  0.00000000000E+00 0. -1.
         23    2    1    2    0    0  0.00000000000E+00  0.00000000000E+00  0.00000000000E+00  0.60000000000E+02  0.60000000000E+02 0.  0.
          5    1    3    3  501    0 -0.14367058518E+02 -0.20566184998E+01 -0.25831530150E+02  0.30000000000E+02  0.47000000000E+01 0. -1.
         -5    1    3    3    0  501  0.14367058518E+02  0.20566184998E+01  0.25831530150E+02  0.30000000000E+02  0.47000000000E+01 0.  1.
</event>
<event>
 5    1  0.7959189E-002  0.6000000E+02  0.7546771E-02  0.1259629E+00
         11   -1    0    0    0    0  0.00000000000E+00  0.00000000000E+00  0.30000000000E+02  0.30000000000E+02  0.00000000000E+00 0.  1.
        -11   -1    0    0    0    0 -0.00000000000E+00 -0.00000000000E+00 -0.30000000000E+02  0.30000000000E+02  0.00000000000E+00 0. -1.
         23    2    1    2    0    0  0.00000000000E+00  0.00000000000E+00  0.00000000000E+00  0.60000000000E+02  0.60000000000E+02 0.  0.
          5    1    3    3  501    0  0.31820899666E+01 -0.76342683691E+01 -0.28451753020E+02  0.30000000000E+02  0.47000000000E+01 0. -1.
         -5    1    3    3    0  501 -0.31820899666E+01  0.76342683691E+01  0.28451753020E+02  0.30000000000E+02  0.47000000000E+01 0.  1.
</event>
<event>
 5    1  0.7959189E-002  0.6000000E+02  0.7546771E-02  0.1259629E+00
         11   -1    0    0    0    0  0.00000000000E+00  0.00000000000E+00  0.30000000000E+02  0.30000000000E+02  0.00000000000E+00 0.  1.
        -11   -1    0    0    0    0 -0.00000000000E+00 -0.00000000000E+00 -0.30000000000E+02  0.30000000000E+02  0.00000000000E+00 0. -1.
         23    2    1    2    0    0  0.00000000000E+00  0.00000000000E+00  0.00000000000E+00  0.60000000000E+02  0.60000000000E+02 0.  0.
          5    1    3    3  501    0 -0.91385842851E+01  0.14947545066E+01  0.28145372377E+02  0.30000000000E+02  0.47000000000E+01 0.  1.
         -5    1    3    3    0  501  0.91385842851E+01 -0.14947545066E+01 -0.28145372377E+02  0.30000000000E+02  0.47000000000E+01 0. -1.
</event>
<event>
 5    1  0.7959189E-002  0.6000000E+02  0.7546771E-02  0.1259629E+00
         11   -1    0    0    0    0  0.00000000000E+00  0.00000000000E+00  0.30000000000E+02  0.30000000000E+02  0.00000000000E+00 0.  1.
        -11   -1    0    0    0    0 -0.00000000000E+00 -0.00000000000E+00 -0.30000000000E+02  0.30000000000E+02  0.00000000000E+00 0. -1.
         23    2    1    2    0    0  0.00000000000E+00  0.00000000000E+00  0.00000000000E+00  0.60000000000E+02  0.60000000000E+02 0.  0.
          5    1    3    3  501    0  0.10002100540E+02 -0.17120885701E+01 -0.27837685563E+02  0.30000000000E+02  0.47000000000E+01 0. -1.
         -5    1    3    3    0  501 -0.10002100540E+02  0.17120885701E+01  0.27837685563E+02  0.30000000000E+02  0.47000000000E+01 0.  1.
</event>
<event>
 5    1  0.7959189E-002  0.6000000E+02  0.7546771E-02  0.1259629E+00
         11   -1    0    0    0    0  0.00000000000E+00  0.00000000000E+00  0.30000000000E+02  0.30000000000E+02  0.00000000000E+00 0.  1.
        -11   -1    0    0    0    0 -0.00000000000E+00 -0.00000000000E+00 -0.30000000000E+02  0.30000000000E+02  0.00000000000E+00 0. -1.
         23    2    1    2    0    0  0.00000000000E+00  0.00000000000E+00  0.00000000000E+00  0.60000000000E+02  0.60000000000E+02 0.  0.
          5    1    3    3  501    0  0.47901618675E+01 -0.15204463132E+02  0.24975761253E+02  0.30000000000E+02  0.47000000000E+01 0.  1.
         -5    1    3    3    0  501 -0.47901618675E+01  0.15204463132E+02 -0.24975761253E+02  0.30000000000E+02  0.47000000000E+01 0. -1.
</event>
<event>
 5    1  0.7959189E-002  0.6000000E+02  0.7546771E-02  0.1259629E+00
         11   -1    0    0    0    0  0.00000000000E+00  0.00000000000E+00  0.30000000000E+02  0.30000000000E+02  0.00000000000E+00 0.  1.
        -11   -1    0    0    0    0 -0.00000000000E+00 -0.00000000000E+00 -0.30000000000E+02  0.30000000000E+02  0.00000000000E+00 0. -1.
         23    2    1    2    0    0  0.00000000000E+00  0.00000000000E+00  0.00000000000E+00  0.60000000000E+02  0.60000000000E+02 0.  0.
          5    1    3    3  501    0 -0.22131445202E+02  0.18860356291E+02 -0.56917566560E+01  0.30000000000E+02  0.47000000000E+01 0. -1.
         -5    1    3    3    0  501  0.22131445202E+02 -0.18860356291E+02  0.56917566560E+01  0.30000000000E+02  0.47000000000E+01 0.  1.
</event>
<event>
 5    1  0.7959189E-002  0.6000000E+02  0.7546771E-02  0.1259629E+00
         11   -1    0    0    0    0  0.00000000000E+00  0.00000000000E+00  0.30000000000E+02  0.30000000000E+02  0.00000000000E+00 0. -1.
        -11   -1    0    0    0    0 -0.00000000000E+00 -0.00000000000E+00 -0.30000000000E+02  0.30000000000E+02  0.00000000000E+00 0.  1.
         23    2    1    2    0    0  0.00000000000E+00  0.00000000000E+00  0.00000000000E+00  0.60000000000E+02  0.60000000000E+02 0.  0.
          5    1    3    3  501    0 -0.20445044708E+02  0.21345967061E+02 -0.20639372874E+01  0.30000000000E+02  0.47000000000E+01 0. -1.
         -5    1    3    3    0  501  0.20445044708E+02 -0.21345967061E+02  0.20639372874E+01  0.30000000000E+02  0.47000000000E+01 0.  1.
</event>
<event>
 5    1  0.7959189E-002  0.6000000E+02  0.7546771E-02  0.1259629E+00
         11   -1    0    0    0    0  0.00000000000E+00  0.00000000000E+00  0.30000000000E+02  0.30000000000E+02  0.00000000000E+00 0.  1.
        -11   -1    0    0    0    0 -0.00000000000E+00 -0.00000000000E+00 -0.30000000000E+02  0.30000000000E+02  0.00000000000E+00 0. -1.
         23    2    1    2    0    0  0.00000000000E+00  0.00000000000E+00  0.00000000000E+00  0.60000000000E+02  0.60000000000E+02 0.  0.
          5    1    3    3  501    0 -0.11802817742E+02 -0.28502929678E+01 -0.27027380993E+02  0.30000000000E+02  0.47000000000E+01 0. -1.
         -5    1    3    3    0  501  0.11802817742E+02  0.28502929678E+01  0.27027380993E+02  0.30000000000E+02  0.47000000000E+01 0.  1.
</event>
<event>
 5    1  0.7959189E-002  0.6000000E+02  0.7546771E-02  0.1259629E+00
         11   -1    0    0    0    0  0.00000000000E+00  0.00000000000E+00  0.30000000000E+02  0.30000000000E+02  0.00000000000E+00 0.  1.
        -11   -1    0    0    0    0 -0.00000000000E+00 -0.00000000000E+00 -0.30000000000E+02  0.30000000000E+02  0.00000000000E+00 0. -1.
         23    2    1    2    0    0  0.00000000000E+00  0.00000000000E+00  0.00000000000E+00  0.60000000000E+02  0.60000000000E+02 0.  0.
          5    1    3    3  501    0 -0.29062326443E+02  0.45550535452E+01 -0.35415630655E+01  0.30000000000E+02  0.47000000000E+01 0. -1.
         -5    1    3    3    0  501  0.29062326443E+02 -0.45550535452E+01  0.35415630655E+01  0.30000000000E+02  0.47000000000E+01 0.  1.
</event>
<event>
 5    1  0.7959189E-002  0.6000000E+02  0.7546771E-02  0.1259629E+00
         11   -1    0    0    0    0  0.00000000000E+00  0.00000000000E+00  0.30000000000E+02  0.30000000000E+02  0.00000000000E+00 0. -1.
        -11   -1    0    0    0    0 -0.00000000000E+00 -0.00000000000E+00 -0.30000000000E+02  0.30000000000E+02  0.00000000000E+00 0.  1.
         23    2    1    2    0    0  0.00000000000E+00  0.00000000000E+00  0.00000000000E+00  0.60000000000E+02  0.60000000000E+02 0.  0.
          5    1    3    3  501    0  0.19854316559E+02  0.80282476746E+01 -0.20475921304E+02  0.30000000000E+02  0.47000000000E+01 0.  1.
         -5    1    3    3    0  501 -0.19854316559E+02 -0.80282476746E+01  0.20475921304E+02  0.30000000000E+02  0.47000000000E+01 0. -1.
</event>
<event>
 5    1  0.7959189E-002  0.6000000E+02  0.7546771E-02  0.1259629E+00
         11   -1    0    0    0    0  0.00000000000E+00  0.00000000000E+00  0.30000000000E+02  0.30000000000E+02  0.00000000000E+00 0.  1.
        -11   -1    0    0    0    0 -0.00000000000E+00 -0.00000000000E+00 -0.30000000000E+02  0.30000000000E+02  0.00000000000E+00 0. -1.
         23    2    1    2    0    0  0.00000000000E+00  0.00000000000E+00  0.00000000000E+00  0.60000000000E+02  0.60000000000E+02 0.  0.
          5    1    3    3  501    0 -0.19738731920E+02  0.20826462565E+02  0.73858594099E+01  0.30000000000E+02  0.47000000000E+01 0. -1.
         -5    1    3    3    0  501  0.19738731920E+02 -0.20826462565E+02 -0.73858594099E+01  0.30000000000E+02  0.47000000000E+01 0.  1.
</event>
<event>
 5    1  0.7959189E-002  0.6000000E+02  0.7546771E-02  0.1259629E+00
         11   -1    0    0    0    0  0.00000000000E+00  0.00000000000E+00  0.30000000000E+02  0.30000000000E+02  0.00000000000E+00 0. -1.
        -11   -1    0    0    0    0 -0.00000000000E+00 -0.00000000000E+00 -0.30000000000E+02  0.30000000000E+02  0.00000000000E+00 0.  1.
         23    2    1    2    0    0  0.00000000000E+00  0.00000000000E+00  0.00000000000E+00  0.60000000000E+02  0.60000000000E+02 0.  0.
          5    1    3    3  501    0  0.15951852933E+02 -0.23834038690E+02 -0.74422434609E+01  0.30000000000E+02  0.47000000000E+01 0.  1.
         -5    1    3    3    0  501 -0.15951852933E+02  0.23834038690E+02  0.74422434609E+01  0.30000000000E+02  0.47000000000E+01 0. -1.
</event>
<event>
 5    1  0.7959189E-002  0.6000000E+02  0.7546771E-02  0.1259629E+00
         11   -1    0    0    0    0  0.00000000000E+00  0.00000000000E+00  0.30000000000E+02  0.30000000000E+02  0.00000000000E+00 0.  1.
        -11   -1    0    0    0    0 -0.00000000000E+00 -0.00000000000E+00 -0.30000000000E+02  0.30000000000E+02  0.00000000000E+00 0. -1.
         23    2    1    2    0    0  0.00000000000E+00  0.00000000000E+00  0.00000000000E+00  0.60000000000E+02  0.60000000000E+02 0.  0.
          5    1    3    3  501    0 -0.16499709297E+02  0.17191710613E+02 -0.17610073234E+02  0.30000000000E+02  0.47000000000E+01 0. -1.
         -5    1    3    3    0  501  0.16499709297E+02 -0.17191710613E+02  0.17610073234E+02  0.30000000000E+02  0.47000000000E+01 0.  1.
</event>
<event>
 5    1  0.7959189E-002  0.6000000E+02  0.7546771E-02  0.1259629E+00
         11   -1    0    0    0    0  0.00000000000E+00  0.00000000000E+00  0.30000000000E+02  0.30000000000E+02  0.00000000000E+00 0.  1.
        -11   -1    0    0    0    0 -0.00000000000E+00 -0.00000000000E+00 -0.30000000000E+02  0.30000000000E+02  0.00000000000E+00 0. -1.
         23    2    1    2    0    0  0.00000000000E+00  0.00000000000E+00  0.00000000000E+00  0.60000000000E+02  0.60000000000E+02 0.  0.
          5    1    3    3  501    0 -0.15730028558E+01 -0.49307515758E+00  0.29583653238E+02  0.30000000000E+02  0.47000000000E+01 0.  1.
         -5    1    3    3    0  501  0.15730028558E+01  0.49307515758E+00 -0.29583653238E+02  0.30000000000E+02  0.47000000000E+01 0. -1.
</event>
<event>
 5    1  0.7959189E-002  0.6000000E+02  0.7546771E-02  0.1259629E+00
         11   -1    0    0    0    0  0.00000000000E+00  0.00000000000E+00  0.30000000000E+02  0.30000000000E+02  0.00000000000E+00 0. -1.
        -11   -1    0    0    0    0 -0.00000000000E+00 -0.00000000000E+00 -0.30000000000E+02  0.30000000000E+02  0.00000000000E+00 0.  1.
         23    2    1    2    0    0  0.00000000000E+00  0.00000000000E+00  0.00000000000E+00  0.60000000000E+02  0.60000000000E+02 0.  0.
          5    1    3    3  501    0 -0.12295994334E+02 -0.14772826728E+02 -0.22549547973E+02  0.30000000000E+02  0.47000000000E+01 0.  1.
         -5    1    3    3    0  501  0.12295994334E+02  0.14772826728E+02  0.22549547973E+02  0.30000000000E+02  0.47000000000E+01 0. -1.
</event>
<event>
 5    1  0.7959189E-002  0.6000000E+02  0.7546771E-02  0.1259629E+00
         11   -1    0    0    0    0  0.00000000000E+00  0.00000000000E+00  0.30000000000E+02  0.30000000000E+02  0.00000000000E+00 0.  1.
        -11   -1    0    0    0    0 -0.00000000000E+00 -0.00000000000E+00 -0.30000000000E+02  0.30000000000E+02  0.00000000000E+00 0. -1.
         23    2    1    2    0    0  0.00000000000E+00  0.00000000000E+00  0.00000000000E+00  0.60000000000E+02  0.60000000000E+02 0.  0.
          5    1    3    3  501    0 -0.47908004532E+01  0.23678548254E+02  0.17154724818E+02  0.30000000000E+02  0.47000000000E+01 0.  1.
         -5    1    3    3    0  501  0.47908004532E+01 -0.23678548254E+02 -0.17154724818E+02  0.30000000000E+02  0.47000000000E+01 0. -1.
</event>
<event>
 5    1  0.7959189E-002  0.6000000E+02  0.7546771E-02  0.1259629E+00
         11   -1    0    0    0    0  0.00000000000E+00  0.00000000000E+00  0.30000000000E+02  0.30000000000E+02  0.00000000000E+00 0.  1.
        -11   -1    0    0    0    0 -0.00000000000E+00 -0.00000000000E+00 -0.30000000000E+02  0.30000000000E+02  0.00000000000E+00 0. -1.
         23    2    1    2    0    0  0.00000000000E+00  0.00000000000E+00  0.00000000000E+00  0.60000000000E+02  0.60000000000E+02 0.  0.
          5    1    3    3  501    0  0.10191045414E+02  0.64191360393E+01 -0.27071152282E+02  0.30000000000E+02  0.47000000000E+01 0. -1.
         -5    1    3    3    0  501 -0.10191045414E+02 -0.64191360393E+01  0.27071152282E+02  0.30000000000E+02  0.47000000000E+01 0.  1.
</event>
<event>
 5    1  0.7959189E-002  0.6000000E+02  0.7546771E-02  0.1259629E+00
         11   -1    0    0    0    0  0.00000000000E+00  0.00000000000E+00  0.30000000000E+02  0.30000000000E+02  0.00000000000E+00 0.  1.
        -11   -1    0    0    0    0 -0.00000000000E+00 -0.00000000000E+00 -0.30000000000E+02  0.30000000000E+02  0.00000000000E+00 0. -1.
         23    2    1    2    0    0  0.00000000000E+00  0.00000000000E+00  0.00000000000E+00  0.60000000000E+02  0.60000000000E+02 0.  0.
          5    1    3    3  501    0  0.15103495629E+02 -0.19247407607E+02 -0.16713219923E+02  0.30000000000E+02  0.47000000000E+01 0. -1.
         -5    1    3    3    0  501 -0.15103495629E+02  0.19247407607E+02  0.16713219923E+02  0.30000000000E+02  0.47000000000E+01 0.  1.
</event>
<event>
 5    1  0.7959189E-002  0.6000000E+02  0.7546771E-02  0.1259629E+00
         11   -1    0    0    0    0  0.00000000000E+00  0.00000000000E+00  0.30000000000E+02  0.30000000000E+02  0.00000000000E+00 0.  1.
        -11   -1    0    0    0    0 -0.00000000000E+00 -0.00000000000E+00 -0.30000000000E+02  0.30000000000E+02  0.00000000000E+00 0. -1.
         23    2    1    2    0    0  0.00000000000E+00  0.00000000000E+00  0.00000000000E+00  0.60000000000E+02  0.60000000000E+02 0.  0.
          5    1    3    3  501    0  0.17338289705E+01 -0.26120047659E+02  0.13879731532E+02  0.30000000000E+02  0.47000000000E+01 0.  1.
         -5    1    3    3    0  501 -0.17338289705E+01  0.26120047659E+02 -0.13879731532E+02  0.30000000000E+02  0.47000000000E+01 0. -1.
</event>
<event>
 5    1  0.7959189E-002  0.6000000E+02  0.7546771E-02  0.1259629E+00
         11   -1    0    0    0    0  0.00000000000E+00  0.00000000000E+00  0.30000000000E+02  0.30000000000E+02  0.00000000000E+00 0.  1.
        -11   -1    0    0    0    0 -0.00000000000E+00 -0.00000000000E+00 -0.30000000000E+02  0.30000000000E+02  0.00000000000E+00 0. -1.
         23    2    1    2    0    0  0.00000000000E+00  0.00000000000E+00  0.00000000000E+00  0.60000000000E+02  0.60000000000E+02 0.  0.
          5    1    3    3  501    0 -0.21921054164E+02  0.16445057741E+01 -0.19866378259E+02  0.30000000000E+02  0.47000000000E+01 0. -1.
         -5    1    3    3    0  501  0.21921054164E+02 -0.16445057741E+01  0.19866378259E+02  0.30000000000E+02  0.47000000000E+01 0.  1.
</event>
<event>
 5    1  0.7959189E-002  0.6000000E+02  0.7546771E-02  0.1259629E+00
         11   -1    0    0    0    0  0.00000000000E+00  0.00000000000E+00  0.30000000000E+02  0.30000000000E+02  0.00000000000E+00 0. -1.
        -11   -1    0    0    0    0 -0.00000000000E+00 -0.00000000000E+00 -0.30000000000E+02  0.30000000000E+02  0.00000000000E+00 0.  1.
         23    2    1    2    0    0  0.00000000000E+00  0.00000000000E+00  0.00000000000E+00  0.60000000000E+02  0.60000000000E+02 0.  0.
          5    1    3    3  501    0  0.39323207381E+01 -0.29323623748E+02 -0.16037281269E+01  0.30000000000E+02  0.47000000000E+01 0. -1.
         -5    1    3    3    0  501 -0.39323207381E+01  0.29323623748E+02  0.16037281269E+01  0.30000000000E+02  0.47000000000E+01 0.  1.
</event>
<event>
 5    1  0.7959189E-002  0.6000000E+02  0.7546771E-02  0.1259629E+00
         11   -1    0    0    0    0  0.00000000000E+00  0.00000000000E+00  0.30000000000E+02  0.30000000000E+02  0.00000000000E+00 0.  1.
        -11   -1    0    0    0    0 -0.00000000000E+00 -0.00000000000E+00 -0.30000000000E+02  0.30000000000E+02  0.00000000000E+00 0. -1.
         23    2    1    2    0    0  0.00000000000E+00  0.00000000000E+00  0.00000000000E+00  0.60000000000E+02  0.60000000000E+02 0.  0.
          5    1    3    3  501    0  0.32682994887E+01  0.39995980485E+00 -0.29446022662E+02  0.30000000000E+02  0.47000000000E+01 0. -1.
         -5    1    3    3    0  501 -0.32682994887E+01 -0.39995980485E+00  0.29446022662E+02  0.30000000000E+02  0.47000000000E+01 0.  1.
</event>
<event>
 5    1  0.7959189E-002  0.6000000E+02  0.7546771E-02  0.1259629E+00
         11   -1    0    0    0    0  0.00000000000E+00  0.00000000000E+00  0.30000000000E+02  0.30000000000E+02  0.00000000000E+00 0. -1.
        -11   -1    0    0    0    0 -0.00000000000E+00 -0.00000000000E+00 -0.30000000000E+02  0.30000000000E+02  0.00000000000E+00 0.  1.
         23    2    1    2    0    0  0.00000000000E+00  0.00000000000E+00  0.00000000000E+00  0.60000000000E+02  0.60000000000E+02 0.  0.
          5    1    3    3  501    0  0.76256078562E+01  0.98968505707E+01 -0.26866567581E+02  0.30000000000E+02  0.47000000000E+01 0.  1.
         -5    1    3    3    0  501 -0.76256078562E+01 -0.98968505707E+01  0.26866567581E+02  0.30000000000E+02  0.47000000000E+01 0. -1.
</event>
<event>
 5    1  0.7959189E-002  0.6000000E+02  0.7546771E-02  0.1259629E+00
         11   -1    0    0    0    0  0.00000000000E+00  0.00000000000E+00  0.30000000000E+02  0.30000000000E+02  0.00000000000E+00 0.  1.
        -11   -1    0    0    0    0 -0.00000000000E+00 -0.00000000000E+00 -0.30000000000E+02  0.30000000000E+02  0.00000000000E+00 0. -1.
         23    2    1    2    0    0  0.00000000000E+00  0.00000000000E+00  0.00000000000E+00  0.60000000000E+02  0.60000000000E+02 0.  0.
          5    1    3    3  501    0  0.16145695362E+02  0.24164553994E+02  0.57706890043E+01  0.30000000000E+02  0.47000000000E+01 0.  1.
         -5    1    3    3    0  501 -0.16145695362E+02 -0.24164553994E+02 -0.57706890043E+01  0.30000000000E+02  0.47000000000E+01 0. -1.
</event>
<event>
 5    1  0.7959189E-002  0.6000000E+02  0.7546771E-02  0.1259629E+00
         11   -1    0    0    0    0  0.00000000000E+00  0.00000000000E+00  0.30000000000E+02  0.30000000000E+02  0.00000000000E+00 0.  1.
        -11   -1    0    0    0    0 -0.00000000000E+00 -0.00000000000E+00 -0.30000000000E+02  0.30000000000E+02  0.00000000000E+00 0. -1.
         23    2    1    2    0    0  0.00000000000E+00  0.00000000000E+00  0.00000000000E+00  0.60000000000E+02  0.60000000000E+02 0.  0.
          5    1    3    3  501    0  0.21640590671E+02  0.19056455410E+02 -0.68151553636E+01  0.30000000000E+02  0.47000000000E+01 0. -1.
         -5    1    3    3    0  501 -0.21640590671E+02 -0.19056455410E+02  0.68151553636E+01  0.30000000000E+02  0.47000000000E+01 0.  1.
</event>
<event>
 5    1  0.7959189E-002  0.6000000E+02  0.7546771E-02  0.1259629E+00
         11   -1    0    0    0    0  0.00000000000E+00  0.00000000000E+00  0.30000000000E+02  0.30000000000E+02  0.00000000000E+00 0.  1.
        -11   -1    0    0    0    0 -0.00000000000E+00 -0.00000000000E+00 -0.30000000000E+02  0.30000000000E+02  0.00000000000E+00 0. -1.
         23    2    1    2    0    0  0.00000000000E+00  0.00000000000E+00  0.00000000000E+00  0.60000000000E+02  0.60000000000E+02 0.  0.
          5    1    3    3  501    0  0.25116083382E+02 -0.24558734689E+00 -0.15717253017E+02  0.30000000000E+02  0.47000000000E+01 0. -1.
         -5    1    3    3    0  501 -0.25116083382E+02  0.24558734689E+00  0.15717253017E+02  0.30000000000E+02  0.47000000000E+01 0.  1.
</event>
<event>
 5    1  0.7959189E-002  0.6000000E+02  0.7546771E-02  0.1259629E+00
         11   -1    0    0    0    0  0.00000000000E+00  0.00000000000E+00  0.30000000000E+02  0.30000000000E+02  0.00000000000E+00 0. -1.
        -11   -1    0    0    0    0 -0.00000000000E+00 -0.00000000000E+00 -0.30000000000E+02  0.30000000000E+02  0.00000000000E+00 0.  1.
         23    2    1    2    0    0  0.00000000000E+00  0.00000000000E+00  0.00000000000E+00  0.60000000000E+02  0.60000000000E+02 0.  0.
          5    1    3    3  501    0  0.18597332685E+02 -0.13114689000E+02 -0.18975092870E+02  0.30000000000E+02  0.47000000000E+01 0.  1.
         -5    1    3    3    0  501 -0.18597332685E+02  0.13114689000E+02  0.18975092870E+02  0.30000000000E+02  0.47000000000E+01 0. -1.
</event>
<event>
 5    1  0.7959189E-002  0.6000000E+02  0.7546771E-02  0.1259629E+00
         11   -1    0    0    0    0  0.00000000000E+00  0.00000000000E+00  0.30000000000E+02  0.30000000000E+02  0.00000000000E+00 0. -1.
        -11   -1    0    0    0    0 -0.00000000000E+00 -0.00000000000E+00 -0.30000000000E+02  0.30000000000E+02  0.00000000000E+00 0.  1.
         23    2    1    2    0    0  0.00000000000E+00  0.00000000000E+00  0.00000000000E+00  0.60000000000E+02  0.60000000000E+02 0.  0.
          5    1    3    3  501    0  0.33042084639E+01  0.72907210771E+01 -0.28527838905E+02  0.30000000000E+02  0.47000000000E+01 0.  1.
         -5    1    3    3    0  501 -0.33042084639E+01 -0.72907210771E+01  0.28527838905E+02  0.30000000000E+02  0.47000000000E+01 0. -1.
</event>
<event>
 5    1  0.7959189E-002  0.6000000E+02  0.7546771E-02  0.1259629E+00
         11   -1    0    0    0    0  0.00000000000E+00  0.00000000000E+00  0.30000000000E+02  0.30000000000E+02  0.00000000000E+00 0.  1.
        -11   -1    0    0    0    0 -0.00000000000E+00 -0.00000000000E+00 -0.30000000000E+02  0.30000000000E+02  0.00000000000E+00 0. -1.
         23    2    1    2    0    0  0.00000000000E+00  0.00000000000E+00  0.00000000000E+00  0.60000000000E+02  0.60000000000E+02 0.  0.
          5    1    3    3  501    0 -0.14871629473E+02 -0.17190398113E+02 -0.19006179246E+02  0.30000000000E+02  0.47000000000E+01 0. -1.
         -5    1    3    3    0  501  0.14871629473E+02  0.17190398113E+02  0.19006179246E+02  0.30000000000E+02  0.47000000000E+01 0.  1.
</event>
<event>
 5    1  0.7959189E-002  0.6000000E+02  0.7546771E-02  0.1259629E+00
         11   -1    0    0    0    0  0.00000000000E+00  0.00000000000E+00  0.30000000000E+02  0.30000000000E+02  0.00000000000E+00 0.  1.
        -11   -1    0    0    0    0 -0.00000000000E+00 -0.00000000000E+00 -0.30000000000E+02  0.30000000000E+02  0.00000000000E+00 0. -1.
         23    2    1    2    0    0  0.00000000000E+00  0.00000000000E+00  0.00000000000E+00  0.60000000000E+02  0.60000000000E+02 0.  0.
          5    1    3    3  501    0  0.26532235743E+02 -0.10224434493E+02 -0.83313507790E+01  0.30000000000E+02  0.47000000000E+01 0. -1.
         -5    1    3    3    0  501 -0.26532235743E+02  0.10224434493E+02  0.83313507790E+01  0.30000000000E+02  0.47000000000E+01 0.  1.
</event>
<event>
 5    1  0.7959189E-002  0.6000000E+02  0.7546771E-02  0.1259629E+00
         11   -1    0    0    0    0  0.00000000000E+00  0.00000000000E+00  0.30000000000E+02  0.30000000000E+02  0.00000000000E+00 0.  1.
        -11   -1    0    0    0    0 -0.00000000000E+00 -0.00000000000E+00 -0.30000000000E+02  0.30000000000E+02  0.00000000000E+00 0. -1.
         23    2    1    2    0    0  0.00000000000E+00  0.00000000000E+00  0.00000000000E+00  0.60000000000E+02  0.60000000000E+02 0.  0.
          5    1    3    3  501    0  0.26760314551E+02  0.10599963488E+02 -0.70310980067E+01  0.30000000000E+02  0.47000000000E+01 0. -1.
         -5    1    3    3    0  501 -0.26760314551E+02 -0.10599963488E+02  0.70310980067E+01  0.30000000000E+02  0.47000000000E+01 0.  1.
</event>
<event>
 5    1  0.7959189E-002  0.6000000E+02  0.7546771E-02  0.1259629E+00
         11   -1    0    0    0    0  0.00000000000E+00  0.00000000000E+00  0.30000000000E+02  0.30000000000E+02  0.00000000000E+00 0. -1.
        -11   -1    0    0    0    0 -0.00000000000E+00 -0.00000000000E+00 -0.30000000000E+02  0.30000000000E+02  0.00000000000E+00 0.  1.
         23    2    1    2    0    0  0.00000000000E+00  0.00000000000E+00  0.00000000000E+00  0.60000000000E+02  0.60000000000E+02 0.  0.
          5    1    3    3  501    0  0.13282350558E+02  0.10611782456E+02 -0.24266834090E+02  0.30000000000E+02  0.47000000000E+01 0.  1.
         -5    1    3    3    0  501 -0.13282350558E+02 -0.10611782456E+02  0.24266834090E+02  0.30000000000E+02  0.47000000000E+01 0. -1.
</event>
<event>
 5    1  0.7959189E-002  0.6000000E+02  0.7546771E-02  0.1259629E+00
         11   -1    0    0    0    0  0.00000000000E+00  0.00000000000E+00  0.30000000000E+02  0.30000000000E+02  0.00000000000E+00 0.  1.
        -11   -1    0    0    0    0 -0.00000000000E+00 -0.00000000000E+00 -0.30000000000E+02  0.30000000000E+02  0.00000000000E+00 0. -1.
         23    2    1    2    0    0  0.00000000000E+00  0.00000000000E+00  0.00000000000E+00  0.60000000000E+02  0.60000000000E+02 0.  0.
          5    1    3    3  501    0 -0.21342771983E+02 -0.11436426096E+02 -0.17076423578E+02  0.30000000000E+02  0.47000000000E+01 0. -1.
         -5    1    3    3    0  501  0.21342771983E+02  0.11436426096E+02  0.17076423578E+02  0.30000000000E+02  0.47000000000E+01 0.  1.
</event>
<event>
 5    1  0.7959189E-002  0.6000000E+02  0.7546771E-02  0.1259629E+00
         11   -1    0    0    0    0  0.00000000000E+00  0.00000000000E+00  0.30000000000E+02  0.30000000000E+02  0.00000000000E+00 0. -1.
        -11   -1    0    0    0    0 -0.00000000000E+00 -0.00000000000E+00 -0.30000000000E+02  0.30000000000E+02  0.00000000000E+00 0.  1.
         23    2    1    2    0    0  0.00000000000E+00  0.00000000000E+00  0.00000000000E+00  0.60000000000E+02  0.60000000000E+02 0.  0.
          5    1    3    3  501    0  0.27408810763E+02 -0.80566707586E+01 -0.78585716790E+01  0.30000000000E+02  0.47000000000E+01 0.  1.
         -5    1    3    3    0  501 -0.27408810763E+02  0.80566707586E+01  0.78585716790E+01  0.30000000000E+02  0.47000000000E+01 0. -1.
</event>
<event>
 5    1  0.7959189E-002  0.6000000E+02  0.7546771E-02  0.1259629E+00
         11   -1    0    0    0    0  0.00000000000E+00  0.00000000000E+00  0.30000000000E+02  0.30000000000E+02  0.00000000000E+00 0.  1.
        -11   -1    0    0    0    0 -0.00000000000E+00 -0.00000000000E+00 -0.30000000000E+02  0.30000000000E+02  0.00000000000E+00 0. -1.
         23    2    1    2    0    0  0.00000000000E+00  0.00000000000E+00  0.00000000000E+00  0.60000000000E+02  0.60000000000E+02 0.  0.
          5    1    3    3  501    0 -0.17366137632E+02  0.12329215772E+02 -0.20598973329E+02  0.30000000000E+02  0.47000000000E+01 0. -1.
         -5    1    3    3    0  501  0.17366137632E+02 -0.12329215772E+02  0.20598973329E+02  0.30000000000E+02  0.47000000000E+01 0.  1.
</event>
<event>
 5    1  0.7959189E-002  0.6000000E+02  0.7546771E-02  0.1259629E+00
         11   -1    0    0    0    0  0.00000000000E+00  0.00000000000E+00  0.30000000000E+02  0.30000000000E+02  0.00000000000E+00 0.  1.
        -11   -1    0    0    0    0 -0.00000000000E+00 -0.00000000000E+00 -0.30000000000E+02  0.30000000000E+02  0.00000000000E+00 0. -1.
         23    2    1    2    0    0  0.00000000000E+00  0.00000000000E+00  0.00000000000E+00  0.60000000000E+02  0.60000000000E+02 0.  0.
          5    1    3    3  501    0  0.20191968639E+02  0.20075069516E+02  0.81967058276E+01  0.30000000000E+02  0.47000000000E+01 0. -1.
         -5    1    3    3    0  501 -0.20191968639E+02 -0.20075069516E+02 -0.81967058276E+01  0.30000000000E+02  0.47000000000E+01 0.  1.
</event>
<event>
 5    1  0.7959189E-002  0.6000000E+02  0.7546771E-02  0.1259629E+00
         11   -1    0    0    0    0  0.00000000000E+00  0.00000000000E+00  0.30000000000E+02  0.30000000000E+02  0.00000000000E+00 0.  1.
        -11   -1    0    0    0    0 -0.00000000000E+00 -0.00000000000E+00 -0.30000000000E+02  0.30000000000E+02  0.00000000000E+00 0. -1.
         23    2    1    2    0    0  0.00000000000E+00  0.00000000000E+00  0.00000000000E+00  0.60000000000E+02  0.60000000000E+02 0.  0.
          5    1    3    3  501    0  0.29295850552E+02  0.59280043688E+00  0.43945111332E+01  0.30000000000E+02  0.47000000000E+01 0.  1.
         -5    1    3    3    0  501 -0.29295850552E+02 -0.59280043688E+00 -0.43945111332E+01  0.30000000000E+02  0.47000000000E+01 0. -1.
</event>
<event>
 5    1  0.7959189E-002  0.6000000E+02  0.7546771E-02  0.1259629E+00
         11   -1    0    0    0    0  0.00000000000E+00  0.00000000000E+00  0.30000000000E+02  0.30000000000E+02  0.00000000000E+00 0. -1.
        -11   -1    0    0    0    0 -0.00000000000E+00 -0.00000000000E+00 -0.30000000000E+02  0.30000000000E+02  0.00000000000E+00 0.  1.
         23    2    1    2    0    0  0.00000000000E+00  0.00000000000E+00  0.00000000000E+00  0.60000000000E+02  0.60000000000E+02 0.  0.
          5    1    3    3  501    0  0.14229295419E+02 -0.18917638711E+01 -0.25920231120E+02  0.30000000000E+02  0.47000000000E+01 0.  1.
         -5    1    3    3    0  501 -0.14229295419E+02  0.18917638711E+01  0.25920231120E+02  0.30000000000E+02  0.47000000000E+01 0. -1.
</event>
<event>
 5    1  0.7959189E-002  0.6000000E+02  0.7546771E-02  0.1259629E+00
         11   -1    0    0    0    0  0.00000000000E+00  0.00000000000E+00  0.30000000000E+02  0.30000000000E+02  0.00000000000E+00 0.  1.
        -11   -1    0    0    0    0 -0.00000000000E+00 -0.00000000000E+00 -0.30000000000E+02  0.30000000000E+02  0.00000000000E+00 0. -1.
         23    2    1    2    0    0  0.00000000000E+00  0.00000000000E+00  0.00000000000E+00  0.60000000000E+02  0.60000000000E+02 0.  0.
          5    1    3    3  501    0  0.85598958962E+01  0.14652849767E+02 -0.24288519427E+02  0.30000000000E+02  0.47000000000E+01 0. -1.
         -5    1    3    3    0  501 -0.85598958962E+01 -0.14652849767E+02  0.24288519427E+02  0.30000000000E+02  0.47000000000E+01 0.  1.
</event>
<event>
 5    1  0.7959189E-002  0.6000000E+02  0.7546771E-02  0.1259629E+00
         11   -1    0    0    0    0  0.00000000000E+00  0.00000000000E+00  0.30000000000E+02  0.30000000000E+02  0.00000000000E+00 0. -1.
        -11   -1    0    0    0    0 -0.00000000000E+00 -0.00000000000E+00 -0.30000000000E+02  0.30000000000E+02  0.00000000000E+00 0.  1.
         23    2    1    2    0    0  0.00000000000E+00  0.00000000000E+00  0.00000000000E+00  0.60000000000E+02  0.60000000000E+02 0.  0.
          5    1    3    3  501    0  0.13220463908E+02 -0.24532970379E+02 -0.10062936871E+02  0.30000000000E+02  0.47000000000E+01 0.  1.
         -5    1    3    3    0  501 -0.13220463908E+02  0.24532970379E+02  0.10062936871E+02  0.30000000000E+02  0.47000000000E+01 0. -1.
</event>
<event>
 5    1  0.7959189E-002  0.6000000E+02  0.7546771E-02  0.1259629E+00
         11   -1    0    0    0    0  0.00000000000E+00  0.00000000000E+00  0.30000000000E+02  0.30000000000E+02  0.00000000000E+00 0.  1.
        -11   -1    0    0    0    0 -0.00000000000E+00 -0.00000000000E+00 -0.30000000000E+02  0.30000000000E+02  0.00000000000E+00 0. -1.
         23    2    1    2    0    0  0.00000000000E+00  0.00000000000E+00  0.00000000000E+00  0.60000000000E+02  0.60000000000E+02 0.  0.
          5    1    3    3  501    0  0.21951732146E+02 -0.48741927714E+01 -0.19294395576E+02  0.30000000000E+02  0.47000000000E+01 0. -1.
         -5    1    3    3    0  501 -0.21951732146E+02  0.48741927714E+01  0.19294395576E+02  0.30000000000E+02  0.47000000000E+01 0.  1.
</event>
<event>
 5    1  0.7959189E-002  0.6000000E+02  0.7546771E-02  0.1259629E+00
         11   -1    0    0    0    0  0.00000000000E+00  0.00000000000E+00  0.30000000000E+02  0.30000000000E+02  0.00000000000E+00 0.  1.
        -11   -1    0    0    0    0 -0.00000000000E+00 -0.00000000000E+00 -0.30000000000E+02  0.30000000000E+02  0.00000000000E+00 0. -1.
         23    2    1    2    0    0  0.00000000000E+00  0.00000000000E+00  0.00000000000E+00  0.60000000000E+02  0.60000000000E+02 0.  0.
          5    1    3    3  501    0  0.32262755566E+01 -0.26205136572E+02 -0.13445890201E+02  0.30000000000E+02  0.47000000000E+01 0. -1.
         -5    1    3    3    0  501 -0.32262755566E+01  0.26205136572E+02  0.13445890201E+02  0.30000000000E+02  0.47000000000E+01 0.  1.
</event>
<event>
 5    1  0.7959189E-002  0.6000000E+02  0.7546771E-02  0.1259629E+00
         11   -1    0    0    0    0  0.00000000000E+00  0.00000000000E+00  0.30000000000E+02  0.30000000000E+02  0.00000000000E+00 0. -1.
        -11   -1    0    0    0    0 -0.00000000000E+00 -0.00000000000E+00 -0.30000000000E+02  0.30000000000E+02  0.00000000000E+00 0.  1.
         23    2    1    2    0    0  0.00000000000E+00  0.00000000000E+00  0.00000000000E+00  0.60000000000E+02  0.60000000000E+02 0.  0.
          5    1    3    3  501    0 -0.11345288475E+02  0.27302328265E+02 -0.19435279130E+01  0.30000000000E+02  0.47000000000E+01 0.  1.
         -5    1    3    3    0  501  0.11345288475E+02 -0.27302328265E+02  0.19435279130E+01  0.30000000000E+02  0.47000000000E+01 0. -1.
</event>
<event>
 5    1  0.7959189E-002  0.6000000E+02  0.7546771E-02  0.1259629E+00
         11   -1    0    0    0    0  0.00000000000E+00  0.00000000000E+00  0.30000000000E+02  0.30000000000E+02  0.00000000000E+00 0.  1.
        -11   -1    0    0    0    0 -0.00000000000E+00 -0.00000000000E+00 -0.30000000000E+02  0.30000000000E+02  0.00000000000E+00 0. -1.
         23    2    1    2    0    0  0.00000000000E+00  0.00000000000E+00  0.00000000000E+00  0.60000000000E+02  0.60000000000E+02 0.  0.
          5    1    3    3  501    0  0.65381556822E+01  0.28182340596E+02 -0.63967334484E+01  0.30000000000E+02  0.47000000000E+01 0. -1.
         -5    1    3    3    0  501 -0.65381556822E+01 -0.28182340596E+02  0.63967334484E+01  0.30000000000E+02  0.47000000000E+01 0.  1.
</event>
<event>
 5    1  0.7959189E-002  0.6000000E+02  0.7546771E-02  0.1259629E+00
         11   -1    0    0    0    0  0.00000000000E+00  0.00000000000E+00  0.30000000000E+02  0.30000000000E+02  0.00000000000E+00 0.  1.
        -11   -1    0    0    0    0 -0.00000000000E+00 -0.00000000000E+00 -0.30000000000E+02  0.30000000000E+02  0.00000000000E+00 0. -1.
         23    2    1    2    0    0  0.00000000000E+00  0.00000000000E+00  0.00000000000E+00  0.60000000000E+02  0.60000000000E+02 0.  0.
          5    1    3    3  501    0  0.17052253443E+02  0.16549009054E+02 -0.17699179412E+02  0.30000000000E+02  0.47000000000E+01 0. -1.
         -5    1    3    3    0  501 -0.17052253443E+02 -0.16549009054E+02  0.17699179412E+02  0.30000000000E+02  0.47000000000E+01 0.  1.
</event>
<event>
 5    1  0.7959189E-002  0.6000000E+02  0.7546771E-02  0.1259629E+00
         11   -1    0    0    0    0  0.00000000000E+00  0.00000000000E+00  0.30000000000E+02  0.30000000000E+02  0.00000000000E+00 0. -1.
        -11   -1    0    0    0    0 -0.00000000000E+00 -0.00000000000E+00 -0.30000000000E+02  0.30000000000E+02  0.00000000000E+00 0.  1.
         23    2    1    2    0    0  0.00000000000E+00  0.00000000000E+00  0.00000000000E+00  0.60000000000E+02  0.60000000000E+02 0.  0.
          5    1    3    3  501    0 -0.23525551329E+02  0.17859182379E+02 -0.23469212658E+01  0.30000000000E+02  0.47000000000E+01 0.  1.
         -5    1    3    3    0  501  0.23525551329E+02 -0.17859182379E+02  0.23469212658E+01  0.30000000000E+02  0.47000000000E+01 0. -1.
</event>
<event>
 5    1  0.7959189E-002  0.6000000E+02  0.7546771E-02  0.1259629E+00
         11   -1    0    0    0    0  0.00000000000E+00  0.00000000000E+00  0.30000000000E+02  0.30000000000E+02  0.00000000000E+00 0.  1.
        -11   -1    0    0    0    0 -0.00000000000E+00 -0.00000000000E+00 -0.30000000000E+02  0.30000000000E+02  0.00000000000E+00 0. -1.
         23    2    1    2    0    0  0.00000000000E+00  0.00000000000E+00  0.00000000000E+00  0.60000000000E+02  0.60000000000E+02 0.  0.
          5    1    3    3  501    0  0.14345047811E+02  0.25391118752E+02 -0.52364770421E+01  0.30000000000E+02  0.47000000000E+01 0.  1.
         -5    1    3    3    0  501 -0.14345047811E+02 -0.25391118752E+02  0.52364770421E+01  0.30000000000E+02  0.47000000000E+01 0. -1.
</event>
<event>
 5    1  0.7959189E-002  0.6000000E+02  0.7546771E-02  0.1259629E+00
         11   -1    0    0    0    0  0.00000000000E+00  0.00000000000E+00  0.30000000000E+02  0.30000000000E+02  0.00000000000E+00 0.  1.
        -11   -1    0    0    0    0 -0.00000000000E+00 -0.00000000000E+00 -0.30000000000E+02  0.30000000000E+02  0.00000000000E+00 0. -1.
         23    2    1    2    0    0  0.00000000000E+00  0.00000000000E+00  0.00000000000E+00  0.60000000000E+02  0.60000000000E+02 0.  0.
          5    1    3    3  501    0 -0.39556750832E+01 -0.28507878670E+02  0.70401341171E+01  0.30000000000E+02  0.47000000000E+01 0.  1.
         -5    1    3    3    0  501  0.39556750832E+01  0.28507878670E+02 -0.70401341171E+01  0.30000000000E+02  0.47000000000E+01 0. -1.
</event>
<event>
 5    1  0.7959189E-002  0.6000000E+02  0.7546771E-02  0.1259629E+00
         11   -1    0    0    0    0  0.00000000000E+00  0.00000000000E+00  0.30000000000E+02  0.30000000000E+02  0.00000000000E+00 0.  1.
        -11   -1    0    0    0    0 -0.00000000000E+00 -0.00000000000E+00 -0.30000000000E+02  0.30000000000E+02  0.00000000000E+00 0. -1.
         23    2    1    2    0    0  0.00000000000E+00  0.00000000000E+00  0.00000000000E+00  0.60000000000E+02  0.60000000000E+02 0.  0.
          5    1    3    3  501    0  0.18602198913E+02  0.11757776845E+02 -0.19839931433E+02  0.30000000000E+02  0.47000000000E+01 0. -1.
         -5    1    3    3    0  501 -0.18602198913E+02 -0.11757776845E+02  0.19839931433E+02  0.30000000000E+02  0.47000000000E+01 0.  1.
</event>
<event>
 5    1  0.7959189E-002  0.6000000E+02  0.7546771E-02  0.1259629E+00
         11   -1    0    0    0    0  0.00000000000E+00  0.00000000000E+00  0.30000000000E+02  0.30000000000E+02  0.00000000000E+00 0.  1.
        -11   -1    0    0    0    0 -0.00000000000E+00 -0.00000000000E+00 -0.30000000000E+02  0.30000000000E+02  0.00000000000E+00 0. -1.
         23    2    1    2    0    0  0.00000000000E+00  0.00000000000E+00  0.00000000000E+00  0.60000000000E+02  0.60000000000E+02 0.  0.
          5    1    3    3  501    0 -0.17566470247E+02  0.19818447670E+02 -0.13287522531E+02  0.30000000000E+02  0.47000000000E+01 0. -1.
         -5    1    3    3    0  501  0.17566470247E+02 -0.19818447670E+02  0.13287522531E+02  0.30000000000E+02  0.47000000000E+01 0.  1.
</event>
<event>
 5    1  0.7959189E-002  0.6000000E+02  0.7546771E-02  0.1259629E+00
         11   -1    0    0    0    0  0.00000000000E+00  0.00000000000E+00  0.30000000000E+02  0.30000000000E+02  0.00000000000E+00 0.  1.
        -11   -1    0    0    0    0 -0.00000000000E+00 -0.00000000000E+00 -0.30000000000E+02  0.30000000000E+02  0.00000000000E+00 0. -1.
         23    2    1    2    0    0  0.00000000000E+00  0.00000000000E+00  0.00000000000E+00  0.60000000000E+02  0.60000000000E+02 0.  0.
          5    1    3    3  501    0 -0.92807507002E+00  0.23083323733E+02  0.18552866143E+02  0.30000000000E+02  0.47000000000E+01 0.  1.
         -5    1    3    3    0  501  0.92807507002E+00 -0.23083323733E+02 -0.18552866143E+02  0.30000000000E+02  0.47000000000E+01 0. -1.
</event>
<event>
 5    1  0.7959189E-002  0.6000000E+02  0.7546771E-02  0.1259629E+00
         11   -1    0    0    0    0  0.00000000000E+00  0.00000000000E+00  0.30000000000E+02  0.30000000000E+02  0.00000000000E+00 0.  1.
        -11   -1    0    0    0    0 -0.00000000000E+00 -0.00000000000E+00 -0.30000000000E+02  0.30000000000E+02  0.00000000000E+00 0. -1.
         23    2    1    2    0    0  0.00000000000E+00  0.00000000000E+00  0.00000000000E+00  0.60000000000E+02  0.60000000000E+02 0.  0.
          5    1    3    3  501    0 -0.20489681280E+02  0.16555237531E+02 -0.13564920617E+02  0.30000000000E+02  0.47000000000E+01 0. -1.
         -5    1    3    3    0  501  0.20489681280E+02 -0.16555237531E+02  0.13564920617E+02  0.30000000000E+02  0.47000000000E+01 0.  1.
</event>
<event>
 5    1  0.7959189E-002  0.6000000E+02  0.7546771E-02  0.1259629E+00
         11   -1    0    0    0    0  0.00000000000E+00  0.00000000000E+00  0.30000000000E+02  0.30000000000E+02  0.00000000000E+00 0. -1.
        -11   -1    0    0    0    0 -0.00000000000E+00 -0.00000000000E+00 -0.30000000000E+02  0.30000000000E+02  0.00000000000E+00 0.  1.
         23    2    1    2    0    0  0.00000000000E+00  0.00000000000E+00  0.00000000000E+00  0.60000000000E+02  0.60000000000E+02 0.  0.
          5    1    3    3  501    0  0.13591875568E+02  0.24498771633E+02 -0.96426711550E+01  0.30000000000E+02  0.47000000000E+01 0.  1.
         -5    1    3    3    0  501 -0.13591875568E+02 -0.24498771633E+02  0.96426711550E+01  0.30000000000E+02  0.47000000000E+01 0. -1.
</event>
<event>
 5    1  0.7959189E-002  0.6000000E+02  0.7546771E-02  0.1259629E+00
         11   -1    0    0    0    0  0.00000000000E+00  0.00000000000E+00  0.30000000000E+02  0.30000000000E+02  0.00000000000E+00 0.  1.
        -11   -1    0    0    0    0 -0.00000000000E+00 -0.00000000000E+00 -0.30000000000E+02  0.30000000000E+02  0.00000000000E+00 0. -1.
         23    2    1    2    0    0  0.00000000000E+00  0.00000000000E+00  0.00000000000E+00  0.60000000000E+02  0.60000000000E+02 0.  0.
          5    1    3    3  501    0  0.93569640968E+01  0.21642649893E+02 -0.17943046801E+02  0.30000000000E+02  0.47000000000E+01 0. -1.
         -5    1    3    3    0  501 -0.93569640968E+01 -0.21642649893E+02  0.17943046801E+02  0.30000000000E+02  0.47000000000E+01 0.  1.
</event>
<event>
 5    1  0.7959189E-002  0.6000000E+02  0.7546771E-02  0.1259629E+00
         11   -1    0    0    0    0  0.00000000000E+00  0.00000000000E+00  0.30000000000E+02  0.30000000000E+02  0.00000000000E+00 0.  1.
        -11   -1    0    0    0    0 -0.00000000000E+00 -0.00000000000E+00 -0.30000000000E+02  0.30000000000E+02  0.00000000000E+00 0. -1.
         23    2    1    2    0    0  0.00000000000E+00  0.00000000000E+00  0.00000000000E+00  0.60000000000E+02  0.60000000000E+02 0.  0.
          5    1    3    3  501    0  0.27048673062E+02  0.10261558640E+02  0.64015388675E+01  0.30000000000E+02  0.47000000000E+01 0.  1.
         -5    1    3    3    0  501 -0.27048673062E+02 -0.10261558640E+02 -0.64015388675E+01  0.30000000000E+02  0.47000000000E+01 0. -1.
</event>
<event>
 5    1  0.7959189E-002  0.6000000E+02  0.7546771E-02  0.1259629E+00
         11   -1    0    0    0    0  0.00000000000E+00  0.00000000000E+00  0.30000000000E+02  0.30000000000E+02  0.00000000000E+00 0. -1.
        -11   -1    0    0    0    0 -0.00000000000E+00 -0.00000000000E+00 -0.30000000000E+02  0.30000000000E+02  0.00000000000E+00 0.  1.
         23    2    1    2    0    0  0.00000000000E+00  0.00000000000E+00  0.00000000000E+00  0.60000000000E+02  0.60000000000E+02 0.  0.
          5    1    3    3  501    0 -0.25759100920E+02  0.53895556493E+01 -0.13613647920E+02  0.30000000000E+02  0.47000000000E+01 0.  1.
         -5    1    3    3    0  501  0.25759100920E+02 -0.53895556493E+01  0.13613647920E+02  0.30000000000E+02  0.47000000000E+01 0. -1.
</event>
<event>
 5    1  0.7959189E-002  0.6000000E+02  0.7546771E-02  0.1259629E+00
         11   -1    0    0    0    0  0.00000000000E+00  0.00000000000E+00  0.30000000000E+02  0.30000000000E+02  0.00000000000E+00 0.  1.
        -11   -1    0    0    0    0 -0.00000000000E+00 -0.00000000000E+00 -0.30000000000E+02  0.30000000000E+02  0.00000000000E+00 0. -1.
         23    2    1    2    0    0  0.00000000000E+00  0.00000000000E+00  0.00000000000E+00  0.60000000000E+02  0.60000000000E+02 0.  0.
          5    1    3    3  501    0 -0.18674687504E+02  0.20335069112E+02 -0.10754115996E+02  0.30000000000E+02  0.47000000000E+01 0. -1.
         -5    1    3    3    0  501  0.18674687504E+02 -0.20335069112E+02  0.10754115996E+02  0.30000000000E+02  0.47000000000E+01 0.  1.
</event>
<event>
 5    1  0.7959189E-002  0.6000000E+02  0.7546771E-02  0.1259629E+00
         11   -1    0    0    0    0  0.00000000000E+00  0.00000000000E+00  0.30000000000E+02  0.30000000000E+02  0.00000000000E+00 0. -1.
        -11   -1    0    0    0    0 -0.00000000000E+00 -0.00000000000E+00 -0.30000000000E+02  0.30000000000E+02  0.00000000000E+00 0.  1.
         23    2    1    2    0    0  0.00000000000E+00  0.00000000000E+00  0.00000000000E+00  0.60000000000E+02  0.60000000000E+02 0.  0.
          5    1    3    3  501    0  0.39343205553E+01  0.28078952840E+02  0.86025303937E+01  0.30000000000E+02  0.47000000000E+01 0.  1.
         -5    1    3    3    0  501 -0.39343205553E+01 -0.28078952840E+02 -0.86025303937E+01  0.30000000000E+02  0.47000000000E+01 0. -1.
</event>
<event>
 5    1  0.7959189E-002  0.6000000E+02  0.7546771E-02  0.1259629E+00
         11   -1    0    0    0    0  0.00000000000E+00  0.00000000000E+00  0.30000000000E+02  0.30000000000E+02  0.00000000000E+00 0.  1.
        -11   -1    0    0    0    0 -0.00000000000E+00 -0.00000000000E+00 -0.30000000000E+02  0.30000000000E+02  0.00000000000E+00 0. -1.
         23    2    1    2    0    0  0.00000000000E+00  0.00000000000E+00  0.00000000000E+00  0.60000000000E+02  0.60000000000E+02 0.  0.
          5    1    3    3  501    0  0.13651668328E+02 -0.21384794527E+02 -0.15304656641E+02  0.30000000000E+02  0.47000000000E+01 0. -1.
         -5    1    3    3    0  501 -0.13651668328E+02  0.21384794527E+02  0.15304656641E+02  0.30000000000E+02  0.47000000000E+01 0.  1.
</event>
<event>
 5    1  0.7959189E-002  0.6000000E+02  0.7546771E-02  0.1259629E+00
         11   -1    0    0    0    0  0.00000000000E+00  0.00000000000E+00  0.30000000000E+02  0.30000000000E+02  0.00000000000E+00 0.  1.
        -11   -1    0    0    0    0 -0.00000000000E+00 -0.00000000000E+00 -0.30000000000E+02  0.30000000000E+02  0.00000000000E+00 0. -1.
         23    2    1    2    0    0  0.00000000000E+00  0.00000000000E+00  0.00000000000E+00  0.60000000000E+02  0.60000000000E+02 0.  0.
          5    1    3    3  501    0  0.27209862783E+02 -0.66813688621E+01 -0.96380847406E+01  0.30000000000E+02  0.47000000000E+01 0. -1.
         -5    1    3    3    0  501 -0.27209862783E+02  0.66813688621E+01  0.96380847406E+01  0.30000000000E+02  0.47000000000E+01 0.  1.
</event>
<event>
 5    1  0.7959189E-002  0.6000000E+02  0.7546771E-02  0.1259629E+00
         11   -1    0    0    0    0  0.00000000000E+00  0.00000000000E+00  0.30000000000E+02  0.30000000000E+02  0.00000000000E+00 0.  1.
        -11   -1    0    0    0    0 -0.00000000000E+00 -0.00000000000E+00 -0.30000000000E+02  0.30000000000E+02  0.00000000000E+00 0. -1.
         23    2    1    2    0    0  0.00000000000E+00  0.00000000000E+00  0.00000000000E+00  0.60000000000E+02  0.60000000000E+02 0.  0.
          5    1    3    3  501    0 -0.25946250583E+02  0.29522006424E+01  0.13999521137E+02  0.30000000000E+02  0.47000000000E+01 0.  1.
         -5    1    3    3    0  501  0.25946250583E+02 -0.29522006424E+01 -0.13999521137E+02  0.30000000000E+02  0.47000000000E+01 0. -1.
</event>
<event>
 5    1  0.7959189E-002  0.6000000E+02  0.7546771E-02  0.1259629E+00
         11   -1    0    0    0    0  0.00000000000E+00  0.00000000000E+00  0.30000000000E+02  0.30000000000E+02  0.00000000000E+00 0. -1.
        -11   -1    0    0    0    0 -0.00000000000E+00 -0.00000000000E+00 -0.30000000000E+02  0.30000000000E+02  0.00000000000E+00 0.  1.
         23    2    1    2    0    0  0.00000000000E+00  0.00000000000E+00  0.00000000000E+00  0.60000000000E+02  0.60000000000E+02 0.  0.
          5    1    3    3  501    0  0.23502680769E+01  0.28635663529E+02 -0.72377492526E+01  0.30000000000E+02  0.47000000000E+01 0.  1.
         -5    1    3    3    0  501 -0.23502680769E+01 -0.28635663529E+02  0.72377492526E+01  0.30000000000E+02  0.47000000000E+01 0. -1.
</event>
<event>
 5    1  0.7959189E-002  0.6000000E+02  0.7546771E-02  0.1259629E+00
         11   -1    0    0    0    0  0.00000000000E+00  0.00000000000E+00  0.30000000000E+02  0.30000000000E+02  0.00000000000E+00 0.  1.
        -11   -1    0    0    0    0 -0.00000000000E+00 -0.00000000000E+00 -0.30000000000E+02  0.30000000000E+02  0.00000000000E+00 0. -1.
         23    2    1    2    0    0  0.00000000000E+00  0.00000000000E+00  0.00000000000E+00  0.60000000000E+02  0.60000000000E+02 0.  0.
          5    1    3    3  501    0  0.15713382423E+02 -0.59723805133E+01 -0.24399391055E+02  0.30000000000E+02  0.47000000000E+01 0. -1.
         -5    1    3    3    0  501 -0.15713382423E+02  0.59723805133E+01  0.24399391055E+02  0.30000000000E+02  0.47000000000E+01 0.  1.
</event>
<event>
 5    1  0.7959189E-002  0.6000000E+02  0.7546771E-02  0.1259629E+00
         11   -1    0    0    0    0  0.00000000000E+00  0.00000000000E+00  0.30000000000E+02  0.30000000000E+02  0.00000000000E+00 0.  1.
        -11   -1    0    0    0    0 -0.00000000000E+00 -0.00000000000E+00 -0.30000000000E+02  0.30000000000E+02  0.00000000000E+00 0. -1.
         23    2    1    2    0    0  0.00000000000E+00  0.00000000000E+00  0.00000000000E+00  0.60000000000E+02  0.60000000000E+02 0.  0.
          5    1    3    3  501    0  0.10380528665E+02 -0.20343184464E+02 -0.18876161434E+02  0.30000000000E+02  0.47000000000E+01 0. -1.
         -5    1    3    3    0  501 -0.10380528665E+02  0.20343184464E+02  0.18876161434E+02  0.30000000000E+02  0.47000000000E+01 0.  1.
</event>
<event>
 5    1  0.7959189E-002  0.6000000E+02  0.7546771E-02  0.1259629E+00
         11   -1    0    0    0    0  0.00000000000E+00  0.00000000000E+00  0.30000000000E+02  0.30000000000E+02  0.00000000000E+00 0.  1.
        -11   -1    0    0    0    0 -0.00000000000E+00 -0.00000000000E+00 -0.30000000000E+02  0.30000000000E+02  0.00000000000E+00 0. -1.
         23    2    1    2    0    0  0.00000000000E+00  0.00000000000E+00  0.00000000000E+00  0.60000000000E+02  0.60000000000E+02 0.  0.
          5    1    3    3  501    0 -0.20482899795E+02  0.18021902736E+02 -0.11557328314E+02  0.30000000000E+02  0.47000000000E+01 0. -1.
         -5    1    3    3    0  501  0.20482899795E+02 -0.18021902736E+02  0.11557328314E+02  0.30000000000E+02  0.47000000000E+01 0.  1.
</event>
<event>
 5    1  0.7959189E-002  0.6000000E+02  0.7546771E-02  0.1259629E+00
         11   -1    0    0    0    0  0.00000000000E+00  0.00000000000E+00  0.30000000000E+02  0.30000000000E+02  0.00000000000E+00 0.  1.
        -11   -1    0    0    0    0 -0.00000000000E+00 -0.00000000000E+00 -0.30000000000E+02  0.30000000000E+02  0.00000000000E+00 0. -1.
         23    2    1    2    0    0  0.00000000000E+00  0.00000000000E+00  0.00000000000E+00  0.60000000000E+02  0.60000000000E+02 0.  0.
          5    1    3    3  501    0  0.82100866829E+01 -0.18958103158E+02 -0.21238992474E+02  0.30000000000E+02  0.47000000000E+01 0. -1.
         -5    1    3    3    0  501 -0.82100866829E+01  0.18958103158E+02  0.21238992474E+02  0.30000000000E+02  0.47000000000E+01 0.  1.
</event>
<event>
 5    1  0.7959189E-002  0.6000000E+02  0.7546771E-02  0.1259629E+00
         11   -1    0    0    0    0  0.00000000000E+00  0.00000000000E+00  0.30000000000E+02  0.30000000000E+02  0.00000000000E+00 0. -1.
        -11   -1    0    0    0    0 -0.00000000000E+00 -0.00000000000E+00 -0.30000000000E+02  0.30000000000E+02  0.00000000000E+00 0.  1.
         23    2    1    2    0    0  0.00000000000E+00  0.00000000000E+00  0.00000000000E+00  0.60000000000E+02  0.60000000000E+02 0.  0.
          5    1    3    3  501    0 -0.11820170293E+02 -0.23248075727E+02 -0.14061313923E+02  0.30000000000E+02  0.47000000000E+01 0.  1.
         -5    1    3    3    0  501  0.11820170293E+02  0.23248075727E+02  0.14061313923E+02  0.30000000000E+02  0.47000000000E+01 0. -1.
</event>
<event>
 5    1  0.7959189E-002  0.6000000E+02  0.7546771E-02  0.1259629E+00
         11   -1    0    0    0    0  0.00000000000E+00  0.00000000000E+00  0.30000000000E+02  0.30000000000E+02  0.00000000000E+00 0.  1.
        -11   -1    0    0    0    0 -0.00000000000E+00 -0.00000000000E+00 -0.30000000000E+02  0.30000000000E+02  0.00000000000E+00 0. -1.
         23    2    1    2    0    0  0.00000000000E+00  0.00000000000E+00  0.00000000000E+00  0.60000000000E+02  0.60000000000E+02 0.  0.
          5    1    3    3  501    0 -0.21740966570E+02 -0.15456276191E+02 -0.12897437687E+02  0.30000000000E+02  0.47000000000E+01 0. -1.
         -5    1    3    3    0  501  0.21740966570E+02  0.15456276191E+02  0.12897437687E+02  0.30000000000E+02  0.47000000000E+01 0.  1.
</event>
<event>
 5    1  0.7959189E-002  0.6000000E+02  0.7546771E-02  0.1259629E+00
         11   -1    0    0    0    0  0.00000000000E+00  0.00000000000E+00  0.30000000000E+02  0.30000000000E+02  0.00000000000E+00 0. -1.
        -11   -1    0    0    0    0 -0.00000000000E+00 -0.00000000000E+00 -0.30000000000E+02  0.30000000000E+02  0.00000000000E+00 0.  1.
         23    2    1    2    0    0  0.00000000000E+00  0.00000000000E+00  0.00000000000E+00  0.60000000000E+02  0.60000000000E+02 0.  0.
          5    1    3    3  501    0  0.14956407105E+02 -0.18745997619E+02 -0.17401248799E+02  0.30000000000E+02  0.47000000000E+01 0.  1.
         -5    1    3    3    0  501 -0.14956407105E+02  0.18745997619E+02  0.17401248799E+02  0.30000000000E+02  0.47000000000E+01 0. -1.
</event>
<event>
 5    1  0.7959189E-002  0.6000000E+02  0.7546771E-02  0.1259629E+00
         11   -1    0    0    0    0  0.00000000000E+00  0.00000000000E+00  0.30000000000E+02  0.30000000000E+02  0.00000000000E+00 0.  1.
        -11   -1    0    0    0    0 -0.00000000000E+00 -0.00000000000E+00 -0.30000000000E+02  0.30000000000E+02  0.00000000000E+00 0. -1.
         23    2    1    2    0    0  0.00000000000E+00  0.00000000000E+00  0.00000000000E+00  0.60000000000E+02  0.60000000000E+02 0.  0.
          5    1    3    3  501    0 -0.36459935458E+01 -0.24305629250E+02 -0.16548508024E+02  0.30000000000E+02  0.47000000000E+01 0. -1.
         -5    1    3    3    0  501  0.36459935458E+01  0.24305629250E+02  0.16548508024E+02  0.30000000000E+02  0.47000000000E+01 0.  1.
</event>
<event>
 5    1  0.7959189E-002  0.6000000E+02  0.7546771E-02  0.1259629E+00
         11   -1    0    0    0    0  0.00000000000E+00  0.00000000000E+00  0.30000000000E+02  0.30000000000E+02  0.00000000000E+00 0.  1.
        -11   -1    0    0    0    0 -0.00000000000E+00 -0.00000000000E+00 -0.30000000000E+02  0.30000000000E+02  0.00000000000E+00 0. -1.
         23    2    1    2    0    0  0.00000000000E+00  0.00000000000E+00  0.00000000000E+00  0.60000000000E+02  0.60000000000E+02 0.  0.
          5    1    3    3  501    0 -0.31124318069E+01  0.12859922695E+02 -0.26511226990E+02  0.30000000000E+02  0.47000000000E+01 0. -1.
         -5    1    3    3    0  501  0.31124318069E+01 -0.12859922695E+02  0.26511226990E+02  0.30000000000E+02  0.47000000000E+01 0.  1.
</event>
<event>
 5    1  0.7959189E-002  0.6000000E+02  0.7546771E-02  0.1259629E+00
         11   -1    0    0    0    0  0.00000000000E+00  0.00000000000E+00  0.30000000000E+02  0.30000000000E+02  0.00000000000E+00 0. -1.
        -11   -1    0    0    0    0 -0.00000000000E+00 -0.00000000000E+00 -0.30000000000E+02  0.30000000000E+02  0.00000000000E+00 0.  1.
         23    2    1    2    0    0  0.00000000000E+00  0.00000000000E+00  0.00000000000E+00  0.60000000000E+02  0.60000000000E+02 0.  0.
          5    1    3    3  501    0  0.45749055982E+01  0.10606988870E+02 -0.27285014676E+02  0.30000000000E+02  0.47000000000E+01 0.  1.
         -5    1    3    3    0  501 -0.45749055982E+01 -0.10606988870E+02  0.27285014676E+02  0.30000000000E+02  0.47000000000E+01 0. -1.
</event>
<event>
 5    1  0.7959189E-002  0.6000000E+02  0.7546771E-02  0.1259629E+00
         11   -1    0    0    0    0  0.00000000000E+00  0.00000000000E+00  0.30000000000E+02  0.30000000000E+02  0.00000000000E+00 0. -1.
        -11   -1    0    0    0    0 -0.00000000000E+00 -0.00000000000E+00 -0.30000000000E+02  0.30000000000E+02  0.00000000000E+00 0.  1.
         23    2    1    2    0    0  0.00000000000E+00  0.00000000000E+00  0.00000000000E+00  0.60000000000E+02  0.60000000000E+02 0.  0.
          5    1    3    3  501    0 -0.11449692415E+02 -0.31012053174E+01  0.27151373247E+02  0.30000000000E+02  0.47000000000E+01 0. -1.
         -5    1    3    3    0  501  0.11449692415E+02  0.31012053174E+01 -0.27151373247E+02  0.30000000000E+02  0.47000000000E+01 0.  1.
</event>
<event>
 5    1  0.7959189E-002  0.6000000E+02  0.7546771E-02  0.1259629E+00
         11   -1    0    0    0    0  0.00000000000E+00  0.00000000000E+00  0.30000000000E+02  0.30000000000E+02  0.00000000000E+00 0.  1.
        -11   -1    0    0    0    0 -0.00000000000E+00 -0.00000000000E+00 -0.30000000000E+02  0.30000000000E+02  0.00000000000E+00 0. -1.
         23    2    1    2    0    0  0.00000000000E+00  0.00000000000E+00  0.00000000000E+00  0.60000000000E+02  0.60000000000E+02 0.  0.
          5    1    3    3  501    0 -0.28460425579E+02  0.46552793906E+01 -0.68001874717E+01  0.30000000000E+02  0.47000000000E+01 0. -1.
         -5    1    3    3    0  501  0.28460425579E+02 -0.46552793906E+01  0.68001874717E+01  0.30000000000E+02  0.47000000000E+01 0.  1.
</event>
<event>
 5    1  0.7959189E-002  0.6000000E+02  0.7546771E-02  0.1259629E+00
         11   -1    0    0    0    0  0.00000000000E+00  0.00000000000E+00  0.30000000000E+02  0.30000000000E+02  0.00000000000E+00 0. -1.
        -11   -1    0    0    0    0 -0.00000000000E+00 -0.00000000000E+00 -0.30000000000E+02  0.30000000000E+02  0.00000000000E+00 0.  1.
         23    2    1    2    0    0  0.00000000000E+00  0.00000000000E+00  0.00000000000E+00  0.60000000000E+02  0.60000000000E+02 0.  0.
          5    1    3    3  501    0  0.16876082162E+02 -0.15378083144E+02 -0.18884448884E+02  0.30000000000E+02  0.47000000000E+01 0.  1.
         -5    1    3    3    0  501 -0.16876082162E+02  0.15378083144E+02  0.18884448884E+02  0.30000000000E+02  0.47000000000E+01 0. -1.
</event>
<event>
 5    1  0.7959189E-002  0.6000000E+02  0.7546771E-02  0.1259629E+00
         11   -1    0    0    0    0  0.00000000000E+00  0.00000000000E+00  0.30000000000E+02  0.30000000000E+02  0.00000000000E+00 0. -1.
        -11   -1    0    0    0    0 -0.00000000000E+00 -0.00000000000E+00 -0.30000000000E+02  0.30000000000E+02  0.00000000000E+00 0.  1.
         23    2    1    2    0    0  0.00000000000E+00  0.00000000000E+00  0.00000000000E+00  0.60000000000E+02  0.60000000000E+02 0.  0.
          5    1    3    3  501    0 -0.71492457694E+01  0.31098016666E+01  0.28585440674E+02  0.30000000000E+02  0.47000000000E+01 0. -1.
         -5    1    3    3    0  501  0.71492457694E+01 -0.31098016666E+01 -0.28585440674E+02  0.30000000000E+02  0.47000000000E+01 0.  1.
</event>
<event>
 5    1  0.7959189E-002  0.6000000E+02  0.7546771E-02  0.1259629E+00
         11   -1    0    0    0    0  0.00000000000E+00  0.00000000000E+00  0.30000000000E+02  0.30000000000E+02  0.00000000000E+00 0.  1.
        -11   -1    0    0    0    0 -0.00000000000E+00 -0.00000000000E+00 -0.30000000000E+02  0.30000000000E+02  0.00000000000E+00 0. -1.
         23    2    1    2    0    0  0.00000000000E+00  0.00000000000E+00  0.00000000000E+00  0.60000000000E+02  0.60000000000E+02 0.  0.
          5    1    3    3  501    0  0.15880055507E+02  0.17588675388E+02  0.17786858496E+02  0.30000000000E+02  0.47000000000E+01 0.  1.
         -5    1    3    3    0  501 -0.15880055507E+02 -0.17588675388E+02 -0.17786858496E+02  0.30000000000E+02  0.47000000000E+01 0.  1.
</event>
<event>
 5    1  0.7959189E-002  0.6000000E+02  0.7546771E-02  0.1259629E+00
         11   -1    0    0    0    0  0.00000000000E+00  0.00000000000E+00  0.30000000000E+02  0.30000000000E+02  0.00000000000E+00 0.  1.
        -11   -1    0    0    0    0 -0.00000000000E+00 -0.00000000000E+00 -0.30000000000E+02  0.30000000000E+02  0.00000000000E+00 0. -1.
         23    2    1    2    0    0  0.00000000000E+00  0.00000000000E+00  0.00000000000E+00  0.60000000000E+02  0.60000000000E+02 0.  0.
          5    1    3    3  501    0  0.16049102827E+02  0.19147823770E+02  0.15927873157E+02  0.30000000000E+02  0.47000000000E+01 0. -1.
         -5    1    3    3    0  501 -0.16049102827E+02 -0.19147823770E+02 -0.15927873157E+02  0.30000000000E+02  0.47000000000E+01 0.  1.
</event>
<event>
 5    1  0.7959189E-002  0.6000000E+02  0.7546771E-02  0.1259629E+00
         11   -1    0    0    0    0  0.00000000000E+00  0.00000000000E+00  0.30000000000E+02  0.30000000000E+02  0.00000000000E+00 0.  1.
        -11   -1    0    0    0    0 -0.00000000000E+00 -0.00000000000E+00 -0.30000000000E+02  0.30000000000E+02  0.00000000000E+00 0. -1.
         23    2    1    2    0    0  0.00000000000E+00  0.00000000000E+00  0.00000000000E+00  0.60000000000E+02  0.60000000000E+02 0.  0.
          5    1    3    3  501    0  0.23415471081E+02 -0.97428628848E+01  0.15319997939E+02  0.30000000000E+02  0.47000000000E+01 0.  1.
         -5    1    3    3    0  501 -0.23415471081E+02  0.97428628848E+01 -0.15319997939E+02  0.30000000000E+02  0.47000000000E+01 0. -1.
</event>
<event>
 5    1  0.7959189E-002  0.6000000E+02  0.7546771E-02  0.1259629E+00
         11   -1    0    0    0    0  0.00000000000E+00  0.00000000000E+00  0.30000000000E+02  0.30000000000E+02  0.00000000000E+00 0. -1.
        -11   -1    0    0    0    0 -0.00000000000E+00 -0.00000000000E+00 -0.30000000000E+02  0.30000000000E+02  0.00000000000E+00 0.  1.
         23    2    1    2    0    0  0.00000000000E+00  0.00000000000E+00  0.00000000000E+00  0.60000000000E+02  0.60000000000E+02 0.  0.
          5    1    3    3  501    0 -0.21260045929E+01 -0.28588107421E+02 -0.74906754419E+01  0.30000000000E+02  0.47000000000E+01 0.  1.
         -5    1    3    3    0  501  0.21260045929E+01  0.28588107421E+02  0.74906754419E+01  0.30000000000E+02  0.47000000000E+01 0. -1.
</event>
<event>
 5    1  0.7959189E-002  0.6000000E+02  0.7546771E-02  0.1259629E+00
         11   -1    0    0    0    0  0.00000000000E+00  0.00000000000E+00  0.30000000000E+02  0.30000000000E+02  0.00000000000E+00 0.  1.
        -11   -1    0    0    0    0 -0.00000000000E+00 -0.00000000000E+00 -0.30000000000E+02  0.30000000000E+02  0.00000000000E+00 0. -1.
         23    2    1    2    0    0  0.00000000000E+00  0.00000000000E+00  0.00000000000E+00  0.60000000000E+02  0.60000000000E+02 0.  0.
          5    1    3    3  501    0  0.31185444643E+01  0.25767221609E+01 -0.29352089931E+02  0.30000000000E+02  0.47000000000E+01 0. -1.
         -5    1    3    3    0  501 -0.31185444643E+01 -0.25767221609E+01  0.29352089931E+02  0.30000000000E+02  0.47000000000E+01 0.  1.
</event>
<event>
 5    1  0.7959189E-002  0.6000000E+02  0.7546771E-02  0.1259629E+00
         11   -1    0    0    0    0  0.00000000000E+00  0.00000000000E+00  0.30000000000E+02  0.30000000000E+02  0.00000000000E+00 0. -1.
        -11   -1    0    0    0    0 -0.00000000000E+00 -0.00000000000E+00 -0.30000000000E+02  0.30000000000E+02  0.00000000000E+00 0.  1.
         23    2    1    2    0    0  0.00000000000E+00  0.00000000000E+00  0.00000000000E+00  0.60000000000E+02  0.60000000000E+02 0.  0.
          5    1    3    3  501    0 -0.27593591700E+02  0.63958738538E+01  0.86946244726E+01  0.30000000000E+02  0.47000000000E+01 0.  1.
         -5    1    3    3    0  501  0.27593591700E+02 -0.63958738538E+01 -0.86946244726E+01  0.30000000000E+02  0.47000000000E+01 0. -1.
</event>
<event>
 5    1  0.7959189E-002  0.6000000E+02  0.7546771E-02  0.1259629E+00
         11   -1    0    0    0    0  0.00000000000E+00  0.00000000000E+00  0.30000000000E+02  0.30000000000E+02  0.00000000000E+00 0.  1.
        -11   -1    0    0    0    0 -0.00000000000E+00 -0.00000000000E+00 -0.30000000000E+02  0.30000000000E+02  0.00000000000E+00 0. -1.
         23    2    1    2    0    0  0.00000000000E+00  0.00000000000E+00  0.00000000000E+00  0.60000000000E+02  0.60000000000E+02 0.  0.
          5    1    3    3  501    0  0.20928416326E+02  0.18967452029E+02 -0.89524942675E+01  0.30000000000E+02  0.47000000000E+01 0. -1.
         -5    1    3    3    0  501 -0.20928416326E+02 -0.18967452029E+02  0.89524942675E+01  0.30000000000E+02  0.47000000000E+01 0.  1.
</event>
<event>
 5    1  0.7959189E-002  0.6000000E+02  0.7546771E-02  0.1259629E+00
         11   -1    0    0    0    0  0.00000000000E+00  0.00000000000E+00  0.30000000000E+02  0.30000000000E+02  0.00000000000E+00 0. -1.
        -11   -1    0    0    0    0 -0.00000000000E+00 -0.00000000000E+00 -0.30000000000E+02  0.30000000000E+02  0.00000000000E+00 0.  1.
         23    2    1    2    0    0  0.00000000000E+00  0.00000000000E+00  0.00000000000E+00  0.60000000000E+02  0.60000000000E+02 0.  0.
          5    1    3    3  501    0  0.69371412797E+01 -0.54663664550E+01 -0.28282590204E+02  0.30000000000E+02  0.47000000000E+01 0.  1.
         -5    1    3    3    0  501 -0.69371412797E+01  0.54663664550E+01  0.28282590204E+02  0.30000000000E+02  0.47000000000E+01 0. -1.
</event>
<event>
 5    1  0.7959189E-002  0.6000000E+02  0.7546771E-02  0.1259629E+00
         11   -1    0    0    0    0  0.00000000000E+00  0.00000000000E+00  0.30000000000E+02  0.30000000000E+02  0.00000000000E+00 0.  1.
        -11   -1    0    0    0    0 -0.00000000000E+00 -0.00000000000E+00 -0.30000000000E+02  0.30000000000E+02  0.00000000000E+00 0. -1.
         23    2    1    2    0    0  0.00000000000E+00  0.00000000000E+00  0.00000000000E+00  0.60000000000E+02  0.60000000000E+02 0.  0.
          5    1    3    3  501    0  0.17631660126E+02  0.23807006999E+02 -0.51086096846E+00  0.30000000000E+02  0.47000000000E+01 0. -1.
         -5    1    3    3    0  501 -0.17631660126E+02 -0.23807006999E+02  0.51086096846E+00  0.30000000000E+02  0.47000000000E+01 0.  1.
</event>
<event>
 5    1  0.7959189E-002  0.6000000E+02  0.7546771E-02  0.1259629E+00
         11   -1    0    0    0    0  0.00000000000E+00  0.00000000000E+00  0.30000000000E+02  0.30000000000E+02  0.00000000000E+00 0.  1.
        -11   -1    0    0    0    0 -0.00000000000E+00 -0.00000000000E+00 -0.30000000000E+02  0.30000000000E+02  0.00000000000E+00 0. -1.
         23    2    1    2    0    0  0.00000000000E+00  0.00000000000E+00  0.00000000000E+00  0.60000000000E+02  0.60000000000E+02 0.  0.
          5    1    3    3  501    0 -0.14062389428E+01 -0.21592317076E+02 -0.20241154496E+02  0.30000000000E+02  0.47000000000E+01 0. -1.
         -5    1    3    3    0  501  0.14062389428E+01  0.21592317076E+02  0.20241154496E+02  0.30000000000E+02  0.47000000000E+01 0.  1.
</event>
<event>
 5    1  0.7959189E-002  0.6000000E+02  0.7546771E-02  0.1259629E+00
         11   -1    0    0    0    0  0.00000000000E+00  0.00000000000E+00  0.30000000000E+02  0.30000000000E+02  0.00000000000E+00 0.  1.
        -11   -1    0    0    0    0 -0.00000000000E+00 -0.00000000000E+00 -0.30000000000E+02  0.30000000000E+02  0.00000000000E+00 0. -1.
         23    2    1    2    0    0  0.00000000000E+00  0.00000000000E+00  0.00000000000E+00  0.60000000000E+02  0.60000000000E+02 0.  0.
          5    1    3    3  501    0 -0.18158353544E+02  0.10476846733E+02 -0.20938478434E+02  0.30000000000E+02  0.47000000000E+01 0. -1.
         -5    1    3    3    0  501  0.18158353544E+02 -0.10476846733E+02  0.20938478434E+02  0.30000000000E+02  0.47000000000E+01 0.  1.
</event>
<event>
 5    1  0.7959189E-002  0.6000000E+02  0.7546771E-02  0.1259629E+00
         11   -1    0    0    0    0  0.00000000000E+00  0.00000000000E+00  0.30000000000E+02  0.30000000000E+02  0.00000000000E+00 0.  1.
        -11   -1    0    0    0    0 -0.00000000000E+00 -0.00000000000E+00 -0.30000000000E+02  0.30000000000E+02  0.00000000000E+00 0. -1.
         23    2    1    2    0    0  0.00000000000E+00  0.00000000000E+00  0.00000000000E+00  0.60000000000E+02  0.60000000000E+02 0.  0.
          5    1    3    3  501    0 -0.49671893182E+01  0.16372933985E+02 -0.24190164592E+02  0.30000000000E+02  0.47000000000E+01 0. -1.
         -5    1    3    3    0  501  0.49671893182E+01 -0.16372933985E+02  0.24190164592E+02  0.30000000000E+02  0.47000000000E+01 0.  1.
</event>
<event>
 5    1  0.7959189E-002  0.6000000E+02  0.7546771E-02  0.1259629E+00
         11   -1    0    0    0    0  0.00000000000E+00  0.00000000000E+00  0.30000000000E+02  0.30000000000E+02  0.00000000000E+00 0.  1.
        -11   -1    0    0    0    0 -0.00000000000E+00 -0.00000000000E+00 -0.30000000000E+02  0.30000000000E+02  0.00000000000E+00 0. -1.
         23    2    1    2    0    0  0.00000000000E+00  0.00000000000E+00  0.00000000000E+00  0.60000000000E+02  0.60000000000E+02 0.  0.
          5    1    3    3  501    0  0.11833360675E+02 -0.14300037967E+02 -0.23095248197E+02  0.30000000000E+02  0.47000000000E+01 0. -1.
         -5    1    3    3    0  501 -0.11833360675E+02  0.14300037967E+02  0.23095248197E+02  0.30000000000E+02  0.47000000000E+01 0.  1.
</event>
<event>
 5    1  0.7959189E-002  0.6000000E+02  0.7546771E-02  0.1259629E+00
         11   -1    0    0    0    0  0.00000000000E+00  0.00000000000E+00  0.30000000000E+02  0.30000000000E+02  0.00000000000E+00 0.  1.
        -11   -1    0    0    0    0 -0.00000000000E+00 -0.00000000000E+00 -0.30000000000E+02  0.30000000000E+02  0.00000000000E+00 0. -1.
         23    2    1    2    0    0  0.00000000000E+00  0.00000000000E+00  0.00000000000E+00  0.60000000000E+02  0.60000000000E+02 0.  0.
          5    1    3    3  501    0 -0.10179243083E+02 -0.12057121022E+02 -0.25078254384E+02  0.30000000000E+02  0.47000000000E+01 0. -1.
         -5    1    3    3    0  501  0.10179243083E+02  0.12057121022E+02  0.25078254384E+02  0.30000000000E+02  0.47000000000E+01 0.  1.
</event>
<event>
 5    1  0.7959189E-002  0.6000000E+02  0.7546771E-02  0.1259629E+00
         11   -1    0    0    0    0  0.00000000000E+00  0.00000000000E+00  0.30000000000E+02  0.30000000000E+02  0.00000000000E+00 0.  1.
        -11   -1    0    0    0    0 -0.00000000000E+00 -0.00000000000E+00 -0.30000000000E+02  0.30000000000E+02  0.00000000000E+00 0. -1.
         23    2    1    2    0    0  0.00000000000E+00  0.00000000000E+00  0.00000000000E+00  0.60000000000E+02  0.60000000000E+02 0.  0.
          5    1    3    3  501    0  0.14105206266E+02 -0.27881863387E+01 -0.25907125914E+02  0.30000000000E+02  0.47000000000E+01 0. -1.
         -5    1    3    3    0  501 -0.14105206266E+02  0.27881863387E+01  0.25907125914E+02  0.30000000000E+02  0.47000000000E+01 0.  1.
</event>
<event>
 5    1  0.7959189E-002  0.6000000E+02  0.7546771E-02  0.1259629E+00
         11   -1    0    0    0    0  0.00000000000E+00  0.00000000000E+00  0.30000000000E+02  0.30000000000E+02  0.00000000000E+00 0. -1.
        -11   -1    0    0    0    0 -0.00000000000E+00 -0.00000000000E+00 -0.30000000000E+02  0.30000000000E+02  0.00000000000E+00 0.  1.
         23    2    1    2    0    0  0.00000000000E+00  0.00000000000E+00  0.00000000000E+00  0.60000000000E+02  0.60000000000E+02 0.  0.
          5    1    3    3  501    0 -0.12404304476E+02  0.11054698984E+02 -0.24532363539E+02  0.30000000000E+02  0.47000000000E+01 0.  1.
         -5    1    3    3    0  501  0.12404304476E+02 -0.11054698984E+02  0.24532363539E+02  0.30000000000E+02  0.47000000000E+01 0. -1.
</event>
<event>
 5    1  0.7959189E-002  0.6000000E+02  0.7546771E-02  0.1259629E+00
         11   -1    0    0    0    0  0.00000000000E+00  0.00000000000E+00  0.30000000000E+02  0.30000000000E+02  0.00000000000E+00 0.  1.
        -11   -1    0    0    0    0 -0.00000000000E+00 -0.00000000000E+00 -0.30000000000E+02  0.30000000000E+02  0.00000000000E+00 0. -1.
         23    2    1    2    0    0  0.00000000000E+00  0.00000000000E+00  0.00000000000E+00  0.60000000000E+02  0.60000000000E+02 0.  0.
          5    1    3    3  501    0  0.23021945294E+02 -0.15148675074E+01 -0.18590460223E+02  0.30000000000E+02  0.47000000000E+01 0. -1.
         -5    1    3    3    0  501 -0.23021945294E+02  0.15148675074E+01  0.18590460223E+02  0.30000000000E+02  0.47000000000E+01 0.  1.
</event>
<event>
 5    1  0.7959189E-002  0.6000000E+02  0.7546771E-02  0.1259629E+00
         11   -1    0    0    0    0  0.00000000000E+00  0.00000000000E+00  0.30000000000E+02  0.30000000000E+02  0.00000000000E+00 0.  1.
        -11   -1    0    0    0    0 -0.00000000000E+00 -0.00000000000E+00 -0.30000000000E+02  0.30000000000E+02  0.00000000000E+00 0. -1.
         23    2    1    2    0    0  0.00000000000E+00  0.00000000000E+00  0.00000000000E+00  0.60000000000E+02  0.60000000000E+02 0.  0.
          5    1    3    3  501    0  0.74627143864E+01 -0.20206735447E+02  0.20344673420E+02  0.30000000000E+02  0.47000000000E+01 0. -1.
         -5    1    3    3    0  501 -0.74627143864E+01  0.20206735447E+02 -0.20344673420E+02  0.30000000000E+02  0.47000000000E+01 0.  1.
</event>
<event>
 5    1  0.7959189E-002  0.6000000E+02  0.7546771E-02  0.1259629E+00
         11   -1    0    0    0    0  0.00000000000E+00  0.00000000000E+00  0.30000000000E+02  0.30000000000E+02  0.00000000000E+00 0.  1.
        -11   -1    0    0    0    0 -0.00000000000E+00 -0.00000000000E+00 -0.30000000000E+02  0.30000000000E+02  0.00000000000E+00 0. -1.
         23    2    1    2    0    0  0.00000000000E+00  0.00000000000E+00  0.00000000000E+00  0.60000000000E+02  0.60000000000E+02 0.  0.
          5    1    3    3  501    0  0.11771520694E+02 -0.26736804459E+02  0.49481903597E+01  0.30000000000E+02  0.47000000000E+01 0.  1.
         -5    1    3    3    0  501 -0.11771520694E+02  0.26736804459E+02 -0.49481903597E+01  0.30000000000E+02  0.47000000000E+01 0. -1.
</event>
<event>
 5    1  0.7959189E-002  0.6000000E+02  0.7546771E-02  0.1259629E+00
         11   -1    0    0    0    0  0.00000000000E+00  0.00000000000E+00  0.30000000000E+02  0.30000000000E+02  0.00000000000E+00 0.  1.
        -11   -1    0    0    0    0 -0.00000000000E+00 -0.00000000000E+00 -0.30000000000E+02  0.30000000000E+02  0.00000000000E+00 0. -1.
         23    2    1    2    0    0  0.00000000000E+00  0.00000000000E+00  0.00000000000E+00  0.60000000000E+02  0.60000000000E+02 0.  0.
          5    1    3    3  501    0  0.22537008973E+00 -0.43096679122E+01 -0.29313579973E+02  0.30000000000E+02  0.47000000000E+01 0. -1.
         -5    1    3    3    0  501 -0.22537008973E+00  0.43096679122E+01  0.29313579973E+02  0.30000000000E+02  0.47000000000E+01 0.  1.
</event>
<event>
 5    1  0.7959189E-002  0.6000000E+02  0.7546771E-02  0.1259629E+00
         11   -1    0    0    0    0  0.00000000000E+00  0.00000000000E+00  0.30000000000E+02  0.30000000000E+02  0.00000000000E+00 0.  1.
        -11   -1    0    0    0    0 -0.00000000000E+00 -0.00000000000E+00 -0.30000000000E+02  0.30000000000E+02  0.00000000000E+00 0. -1.
         23    2    1    2    0    0  0.00000000000E+00  0.00000000000E+00  0.00000000000E+00  0.60000000000E+02  0.60000000000E+02 0.  0.
          5    1    3    3  501    0  0.18405398653E+02 -0.22009648058E+02 -0.73977491702E+01  0.30000000000E+02  0.47000000000E+01 0. -1.
         -5    1    3    3    0  501 -0.18405398653E+02  0.22009648058E+02  0.73977491702E+01  0.30000000000E+02  0.47000000000E+01 0.  1.
</event>
<event>
 5    1  0.7959189E-002  0.6000000E+02  0.7546771E-02  0.1259629E+00
         11   -1    0    0    0    0  0.00000000000E+00  0.00000000000E+00  0.30000000000E+02  0.30000000000E+02  0.00000000000E+00 0. -1.
        -11   -1    0    0    0    0 -0.00000000000E+00 -0.00000000000E+00 -0.30000000000E+02  0.30000000000E+02  0.00000000000E+00 0.  1.
         23    2    1    2    0    0  0.00000000000E+00  0.00000000000E+00  0.00000000000E+00  0.60000000000E+02  0.60000000000E+02 0.  0.
          5    1    3    3  501    0 -0.21685268391E+02 -0.16825014359E+02 -0.11161452711E+02  0.30000000000E+02  0.47000000000E+01 0. -1.
         -5    1    3    3    0  501  0.21685268391E+02  0.16825014359E+02  0.11161452711E+02  0.30000000000E+02  0.47000000000E+01 0. -1.
</event>
<event>
 5    1  0.7959189E-002  0.6000000E+02  0.7546771E-02  0.1259629E+00
         11   -1    0    0    0    0  0.00000000000E+00  0.00000000000E+00  0.30000000000E+02  0.30000000000E+02  0.00000000000E+00 0.  1.
        -11   -1    0    0    0    0 -0.00000000000E+00 -0.00000000000E+00 -0.30000000000E+02  0.30000000000E+02  0.00000000000E+00 0. -1.
         23    2    1    2    0    0  0.00000000000E+00  0.00000000000E+00  0.00000000000E+00  0.60000000000E+02  0.60000000000E+02 0.  0.
          5    1    3    3  501    0  0.15716838443E+02 -0.39111190278E+01  0.24811169608E+02  0.30000000000E+02  0.47000000000E+01 0.  1.
         -5    1    3    3    0  501 -0.15716838443E+02  0.39111190278E+01 -0.24811169608E+02  0.30000000000E+02  0.47000000000E+01 0. -1.
</event>
<event>
 5    1  0.7959189E-002  0.6000000E+02  0.7546771E-02  0.1259629E+00
         11   -1    0    0    0    0  0.00000000000E+00  0.00000000000E+00  0.30000000000E+02  0.30000000000E+02  0.00000000000E+00 0.  1.
        -11   -1    0    0    0    0 -0.00000000000E+00 -0.00000000000E+00 -0.30000000000E+02  0.30000000000E+02  0.00000000000E+00 0. -1.
         23    2    1    2    0    0  0.00000000000E+00  0.00000000000E+00  0.00000000000E+00  0.60000000000E+02  0.60000000000E+02 0.  0.
          5    1    3    3  501    0  0.15129178294E+01 -0.22196027233E+02 -0.19569298779E+02  0.30000000000E+02  0.47000000000E+01 0. -1.
         -5    1    3    3    0  501 -0.15129178294E+01  0.22196027233E+02  0.19569298779E+02  0.30000000000E+02  0.47000000000E+01 0.  1.
</event>
<event>
 5    1  0.7959189E-002  0.6000000E+02  0.7546771E-02  0.1259629E+00
         11   -1    0    0    0    0  0.00000000000E+00  0.00000000000E+00  0.30000000000E+02  0.30000000000E+02  0.00000000000E+00 0.  1.
        -11   -1    0    0    0    0 -0.00000000000E+00 -0.00000000000E+00 -0.30000000000E+02  0.30000000000E+02  0.00000000000E+00 0. -1.
         23    2    1    2    0    0  0.00000000000E+00  0.00000000000E+00  0.00000000000E+00  0.60000000000E+02  0.60000000000E+02 0.  0.
          5    1    3    3  501    0 -0.15886615575E+02 -0.24626105847E+02 -0.43681067284E+01  0.30000000000E+02  0.47000000000E+01 0. -1.
         -5    1    3    3    0  501  0.15886615575E+02  0.24626105847E+02  0.43681067284E+01  0.30000000000E+02  0.47000000000E+01 0.  1.
</event>
<event>
 5    1  0.7959189E-002  0.6000000E+02  0.7546771E-02  0.1259629E+00
         11   -1    0    0    0    0  0.00000000000E+00  0.00000000000E+00  0.30000000000E+02  0.30000000000E+02  0.00000000000E+00 0.  1.
        -11   -1    0    0    0    0 -0.00000000000E+00 -0.00000000000E+00 -0.30000000000E+02  0.30000000000E+02  0.00000000000E+00 0. -1.
         23    2    1    2    0    0  0.00000000000E+00  0.00000000000E+00  0.00000000000E+00  0.60000000000E+02  0.60000000000E+02 0.  0.
          5    1    3    3  501    0 -0.65030169222E+01 -0.26613718920E+02 -0.11284092173E+02  0.30000000000E+02  0.47000000000E+01 0. -1.
         -5    1    3    3    0  501  0.65030169222E+01  0.26613718920E+02  0.11284092173E+02  0.30000000000E+02  0.47000000000E+01 0.  1.
</event>
<event>
 5    1  0.7959189E-002  0.6000000E+02  0.7546771E-02  0.1259629E+00
         11   -1    0    0    0    0  0.00000000000E+00  0.00000000000E+00  0.30000000000E+02  0.30000000000E+02  0.00000000000E+00 0. -1.
        -11   -1    0    0    0    0 -0.00000000000E+00 -0.00000000000E+00 -0.30000000000E+02  0.30000000000E+02  0.00000000000E+00 0.  1.
         23    2    1    2    0    0  0.00000000000E+00  0.00000000000E+00  0.00000000000E+00  0.60000000000E+02  0.60000000000E+02 0.  0.
          5    1    3    3  501    0  0.58602234149E+01 -0.77575187363E+01 -0.27989081524E+02  0.30000000000E+02  0.47000000000E+01 0.  1.
         -5    1    3    3    0  501 -0.58602234149E+01  0.77575187363E+01  0.27989081524E+02  0.30000000000E+02  0.47000000000E+01 0. -1.
</event>
<event>
 5    1  0.7959189E-002  0.6000000E+02  0.7546771E-02  0.1259629E+00
         11   -1    0    0    0    0  0.00000000000E+00  0.00000000000E+00  0.30000000000E+02  0.30000000000E+02  0.00000000000E+00 0.  1.
        -11   -1    0    0    0    0 -0.00000000000E+00 -0.00000000000E+00 -0.30000000000E+02  0.30000000000E+02  0.00000000000E+00 0. -1.
         23    2    1    2    0    0  0.00000000000E+00  0.00000000000E+00  0.00000000000E+00  0.60000000000E+02  0.60000000000E+02 0.  0.
          5    1    3    3  501    0  0.17635496440E+02  0.22637860356E+02  0.73774347737E+01  0.30000000000E+02  0.47000000000E+01 0. -1.
         -5    1    3    3    0  501 -0.17635496440E+02 -0.22637860356E+02 -0.73774347737E+01  0.30000000000E+02  0.47000000000E+01 0.  1.
</event>
<event>
 5    1  0.7959189E-002  0.6000000E+02  0.7546771E-02  0.1259629E+00
         11   -1    0    0    0    0  0.00000000000E+00  0.00000000000E+00  0.30000000000E+02  0.30000000000E+02  0.00000000000E+00 0.  1.
        -11   -1    0    0    0    0 -0.00000000000E+00 -0.00000000000E+00 -0.30000000000E+02  0.30000000000E+02  0.00000000000E+00 0. -1.
         23    2    1    2    0    0  0.00000000000E+00  0.00000000000E+00  0.00000000000E+00  0.60000000000E+02  0.60000000000E+02 0.  0.
          5    1    3    3  501    0  0.18246984216E+02 -0.27443412965E+01 -0.23182453664E+02  0.30000000000E+02  0.47000000000E+01 0. -1.
         -5    1    3    3    0  501 -0.18246984216E+02  0.27443412965E+01  0.23182453664E+02  0.30000000000E+02  0.47000000000E+01 0.  1.
</event>
<event>
 5    1  0.7959189E-002  0.6000000E+02  0.7546771E-02  0.1259629E+00
         11   -1    0    0    0    0  0.00000000000E+00  0.00000000000E+00  0.30000000000E+02  0.30000000000E+02  0.00000000000E+00 0.  1.
        -11   -1    0    0    0    0 -0.00000000000E+00 -0.00000000000E+00 -0.30000000000E+02  0.30000000000E+02  0.00000000000E+00 0. -1.
         23    2    1    2    0    0  0.00000000000E+00  0.00000000000E+00  0.00000000000E+00  0.60000000000E+02  0.60000000000E+02 0.  0.
          5    1    3    3  501    0 -0.22072610682E+00 -0.11445384583E+02 -0.27328820899E+02  0.30000000000E+02  0.47000000000E+01 0. -1.
         -5    1    3    3    0  501  0.22072610682E+00  0.11445384583E+02  0.27328820899E+02  0.30000000000E+02  0.47000000000E+01 0.  1.
</event>
<event>
 5    1  0.7959189E-002  0.6000000E+02  0.7546771E-02  0.1259629E+00
         11   -1    0    0    0    0  0.00000000000E+00  0.00000000000E+00  0.30000000000E+02  0.30000000000E+02  0.00000000000E+00 0.  1.
        -11   -1    0    0    0    0 -0.00000000000E+00 -0.00000000000E+00 -0.30000000000E+02  0.30000000000E+02  0.00000000000E+00 0. -1.
         23    2    1    2    0    0  0.00000000000E+00  0.00000000000E+00  0.00000000000E+00  0.60000000000E+02  0.60000000000E+02 0.  0.
          5    1    3    3  501    0 -0.12531910939E+01  0.53804780697E+01 -0.29109963377E+02  0.30000000000E+02  0.47000000000E+01 0. -1.
         -5    1    3    3    0  501  0.12531910939E+01 -0.53804780697E+01  0.29109963377E+02  0.30000000000E+02  0.47000000000E+01 0.  1.
</event>
<event>
 5    1  0.7959189E-002  0.6000000E+02  0.7546771E-02  0.1259629E+00
         11   -1    0    0    0    0  0.00000000000E+00  0.00000000000E+00  0.30000000000E+02  0.30000000000E+02  0.00000000000E+00 0.  1.
        -11   -1    0    0    0    0 -0.00000000000E+00 -0.00000000000E+00 -0.30000000000E+02  0.30000000000E+02  0.00000000000E+00 0. -1.
         23    2    1    2    0    0  0.00000000000E+00  0.00000000000E+00  0.00000000000E+00  0.60000000000E+02  0.60000000000E+02 0.  0.
          5    1    3    3  501    0  0.23988078125E+01 -0.26700618642E+02  0.12618743410E+02  0.30000000000E+02  0.47000000000E+01 0.  1.
         -5    1    3    3    0  501 -0.23988078125E+01  0.26700618642E+02 -0.12618743410E+02  0.30000000000E+02  0.47000000000E+01 0. -1.
</event>
<event>
 5    1  0.7959189E-002  0.6000000E+02  0.7546771E-02  0.1259629E+00
         11   -1    0    0    0    0  0.00000000000E+00  0.00000000000E+00  0.30000000000E+02  0.30000000000E+02  0.00000000000E+00 0.  1.
        -11   -1    0    0    0    0 -0.00000000000E+00 -0.00000000000E+00 -0.30000000000E+02  0.30000000000E+02  0.00000000000E+00 0. -1.
         23    2    1    2    0    0  0.00000000000E+00  0.00000000000E+00  0.00000000000E+00  0.60000000000E+02  0.60000000000E+02 0.  0.
          5    1    3    3  501    0  0.12768768233E+01 -0.26498190766E+02 -0.13195661095E+02  0.30000000000E+02  0.47000000000E+01 0. -1.
         -5    1    3    3    0  501 -0.12768768233E+01  0.26498190766E+02  0.13195661095E+02  0.30000000000E+02  0.47000000000E+01 0.  1.
</event>
<event>
 5    1  0.7959189E-002  0.6000000E+02  0.7546771E-02  0.1259629E+00
         11   -1    0    0    0    0  0.00000000000E+00  0.00000000000E+00  0.30000000000E+02  0.30000000000E+02  0.00000000000E+00 0.  1.
        -11   -1    0    0    0    0 -0.00000000000E+00 -0.00000000000E+00 -0.30000000000E+02  0.30000000000E+02  0.00000000000E+00 0. -1.
         23    2    1    2    0    0  0.00000000000E+00  0.00000000000E+00  0.00000000000E+00  0.60000000000E+02  0.60000000000E+02 0.  0.
          5    1    3    3  501    0 -0.82816391884E+00  0.88108904158E+01  0.28277064109E+02  0.30000000000E+02  0.47000000000E+01 0.  1.
         -5    1    3    3    0  501  0.82816391884E+00 -0.88108904158E+01 -0.28277064109E+02  0.30000000000E+02  0.47000000000E+01 0. -1.
</event>
<event>
 5    1  0.7959189E-002  0.6000000E+02  0.7546771E-02  0.1259629E+00
         11   -1    0    0    0    0  0.00000000000E+00  0.00000000000E+00  0.30000000000E+02  0.30000000000E+02  0.00000000000E+00 0. -1.
        -11   -1    0    0    0    0 -0.00000000000E+00 -0.00000000000E+00 -0.30000000000E+02  0.30000000000E+02  0.00000000000E+00 0.  1.
         23    2    1    2    0    0  0.00000000000E+00  0.00000000000E+00  0.00000000000E+00  0.60000000000E+02  0.60000000000E+02 0.  0.
          5    1    3    3  501    0 -0.27413448187E+02  0.95359181855E+01 -0.59564354163E+01  0.30000000000E+02  0.47000000000E+01 0.  1.
         -5    1    3    3    0  501  0.27413448187E+02 -0.95359181855E+01  0.59564354163E+01  0.30000000000E+02  0.47000000000E+01 0. -1.
</event>
<event>
 5    1  0.7959189E-002  0.6000000E+02  0.7546771E-02  0.1259629E+00
         11   -1    0    0    0    0  0.00000000000E+00  0.00000000000E+00  0.30000000000E+02  0.30000000000E+02  0.00000000000E+00 0.  1.
        -11   -1    0    0    0    0 -0.00000000000E+00 -0.00000000000E+00 -0.30000000000E+02  0.30000000000E+02  0.00000000000E+00 0. -1.
         23    2    1    2    0    0  0.00000000000E+00  0.00000000000E+00  0.00000000000E+00  0.60000000000E+02  0.60000000000E+02 0.  0.
          5    1    3    3  501    0  0.24052137246E+02 -0.60196309516E+01  0.16222476294E+02  0.30000000000E+02  0.47000000000E+01 0. -1.
         -5    1    3    3    0  501 -0.24052137246E+02  0.60196309516E+01 -0.16222476294E+02  0.30000000000E+02  0.47000000000E+01 0.  1.
</event>
<event>
 5    1  0.7959189E-002  0.6000000E+02  0.7546771E-02  0.1259629E+00
         11   -1    0    0    0    0  0.00000000000E+00  0.00000000000E+00  0.30000000000E+02  0.30000000000E+02  0.00000000000E+00 0.  1.
        -11   -1    0    0    0    0 -0.00000000000E+00 -0.00000000000E+00 -0.30000000000E+02  0.30000000000E+02  0.00000000000E+00 0. -1.
         23    2    1    2    0    0  0.00000000000E+00  0.00000000000E+00  0.00000000000E+00  0.60000000000E+02  0.60000000000E+02 0.  0.
          5    1    3    3  501    0 -0.21038641158E+02 -0.42734804923E+01 -0.20421139604E+02  0.30000000000E+02  0.47000000000E+01 0. -1.
         -5    1    3    3    0  501  0.21038641158E+02  0.42734804923E+01  0.20421139604E+02  0.30000000000E+02  0.47000000000E+01 0.  1.
</event>
<event>
 5    1  0.7959189E-002  0.6000000E+02  0.7546771E-02  0.1259629E+00
         11   -1    0    0    0    0  0.00000000000E+00  0.00000000000E+00  0.30000000000E+02  0.30000000000E+02  0.00000000000E+00 0. -1.
        -11   -1    0    0    0    0 -0.00000000000E+00 -0.00000000000E+00 -0.30000000000E+02  0.30000000000E+02  0.00000000000E+00 0.  1.
         23    2    1    2    0    0  0.00000000000E+00  0.00000000000E+00  0.00000000000E+00  0.60000000000E+02  0.60000000000E+02 0.  0.
          5    1    3    3  501    0  0.27402659233E+02 -0.11269519419E+02  0.46893444910E-01  0.30000000000E+02  0.47000000000E+01 0.  1.
         -5    1    3    3    0  501 -0.27402659233E+02  0.11269519419E+02 -0.46893444910E-01  0.30000000000E+02  0.47000000000E+01 0. -1.
</event>
<event>
 5    1  0.7959189E-002  0.6000000E+02  0.7546771E-02  0.1259629E+00
         11   -1    0    0    0    0  0.00000000000E+00  0.00000000000E+00  0.30000000000E+02  0.30000000000E+02  0.00000000000E+00 0.  1.
        -11   -1    0    0    0    0 -0.00000000000E+00 -0.00000000000E+00 -0.30000000000E+02  0.30000000000E+02  0.00000000000E+00 0. -1.
         23    2    1    2    0    0  0.00000000000E+00  0.00000000000E+00  0.00000000000E+00  0.60000000000E+02  0.60000000000E+02 0.  0.
          5    1    3    3  501    0 -0.65281735418E+00 -0.17502379941E+02 -0.23898755740E+02  0.30000000000E+02  0.47000000000E+01 0. -1.
         -5    1    3    3    0  501  0.65281735418E+00  0.17502379941E+02  0.23898755740E+02  0.30000000000E+02  0.47000000000E+01 0.  1.
</event>
<event>
 5    1  0.7959189E-002  0.6000000E+02  0.7546771E-02  0.1259629E+00
         11   -1    0    0    0    0  0.00000000000E+00  0.00000000000E+00  0.30000000000E+02  0.30000000000E+02  0.00000000000E+00 0. -1.
        -11   -1    0    0    0    0 -0.00000000000E+00 -0.00000000000E+00 -0.30000000000E+02  0.30000000000E+02  0.00000000000E+00 0.  1.
         23    2    1    2    0    0  0.00000000000E+00  0.00000000000E+00  0.00000000000E+00  0.60000000000E+02  0.60000000000E+02 0.  0.
          5    1    3    3  501    0  0.30254236090E+01  0.23443259845E+02 -0.17865340182E+02  0.30000000000E+02  0.47000000000E+01 0.  1.
         -5    1    3    3    0  501 -0.30254236090E+01 -0.23443259845E+02  0.17865340182E+02  0.30000000000E+02  0.47000000000E+01 0. -1.
</event>
<event>
 5    1  0.7959189E-002  0.6000000E+02  0.7546771E-02  0.1259629E+00
         11   -1    0    0    0    0  0.00000000000E+00  0.00000000000E+00  0.30000000000E+02  0.30000000000E+02  0.00000000000E+00 0.  1.
        -11   -1    0    0    0    0 -0.00000000000E+00 -0.00000000000E+00 -0.30000000000E+02  0.30000000000E+02  0.00000000000E+00 0. -1.
         23    2    1    2    0    0  0.00000000000E+00  0.00000000000E+00  0.00000000000E+00  0.60000000000E+02  0.60000000000E+02 0.  0.
          5    1    3    3  501    0  0.19920766575E+02 -0.12096508743E+02 -0.18296107107E+02  0.30000000000E+02  0.47000000000E+01 0. -1.
         -5    1    3    3    0  501 -0.19920766575E+02  0.12096508743E+02  0.18296107107E+02  0.30000000000E+02  0.47000000000E+01 0.  1.
</event>
<event>
 5    1  0.7959189E-002  0.6000000E+02  0.7546771E-02  0.1259629E+00
         11   -1    0    0    0    0  0.00000000000E+00  0.00000000000E+00  0.30000000000E+02  0.30000000000E+02  0.00000000000E+00 0.  1.
        -11   -1    0    0    0    0 -0.00000000000E+00 -0.00000000000E+00 -0.30000000000E+02  0.30000000000E+02  0.00000000000E+00 0. -1.
         23    2    1    2    0    0  0.00000000000E+00  0.00000000000E+00  0.00000000000E+00  0.60000000000E+02  0.60000000000E+02 0.  0.
          5    1    3    3  501    0  0.47146167687E+01  0.23673212892E+02 -0.17183171421E+02  0.30000000000E+02  0.47000000000E+01 0. -1.
         -5    1    3    3    0  501 -0.47146167687E+01 -0.23673212892E+02  0.17183171421E+02  0.30000000000E+02  0.47000000000E+01 0.  1.
</event>
<event>
 5    1  0.7959189E-002  0.6000000E+02  0.7546771E-02  0.1259629E+00
         11   -1    0    0    0    0  0.00000000000E+00  0.00000000000E+00  0.30000000000E+02  0.30000000000E+02  0.00000000000E+00 0. -1.
        -11   -1    0    0    0    0 -0.00000000000E+00 -0.00000000000E+00 -0.30000000000E+02  0.30000000000E+02  0.00000000000E+00 0.  1.
         23    2    1    2    0    0  0.00000000000E+00  0.00000000000E+00  0.00000000000E+00  0.60000000000E+02  0.60000000000E+02 0.  0.
          5    1    3    3  501    0 -0.16329693368E+02 -0.43411882561E+01 -0.24339375486E+02  0.30000000000E+02  0.47000000000E+01 0.  1.
         -5    1    3    3    0  501  0.16329693368E+02  0.43411882561E+01  0.24339375486E+02  0.30000000000E+02  0.47000000000E+01 0. -1.
</event>
<event>
 5    1  0.7959189E-002  0.6000000E+02  0.7546771E-02  0.1259629E+00
         11   -1    0    0    0    0  0.00000000000E+00  0.00000000000E+00  0.30000000000E+02  0.30000000000E+02  0.00000000000E+00 0.  1.
        -11   -1    0    0    0    0 -0.00000000000E+00 -0.00000000000E+00 -0.30000000000E+02  0.30000000000E+02  0.00000000000E+00 0. -1.
         23    2    1    2    0    0  0.00000000000E+00  0.00000000000E+00  0.00000000000E+00  0.60000000000E+02  0.60000000000E+02 0.  0.
          5    1    3    3  501    0 -0.14613841630E+02  0.20989810498E+02  0.14959060401E+02  0.30000000000E+02  0.47000000000E+01 0. -1.
         -5    1    3    3    0  501  0.14613841630E+02 -0.20989810498E+02 -0.14959060401E+02  0.30000000000E+02  0.47000000000E+01 0.  1.
</event>
<event>
 5    1  0.7959189E-002  0.6000000E+02  0.7546771E-02  0.1259629E+00
         11   -1    0    0    0    0  0.00000000000E+00  0.00000000000E+00  0.30000000000E+02  0.30000000000E+02  0.00000000000E+00 0. -1.
        -11   -1    0    0    0    0 -0.00000000000E+00 -0.00000000000E+00 -0.30000000000E+02  0.30000000000E+02  0.00000000000E+00 0.  1.
         23    2    1    2    0    0  0.00000000000E+00  0.00000000000E+00  0.00000000000E+00  0.60000000000E+02  0.60000000000E+02 0.  0.
          5    1    3    3  501    0  0.10533612225E+02  0.21445350990E+02 -0.17522840364E+02  0.30000000000E+02  0.47000000000E+01 0.  1.
         -5    1    3    3    0  501 -0.10533612225E+02 -0.21445350990E+02  0.17522840364E+02  0.30000000000E+02  0.47000000000E+01 0. -1.
</event>
<event>
 5    1  0.7959189E-002  0.6000000E+02  0.7546771E-02  0.1259629E+00
         11   -1    0    0    0    0  0.00000000000E+00  0.00000000000E+00  0.30000000000E+02  0.30000000000E+02  0.00000000000E+00 0.  1.
        -11   -1    0    0    0    0 -0.00000000000E+00 -0.00000000000E+00 -0.30000000000E+02  0.30000000000E+02  0.00000000000E+00 0. -1.
         23    2    1    2    0    0  0.00000000000E+00  0.00000000000E+00  0.00000000000E+00  0.60000000000E+02  0.60000000000E+02 0.  0.
          5    1    3    3  501    0  0.29732759317E+01  0.10470677687E+02  0.27557839883E+02  0.30000000000E+02  0.47000000000E+01 0.  1.
         -5    1    3    3    0  501 -0.29732759317E+01 -0.10470677687E+02 -0.27557839883E+02  0.30000000000E+02  0.47000000000E+01 0. -1.
</event>
<event>
 5    1  0.7959189E-002  0.6000000E+02  0.7546771E-02  0.1259629E+00
         11   -1    0    0    0    0  0.00000000000E+00  0.00000000000E+00  0.30000000000E+02  0.30000000000E+02  0.00000000000E+00 0.  1.
        -11   -1    0    0    0    0 -0.00000000000E+00 -0.00000000000E+00 -0.30000000000E+02  0.30000000000E+02  0.00000000000E+00 0. -1.
         23    2    1    2    0    0  0.00000000000E+00  0.00000000000E+00  0.00000000000E+00  0.60000000000E+02  0.60000000000E+02 0.  0.
          5    1    3    3  501    0  0.71424734081E+01  0.15541004602E+02 -0.24194467334E+02  0.30000000000E+02  0.47000000000E+01 0. -1.
         -5    1    3    3    0  501 -0.71424734081E+01 -0.15541004602E+02  0.24194467334E+02  0.30000000000E+02  0.47000000000E+01 0.  1.
</event>
<event>
 5    1  0.7959189E-002  0.6000000E+02  0.7546771E-02  0.1259629E+00
         11   -1    0    0    0    0  0.00000000000E+00  0.00000000000E+00  0.30000000000E+02  0.30000000000E+02  0.00000000000E+00 0.  1.
        -11   -1    0    0    0    0 -0.00000000000E+00 -0.00000000000E+00 -0.30000000000E+02  0.30000000000E+02  0.00000000000E+00 0. -1.
         23    2    1    2    0    0  0.00000000000E+00  0.00000000000E+00  0.00000000000E+00  0.60000000000E+02  0.60000000000E+02 0.  0.
          5    1    3    3  501    0 -0.17617990768E+02  0.82198389028E+01 -0.22359576242E+02  0.30000000000E+02  0.47000000000E+01 0. -1.
         -5    1    3    3    0  501  0.17617990768E+02 -0.82198389028E+01  0.22359576242E+02  0.30000000000E+02  0.47000000000E+01 0.  1.
</event>
<event>
 5    1  0.7959189E-002  0.6000000E+02  0.7546771E-02  0.1259629E+00
         11   -1    0    0    0    0  0.00000000000E+00  0.00000000000E+00  0.30000000000E+02  0.30000000000E+02  0.00000000000E+00 0.  1.
        -11   -1    0    0    0    0 -0.00000000000E+00 -0.00000000000E+00 -0.30000000000E+02  0.30000000000E+02  0.00000000000E+00 0. -1.
         23    2    1    2    0    0  0.00000000000E+00  0.00000000000E+00  0.00000000000E+00  0.60000000000E+02  0.60000000000E+02 0.  0.
          5    1    3    3  501    0  0.67502935897E+01 -0.28829614763E+02 -0.10940059829E+01  0.30000000000E+02  0.47000000000E+01 0. -1.
         -5    1    3    3    0  501 -0.67502935897E+01  0.28829614763E+02  0.10940059829E+01  0.30000000000E+02  0.47000000000E+01 0.  1.
</event>
<event>
 5    1  0.7959189E-002  0.6000000E+02  0.7546771E-02  0.1259629E+00
         11   -1    0    0    0    0  0.00000000000E+00  0.00000000000E+00  0.30000000000E+02  0.30000000000E+02  0.00000000000E+00 0.  1.
        -11   -1    0    0    0    0 -0.00000000000E+00 -0.00000000000E+00 -0.30000000000E+02  0.30000000000E+02  0.00000000000E+00 0. -1.
         23    2    1    2    0    0  0.00000000000E+00  0.00000000000E+00  0.00000000000E+00  0.60000000000E+02  0.60000000000E+02 0.  0.
          5    1    3    3  501    0 -0.44509544264E+01  0.24300222418E+02 -0.16358428870E+02  0.30000000000E+02  0.47000000000E+01 0. -1.
         -5    1    3    3    0  501  0.44509544264E+01 -0.24300222418E+02  0.16358428870E+02  0.30000000000E+02  0.47000000000E+01 0.  1.
</event>
<event>
 5    1  0.7959189E-002  0.6000000E+02  0.7546771E-02  0.1259629E+00
         11   -1    0    0    0    0  0.00000000000E+00  0.00000000000E+00  0.30000000000E+02  0.30000000000E+02  0.00000000000E+00 0.  1.
        -11   -1    0    0    0    0 -0.00000000000E+00 -0.00000000000E+00 -0.30000000000E+02  0.30000000000E+02  0.00000000000E+00 0. -1.
         23    2    1    2    0    0  0.00000000000E+00  0.00000000000E+00  0.00000000000E+00  0.60000000000E+02  0.60000000000E+02 0.  0.
          5    1    3    3  501    0 -0.10457649085E+02 -0.27656423705E+02  0.19156731141E+01  0.30000000000E+02  0.47000000000E+01 0. -1.
         -5    1    3    3    0  501  0.10457649085E+02  0.27656423705E+02 -0.19156731141E+01  0.30000000000E+02  0.47000000000E+01 0.  1.
</event>
<event>
 5    1  0.7959189E-002  0.6000000E+02  0.7546771E-02  0.1259629E+00
         11   -1    0    0    0    0  0.00000000000E+00  0.00000000000E+00  0.30000000000E+02  0.30000000000E+02  0.00000000000E+00 0. -1.
        -11   -1    0    0    0    0 -0.00000000000E+00 -0.00000000000E+00 -0.30000000000E+02  0.30000000000E+02  0.00000000000E+00 0.  1.
         23    2    1    2    0    0  0.00000000000E+00  0.00000000000E+00  0.00000000000E+00  0.60000000000E+02  0.60000000000E+02 0.  0.
          5    1    3    3  501    0 -0.14326735313E+02 -0.18946371580E+02 -0.17711286211E+02  0.30000000000E+02  0.47000000000E+01 0.  1.
         -5    1    3    3    0  501  0.14326735313E+02  0.18946371580E+02  0.17711286211E+02  0.30000000000E+02  0.47000000000E+01 0. -1.
</event>
<event>
 5    1  0.7959189E-002  0.6000000E+02  0.7546771E-02  0.1259629E+00
         11   -1    0    0    0    0  0.00000000000E+00  0.00000000000E+00  0.30000000000E+02  0.30000000000E+02  0.00000000000E+00 0. -1.
        -11   -1    0    0    0    0 -0.00000000000E+00 -0.00000000000E+00 -0.30000000000E+02  0.30000000000E+02  0.00000000000E+00 0.  1.
         23    2    1    2    0    0  0.00000000000E+00  0.00000000000E+00  0.00000000000E+00  0.60000000000E+02  0.60000000000E+02 0.  0.
          5    1    3    3  501    0  0.20696013568E+02 -0.10194445785E+02 -0.18591887949E+02  0.30000000000E+02  0.47000000000E+01 0.  1.
         -5    1    3    3    0  501 -0.20696013568E+02  0.10194445785E+02  0.18591887949E+02  0.30000000000E+02  0.47000000000E+01 0. -1.
</event>
<event>
 5    1  0.7959189E-002  0.6000000E+02  0.7546771E-02  0.1259629E+00
         11   -1    0    0    0    0  0.00000000000E+00  0.00000000000E+00  0.30000000000E+02  0.30000000000E+02  0.00000000000E+00 0.  1.
        -11   -1    0    0    0    0 -0.00000000000E+00 -0.00000000000E+00 -0.30000000000E+02  0.30000000000E+02  0.00000000000E+00 0. -1.
         23    2    1    2    0    0  0.00000000000E+00  0.00000000000E+00  0.00000000000E+00  0.60000000000E+02  0.60000000000E+02 0.  0.
          5    1    3    3  501    0 -0.26365496854E+02 -0.12244051426E+02 -0.57318217278E+01  0.30000000000E+02  0.47000000000E+01 0. -1.
         -5    1    3    3    0  501  0.26365496854E+02  0.12244051426E+02  0.57318217278E+01  0.30000000000E+02  0.47000000000E+01 0.  1.
</event>
<event>
 5    1  0.7959189E-002  0.6000000E+02  0.7546771E-02  0.1259629E+00
         11   -1    0    0    0    0  0.00000000000E+00  0.00000000000E+00  0.30000000000E+02  0.30000000000E+02  0.00000000000E+00 0.  1.
        -11   -1    0    0    0    0 -0.00000000000E+00 -0.00000000000E+00 -0.30000000000E+02  0.30000000000E+02  0.00000000000E+00 0. -1.
         23    2    1    2    0    0  0.00000000000E+00  0.00000000000E+00  0.00000000000E+00  0.60000000000E+02  0.60000000000E+02 0.  0.
          5    1    3    3  501    0 -0.16121836325E+02 -0.14637204065E+02 -0.20093497721E+02  0.30000000000E+02  0.47000000000E+01 0. -1.
         -5    1    3    3    0  501  0.16121836325E+02  0.14637204065E+02  0.20093497721E+02  0.30000000000E+02  0.47000000000E+01 0.  1.
</event>
<event>
 5    1  0.7959189E-002  0.6000000E+02  0.7546771E-02  0.1259629E+00
         11   -1    0    0    0    0  0.00000000000E+00  0.00000000000E+00  0.30000000000E+02  0.30000000000E+02  0.00000000000E+00 0.  1.
        -11   -1    0    0    0    0 -0.00000000000E+00 -0.00000000000E+00 -0.30000000000E+02  0.30000000000E+02  0.00000000000E+00 0. -1.
         23    2    1    2    0    0  0.00000000000E+00  0.00000000000E+00  0.00000000000E+00  0.60000000000E+02  0.60000000000E+02 0.  0.
          5    1    3    3  501    0  0.26228228501E-01 -0.24688948146E+02 -0.16381854337E+02  0.30000000000E+02  0.47000000000E+01 0. -1.
         -5    1    3    3    0  501 -0.26228228501E-01  0.24688948146E+02  0.16381854337E+02  0.30000000000E+02  0.47000000000E+01 0.  1.
</event>
<event>
 5    1  0.7959189E-002  0.6000000E+02  0.7546771E-02  0.1259629E+00
         11   -1    0    0    0    0  0.00000000000E+00  0.00000000000E+00  0.30000000000E+02  0.30000000000E+02  0.00000000000E+00 0.  1.
        -11   -1    0    0    0    0 -0.00000000000E+00 -0.00000000000E+00 -0.30000000000E+02  0.30000000000E+02  0.00000000000E+00 0. -1.
         23    2    1    2    0    0  0.00000000000E+00  0.00000000000E+00  0.00000000000E+00  0.60000000000E+02  0.60000000000E+02 0.  0.
          5    1    3    3  501    0 -0.56475492477E+01 -0.21613637611E+02 -0.19464476791E+02  0.30000000000E+02  0.47000000000E+01 0. -1.
         -5    1    3    3    0  501  0.56475492477E+01  0.21613637611E+02  0.19464476791E+02  0.30000000000E+02  0.47000000000E+01 0.  1.
</event>
<event>
 5    1  0.7959189E-002  0.6000000E+02  0.7546771E-02  0.1259629E+00
         11   -1    0    0    0    0  0.00000000000E+00  0.00000000000E+00  0.30000000000E+02  0.30000000000E+02  0.00000000000E+00 0.  1.
        -11   -1    0    0    0    0 -0.00000000000E+00 -0.00000000000E+00 -0.30000000000E+02  0.30000000000E+02  0.00000000000E+00 0. -1.
         23    2    1    2    0    0  0.00000000000E+00  0.00000000000E+00  0.00000000000E+00  0.60000000000E+02  0.60000000000E+02 0.  0.
          5    1    3    3  501    0 -0.24053038641E+02  0.13121964720E+02 -0.11277205949E+02  0.30000000000E+02  0.47000000000E+01 0. -1.
         -5    1    3    3    0  501  0.24053038641E+02 -0.13121964720E+02  0.11277205949E+02  0.30000000000E+02  0.47000000000E+01 0.  1.
</event>
<event>
 5    1  0.7959189E-002  0.6000000E+02  0.7546771E-02  0.1259629E+00
         11   -1    0    0    0    0  0.00000000000E+00  0.00000000000E+00  0.30000000000E+02  0.30000000000E+02  0.00000000000E+00 0.  1.
        -11   -1    0    0    0    0 -0.00000000000E+00 -0.00000000000E+00 -0.30000000000E+02  0.30000000000E+02  0.00000000000E+00 0. -1.
         23    2    1    2    0    0  0.00000000000E+00  0.00000000000E+00  0.00000000000E+00  0.60000000000E+02  0.60000000000E+02 0.  0.
          5    1    3    3  501    0  0.26062605232E+02 -0.71001543771E+01 -0.12175319968E+02  0.30000000000E+02  0.47000000000E+01 0. -1.
         -5    1    3    3    0  501 -0.26062605232E+02  0.71001543771E+01  0.12175319968E+02  0.30000000000E+02  0.47000000000E+01 0.  1.
</event>
<event>
 5    1  0.7959189E-002  0.6000000E+02  0.7546771E-02  0.1259629E+00
         11   -1    0    0    0    0  0.00000000000E+00  0.00000000000E+00  0.30000000000E+02  0.30000000000E+02  0.00000000000E+00 0.  1.
        -11   -1    0    0    0    0 -0.00000000000E+00 -0.00000000000E+00 -0.30000000000E+02  0.30000000000E+02  0.00000000000E+00 0. -1.
         23    2    1    2    0    0  0.00000000000E+00  0.00000000000E+00  0.00000000000E+00  0.60000000000E+02  0.60000000000E+02 0.  0.
          5    1    3    3  501    0  0.39316511544E+01  0.26305792379E+01 -0.29249481569E+02  0.30000000000E+02  0.47000000000E+01 0. -1.
         -5    1    3    3    0  501 -0.39316511544E+01 -0.26305792379E+01  0.29249481569E+02  0.30000000000E+02  0.47000000000E+01 0.  1.
</event>
<event>
 5    1  0.7959189E-002  0.6000000E+02  0.7546771E-02  0.1259629E+00
         11   -1    0    0    0    0  0.00000000000E+00  0.00000000000E+00  0.30000000000E+02  0.30000000000E+02  0.00000000000E+00 0.  1.
        -11   -1    0    0    0    0 -0.00000000000E+00 -0.00000000000E+00 -0.30000000000E+02  0.30000000000E+02  0.00000000000E+00 0. -1.
         23    2    1    2    0    0  0.00000000000E+00  0.00000000000E+00  0.00000000000E+00  0.60000000000E+02  0.60000000000E+02 0.  0.
          5    1    3    3  501    0  0.25978231682E+02 -0.14193650950E+01 -0.14178394882E+02  0.30000000000E+02  0.47000000000E+01 0. -1.
         -5    1    3    3    0  501 -0.25978231682E+02  0.14193650950E+01  0.14178394882E+02  0.30000000000E+02  0.47000000000E+01 0.  1.
</event>
<event>
 5    1  0.7959189E-002  0.6000000E+02  0.7546771E-02  0.1259629E+00
         11   -1    0    0    0    0  0.00000000000E+00  0.00000000000E+00  0.30000000000E+02  0.30000000000E+02  0.00000000000E+00 0.  1.
        -11   -1    0    0    0    0 -0.00000000000E+00 -0.00000000000E+00 -0.30000000000E+02  0.30000000000E+02  0.00000000000E+00 0. -1.
         23    2    1    2    0    0  0.00000000000E+00  0.00000000000E+00  0.00000000000E+00  0.60000000000E+02  0.60000000000E+02 0.  0.
          5    1    3    3  501    0  0.27289159914E+02  0.11117109359E+02  0.31018753516E+01  0.30000000000E+02  0.47000000000E+01 0.  1.
         -5    1    3    3    0  501 -0.27289159914E+02 -0.11117109359E+02 -0.31018753516E+01  0.30000000000E+02  0.47000000000E+01 0. -1.
</event>
<event>
 5    1  0.7959189E-002  0.6000000E+02  0.7546771E-02  0.1259629E+00
         11   -1    0    0    0    0  0.00000000000E+00  0.00000000000E+00  0.30000000000E+02  0.30000000000E+02  0.00000000000E+00 0.  1.
        -11   -1    0    0    0    0 -0.00000000000E+00 -0.00000000000E+00 -0.30000000000E+02  0.30000000000E+02  0.00000000000E+00 0. -1.
         23    2    1    2    0    0  0.00000000000E+00  0.00000000000E+00  0.00000000000E+00  0.60000000000E+02  0.60000000000E+02 0.  0.
          5    1    3    3  501    0 -0.23852284643E+02  0.84669360914E+01  0.15404204314E+02  0.30000000000E+02  0.47000000000E+01 0.  1.
         -5    1    3    3    0  501  0.23852284643E+02 -0.84669360914E+01 -0.15404204314E+02  0.30000000000E+02  0.47000000000E+01 0. -1.
</event>
<event>
 5    1  0.7959189E-002  0.6000000E+02  0.7546771E-02  0.1259629E+00
         11   -1    0    0    0    0  0.00000000000E+00  0.00000000000E+00  0.30000000000E+02  0.30000000000E+02  0.00000000000E+00 0.  1.
        -11   -1    0    0    0    0 -0.00000000000E+00 -0.00000000000E+00 -0.30000000000E+02  0.30000000000E+02  0.00000000000E+00 0. -1.
         23    2    1    2    0    0  0.00000000000E+00  0.00000000000E+00  0.00000000000E+00  0.60000000000E+02  0.60000000000E+02 0.  0.
          5    1    3    3  501    0  0.27466726072E+02  0.37771628636E+01 -0.10450932952E+02  0.30000000000E+02  0.47000000000E+01 0. -1.
         -5    1    3    3    0  501 -0.27466726072E+02 -0.37771628636E+01  0.10450932952E+02  0.30000000000E+02  0.47000000000E+01 0.  1.
</event>
<event>
 5    1  0.7959189E-002  0.6000000E+02  0.7546771E-02  0.1259629E+00
         11   -1    0    0    0    0  0.00000000000E+00  0.00000000000E+00  0.30000000000E+02  0.30000000000E+02  0.00000000000E+00 0.  1.
        -11   -1    0    0    0    0 -0.00000000000E+00 -0.00000000000E+00 -0.30000000000E+02  0.30000000000E+02  0.00000000000E+00 0. -1.
         23    2    1    2    0    0  0.00000000000E+00  0.00000000000E+00  0.00000000000E+00  0.60000000000E+02  0.60000000000E+02 0.  0.
          5    1    3    3  501    0 -0.24942943545E+02  0.15611904899E+02  0.34681396627E+01  0.30000000000E+02  0.47000000000E+01 0.  1.
         -5    1    3    3    0  501  0.24942943545E+02 -0.15611904899E+02 -0.34681396627E+01  0.30000000000E+02  0.47000000000E+01 0. -1.
</event>
<event>
 5    1  0.7959189E-002  0.6000000E+02  0.7546771E-02  0.1259629E+00
         11   -1    0    0    0    0  0.00000000000E+00  0.00000000000E+00  0.30000000000E+02  0.30000000000E+02  0.00000000000E+00 0.  1.
        -11   -1    0    0    0    0 -0.00000000000E+00 -0.00000000000E+00 -0.30000000000E+02  0.30000000000E+02  0.00000000000E+00 0. -1.
         23    2    1    2    0    0  0.00000000000E+00  0.00000000000E+00  0.00000000000E+00  0.60000000000E+02  0.60000000000E+02 0.  0.
          5    1    3    3  501    0 -0.15712110616E+02  0.25113964114E+02  0.57305013261E+00  0.30000000000E+02  0.47000000000E+01 0.  1.
         -5    1    3    3    0  501  0.15712110616E+02 -0.25113964114E+02 -0.57305013261E+00  0.30000000000E+02  0.47000000000E+01 0. -1.
</event>
<event>
 5    1  0.7959189E-002  0.6000000E+02  0.7546771E-02  0.1259629E+00
         11   -1    0    0    0    0  0.00000000000E+00  0.00000000000E+00  0.30000000000E+02  0.30000000000E+02  0.00000000000E+00 0.  1.
        -11   -1    0    0    0    0 -0.00000000000E+00 -0.00000000000E+00 -0.30000000000E+02  0.30000000000E+02  0.00000000000E+00 0. -1.
         23    2    1    2    0    0  0.00000000000E+00  0.00000000000E+00  0.00000000000E+00  0.60000000000E+02  0.60000000000E+02 0.  0.
          5    1    3    3  501    0  0.12420942740E+02 -0.55684450770E+01 -0.26317724082E+02  0.30000000000E+02  0.47000000000E+01 0. -1.
         -5    1    3    3    0  501 -0.12420942740E+02  0.55684450770E+01  0.26317724082E+02  0.30000000000E+02  0.47000000000E+01 0.  1.
</event>
<event>
 5    1  0.7959189E-002  0.6000000E+02  0.7546771E-02  0.1259629E+00
         11   -1    0    0    0    0  0.00000000000E+00  0.00000000000E+00  0.30000000000E+02  0.30000000000E+02  0.00000000000E+00 0. -1.
        -11   -1    0    0    0    0 -0.00000000000E+00 -0.00000000000E+00 -0.30000000000E+02  0.30000000000E+02  0.00000000000E+00 0.  1.
         23    2    1    2    0    0  0.00000000000E+00  0.00000000000E+00  0.00000000000E+00  0.60000000000E+02  0.60000000000E+02 0.  0.
          5    1    3    3  501    0 -0.20371591623E+02 -0.18628068924E+02 -0.10765839627E+02  0.30000000000E+02  0.47000000000E+01 0.  1.
         -5    1    3    3    0  501  0.20371591623E+02  0.18628068924E+02  0.10765839627E+02  0.30000000000E+02  0.47000000000E+01 0. -1.
</event>
<event>
 5    1  0.7959189E-002  0.6000000E+02  0.7546771E-02  0.1259629E+00
         11   -1    0    0    0    0  0.00000000000E+00  0.00000000000E+00  0.30000000000E+02  0.30000000000E+02  0.00000000000E+00 0.  1.
        -11   -1    0    0    0    0 -0.00000000000E+00 -0.00000000000E+00 -0.30000000000E+02  0.30000000000E+02  0.00000000000E+00 0. -1.
         23    2    1    2    0    0  0.00000000000E+00  0.00000000000E+00  0.00000000000E+00  0.60000000000E+02  0.60000000000E+02 0.  0.
          5    1    3    3  501    0  0.84773362008E+01  0.27823722557E+02  0.56467011635E+01  0.30000000000E+02  0.47000000000E+01 0. -1.
         -5    1    3    3    0  501 -0.84773362008E+01 -0.27823722557E+02 -0.56467011635E+01  0.30000000000E+02  0.47000000000E+01 0.  1.
</event>
<event>
 5    1  0.7959189E-002  0.6000000E+02  0.7546771E-02  0.1259629E+00
         11   -1    0    0    0    0  0.00000000000E+00  0.00000000000E+00  0.30000000000E+02  0.30000000000E+02  0.00000000000E+00 0.  1.
        -11   -1    0    0    0    0 -0.00000000000E+00 -0.00000000000E+00 -0.30000000000E+02  0.30000000000E+02  0.00000000000E+00 0. -1.
         23    2    1    2    0    0  0.00000000000E+00  0.00000000000E+00  0.00000000000E+00  0.60000000000E+02  0.60000000000E+02 0.  0.
          5    1    3    3  501    0 -0.15728087921E+02 -0.19996115047E+02 -0.15188569167E+02  0.30000000000E+02  0.47000000000E+01 0. -1.
         -5    1    3    3    0  501  0.15728087921E+02  0.19996115047E+02  0.15188569167E+02  0.30000000000E+02  0.47000000000E+01 0. -1.
</event>
<event>
 5    1  0.7959189E-002  0.6000000E+02  0.7546771E-02  0.1259629E+00
         11   -1    0    0    0    0  0.00000000000E+00  0.00000000000E+00  0.30000000000E+02  0.30000000000E+02  0.00000000000E+00 0. -1.
        -11   -1    0    0    0    0 -0.00000000000E+00 -0.00000000000E+00 -0.30000000000E+02  0.30000000000E+02  0.00000000000E+00 0.  1.
         23    2    1    2    0    0  0.00000000000E+00  0.00000000000E+00  0.00000000000E+00  0.60000000000E+02  0.60000000000E+02 0.  0.
          5    1    3    3  501    0 -0.19606586847E+02  0.13388703791E+02 -0.17726656848E+02  0.30000000000E+02  0.47000000000E+01 0.  1.
         -5    1    3    3    0  501  0.19606586847E+02 -0.13388703791E+02  0.17726656848E+02  0.30000000000E+02  0.47000000000E+01 0. -1.
</event>
<event>
 5    1  0.7959189E-002  0.6000000E+02  0.7546771E-02  0.1259629E+00
         11   -1    0    0    0    0  0.00000000000E+00  0.00000000000E+00  0.30000000000E+02  0.30000000000E+02  0.00000000000E+00 0.  1.
        -11   -1    0    0    0    0 -0.00000000000E+00 -0.00000000000E+00 -0.30000000000E+02  0.30000000000E+02  0.00000000000E+00 0. -1.
         23    2    1    2    0    0  0.00000000000E+00  0.00000000000E+00  0.00000000000E+00  0.60000000000E+02  0.60000000000E+02 0.  0.
          5    1    3    3  501    0 -0.19384804162E+02  0.21804043563E+02  0.51694343873E+01  0.30000000000E+02  0.47000000000E+01 0. -1.
         -5    1    3    3    0  501  0.19384804162E+02 -0.21804043563E+02 -0.51694343873E+01  0.30000000000E+02  0.47000000000E+01 0.  1.
</event>
<event>
 5    1  0.7959189E-002  0.6000000E+02  0.7546771E-02  0.1259629E+00
         11   -1    0    0    0    0  0.00000000000E+00  0.00000000000E+00  0.30000000000E+02  0.30000000000E+02  0.00000000000E+00 0. -1.
        -11   -1    0    0    0    0 -0.00000000000E+00 -0.00000000000E+00 -0.30000000000E+02  0.30000000000E+02  0.00000000000E+00 0.  1.
         23    2    1    2    0    0  0.00000000000E+00  0.00000000000E+00  0.00000000000E+00  0.60000000000E+02  0.60000000000E+02 0.  0.
          5    1    3    3  501    0  0.29152883820E+02 -0.39800314395E+01  0.34898015339E+01  0.30000000000E+02  0.47000000000E+01 0.  1.
         -5    1    3    3    0  501 -0.29152883820E+02  0.39800314395E+01 -0.34898015339E+01  0.30000000000E+02  0.47000000000E+01 0. -1.
</event>
<event>
 5    1  0.7959189E-002  0.6000000E+02  0.7546771E-02  0.1259629E+00
         11   -1    0    0    0    0  0.00000000000E+00  0.00000000000E+00  0.30000000000E+02  0.30000000000E+02  0.00000000000E+00 0.  1.
        -11   -1    0    0    0    0 -0.00000000000E+00 -0.00000000000E+00 -0.30000000000E+02  0.30000000000E+02  0.00000000000E+00 0. -1.
         23    2    1    2    0    0  0.00000000000E+00  0.00000000000E+00  0.00000000000E+00  0.60000000000E+02  0.60000000000E+02 0.  0.
          5    1    3    3  501    0  0.20009949787E+02 -0.76141575554E+01  0.20482590516E+02  0.30000000000E+02  0.47000000000E+01 0.  1.
         -5    1    3    3    0  501 -0.20009949787E+02  0.76141575554E+01 -0.20482590516E+02  0.30000000000E+02  0.47000000000E+01 0. -1.
</event>
<event>
 5    1  0.7959189E-002  0.6000000E+02  0.7546771E-02  0.1259629E+00
         11   -1    0    0    0    0  0.00000000000E+00  0.00000000000E+00  0.30000000000E+02  0.30000000000E+02  0.00000000000E+00 0. -1.
        -11   -1    0    0    0    0 -0.00000000000E+00 -0.00000000000E+00 -0.30000000000E+02  0.30000000000E+02  0.00000000000E+00 0.  1.
         23    2    1    2    0    0  0.00000000000E+00  0.00000000000E+00  0.00000000000E+00  0.60000000000E+02  0.60000000000E+02 0.  0.
          5    1    3    3  501    0 -0.26899361702E+02  0.59711246668E+00 -0.12408779018E+02  0.30000000000E+02  0.47000000000E+01 0.  1.
         -5    1    3    3    0  501  0.26899361702E+02 -0.59711246668E+00  0.12408779018E+02  0.30000000000E+02  0.47000000000E+01 0. -1.
</event>
<event>
 5    1  0.7959189E-002  0.6000000E+02  0.7546771E-02  0.1259629E+00
         11   -1    0    0    0    0  0.00000000000E+00  0.00000000000E+00  0.30000000000E+02  0.30000000000E+02  0.00000000000E+00 0.  1.
        -11   -1    0    0    0    0 -0.00000000000E+00 -0.00000000000E+00 -0.30000000000E+02  0.30000000000E+02  0.00000000000E+00 0. -1.
         23    2    1    2    0    0  0.00000000000E+00  0.00000000000E+00  0.00000000000E+00  0.60000000000E+02  0.60000000000E+02 0.  0.
          5    1    3    3  501    0 -0.98098083705E+01  0.22486390221E+02 -0.16614448970E+02  0.30000000000E+02  0.47000000000E+01 0. -1.
         -5    1    3    3    0  501  0.98098083705E+01 -0.22486390221E+02  0.16614448970E+02  0.30000000000E+02  0.47000000000E+01 0.  1.
</event>
<event>
 5    1  0.7959189E-002  0.6000000E+02  0.7546771E-02  0.1259629E+00
         11   -1    0    0    0    0  0.00000000000E+00  0.00000000000E+00  0.30000000000E+02  0.30000000000E+02  0.00000000000E+00 0.  1.
        -11   -1    0    0    0    0 -0.00000000000E+00 -0.00000000000E+00 -0.30000000000E+02  0.30000000000E+02  0.00000000000E+00 0. -1.
         23    2    1    2    0    0  0.00000000000E+00  0.00000000000E+00  0.00000000000E+00  0.60000000000E+02  0.60000000000E+02 0.  0.
          5    1    3    3  501    0  0.10716570484E+02 -0.45768181680E+00 -0.27619841499E+02  0.30000000000E+02  0.47000000000E+01 0. -1.
         -5    1    3    3    0  501 -0.10716570484E+02  0.45768181680E+00  0.27619841499E+02  0.30000000000E+02  0.47000000000E+01 0.  1.
</event>
<event>
 5    1  0.7959189E-002  0.6000000E+02  0.7546771E-02  0.1259629E+00
         11   -1    0    0    0    0  0.00000000000E+00  0.00000000000E+00  0.30000000000E+02  0.30000000000E+02  0.00000000000E+00 0.  1.
        -11   -1    0    0    0    0 -0.00000000000E+00 -0.00000000000E+00 -0.30000000000E+02  0.30000000000E+02  0.00000000000E+00 0. -1.
         23    2    1    2    0    0  0.00000000000E+00  0.00000000000E+00  0.00000000000E+00  0.60000000000E+02  0.60000000000E+02 0.  0.
          5    1    3    3  501    0 -0.15397536617E+02  0.18028711346E+02 -0.17770521471E+02  0.30000000000E+02  0.47000000000E+01 0. -1.
         -5    1    3    3    0  501  0.15397536617E+02 -0.18028711346E+02  0.17770521471E+02  0.30000000000E+02  0.47000000000E+01 0.  1.
</event>
<event>
 5    1  0.7959189E-002  0.6000000E+02  0.7546771E-02  0.1259629E+00
         11   -1    0    0    0    0  0.00000000000E+00  0.00000000000E+00  0.30000000000E+02  0.30000000000E+02  0.00000000000E+00 0.  1.
        -11   -1    0    0    0    0 -0.00000000000E+00 -0.00000000000E+00 -0.30000000000E+02  0.30000000000E+02  0.00000000000E+00 0. -1.
         23    2    1    2    0    0  0.00000000000E+00  0.00000000000E+00  0.00000000000E+00  0.60000000000E+02  0.60000000000E+02 0.  0.
          5    1    3    3  501    0  0.16904359785E+02 -0.18166585179E+02 -0.16190361429E+02  0.30000000000E+02  0.47000000000E+01 0. -1.
         -5    1    3    3    0  501 -0.16904359785E+02  0.18166585179E+02  0.16190361429E+02  0.30000000000E+02  0.47000000000E+01 0.  1.
</event>
<event>
 5    1  0.7959189E-002  0.6000000E+02  0.7546771E-02  0.1259629E+00
         11   -1    0    0    0    0  0.00000000000E+00  0.00000000000E+00  0.30000000000E+02  0.30000000000E+02  0.00000000000E+00 0.  1.
        -11   -1    0    0    0    0 -0.00000000000E+00 -0.00000000000E+00 -0.30000000000E+02  0.30000000000E+02  0.00000000000E+00 0. -1.
         23    2    1    2    0    0  0.00000000000E+00  0.00000000000E+00  0.00000000000E+00  0.60000000000E+02  0.60000000000E+02 0.  0.
          5    1    3    3  501    0  0.99457208505E+01 -0.25101665167E+02  0.12202419540E+02  0.30000000000E+02  0.47000000000E+01 0.  1.
         -5    1    3    3    0  501 -0.99457208505E+01  0.25101665167E+02 -0.12202419540E+02  0.30000000000E+02  0.47000000000E+01 0. -1.
</event>
<event>
 5    1  0.7959189E-002  0.6000000E+02  0.7546771E-02  0.1259629E+00
         11   -1    0    0    0    0  0.00000000000E+00  0.00000000000E+00  0.30000000000E+02  0.30000000000E+02  0.00000000000E+00 0.  1.
        -11   -1    0    0    0    0 -0.00000000000E+00 -0.00000000000E+00 -0.30000000000E+02  0.30000000000E+02  0.00000000000E+00 0. -1.
         23    2    1    2    0    0  0.00000000000E+00  0.00000000000E+00  0.00000000000E+00  0.60000000000E+02  0.60000000000E+02 0.  0.
          5    1    3    3  501    0 -0.26938741157E+02  0.41715664048E+01 -0.11610868125E+02  0.30000000000E+02  0.47000000000E+01 0. -1.
         -5    1    3    3    0  501  0.26938741157E+02 -0.41715664048E+01  0.11610868125E+02  0.30000000000E+02  0.47000000000E+01 0.  1.
</event>
<event>
 5    1  0.7959189E-002  0.6000000E+02  0.7546771E-02  0.1259629E+00
         11   -1    0    0    0    0  0.00000000000E+00  0.00000000000E+00  0.30000000000E+02  0.30000000000E+02  0.00000000000E+00 0.  1.
        -11   -1    0    0    0    0 -0.00000000000E+00 -0.00000000000E+00 -0.30000000000E+02  0.30000000000E+02  0.00000000000E+00 0. -1.
         23    2    1    2    0    0  0.00000000000E+00  0.00000000000E+00  0.00000000000E+00  0.60000000000E+02  0.60000000000E+02 0.  0.
          5    1    3    3  501    0 -0.15151789569E+02 -0.15072655608E+02 -0.20521898689E+02  0.30000000000E+02  0.47000000000E+01 0. -1.
         -5    1    3    3    0  501  0.15151789569E+02  0.15072655608E+02  0.20521898689E+02  0.30000000000E+02  0.47000000000E+01 0.  1.
</event>
<event>
 5    1  0.7959189E-002  0.6000000E+02  0.7546771E-02  0.1259629E+00
         11   -1    0    0    0    0  0.00000000000E+00  0.00000000000E+00  0.30000000000E+02  0.30000000000E+02  0.00000000000E+00 0.  1.
        -11   -1    0    0    0    0 -0.00000000000E+00 -0.00000000000E+00 -0.30000000000E+02  0.30000000000E+02  0.00000000000E+00 0. -1.
         23    2    1    2    0    0  0.00000000000E+00  0.00000000000E+00  0.00000000000E+00  0.60000000000E+02  0.60000000000E+02 0.  0.
          5    1    3    3  501    0 -0.91024770115E+00  0.19240009498E+02  0.22514517175E+02  0.30000000000E+02  0.47000000000E+01 0.  1.
         -5    1    3    3    0  501  0.91024770115E+00 -0.19240009498E+02 -0.22514517175E+02  0.30000000000E+02  0.47000000000E+01 0. -1.
</event>
<event>
 5    1  0.7959189E-002  0.6000000E+02  0.7546771E-02  0.1259629E+00
         11   -1    0    0    0    0  0.00000000000E+00  0.00000000000E+00  0.30000000000E+02  0.30000000000E+02  0.00000000000E+00 0.  1.
        -11   -1    0    0    0    0 -0.00000000000E+00 -0.00000000000E+00 -0.30000000000E+02  0.30000000000E+02  0.00000000000E+00 0. -1.
         23    2    1    2    0    0  0.00000000000E+00  0.00000000000E+00  0.00000000000E+00  0.60000000000E+02  0.60000000000E+02 0.  0.
          5    1    3    3  501    0 -0.27585447564E+02  0.37837381546E+01 -0.10130962849E+02  0.30000000000E+02  0.47000000000E+01 0. -1.
         -5    1    3    3    0  501  0.27585447564E+02 -0.37837381546E+01  0.10130962849E+02  0.30000000000E+02  0.47000000000E+01 0.  1.
</event>
<event>
 5    1  0.7959189E-002  0.6000000E+02  0.7546771E-02  0.1259629E+00
         11   -1    0    0    0    0  0.00000000000E+00  0.00000000000E+00  0.30000000000E+02  0.30000000000E+02  0.00000000000E+00 0.  1.
        -11   -1    0    0    0    0 -0.00000000000E+00 -0.00000000000E+00 -0.30000000000E+02  0.30000000000E+02  0.00000000000E+00 0. -1.
         23    2    1    2    0    0  0.00000000000E+00  0.00000000000E+00  0.00000000000E+00  0.60000000000E+02  0.60000000000E+02 0.  0.
          5    1    3    3  501    0  0.27617175557E+00 -0.80109112053E+01  0.28524709128E+02  0.30000000000E+02  0.47000000000E+01 0.  1.
         -5    1    3    3    0  501 -0.27617175557E+00  0.80109112053E+01 -0.28524709128E+02  0.30000000000E+02  0.47000000000E+01 0. -1.
</event>
<event>
 5    1  0.7959189E-002  0.6000000E+02  0.7546771E-02  0.1259629E+00
         11   -1    0    0    0    0  0.00000000000E+00  0.00000000000E+00  0.30000000000E+02  0.30000000000E+02  0.00000000000E+00 0.  1.
        -11   -1    0    0    0    0 -0.00000000000E+00 -0.00000000000E+00 -0.30000000000E+02  0.30000000000E+02  0.00000000000E+00 0. -1.
         23    2    1    2    0    0  0.00000000000E+00  0.00000000000E+00  0.00000000000E+00  0.60000000000E+02  0.60000000000E+02 0.  0.
          5    1    3    3  501    0  0.28269225855E+02  0.30108545518E+01 -0.83483905307E+01  0.30000000000E+02  0.47000000000E+01 0. -1.
         -5    1    3    3    0  501 -0.28269225855E+02 -0.30108545518E+01  0.83483905307E+01  0.30000000000E+02  0.47000000000E+01 0.  1.
</event>
<event>
 5    1  0.7959189E-002  0.6000000E+02  0.7546771E-02  0.1259629E+00
         11   -1    0    0    0    0  0.00000000000E+00  0.00000000000E+00  0.30000000000E+02  0.30000000000E+02  0.00000000000E+00 0. -1.
        -11   -1    0    0    0    0 -0.00000000000E+00 -0.00000000000E+00 -0.30000000000E+02  0.30000000000E+02  0.00000000000E+00 0.  1.
         23    2    1    2    0    0  0.00000000000E+00  0.00000000000E+00  0.00000000000E+00  0.60000000000E+02  0.60000000000E+02 0.  0.
          5    1    3    3  501    0 -0.11112482727E+00  0.29610478109E+02  0.10569945164E+01  0.30000000000E+02  0.47000000000E+01 0.  1.
         -5    1    3    3    0  501  0.11112482727E+00 -0.29610478109E+02 -0.10569945164E+01  0.30000000000E+02  0.47000000000E+01 0. -1.
</event>
<event>
 5    1  0.7959189E-002  0.6000000E+02  0.7546771E-02  0.1259629E+00
         11   -1    0    0    0    0  0.00000000000E+00  0.00000000000E+00  0.30000000000E+02  0.30000000000E+02  0.00000000000E+00 0.  1.
        -11   -1    0    0    0    0 -0.00000000000E+00 -0.00000000000E+00 -0.30000000000E+02  0.30000000000E+02  0.00000000000E+00 0. -1.
         23    2    1    2    0    0  0.00000000000E+00  0.00000000000E+00  0.00000000000E+00  0.60000000000E+02  0.60000000000E+02 0.  0.
          5    1    3    3  501    0  0.17101929568E+02 -0.20566769135E+02 -0.12745274120E+02  0.30000000000E+02  0.47000000000E+01 0. -1.
         -5    1    3    3    0  501 -0.17101929568E+02  0.20566769135E+02  0.12745274120E+02  0.30000000000E+02  0.47000000000E+01 0.  1.
</event>
<event>
 5    1  0.7959189E-002  0.6000000E+02  0.7546771E-02  0.1259629E+00
         11   -1    0    0    0    0  0.00000000000E+00  0.00000000000E+00  0.30000000000E+02  0.30000000000E+02  0.00000000000E+00 0.  1.
        -11   -1    0    0    0    0 -0.00000000000E+00 -0.00000000000E+00 -0.30000000000E+02  0.30000000000E+02  0.00000000000E+00 0. -1.
         23    2    1    2    0    0  0.00000000000E+00  0.00000000000E+00  0.00000000000E+00  0.60000000000E+02  0.60000000000E+02 0.  0.
          5    1    3    3  501    0 -0.20034097648E+02 -0.66865242060E+01 -0.20780647860E+02  0.30000000000E+02  0.47000000000E+01 0. -1.
         -5    1    3    3    0  501  0.20034097648E+02  0.66865242060E+01  0.20780647860E+02  0.30000000000E+02  0.47000000000E+01 0.  1.
</event>
<event>
 5    1  0.7959189E-002  0.6000000E+02  0.7546771E-02  0.1259629E+00
         11   -1    0    0    0    0  0.00000000000E+00  0.00000000000E+00  0.30000000000E+02  0.30000000000E+02  0.00000000000E+00 0. -1.
        -11   -1    0    0    0    0 -0.00000000000E+00 -0.00000000000E+00 -0.30000000000E+02  0.30000000000E+02  0.00000000000E+00 0.  1.
         23    2    1    2    0    0  0.00000000000E+00  0.00000000000E+00  0.00000000000E+00  0.60000000000E+02  0.60000000000E+02 0.  0.
          5    1    3    3  501    0 -0.26364380028E+01 -0.70086686847E+01 -0.28667712813E+02  0.30000000000E+02  0.47000000000E+01 0.  1.
         -5    1    3    3    0  501  0.26364380028E+01  0.70086686847E+01  0.28667712813E+02  0.30000000000E+02  0.47000000000E+01 0. -1.
</event>
<event>
 5    1  0.7959189E-002  0.6000000E+02  0.7546771E-02  0.1259629E+00
         11   -1    0    0    0    0  0.00000000000E+00  0.00000000000E+00  0.30000000000E+02  0.30000000000E+02  0.00000000000E+00 0.  1.
        -11   -1    0    0    0    0 -0.00000000000E+00 -0.00000000000E+00 -0.30000000000E+02  0.30000000000E+02  0.00000000000E+00 0. -1.
         23    2    1    2    0    0  0.00000000000E+00  0.00000000000E+00  0.00000000000E+00  0.60000000000E+02  0.60000000000E+02 0.  0.
          5    1    3    3  501    0 -0.19693008076E+01 -0.29563774797E+02 -0.12277658150E+00  0.30000000000E+02  0.47000000000E+01 0.  1.
         -5    1    3    3    0  501  0.19693008076E+01  0.29563774797E+02  0.12277658150E+00  0.30000000000E+02  0.47000000000E+01 0. -1.
</event>
<event>
 5    1  0.7959189E-002  0.6000000E+02  0.7546771E-02  0.1259629E+00
         11   -1    0    0    0    0  0.00000000000E+00  0.00000000000E+00  0.30000000000E+02  0.30000000000E+02  0.00000000000E+00 0.  1.
        -11   -1    0    0    0    0 -0.00000000000E+00 -0.00000000000E+00 -0.30000000000E+02  0.30000000000E+02  0.00000000000E+00 0. -1.
         23    2    1    2    0    0  0.00000000000E+00  0.00000000000E+00  0.00000000000E+00  0.60000000000E+02  0.60000000000E+02 0.  0.
          5    1    3    3  501    0  0.25955792948E+01  0.20105123118E+02 -0.21609187688E+02  0.30000000000E+02  0.47000000000E+01 0. -1.
         -5    1    3    3    0  501 -0.25955792948E+01 -0.20105123118E+02  0.21609187688E+02  0.30000000000E+02  0.47000000000E+01 0.  1.
</event>
<event>
 5    1  0.7959189E-002  0.6000000E+02  0.7546771E-02  0.1259629E+00
         11   -1    0    0    0    0  0.00000000000E+00  0.00000000000E+00  0.30000000000E+02  0.30000000000E+02  0.00000000000E+00 0. -1.
        -11   -1    0    0    0    0 -0.00000000000E+00 -0.00000000000E+00 -0.30000000000E+02  0.30000000000E+02  0.00000000000E+00 0.  1.
         23    2    1    2    0    0  0.00000000000E+00  0.00000000000E+00  0.00000000000E+00  0.60000000000E+02  0.60000000000E+02 0.  0.
          5    1    3    3  501    0 -0.11488772053E+02 -0.11741178348E+02 -0.24658930385E+02  0.30000000000E+02  0.47000000000E+01 0.  1.
         -5    1    3    3    0  501  0.11488772053E+02  0.11741178348E+02  0.24658930385E+02  0.30000000000E+02  0.47000000000E+01 0. -1.
</event>
<event>
 5    1  0.7959189E-002  0.6000000E+02  0.7546771E-02  0.1259629E+00
         11   -1    0    0    0    0  0.00000000000E+00  0.00000000000E+00  0.30000000000E+02  0.30000000000E+02  0.00000000000E+00 0.  1.
        -11   -1    0    0    0    0 -0.00000000000E+00 -0.00000000000E+00 -0.30000000000E+02  0.30000000000E+02  0.00000000000E+00 0. -1.
         23    2    1    2    0    0  0.00000000000E+00  0.00000000000E+00  0.00000000000E+00  0.60000000000E+02  0.60000000000E+02 0.  0.
          5    1    3    3  501    0 -0.16300053664E+02 -0.15914303504E+02  0.18946060132E+02  0.30000000000E+02  0.47000000000E+01 0.  1.
         -5    1    3    3    0  501  0.16300053664E+02  0.15914303504E+02 -0.18946060132E+02  0.30000000000E+02  0.47000000000E+01 0. -1.
</event>
<event>
 5    1  0.7959189E-002  0.6000000E+02  0.7546771E-02  0.1259629E+00
         11   -1    0    0    0    0  0.00000000000E+00  0.00000000000E+00  0.30000000000E+02  0.30000000000E+02  0.00000000000E+00 0.  1.
        -11   -1    0    0    0    0 -0.00000000000E+00 -0.00000000000E+00 -0.30000000000E+02  0.30000000000E+02  0.00000000000E+00 0. -1.
         23    2    1    2    0    0  0.00000000000E+00  0.00000000000E+00  0.00000000000E+00  0.60000000000E+02  0.60000000000E+02 0.  0.
          5    1    3    3  501    0 -0.50163460187E+01  0.20861077613E+02 -0.20434326841E+02  0.30000000000E+02  0.47000000000E+01 0. -1.
         -5    1    3    3    0  501  0.50163460187E+01 -0.20861077613E+02  0.20434326841E+02  0.30000000000E+02  0.47000000000E+01 0.  1.
</event>
<event>
 5    1  0.7959189E-002  0.6000000E+02  0.7546771E-02  0.1259629E+00
         11   -1    0    0    0    0  0.00000000000E+00  0.00000000000E+00  0.30000000000E+02  0.30000000000E+02  0.00000000000E+00 0.  1.
        -11   -1    0    0    0    0 -0.00000000000E+00 -0.00000000000E+00 -0.30000000000E+02  0.30000000000E+02  0.00000000000E+00 0. -1.
         23    2    1    2    0    0  0.00000000000E+00  0.00000000000E+00  0.00000000000E+00  0.60000000000E+02  0.60000000000E+02 0.  0.
          5    1    3    3  501    0 -0.14335999487E+02  0.23476476355E+02 -0.11011093345E+02  0.30000000000E+02  0.47000000000E+01 0. -1.
         -5    1    3    3    0  501  0.14335999487E+02 -0.23476476355E+02  0.11011093345E+02  0.30000000000E+02  0.47000000000E+01 0.  1.
</event>
<event>
 5    1  0.7959189E-002  0.6000000E+02  0.7546771E-02  0.1259629E+00
         11   -1    0    0    0    0  0.00000000000E+00  0.00000000000E+00  0.30000000000E+02  0.30000000000E+02  0.00000000000E+00 0. -1.
        -11   -1    0    0    0    0 -0.00000000000E+00 -0.00000000000E+00 -0.30000000000E+02  0.30000000000E+02  0.00000000000E+00 0.  1.
         23    2    1    2    0    0  0.00000000000E+00  0.00000000000E+00  0.00000000000E+00  0.60000000000E+02  0.60000000000E+02 0.  0.
          5    1    3    3  501    0  0.14833875969E+02 -0.22734650591E+02 -0.11874417301E+02  0.30000000000E+02  0.47000000000E+01 0.  1.
         -5    1    3    3    0  501 -0.14833875969E+02  0.22734650591E+02  0.11874417301E+02  0.30000000000E+02  0.47000000000E+01 0. -1.
</event>
<event>
 5    1  0.7959189E-002  0.6000000E+02  0.7546771E-02  0.1259629E+00
         11   -1    0    0    0    0  0.00000000000E+00  0.00000000000E+00  0.30000000000E+02  0.30000000000E+02  0.00000000000E+00 0. -1.
        -11   -1    0    0    0    0 -0.00000000000E+00 -0.00000000000E+00 -0.30000000000E+02  0.30000000000E+02  0.00000000000E+00 0.  1.
         23    2    1    2    0    0  0.00000000000E+00  0.00000000000E+00  0.00000000000E+00  0.60000000000E+02  0.60000000000E+02 0.  0.
          5    1    3    3  501    0  0.15754072558E+02 -0.90852352197E+01 -0.23391829745E+02  0.30000000000E+02  0.47000000000E+01 0.  1.
         -5    1    3    3    0  501 -0.15754072558E+02  0.90852352197E+01  0.23391829745E+02  0.30000000000E+02  0.47000000000E+01 0. -1.
</event>
