<event>
 4    1  0.7581446E-002  0.6000000E+02  0.7546771E-02  0.1259629E+00
         11   -1    0    0    0    0  0.00000000000E+00  0.00000000000E+00  0.30000000000E+02  0.30000000000E+02  0.00000000000E+00 0. -1.
        -11   -1    0    0    0    0 -0.00000000000E+00 -0.00000000000E+00 -0.30000000000E+02  0.30000000000E+02  0.00000000000E+00 0.  1.
          5    1    1    2  501    0 -0.21613718588E+02  0.14118864024E+02  0.14540111673E+02  0.30000000000E+02  0.47000000000E+01 0.  1.
         -5    1    1    2    0  501  0.21613718588E+02 -0.14118864024E+02 -0.14540111673E+02  0.30000000000E+02  0.47000000000E+01 0. -1.
</event>
<event>
 4    1  0.7581446E-002  0.6000000E+02  0.7546771E-02  0.1259629E+00
         11   -1    0    0    0    0  0.00000000000E+00  0.00000000000E+00  0.30000000000E+02  0.30000000000E+02  0.00000000000E+00 0.  1.
        -11   -1    0    0    0    0 -0.00000000000E+00 -0.00000000000E+00 -0.30000000000E+02  0.30000000000E+02  0.00000000000E+00 0. -1.
          5    1    1    2  501    0 -0.23211584232E+01  0.34731738853E+01 -0.29333586326E+02  0.30000000000E+02  0.47000000000E+01 0. -1.
         -5    1    1    2    0  501  0.23211584232E+01 -0.34731738853E+01  0.29333586326E+02  0.30000000000E+02  0.47000000000E+01 0.  1.
</event>
<event>
 4    1  0.7581446E-002  0.6000000E+02  0.7546771E-02  0.1259629E+00
         11   -1    0    0    0    0  0.00000000000E+00  0.00000000000E+00  0.30000000000E+02  0.30000000000E+02  0.00000000000E+00 0.  1.
        -11   -1    0    0    0    0 -0.00000000000E+00 -0.00000000000E+00 -0.30000000000E+02  0.30000000000E+02  0.00000000000E+00 0. -1.
          5    1    1    2  501    0 -0.11190633767E+02  0.21623417736E+02 -0.16885127222E+02  0.30000000000E+02  0.47000000000E+01 0. -1.
         -5    1    1    2    0  501  0.11190633767E+02 -0.21623417736E+02  0.16885127222E+02  0.30000000000E+02  0.47000000000E+01 0.  1.
</event>
<event>
 4    1  0.7581446E-002  0.6000000E+02  0.7546771E-02  0.1259629E+00
         11   -1    0    0    0    0  0.00000000000E+00  0.00000000000E+00  0.30000000000E+02  0.30000000000E+02  0.00000000000E+00 0.  1.
        -11   -1    0    0    0    0 -0.00000000000E+00 -0.00000000000E+00 -0.30000000000E+02  0.30000000000E+02  0.00000000000E+00 0. -1.
          5    1    1    2  501    0 -0.18521569030E+02 -0.19512631727E+02 -0.12414454630E+02  0.30000000000E+02  0.47000000000E+01 0. -1.
         -5    1    1    2    0  501  0.18521569030E+02  0.19512631727E+02  0.12414454630E+02  0.30000000000E+02  0.47000000000E+01 0.  1.
</event>
<event>
 4    1  0.7581446E-002  0.6000000E+02  0.7546771E-02  0.1259629E+00
         11   -1    0    0    0    0  0.00000000000E+00  0.00000000000E+00  0.30000000000E+02  0.30000000000E+02  0.00000000000E+00 0. -1.
        -11   -1    0    0    0    0 -0.00000000000E+00 -0.00000000000E+00 -0.30000000000E+02  0.30000000000E+02  0.00000000000E+00 0.  1.
          5    1    1    2  501    0  0.23164131120E+02 -0.76616080855E+01  0.16811686144E+02  0.30000000000E+02  0.47000000000E+01 0. -1.
         -5    1    1    2    0  501 -0.23164131120E+02  0.76616080855E+01 -0.16811686144E+02  0.30000000000E+02  0.47000000000E+01 0.  1.
</event>
<event>
 4    1  0.7581446E-002  0.6000000E+02  0.7546771E-02  0.1259629E+00
         11   -1    0    0    0    0  0.00000000000E+00  0.00000000000E+00  0.30000000000E+02  0.30000000000E+02  0.00000000000E+00 0.  1.
        -11   -1    0    0    0    0 -0.00000000000E+00 -0.00000000000E+00 -0.30000000000E+02  0.30000000000E+02  0.00000000000E+00 0. -1.
          5    1    1    2  501    0 -0.24909417481E+01 -0.12265443092E+01 -0.29499166061E+02  0.30000000000E+02  0.47000000000E+01 0. -1.
         -5    1    1    2    0  501  0.24909417481E+01  0.12265443092E+01  0.29499166061E+02  0.30000000000E+02  0.47000000000E+01 0.  1.
</event>
<event>
 4    1  0.7581446E-002  0.6000000E+02  0.7546771E-02  0.1259629E+00
         11   -1    0    0    0    0  0.00000000000E+00  0.00000000000E+00  0.30000000000E+02  0.30000000000E+02  0.00000000000E+00 0.  1.
        -11   -1    0    0    0    0 -0.00000000000E+00 -0.00000000000E+00 -0.30000000000E+02  0.30000000000E+02  0.00000000000E+00 0. -1.
          5    1    1    2  501    0 -0.10574985932E+02  0.23556743364E+02 -0.14531328728E+02  0.30000000000E+02  0.47000000000E+01 0. -1.
         -5    1    1    2    0  501  0.10574985932E+02 -0.23556743364E+02  0.14531328728E+02  0.30000000000E+02  0.47000000000E+01 0.  1.
</event>
<event>
 4    1  0.7581446E-002  0.6000000E+02  0.7546771E-02  0.1259629E+00
         11   -1    0    0    0    0  0.00000000000E+00  0.00000000000E+00  0.30000000000E+02  0.30000000000E+02  0.00000000000E+00 0. -1.
        -11   -1    0    0    0    0 -0.00000000000E+00 -0.00000000000E+00 -0.30000000000E+02  0.30000000000E+02  0.00000000000E+00 0.  1.
          5    1    1    2  501    0 -0.88030973635E+01 -0.13792076072E+02 -0.24702107490E+02  0.30000000000E+02  0.47000000000E+01 0.  1.
         -5    1    1    2    0  501  0.88030973635E+01  0.13792076072E+02  0.24702107490E+02  0.30000000000E+02  0.47000000000E+01 0. -1.
</event>
<event>
 4    1  0.7581446E-002  0.6000000E+02  0.7546771E-02  0.1259629E+00
         11   -1    0    0    0    0  0.00000000000E+00  0.00000000000E+00  0.30000000000E+02  0.30000000000E+02  0.00000000000E+00 0.  1.
        -11   -1    0    0    0    0 -0.00000000000E+00 -0.00000000000E+00 -0.30000000000E+02  0.30000000000E+02  0.00000000000E+00 0. -1.
          5    1    1    2  501    0  0.24053011967E+02  0.11877276858E+02 -0.12581451019E+02  0.30000000000E+02  0.47000000000E+01 0. -1.
         -5    1    1    2    0  501 -0.24053011967E+02 -0.11877276858E+02  0.12581451019E+02  0.30000000000E+02  0.47000000000E+01 0.  1.
</event>
<event>
 4    1  0.7581446E-002  0.6000000E+02  0.7546771E-02  0.1259629E+00
         11   -1    0    0    0    0  0.00000000000E+00  0.00000000000E+00  0.30000000000E+02  0.30000000000E+02  0.00000000000E+00 0.  1.
        -11   -1    0    0    0    0 -0.00000000000E+00 -0.00000000000E+00 -0.30000000000E+02  0.30000000000E+02  0.00000000000E+00 0. -1.
          5    1    1    2  501    0 -0.22875051390E+02  0.16124932330E+02 -0.97277223051E+01  0.30000000000E+02  0.47000000000E+01 0. -1.
         -5    1    1    2    0  501  0.22875051390E+02 -0.16124932330E+02  0.97277223051E+01  0.30000000000E+02  0.47000000000E+01 0.  1.
</event>
<event>
 4    1  0.7581446E-002  0.6000000E+02  0.7546771E-02  0.1259629E+00
         11   -1    0    0    0    0  0.00000000000E+00  0.00000000000E+00  0.30000000000E+02  0.30000000000E+02  0.00000000000E+00 0. -1.
        -11   -1    0    0    0    0 -0.00000000000E+00 -0.00000000000E+00 -0.30000000000E+02  0.30000000000E+02  0.00000000000E+00 0.  1.
          5    1    1    2  501    0 -0.86306386112E+01 -0.13307082903E+02 -0.25026858008E+02  0.30000000000E+02  0.47000000000E+01 0.  1.
         -5    1    1    2    0  501  0.86306386112E+01  0.13307082903E+02  0.25026858008E+02  0.30000000000E+02  0.47000000000E+01 0. -1.
</event>
<event>
 4    1  0.7581446E-002  0.6000000E+02  0.7546771E-02  0.1259629E+00
         11   -1    0    0    0    0  0.00000000000E+00  0.00000000000E+00  0.30000000000E+02  0.30000000000E+02  0.00000000000E+00 0.  1.
        -11   -1    0    0    0    0 -0.00000000000E+00 -0.00000000000E+00 -0.30000000000E+02  0.30000000000E+02  0.00000000000E+00 0. -1.
          5    1    1    2  501    0 -0.13513870114E+02  0.21126851839E+01  0.26283490557E+02  0.30000000000E+02  0.47000000000E+01 0.  1.
         -5    1    1    2    0  501  0.13513870114E+02 -0.21126851839E+01 -0.26283490557E+02  0.30000000000E+02  0.47000000000E+01 0. -1.
</event>
<event>
 4    1  0.7581446E-002  0.6000000E+02  0.7546771E-02  0.1259629E+00
         11   -1    0    0    0    0  0.00000000000E+00  0.00000000000E+00  0.30000000000E+02  0.30000000000E+02  0.00000000000E+00 0.  1.
        -11   -1    0    0    0    0 -0.00000000000E+00 -0.00000000000E+00 -0.30000000000E+02  0.30000000000E+02  0.00000000000E+00 0. -1.
          5    1    1    2  501    0  0.11589886718E+02  0.15954356791E+02  0.22114317201E+02  0.30000000000E+02  0.47000000000E+01 0.  1.
         -5    1    1    2    0  501 -0.11589886718E+02 -0.15954356791E+02 -0.22114317201E+02  0.30000000000E+02  0.47000000000E+01 0. -1.
</event>
<event>
 4    1  0.7581446E-002  0.6000000E+02  0.7546771E-02  0.1259629E+00
         11   -1    0    0    0    0  0.00000000000E+00  0.00000000000E+00  0.30000000000E+02  0.30000000000E+02  0.00000000000E+00 0.  1.
        -11   -1    0    0    0    0 -0.00000000000E+00 -0.00000000000E+00 -0.30000000000E+02  0.30000000000E+02  0.00000000000E+00 0. -1.
          5    1    1    2  501    0  0.33332718487E+01  0.24062622099E+01 -0.29342958286E+02  0.30000000000E+02  0.47000000000E+01 0. -1.
         -5    1    1    2    0  501 -0.33332718487E+01 -0.24062622099E+01  0.29342958286E+02  0.30000000000E+02  0.47000000000E+01 0.  1.
</event>
<event>
 4    1  0.7581446E-002  0.6000000E+02  0.7546771E-02  0.1259629E+00
         11   -1    0    0    0    0  0.00000000000E+00  0.00000000000E+00  0.30000000000E+02  0.30000000000E+02  0.00000000000E+00 0. -1.
        -11   -1    0    0    0    0 -0.00000000000E+00 -0.00000000000E+00 -0.30000000000E+02  0.30000000000E+02  0.00000000000E+00 0.  1.
          5    1    1    2  501    0 -0.40881504720E+01 -0.32561044149E+01 -0.29164958593E+02  0.30000000000E+02  0.47000000000E+01 0.  1.
         -5    1    1    2    0  501  0.40881504720E+01  0.32561044149E+01  0.29164958593E+02  0.30000000000E+02  0.47000000000E+01 0. -1.
</event>
<event>
 4    1  0.7581446E-002  0.6000000E+02  0.7546771E-02  0.1259629E+00
         11   -1    0    0    0    0  0.00000000000E+00  0.00000000000E+00  0.30000000000E+02  0.30000000000E+02  0.00000000000E+00 0.  1.
        -11   -1    0    0    0    0 -0.00000000000E+00 -0.00000000000E+00 -0.30000000000E+02  0.30000000000E+02  0.00000000000E+00 0. -1.
          5    1    1    2  501    0 -0.10335958061E+02 -0.16550023739E+02 -0.22297414316E+02  0.30000000000E+02  0.47000000000E+01 0. -1.
         -5    1    1    2    0  501  0.10335958061E+02  0.16550023739E+02  0.22297414316E+02  0.30000000000E+02  0.47000000000E+01 0.  1.
</event>
<event>
 4    1  0.7581446E-002  0.6000000E+02  0.7546771E-02  0.1259629E+00
         11   -1    0    0    0    0  0.00000000000E+00  0.00000000000E+00  0.30000000000E+02  0.30000000000E+02  0.00000000000E+00 0.  1.
        -11   -1    0    0    0    0 -0.00000000000E+00 -0.00000000000E+00 -0.30000000000E+02  0.30000000000E+02  0.00000000000E+00 0. -1.
          5    1    1    2  501    0 -0.13246564405E+02 -0.20480601147E+02 -0.16822113663E+02  0.30000000000E+02  0.47000000000E+01 0. -1.
         -5    1    1    2    0  501  0.13246564405E+02  0.20480601147E+02  0.16822113663E+02  0.30000000000E+02  0.47000000000E+01 0.  1.
</event>
<event>
 4    1  0.7581446E-002  0.6000000E+02  0.7546771E-02  0.1259629E+00
         11   -1    0    0    0    0  0.00000000000E+00  0.00000000000E+00  0.30000000000E+02  0.30000000000E+02  0.00000000000E+00 0.  1.
        -11   -1    0    0    0    0 -0.00000000000E+00 -0.00000000000E+00 -0.30000000000E+02  0.30000000000E+02  0.00000000000E+00 0. -1.
          5    1    1    2  501    0  0.95752326423E+01  0.23859473600E+02 -0.14729237569E+02  0.30000000000E+02  0.47000000000E+01 0. -1.
         -5    1    1    2    0  501 -0.95752326423E+01 -0.23859473600E+02  0.14729237569E+02  0.30000000000E+02  0.47000000000E+01 0.  1.
</event>
<event>
 4    1  0.7581446E-002  0.6000000E+02  0.7546771E-02  0.1259629E+00
         11   -1    0    0    0    0  0.00000000000E+00  0.00000000000E+00  0.30000000000E+02  0.30000000000E+02  0.00000000000E+00 0. -1.
        -11   -1    0    0    0    0 -0.00000000000E+00 -0.00000000000E+00 -0.30000000000E+02  0.30000000000E+02  0.00000000000E+00 0.  1.
          5    1    1    2  501    0 -0.19562164731E+02  0.21900264456E+01 -0.22145778271E+02  0.30000000000E+02  0.47000000000E+01 0.  1.
         -5    1    1    2    0  501  0.19562164731E+02 -0.21900264456E+01  0.22145778271E+02  0.30000000000E+02  0.47000000000E+01 0. -1.
</event>
<event>
 4    1  0.7581446E-002  0.6000000E+02  0.7546771E-02  0.1259629E+00
         11   -1    0    0    0    0  0.00000000000E+00  0.00000000000E+00  0.30000000000E+02  0.30000000000E+02  0.00000000000E+00 0.  1.
        -11   -1    0    0    0    0 -0.00000000000E+00 -0.00000000000E+00 -0.30000000000E+02  0.30000000000E+02  0.00000000000E+00 0. -1.
          5    1    1    2  501    0  0.22913900984E+02  0.48878242292E+01 -0.18137593996E+02  0.30000000000E+02  0.47000000000E+01 0. -1.
         -5    1    1    2    0  501 -0.22913900984E+02 -0.48878242292E+01  0.18137593996E+02  0.30000000000E+02  0.47000000000E+01 0.  1.
</event>
<event>
 4    1  0.7581446E-002  0.6000000E+02  0.7546771E-02  0.1259629E+00
         11   -1    0    0    0    0  0.00000000000E+00  0.00000000000E+00  0.30000000000E+02  0.30000000000E+02  0.00000000000E+00 0.  1.
        -11   -1    0    0    0    0 -0.00000000000E+00 -0.00000000000E+00 -0.30000000000E+02  0.30000000000E+02  0.00000000000E+00 0. -1.
          5    1    1    2  501    0 -0.13189394260E+02  0.15285561722E+02  0.21686435436E+02  0.30000000000E+02  0.47000000000E+01 0.  1.
         -5    1    1    2    0  501  0.13189394260E+02 -0.15285561722E+02 -0.21686435436E+02  0.30000000000E+02  0.47000000000E+01 0. -1.
</event>
<event>
 4    1  0.7581446E-002  0.6000000E+02  0.7546771E-02  0.1259629E+00
         11   -1    0    0    0    0  0.00000000000E+00  0.00000000000E+00  0.30000000000E+02  0.30000000000E+02  0.00000000000E+00 0.  1.
        -11   -1    0    0    0    0 -0.00000000000E+00 -0.00000000000E+00 -0.30000000000E+02  0.30000000000E+02  0.00000000000E+00 0. -1.
          5    1    1    2  501    0  0.42034782353E+01  0.88538489962E-01 -0.29329727780E+02  0.30000000000E+02  0.47000000000E+01 0. -1.
         -5    1    1    2    0  501 -0.42034782353E+01 -0.88538489962E-01  0.29329727780E+02  0.30000000000E+02  0.47000000000E+01 0.  1.
</event>
<event>
 4    1  0.7581446E-002  0.6000000E+02  0.7546771E-02  0.1259629E+00
         11   -1    0    0    0    0  0.00000000000E+00  0.00000000000E+00  0.30000000000E+02  0.30000000000E+02  0.00000000000E+00 0.  1.
        -11   -1    0    0    0    0 -0.00000000000E+00 -0.00000000000E+00 -0.30000000000E+02  0.30000000000E+02  0.00000000000E+00 0. -1.
          5    1    1    2  501    0  0.23807364383E+00 -0.19027839940E+02 -0.22711112438E+02  0.30000000000E+02  0.47000000000E+01 0. -1.
         -5    1    1    2    0  501 -0.23807364383E+00  0.19027839940E+02  0.22711112438E+02  0.30000000000E+02  0.47000000000E+01 0.  1.
</event>
<event>
 4    1  0.7581446E-002  0.6000000E+02  0.7546771E-02  0.1259629E+00
         11   -1    0    0    0    0  0.00000000000E+00  0.00000000000E+00  0.30000000000E+02  0.30000000000E+02  0.00000000000E+00 0. -1.
        -11   -1    0    0    0    0 -0.00000000000E+00 -0.00000000000E+00 -0.30000000000E+02  0.30000000000E+02  0.00000000000E+00 0.  1.
          5    1    1    2  501    0  0.23388571865E+02  0.18049268126E+02 -0.22602270243E+01  0.30000000000E+02  0.47000000000E+01 0.  1.
         -5    1    1    2    0  501 -0.23388571865E+02 -0.18049268126E+02  0.22602270243E+01  0.30000000000E+02  0.47000000000E+01 0. -1.
</event>
<event>
 4    1  0.7581446E-002  0.6000000E+02  0.7546771E-02  0.1259629E+00
         11   -1    0    0    0    0  0.00000000000E+00  0.00000000000E+00  0.30000000000E+02  0.30000000000E+02  0.00000000000E+00 0. -1.
        -11   -1    0    0    0    0 -0.00000000000E+00 -0.00000000000E+00 -0.30000000000E+02  0.30000000000E+02  0.00000000000E+00 0.  1.
          5    1    1    2  501    0 -0.12215007374E+02 -0.20022569283E+02 -0.18105256533E+02  0.30000000000E+02  0.47000000000E+01 0.  1.
         -5    1    1    2    0  501  0.12215007374E+02  0.20022569283E+02  0.18105256533E+02  0.30000000000E+02  0.47000000000E+01 0. -1.
</event>
<event>
 4    1  0.7581446E-002  0.6000000E+02  0.7546771E-02  0.1259629E+00
         11   -1    0    0    0    0  0.00000000000E+00  0.00000000000E+00  0.30000000000E+02  0.30000000000E+02  0.00000000000E+00 0.  1.
        -11   -1    0    0    0    0 -0.00000000000E+00 -0.00000000000E+00 -0.30000000000E+02  0.30000000000E+02  0.00000000000E+00 0. -1.
          5    1    1    2  501    0  0.19489891072E+02 -0.15944923653E+02 -0.15614530274E+02  0.30000000000E+02  0.47000000000E+01 0. -1.
         -5    1    1    2    0  501 -0.19489891072E+02  0.15944923653E+02  0.15614530274E+02  0.30000000000E+02  0.47000000000E+01 0. -1.
</event>
<event>
 4    1  0.7581446E-002  0.6000000E+02  0.7546771E-02  0.1259629E+00
         11   -1    0    0    0    0  0.00000000000E+00  0.00000000000E+00  0.30000000000E+02  0.30000000000E+02  0.00000000000E+00 0.  1.
        -11   -1    0    0    0    0 -0.00000000000E+00 -0.00000000000E+00 -0.30000000000E+02  0.30000000000E+02  0.00000000000E+00 0. -1.
          5    1    1    2  501    0 -0.22463767828E+02  0.13106577796E+02 -0.14195307445E+02  0.30000000000E+02  0.47000000000E+01 0. -1.
         -5    1    1    2    0  501  0.22463767828E+02 -0.13106577796E+02  0.14195307445E+02  0.30000000000E+02  0.47000000000E+01 0.  1.
</event>
<event>
 4    1  0.7581446E-002  0.6000000E+02  0.7546771E-02  0.1259629E+00
         11   -1    0    0    0    0  0.00000000000E+00  0.00000000000E+00  0.30000000000E+02  0.30000000000E+02  0.00000000000E+00 0.  1.
        -11   -1    0    0    0    0 -0.00000000000E+00 -0.00000000000E+00 -0.30000000000E+02  0.30000000000E+02  0.00000000000E+00 0. -1.
          5    1    1    2  501    0  0.16577418345E+02 -0.27817841050E+01 -0.24400017996E+02  0.30000000000E+02  0.47000000000E+01 0. -1.
         -5    1    1    2    0  501 -0.16577418345E+02  0.27817841050E+01  0.24400017996E+02  0.30000000000E+02  0.47000000000E+01 0.  1.
</event>
<event>
 4    1  0.7581446E-002  0.6000000E+02  0.7546771E-02  0.1259629E+00
         11   -1    0    0    0    0  0.00000000000E+00  0.00000000000E+00  0.30000000000E+02  0.30000000000E+02  0.00000000000E+00 0. -1.
        -11   -1    0    0    0    0 -0.00000000000E+00 -0.00000000000E+00 -0.30000000000E+02  0.30000000000E+02  0.00000000000E+00 0.  1.
          5    1    1    2  501    0 -0.21609597940E+02  0.48135419002E+01 -0.19691751858E+02  0.30000000000E+02  0.47000000000E+01 0.  1.
         -5    1    1    2    0  501  0.21609597940E+02 -0.48135419002E+01  0.19691751858E+02  0.30000000000E+02  0.47000000000E+01 0. -1.
</event>
<event>
 4    1  0.7581446E-002  0.6000000E+02  0.7546771E-02  0.1259629E+00
         11   -1    0    0    0    0  0.00000000000E+00  0.00000000000E+00  0.30000000000E+02  0.30000000000E+02  0.00000000000E+00 0.  1.
        -11   -1    0    0    0    0 -0.00000000000E+00 -0.00000000000E+00 -0.30000000000E+02  0.30000000000E+02  0.00000000000E+00 0. -1.
          5    1    1    2  501    0  0.24084513846E+01  0.24650916921E+02 -0.16261662180E+02  0.30000000000E+02  0.47000000000E+01 0. -1.
         -5    1    1    2    0  501 -0.24084513846E+01 -0.24650916921E+02  0.16261662180E+02  0.30000000000E+02  0.47000000000E+01 0.  1.
</event>
<event>
 4    1  0.7581446E-002  0.6000000E+02  0.7546771E-02  0.1259629E+00
         11   -1    0    0    0    0  0.00000000000E+00  0.00000000000E+00  0.30000000000E+02  0.30000000000E+02  0.00000000000E+00 0.  1.
        -11   -1    0    0    0    0 -0.00000000000E+00 -0.00000000000E+00 -0.30000000000E+02  0.30000000000E+02  0.00000000000E+00 0. -1.
          5    1    1    2  501    0  0.19352000575E+02 -0.20885644292E+02  0.81975567253E+01  0.30000000000E+02  0.47000000000E+01 0. -1.
         -5    1    1    2    0  501 -0.19352000575E+02  0.20885644292E+02 -0.81975567253E+01  0.30000000000E+02  0.47000000000E+01 0.  1.
</event>
<event>
 4    1  0.7581446E-002  0.6000000E+02  0.7546771E-02  0.1259629E+00
         11   -1    0    0    0    0  0.00000000000E+00  0.00000000000E+00  0.30000000000E+02  0.30000000000E+02  0.00000000000E+00 0.  1.
        -11   -1    0    0    0    0 -0.00000000000E+00 -0.00000000000E+00 -0.30000000000E+02  0.30000000000E+02  0.00000000000E+00 0. -1.
          5    1    1    2  501    0 -0.25923029761E+00  0.21340252854E+02 -0.20553257839E+02  0.30000000000E+02  0.47000000000E+01 0. -1.
         -5    1    1    2    0  501  0.25923029761E+00 -0.21340252854E+02  0.20553257839E+02  0.30000000000E+02  0.47000000000E+01 0.  1.
</event>
<event>
 4    1  0.7581446E-002  0.6000000E+02  0.7546771E-02  0.1259629E+00
         11   -1    0    0    0    0  0.00000000000E+00  0.00000000000E+00  0.30000000000E+02  0.30000000000E+02  0.00000000000E+00 0.  1.
        -11   -1    0    0    0    0 -0.00000000000E+00 -0.00000000000E+00 -0.30000000000E+02  0.30000000000E+02  0.00000000000E+00 0. -1.
          5    1    1    2  501    0  0.15159662928E+01  0.22398039602E+02 -0.19337519701E+02  0.30000000000E+02  0.47000000000E+01 0. -1.
         -5    1    1    2    0  501 -0.15159662928E+01 -0.22398039602E+02  0.19337519701E+02  0.30000000000E+02  0.47000000000E+01 0.  1.
</event>
<event>
 4    1  0.7581446E-002  0.6000000E+02  0.7546771E-02  0.1259629E+00
         11   -1    0    0    0    0  0.00000000000E+00  0.00000000000E+00  0.30000000000E+02  0.30000000000E+02  0.00000000000E+00 0.  1.
        -11   -1    0    0    0    0 -0.00000000000E+00 -0.00000000000E+00 -0.30000000000E+02  0.30000000000E+02  0.00000000000E+00 0. -1.
          5    1    1    2  501    0 -0.10331284928E+02  0.84256784416E+01  0.26460961708E+02  0.30000000000E+02  0.47000000000E+01 0.  1.
         -5    1    1    2    0  501  0.10331284928E+02 -0.84256784416E+01 -0.26460961708E+02  0.30000000000E+02  0.47000000000E+01 0. -1.
</event>
<event>
 4    1  0.7581446E-002  0.6000000E+02  0.7546771E-02  0.1259629E+00
         11   -1    0    0    0    0  0.00000000000E+00  0.00000000000E+00  0.30000000000E+02  0.30000000000E+02  0.00000000000E+00 0. -1.
        -11   -1    0    0    0    0 -0.00000000000E+00 -0.00000000000E+00 -0.30000000000E+02  0.30000000000E+02  0.00000000000E+00 0.  1.
          5    1    1    2  501    0  0.18533452430E+01 -0.27824228160E+02 -0.10014361622E+02  0.30000000000E+02  0.47000000000E+01 0.  1.
         -5    1    1    2    0  501 -0.18533452430E+01  0.27824228160E+02  0.10014361622E+02  0.30000000000E+02  0.47000000000E+01 0. -1.
</event>
<event>
 4    1  0.7581446E-002  0.6000000E+02  0.7546771E-02  0.1259629E+00
         11   -1    0    0    0    0  0.00000000000E+00  0.00000000000E+00  0.30000000000E+02  0.30000000000E+02  0.00000000000E+00 0. -1.
        -11   -1    0    0    0    0 -0.00000000000E+00 -0.00000000000E+00 -0.30000000000E+02  0.30000000000E+02  0.00000000000E+00 0.  1.
          5    1    1    2  501    0  0.11188909318E+02 -0.12081477465E+01 -0.27409098622E+02  0.30000000000E+02  0.47000000000E+01 0.  1.
         -5    1    1    2    0  501 -0.11188909318E+02  0.12081477465E+01  0.27409098622E+02  0.30000000000E+02  0.47000000000E+01 0. -1.
</event>
<event>
 4    1  0.7581446E-002  0.6000000E+02  0.7546771E-02  0.1259629E+00
         11   -1    0    0    0    0  0.00000000000E+00  0.00000000000E+00  0.30000000000E+02  0.30000000000E+02  0.00000000000E+00 0. -1.
        -11   -1    0    0    0    0 -0.00000000000E+00 -0.00000000000E+00 -0.30000000000E+02  0.30000000000E+02  0.00000000000E+00 0.  1.
          5    1    1    2  501    0 -0.29755104006E+01  0.24353288838E+02 -0.16612454985E+02  0.30000000000E+02  0.47000000000E+01 0.  1.
         -5    1    1    2    0  501  0.29755104006E+01 -0.24353288838E+02  0.16612454985E+02  0.30000000000E+02  0.47000000000E+01 0. -1.
</event>
<event>
 4    1  0.7581446E-002  0.6000000E+02  0.7546771E-02  0.1259629E+00
         11   -1    0    0    0    0  0.00000000000E+00  0.00000000000E+00  0.30000000000E+02  0.30000000000E+02  0.00000000000E+00 0. -1.
        -11   -1    0    0    0    0 -0.00000000000E+00 -0.00000000000E+00 -0.30000000000E+02  0.30000000000E+02  0.00000000000E+00 0.  1.
          5    1    1    2  501    0  0.15361001770E+02  0.97030660396E+01  0.23405130507E+02  0.30000000000E+02  0.47000000000E+01 0. -1.
         -5    1    1    2    0  501 -0.15361001770E+02 -0.97030660396E+01 -0.23405130507E+02  0.30000000000E+02  0.47000000000E+01 0.  1.
</event>
<event>
 4    1  0.7581446E-002  0.6000000E+02  0.7546771E-02  0.1259629E+00
         11   -1    0    0    0    0  0.00000000000E+00  0.00000000000E+00  0.30000000000E+02  0.30000000000E+02  0.00000000000E+00 0.  1.
        -11   -1    0    0    0    0 -0.00000000000E+00 -0.00000000000E+00 -0.30000000000E+02  0.30000000000E+02  0.00000000000E+00 0. -1.
          5    1    1    2  501    0 -0.64044180266E+01  0.18829281420E+02 -0.21962504205E+02  0.30000000000E+02  0.47000000000E+01 0. -1.
         -5    1    1    2    0  501  0.64044180266E+01 -0.18829281420E+02  0.21962504205E+02  0.30000000000E+02  0.47000000000E+01 0.  1.
</event>
<event>
 4    1  0.7581446E-002  0.6000000E+02  0.7546771E-02  0.1259629E+00
         11   -1    0    0    0    0  0.00000000000E+00  0.00000000000E+00  0.30000000000E+02  0.30000000000E+02  0.00000000000E+00 0. -1.
        -11   -1    0    0    0    0 -0.00000000000E+00 -0.00000000000E+00 -0.30000000000E+02  0.30000000000E+02  0.00000000000E+00 0.  1.
          5    1    1    2  501    0  0.13005807712E+02 -0.21562088003E+01 -0.26535066033E+02  0.30000000000E+02  0.47000000000E+01 0.  1.
         -5    1    1    2    0  501 -0.13005807712E+02  0.21562088003E+01  0.26535066033E+02  0.30000000000E+02  0.47000000000E+01 0. -1.
</event>
<event>
 4    1  0.7581446E-002  0.6000000E+02  0.7546771E-02  0.1259629E+00
         11   -1    0    0    0    0  0.00000000000E+00  0.00000000000E+00  0.30000000000E+02  0.30000000000E+02  0.00000000000E+00 0. -1.
        -11   -1    0    0    0    0 -0.00000000000E+00 -0.00000000000E+00 -0.30000000000E+02  0.30000000000E+02  0.00000000000E+00 0.  1.
          5    1    1    2  501    0  0.55648904870E+00  0.91976676105E+01 -0.28160313039E+02  0.30000000000E+02  0.47000000000E+01 0.  1.
         -5    1    1    2    0  501 -0.55648904870E+00 -0.91976676105E+01  0.28160313039E+02  0.30000000000E+02  0.47000000000E+01 0. -1.
</event>
<event>
 4    1  0.7581446E-002  0.6000000E+02  0.7546771E-02  0.1259629E+00
         11   -1    0    0    0    0  0.00000000000E+00  0.00000000000E+00  0.30000000000E+02  0.30000000000E+02  0.00000000000E+00 0. -1.
        -11   -1    0    0    0    0 -0.00000000000E+00 -0.00000000000E+00 -0.30000000000E+02  0.30000000000E+02  0.00000000000E+00 0.  1.
          5    1    1    2  501    0 -0.87269465012E+01 -0.39650940087E+01 -0.28036198642E+02  0.30000000000E+02  0.47000000000E+01 0.  1.
         -5    1    1    2    0  501  0.87269465012E+01  0.39650940087E+01  0.28036198642E+02  0.30000000000E+02  0.47000000000E+01 0. -1.
</event>
<event>
 4    1  0.7581446E-002  0.6000000E+02  0.7546771E-02  0.1259629E+00
         11   -1    0    0    0    0  0.00000000000E+00  0.00000000000E+00  0.30000000000E+02  0.30000000000E+02  0.00000000000E+00 0.  1.
        -11   -1    0    0    0    0 -0.00000000000E+00 -0.00000000000E+00 -0.30000000000E+02  0.30000000000E+02  0.00000000000E+00 0. -1.
          5    1    1    2  501    0 -0.10264858034E+02  0.27791132258E+02  0.44233170339E+00  0.30000000000E+02  0.47000000000E+01 0. -1.
         -5    1    1    2    0  501  0.10264858034E+02 -0.27791132258E+02 -0.44233170339E+00  0.30000000000E+02  0.47000000000E+01 0.  1.
</event>
<event>
 4    1  0.7581446E-002  0.6000000E+02  0.7546771E-02  0.1259629E+00
         11   -1    0    0    0    0  0.00000000000E+00  0.00000000000E+00  0.30000000000E+02  0.30000000000E+02  0.00000000000E+00 0.  1.
        -11   -1    0    0    0    0 -0.00000000000E+00 -0.00000000000E+00 -0.30000000000E+02  0.30000000000E+02  0.00000000000E+00 0. -1.
          5    1    1    2  501    0  0.11564568494E+02  0.27204174585E+02 -0.20257444729E+01  0.30000000000E+02  0.47000000000E+01 0. -1.
         -5    1    1    2    0  501 -0.11564568494E+02 -0.27204174585E+02  0.20257444729E+01  0.30000000000E+02  0.47000000000E+01 0.  1.
</event>
<event>
 4    1  0.7581446E-002  0.6000000E+02  0.7546771E-02  0.1259629E+00
         11   -1    0    0    0    0  0.00000000000E+00  0.00000000000E+00  0.30000000000E+02  0.30000000000E+02  0.00000000000E+00 0.  1.
        -11   -1    0    0    0    0 -0.00000000000E+00 -0.00000000000E+00 -0.30000000000E+02  0.30000000000E+02  0.00000000000E+00 0. -1.
          5    1    1    2  501    0 -0.27979501632E+01 -0.14916045162E+02 -0.25447850039E+02  0.30000000000E+02  0.47000000000E+01 0. -1.
         -5    1    1    2    0  501  0.27979501632E+01  0.14916045162E+02  0.25447850039E+02  0.30000000000E+02  0.47000000000E+01 0.  1.
</event>
<event>
 4    1  0.7581446E-002  0.6000000E+02  0.7546771E-02  0.1259629E+00
         11   -1    0    0    0    0  0.00000000000E+00  0.00000000000E+00  0.30000000000E+02  0.30000000000E+02  0.00000000000E+00 0.  1.
        -11   -1    0    0    0    0 -0.00000000000E+00 -0.00000000000E+00 -0.30000000000E+02  0.30000000000E+02  0.00000000000E+00 0. -1.
          5    1    1    2  501    0 -0.62333894379E+01  0.10930484025E+02 -0.26824976703E+02  0.30000000000E+02  0.47000000000E+01 0. -1.
         -5    1    1    2    0  501  0.62333894379E+01 -0.10930484025E+02  0.26824976703E+02  0.30000000000E+02  0.47000000000E+01 0.  1.
</event>
<event>
 4    1  0.7581446E-002  0.6000000E+02  0.7546771E-02  0.1259629E+00
         11   -1    0    0    0    0  0.00000000000E+00  0.00000000000E+00  0.30000000000E+02  0.30000000000E+02  0.00000000000E+00 0.  1.
        -11   -1    0    0    0    0 -0.00000000000E+00 -0.00000000000E+00 -0.30000000000E+02  0.30000000000E+02  0.00000000000E+00 0. -1.
          5    1    1    2  501    0  0.10100945427E+02 -0.21178865969E+02  0.18092444217E+02  0.30000000000E+02  0.47000000000E+01 0.  1.
         -5    1    1    2    0  501 -0.10100945427E+02  0.21178865969E+02 -0.18092444217E+02  0.30000000000E+02  0.47000000000E+01 0. -1.
</event>
<event>
 4    1  0.7581446E-002  0.6000000E+02  0.7546771E-02  0.1259629E+00
         11   -1    0    0    0    0  0.00000000000E+00  0.00000000000E+00  0.30000000000E+02  0.30000000000E+02  0.00000000000E+00 0.  1.
        -11   -1    0    0    0    0 -0.00000000000E+00 -0.00000000000E+00 -0.30000000000E+02  0.30000000000E+02  0.00000000000E+00 0. -1.
          5    1    1    2  501    0  0.16218633725E+02 -0.24780756505E+02 -0.88319144751E+00  0.30000000000E+02  0.47000000000E+01 0. -1.
         -5    1    1    2    0  501 -0.16218633725E+02  0.24780756505E+02  0.88319144751E+00  0.30000000000E+02  0.47000000000E+01 0.  1.
</event>
<event>
 4    1  0.7581446E-002  0.6000000E+02  0.7546771E-02  0.1259629E+00
         11   -1    0    0    0    0  0.00000000000E+00  0.00000000000E+00  0.30000000000E+02  0.30000000000E+02  0.00000000000E+00 0.  1.
        -11   -1    0    0    0    0 -0.00000000000E+00 -0.00000000000E+00 -0.30000000000E+02  0.30000000000E+02  0.00000000000E+00 0. -1.
          5    1    1    2  501    0  0.22795700792E+01 -0.25176791845E+01 -0.29434246241E+02  0.30000000000E+02  0.47000000000E+01 0. -1.
         -5    1    1    2    0  501 -0.22795700792E+01  0.25176791845E+01  0.29434246241E+02  0.30000000000E+02  0.47000000000E+01 0.  1.
</event>
<event>
 4    1  0.7581446E-002  0.6000000E+02  0.7546771E-02  0.1259629E+00
         11   -1    0    0    0    0  0.00000000000E+00  0.00000000000E+00  0.30000000000E+02  0.30000000000E+02  0.00000000000E+00 0.  1.
        -11   -1    0    0    0    0 -0.00000000000E+00 -0.00000000000E+00 -0.30000000000E+02  0.30000000000E+02  0.00000000000E+00 0. -1.
          5    1    1    2  501    0  0.28367598995E+02 -0.54325353083E+01  0.66088491733E+01  0.30000000000E+02  0.47000000000E+01 0.  1.
         -5    1    1    2    0  501 -0.28367598995E+02  0.54325353083E+01 -0.66088491733E+01  0.30000000000E+02  0.47000000000E+01 0. -1.
</event>
<event>
 4    1  0.7581446E-002  0.6000000E+02  0.7546771E-02  0.1259629E+00
         11   -1    0    0    0    0  0.00000000000E+00  0.00000000000E+00  0.30000000000E+02  0.30000000000E+02  0.00000000000E+00 0. -1.
        -11   -1    0    0    0    0 -0.00000000000E+00 -0.00000000000E+00 -0.30000000000E+02  0.30000000000E+02  0.00000000000E+00 0.  1.
          5    1    1    2  501    0  0.54541086453E+01 -0.27066198819E+02 -0.10750980437E+02  0.30000000000E+02  0.47000000000E+01 0.  1.
         -5    1    1    2    0  501 -0.54541086453E+01  0.27066198819E+02  0.10750980437E+02  0.30000000000E+02  0.47000000000E+01 0. -1.
</event>
<event>
 4    1  0.7581446E-002  0.6000000E+02  0.7546771E-02  0.1259629E+00
         11   -1    0    0    0    0  0.00000000000E+00  0.00000000000E+00  0.30000000000E+02  0.30000000000E+02  0.00000000000E+00 0.  1.
        -11   -1    0    0    0    0 -0.00000000000E+00 -0.00000000000E+00 -0.30000000000E+02  0.30000000000E+02  0.00000000000E+00 0. -1.
          5    1    1    2  501    0  0.19886618768E+02  0.20212226938E+02 -0.85964106570E+01  0.30000000000E+02  0.47000000000E+01 0.  1.
         -5    1    1    2    0  501 -0.19886618768E+02 -0.20212226938E+02  0.85964106570E+01  0.30000000000E+02  0.47000000000E+01 0. -1.
</event>
<event>
 4    1  0.7581446E-002  0.6000000E+02  0.7546771E-02  0.1259629E+00
         11   -1    0    0    0    0  0.00000000000E+00  0.00000000000E+00  0.30000000000E+02  0.30000000000E+02  0.00000000000E+00 0.  1.
        -11   -1    0    0    0    0 -0.00000000000E+00 -0.00000000000E+00 -0.30000000000E+02  0.30000000000E+02  0.00000000000E+00 0. -1.
          5    1    1    2  501    0 -0.76212078536E+01  0.78225107846E+01 -0.27543338866E+02  0.30000000000E+02  0.47000000000E+01 0. -1.
         -5    1    1    2    0  501  0.76212078536E+01 -0.78225107846E+01  0.27543338866E+02  0.30000000000E+02  0.47000000000E+01 0.  1.
</event>
<event>
 4    1  0.7581446E-002  0.6000000E+02  0.7546771E-02  0.1259629E+00
         11   -1    0    0    0    0  0.00000000000E+00  0.00000000000E+00  0.30000000000E+02  0.30000000000E+02  0.00000000000E+00 0. -1.
        -11   -1    0    0    0    0 -0.00000000000E+00 -0.00000000000E+00 -0.30000000000E+02  0.30000000000E+02  0.00000000000E+00 0.  1.
          5    1    1    2  501    0  0.28550990260E+02  0.66427064223E+01 -0.43157162260E+01  0.30000000000E+02  0.47000000000E+01 0.  1.
         -5    1    1    2    0  501 -0.28550990260E+02 -0.66427064223E+01  0.43157162260E+01  0.30000000000E+02  0.47000000000E+01 0. -1.
</event>
<event>
 4    1  0.7581446E-002  0.6000000E+02  0.7546771E-02  0.1259629E+00
         11   -1    0    0    0    0  0.00000000000E+00  0.00000000000E+00  0.30000000000E+02  0.30000000000E+02  0.00000000000E+00 0.  1.
        -11   -1    0    0    0    0 -0.00000000000E+00 -0.00000000000E+00 -0.30000000000E+02  0.30000000000E+02  0.00000000000E+00 0. -1.
          5    1    1    2  501    0 -0.23516879733E+02 -0.13501166462E+02 -0.11940890744E+02  0.30000000000E+02  0.47000000000E+01 0. -1.
         -5    1    1    2    0  501  0.23516879733E+02  0.13501166462E+02  0.11940890744E+02  0.30000000000E+02  0.47000000000E+01 0.  1.
</event>
<event>
 4    1  0.7581446E-002  0.6000000E+02  0.7546771E-02  0.1259629E+00
         11   -1    0    0    0    0  0.00000000000E+00  0.00000000000E+00  0.30000000000E+02  0.30000000000E+02  0.00000000000E+00 0. -1.
        -11   -1    0    0    0    0 -0.00000000000E+00 -0.00000000000E+00 -0.30000000000E+02  0.30000000000E+02  0.00000000000E+00 0.  1.
          5    1    1    2  501    0  0.11902329378E+01 -0.28211397056E+02 -0.89783306736E+01  0.30000000000E+02  0.47000000000E+01 0.  1.
         -5    1    1    2    0  501 -0.11902329378E+01  0.28211397056E+02  0.89783306736E+01  0.30000000000E+02  0.47000000000E+01 0. -1.
</event>
<event>
 4    1  0.7581446E-002  0.6000000E+02  0.7546771E-02  0.1259629E+00
         11   -1    0    0    0    0  0.00000000000E+00  0.00000000000E+00  0.30000000000E+02  0.30000000000E+02  0.00000000000E+00 0.  1.
        -11   -1    0    0    0    0 -0.00000000000E+00 -0.00000000000E+00 -0.30000000000E+02  0.30000000000E+02  0.00000000000E+00 0. -1.
          5    1    1    2  501    0 -0.20328410666E+02 -0.85455510814E+00 -0.21539160972E+02  0.30000000000E+02  0.47000000000E+01 0. -1.
         -5    1    1    2    0  501  0.20328410666E+02  0.85455510814E+00  0.21539160972E+02  0.30000000000E+02  0.47000000000E+01 0.  1.
</event>
<event>
 4    1  0.7581446E-002  0.6000000E+02  0.7546771E-02  0.1259629E+00
         11   -1    0    0    0    0  0.00000000000E+00  0.00000000000E+00  0.30000000000E+02  0.30000000000E+02  0.00000000000E+00 0.  1.
        -11   -1    0    0    0    0 -0.00000000000E+00 -0.00000000000E+00 -0.30000000000E+02  0.30000000000E+02  0.00000000000E+00 0. -1.
          5    1    1    2  501    0 -0.14777915960E+02  0.12060976930E+02 -0.22672803871E+02  0.30000000000E+02  0.47000000000E+01 0. -1.
         -5    1    1    2    0  501  0.14777915960E+02 -0.12060976930E+02  0.22672803871E+02  0.30000000000E+02  0.47000000000E+01 0.  1.
</event>
<event>
 4    1  0.7581446E-002  0.6000000E+02  0.7546771E-02  0.1259629E+00
         11   -1    0    0    0    0  0.00000000000E+00  0.00000000000E+00  0.30000000000E+02  0.30000000000E+02  0.00000000000E+00 0. -1.
        -11   -1    0    0    0    0 -0.00000000000E+00 -0.00000000000E+00 -0.30000000000E+02  0.30000000000E+02  0.00000000000E+00 0.  1.
          5    1    1    2  501    0  0.27601326878E+02 -0.95222813001E+01 -0.50401302993E+01  0.30000000000E+02  0.47000000000E+01 0.  1.
         -5    1    1    2    0  501 -0.27601326878E+02  0.95222813001E+01  0.50401302993E+01  0.30000000000E+02  0.47000000000E+01 0. -1.
</event>
<event>
 4    1  0.7581446E-002  0.6000000E+02  0.7546771E-02  0.1259629E+00
         11   -1    0    0    0    0  0.00000000000E+00  0.00000000000E+00  0.30000000000E+02  0.30000000000E+02  0.00000000000E+00 0. -1.
        -11   -1    0    0    0    0 -0.00000000000E+00 -0.00000000000E+00 -0.30000000000E+02  0.30000000000E+02  0.00000000000E+00 0.  1.
          5    1    1    2  501    0 -0.27008704720E+01 -0.20259057272E+02 -0.21451943902E+02  0.30000000000E+02  0.47000000000E+01 0.  1.
         -5    1    1    2    0  501  0.27008704720E+01  0.20259057272E+02  0.21451943902E+02  0.30000000000E+02  0.47000000000E+01 0. -1.
</event>
<event>
 4    1  0.7581446E-002  0.6000000E+02  0.7546771E-02  0.1259629E+00
         11   -1    0    0    0    0  0.00000000000E+00  0.00000000000E+00  0.30000000000E+02  0.30000000000E+02  0.00000000000E+00 0.  1.
        -11   -1    0    0    0    0 -0.00000000000E+00 -0.00000000000E+00 -0.30000000000E+02  0.30000000000E+02  0.00000000000E+00 0. -1.
          5    1    1    2  501    0  0.11623070799E+02 -0.24544545287E+02 -0.11848186437E+02  0.30000000000E+02  0.47000000000E+01 0. -1.
         -5    1    1    2    0  501 -0.11623070799E+02  0.24544545287E+02  0.11848186437E+02  0.30000000000E+02  0.47000000000E+01 0.  1.
</event>
<event>
 4    1  0.7581446E-002  0.6000000E+02  0.7546771E-02  0.1259629E+00
         11   -1    0    0    0    0  0.00000000000E+00  0.00000000000E+00  0.30000000000E+02  0.30000000000E+02  0.00000000000E+00 0.  1.
        -11   -1    0    0    0    0 -0.00000000000E+00 -0.00000000000E+00 -0.30000000000E+02  0.30000000000E+02  0.00000000000E+00 0. -1.
          5    1    1    2  501    0  0.15604752892E+01 -0.22392293142E+02  0.19340634031E+02  0.30000000000E+02  0.47000000000E+01 0.  1.
         -5    1    1    2    0  501 -0.15604752892E+01  0.22392293142E+02 -0.19340634031E+02  0.30000000000E+02  0.47000000000E+01 0. -1.
</event>
<event>
 4    1  0.7581446E-002  0.6000000E+02  0.7546771E-02  0.1259629E+00
         11   -1    0    0    0    0  0.00000000000E+00  0.00000000000E+00  0.30000000000E+02  0.30000000000E+02  0.00000000000E+00 0.  1.
        -11   -1    0    0    0    0 -0.00000000000E+00 -0.00000000000E+00 -0.30000000000E+02  0.30000000000E+02  0.00000000000E+00 0. -1.
          5    1    1    2  501    0  0.12386824722E+02 -0.25879167148E+02  0.73990054085E+01  0.30000000000E+02  0.47000000000E+01 0. -1.
         -5    1    1    2    0  501 -0.12386824722E+02  0.25879167148E+02 -0.73990054085E+01  0.30000000000E+02  0.47000000000E+01 0.  1.
</event>
<event>
 4    1  0.7581446E-002  0.6000000E+02  0.7546771E-02  0.1259629E+00
         11   -1    0    0    0    0  0.00000000000E+00  0.00000000000E+00  0.30000000000E+02  0.30000000000E+02  0.00000000000E+00 0.  1.
        -11   -1    0    0    0    0 -0.00000000000E+00 -0.00000000000E+00 -0.30000000000E+02  0.30000000000E+02  0.00000000000E+00 0. -1.
          5    1    1    2  501    0  0.49302100355E+01 -0.29214290545E+02 -0.35812980729E+00  0.30000000000E+02  0.47000000000E+01 0. -1.
         -5    1    1    2    0  501 -0.49302100355E+01  0.29214290545E+02  0.35812980729E+00  0.30000000000E+02  0.47000000000E+01 0.  1.
</event>
<event>
 4    1  0.7581446E-002  0.6000000E+02  0.7546771E-02  0.1259629E+00
         11   -1    0    0    0    0  0.00000000000E+00  0.00000000000E+00  0.30000000000E+02  0.30000000000E+02  0.00000000000E+00 0.  1.
        -11   -1    0    0    0    0 -0.00000000000E+00 -0.00000000000E+00 -0.30000000000E+02  0.30000000000E+02  0.00000000000E+00 0. -1.
          5    1    1    2  501    0 -0.15696478962E+02 -0.17874351632E+02 -0.17664600249E+02  0.30000000000E+02  0.47000000000E+01 0. -1.
         -5    1    1    2    0  501  0.15696478962E+02  0.17874351632E+02  0.17664600249E+02  0.30000000000E+02  0.47000000000E+01 0.  1.
</event>
<event>
 4    1  0.7581446E-002  0.6000000E+02  0.7546771E-02  0.1259629E+00
         11   -1    0    0    0    0  0.00000000000E+00  0.00000000000E+00  0.30000000000E+02  0.30000000000E+02  0.00000000000E+00 0.  1.
        -11   -1    0    0    0    0 -0.00000000000E+00 -0.00000000000E+00 -0.30000000000E+02  0.30000000000E+02  0.00000000000E+00 0. -1.
          5    1    1    2  501    0  0.23133962775E+02  0.17740408192E+02 -0.52922285950E+01  0.30000000000E+02  0.47000000000E+01 0. -1.
         -5    1    1    2    0  501 -0.23133962775E+02 -0.17740408192E+02  0.52922285950E+01  0.30000000000E+02  0.47000000000E+01 0.  1.
</event>
<event>
 4    1  0.7581446E-002  0.6000000E+02  0.7546771E-02  0.1259629E+00
         11   -1    0    0    0    0  0.00000000000E+00  0.00000000000E+00  0.30000000000E+02  0.30000000000E+02  0.00000000000E+00 0.  1.
        -11   -1    0    0    0    0 -0.00000000000E+00 -0.00000000000E+00 -0.30000000000E+02  0.30000000000E+02  0.00000000000E+00 0. -1.
          5    1    1    2  501    0 -0.16736023712E+02 -0.14553282949E+02 -0.19647327190E+02  0.30000000000E+02  0.47000000000E+01 0. -1.
         -5    1    1    2    0  501  0.16736023712E+02  0.14553282949E+02  0.19647327190E+02  0.30000000000E+02  0.47000000000E+01 0.  1.
</event>
<event>
 4    1  0.7581446E-002  0.6000000E+02  0.7546771E-02  0.1259629E+00
         11   -1    0    0    0    0  0.00000000000E+00  0.00000000000E+00  0.30000000000E+02  0.30000000000E+02  0.00000000000E+00 0.  1.
        -11   -1    0    0    0    0 -0.00000000000E+00 -0.00000000000E+00 -0.30000000000E+02  0.30000000000E+02  0.00000000000E+00 0. -1.
          5    1    1    2  501    0  0.52823545690E+01 -0.23826885914E+01 -0.29057348903E+02  0.30000000000E+02  0.47000000000E+01 0. -1.
         -5    1    1    2    0  501 -0.52823545690E+01  0.23826885914E+01  0.29057348903E+02  0.30000000000E+02  0.47000000000E+01 0.  1.
</event>
<event>
 4    1  0.7581446E-002  0.6000000E+02  0.7546771E-02  0.1259629E+00
         11   -1    0    0    0    0  0.00000000000E+00  0.00000000000E+00  0.30000000000E+02  0.30000000000E+02  0.00000000000E+00 0.  1.
        -11   -1    0    0    0    0 -0.00000000000E+00 -0.00000000000E+00 -0.30000000000E+02  0.30000000000E+02  0.00000000000E+00 0. -1.
          5    1    1    2  501    0 -0.50785847533E+01 -0.66344733658E+01 -0.28427130352E+02  0.30000000000E+02  0.47000000000E+01 0. -1.
         -5    1    1    2    0  501  0.50785847533E+01  0.66344733658E+01  0.28427130352E+02  0.30000000000E+02  0.47000000000E+01 0.  1.
</event>
<event>
 4    1  0.7581446E-002  0.6000000E+02  0.7546771E-02  0.1259629E+00
         11   -1    0    0    0    0  0.00000000000E+00  0.00000000000E+00  0.30000000000E+02  0.30000000000E+02  0.00000000000E+00 0. -1.
        -11   -1    0    0    0    0 -0.00000000000E+00 -0.00000000000E+00 -0.30000000000E+02  0.30000000000E+02  0.00000000000E+00 0.  1.
          5    1    1    2  501    0  0.41452320867E+01 -0.69954850479E+01 -0.28491932891E+02  0.30000000000E+02  0.47000000000E+01 0.  1.
         -5    1    1    2    0  501 -0.41452320867E+01  0.69954850479E+01  0.28491932891E+02  0.30000000000E+02  0.47000000000E+01 0. -1.
</event>
<event>
 4    1  0.7581446E-002  0.6000000E+02  0.7546771E-02  0.1259629E+00
         11   -1    0    0    0    0  0.00000000000E+00  0.00000000000E+00  0.30000000000E+02  0.30000000000E+02  0.00000000000E+00 0.  1.
        -11   -1    0    0    0    0 -0.00000000000E+00 -0.00000000000E+00 -0.30000000000E+02  0.30000000000E+02  0.00000000000E+00 0. -1.
          5    1    1    2  501    0  0.60944223274E+01  0.18623747458E+02 -0.22224402064E+02  0.30000000000E+02  0.47000000000E+01 0. -1.
         -5    1    1    2    0  501 -0.60944223274E+01 -0.18623747458E+02  0.22224402064E+02  0.30000000000E+02  0.47000000000E+01 0.  1.
</event>
<event>
 4    1  0.7581446E-002  0.6000000E+02  0.7546771E-02  0.1259629E+00
         11   -1    0    0    0    0  0.00000000000E+00  0.00000000000E+00  0.30000000000E+02  0.30000000000E+02  0.00000000000E+00 0.  1.
        -11   -1    0    0    0    0 -0.00000000000E+00 -0.00000000000E+00 -0.30000000000E+02  0.30000000000E+02  0.00000000000E+00 0. -1.
          5    1    1    2  501    0 -0.25831340721E+02  0.11759058823E+02  0.85074304092E+01  0.30000000000E+02  0.47000000000E+01 0. -1.
         -5    1    1    2    0  501  0.25831340721E+02 -0.11759058823E+02 -0.85074304092E+01  0.30000000000E+02  0.47000000000E+01 0.  1.
</event>
<event>
 4    1  0.7581446E-002  0.6000000E+02  0.7546771E-02  0.1259629E+00
         11   -1    0    0    0    0  0.00000000000E+00  0.00000000000E+00  0.30000000000E+02  0.30000000000E+02  0.00000000000E+00 0. -1.
        -11   -1    0    0    0    0 -0.00000000000E+00 -0.00000000000E+00 -0.30000000000E+02  0.30000000000E+02  0.00000000000E+00 0.  1.
          5    1    1    2  501    0 -0.31464877520E+01  0.18621210493E+02 -0.22831122062E+02  0.30000000000E+02  0.47000000000E+01 0.  1.
         -5    1    1    2    0  501  0.31464877520E+01 -0.18621210493E+02  0.22831122062E+02  0.30000000000E+02  0.47000000000E+01 0. -1.
</event>
<event>
 4    1  0.7581446E-002  0.6000000E+02  0.7546771E-02  0.1259629E+00
         11   -1    0    0    0    0  0.00000000000E+00  0.00000000000E+00  0.30000000000E+02  0.30000000000E+02  0.00000000000E+00 0.  1.
        -11   -1    0    0    0    0 -0.00000000000E+00 -0.00000000000E+00 -0.30000000000E+02  0.30000000000E+02  0.00000000000E+00 0. -1.
          5    1    1    2  501    0  0.15015097105E+02 -0.68614968988E+00 -0.25534017653E+02  0.30000000000E+02  0.47000000000E+01 0. -1.
         -5    1    1    2    0  501 -0.15015097105E+02  0.68614968988E+00  0.25534017653E+02  0.30000000000E+02  0.47000000000E+01 0.  1.
</event>
<event>
 4    1  0.7581446E-002  0.6000000E+02  0.7546771E-02  0.1259629E+00
         11   -1    0    0    0    0  0.00000000000E+00  0.00000000000E+00  0.30000000000E+02  0.30000000000E+02  0.00000000000E+00 0.  1.
        -11   -1    0    0    0    0 -0.00000000000E+00 -0.00000000000E+00 -0.30000000000E+02  0.30000000000E+02  0.00000000000E+00 0. -1.
          5    1    1    2  501    0 -0.77772432438E+01  0.19350816904E+02  0.21046861350E+02  0.30000000000E+02  0.47000000000E+01 0. -1.
         -5    1    1    2    0  501  0.77772432438E+01 -0.19350816904E+02 -0.21046861350E+02  0.30000000000E+02  0.47000000000E+01 0.  1.
</event>
<event>
 4    1  0.7581446E-002  0.6000000E+02  0.7546771E-02  0.1259629E+00
         11   -1    0    0    0    0  0.00000000000E+00  0.00000000000E+00  0.30000000000E+02  0.30000000000E+02  0.00000000000E+00 0. -1.
        -11   -1    0    0    0    0 -0.00000000000E+00 -0.00000000000E+00 -0.30000000000E+02  0.30000000000E+02  0.00000000000E+00 0.  1.
          5    1    1    2  501    0 -0.51301266819E+01  0.11965558109E+02 -0.26616108268E+02  0.30000000000E+02  0.47000000000E+01 0.  1.
         -5    1    1    2    0  501  0.51301266819E+01 -0.11965558109E+02  0.26616108268E+02  0.30000000000E+02  0.47000000000E+01 0. -1.
</event>
<event>
 4    1  0.7581446E-002  0.6000000E+02  0.7546771E-02  0.1259629E+00
         11   -1    0    0    0    0  0.00000000000E+00  0.00000000000E+00  0.30000000000E+02  0.30000000000E+02  0.00000000000E+00 0.  1.
        -11   -1    0    0    0    0 -0.00000000000E+00 -0.00000000000E+00 -0.30000000000E+02  0.30000000000E+02  0.00000000000E+00 0. -1.
          5    1    1    2  501    0  0.55437313113E+01 -0.63248975617E+01 -0.28410785170E+02  0.30000000000E+02  0.47000000000E+01 0. -1.
         -5    1    1    2    0  501 -0.55437313113E+01  0.63248975617E+01  0.28410785170E+02  0.30000000000E+02  0.47000000000E+01 0.  1.
</event>
<event>
 4    1  0.7581446E-002  0.6000000E+02  0.7546771E-02  0.1259629E+00
         11   -1    0    0    0    0  0.00000000000E+00  0.00000000000E+00  0.30000000000E+02  0.30000000000E+02  0.00000000000E+00 0. -1.
        -11   -1    0    0    0    0 -0.00000000000E+00 -0.00000000000E+00 -0.30000000000E+02  0.30000000000E+02  0.00000000000E+00 0.  1.
          5    1    1    2  501    0 -0.15078711783E+02 -0.30716940253E+00 -0.25503883977E+02  0.30000000000E+02  0.47000000000E+01 0.  1.
         -5    1    1    2    0  501  0.15078711783E+02  0.30716940253E+00  0.25503883977E+02  0.30000000000E+02  0.47000000000E+01 0. -1.
</event>
<event>
 4    1  0.7581446E-002  0.6000000E+02  0.7546771E-02  0.1259629E+00
         11   -1    0    0    0    0  0.00000000000E+00  0.00000000000E+00  0.30000000000E+02  0.30000000000E+02  0.00000000000E+00 0. -1.
        -11   -1    0    0    0    0 -0.00000000000E+00 -0.00000000000E+00 -0.30000000000E+02  0.30000000000E+02  0.00000000000E+00 0.  1.
          5    1    1    2  501    0 -0.37546320318E+01 -0.10116464249E+02  0.27594743873E+02  0.30000000000E+02  0.47000000000E+01 0. -1.
         -5    1    1    2    0  501  0.37546320318E+01  0.10116464249E+02 -0.27594743873E+02  0.30000000000E+02  0.47000000000E+01 0.  1.
</event>
<event>
 4    1  0.7581446E-002  0.6000000E+02  0.7546771E-02  0.1259629E+00
         11   -1    0    0    0    0  0.00000000000E+00  0.00000000000E+00  0.30000000000E+02  0.30000000000E+02  0.00000000000E+00 0.  1.
        -11   -1    0    0    0    0 -0.00000000000E+00 -0.00000000000E+00 -0.30000000000E+02  0.30000000000E+02  0.00000000000E+00 0. -1.
          5    1    1    2  501    0  0.13234812124E+02 -0.16572953153E+02  0.20690262730E+02  0.30000000000E+02  0.47000000000E+01 0.  1.
         -5    1    1    2    0  501 -0.13234812124E+02  0.16572953153E+02 -0.20690262730E+02  0.30000000000E+02  0.47000000000E+01 0. -1.
</event>
<event>
 4    1  0.7581446E-002  0.6000000E+02  0.7546771E-02  0.1259629E+00
         11   -1    0    0    0    0  0.00000000000E+00  0.00000000000E+00  0.30000000000E+02  0.30000000000E+02  0.00000000000E+00 0.  1.
        -11   -1    0    0    0    0 -0.00000000000E+00 -0.00000000000E+00 -0.30000000000E+02  0.30000000000E+02  0.00000000000E+00 0. -1.
          5    1    1    2  501    0 -0.80305464440E+01 -0.82333408465E+01 -0.27306270751E+02  0.30000000000E+02  0.47000000000E+01 0. -1.
         -5    1    1    2    0  501  0.80305464440E+01  0.82333408465E+01  0.27306270751E+02  0.30000000000E+02  0.47000000000E+01 0.  1.
</event>
<event>
 4    1  0.7581446E-002  0.6000000E+02  0.7546771E-02  0.1259629E+00
         11   -1    0    0    0    0  0.00000000000E+00  0.00000000000E+00  0.30000000000E+02  0.30000000000E+02  0.00000000000E+00 0.  1.
        -11   -1    0    0    0    0 -0.00000000000E+00 -0.00000000000E+00 -0.30000000000E+02  0.30000000000E+02  0.00000000000E+00 0. -1.
          5    1    1    2  501    0  0.17711763892E+02 -0.23548284057E+02 -0.31115490981E+01  0.30000000000E+02  0.47000000000E+01 0. -1.
         -5    1    1    2    0  501 -0.17711763892E+02  0.23548284057E+02  0.31115490981E+01  0.30000000000E+02  0.47000000000E+01 0.  1.
</event>
<event>
 4    1  0.7581446E-002  0.6000000E+02  0.7546771E-02  0.1259629E+00
         11   -1    0    0    0    0  0.00000000000E+00  0.00000000000E+00  0.30000000000E+02  0.30000000000E+02  0.00000000000E+00 0.  1.
        -11   -1    0    0    0    0 -0.00000000000E+00 -0.00000000000E+00 -0.30000000000E+02  0.30000000000E+02  0.00000000000E+00 0. -1.
          5    1    1    2  501    0  0.17887978855E+02  0.20161304218E+01 -0.23534345765E+02  0.30000000000E+02  0.47000000000E+01 0. -1.
         -5    1    1    2    0  501 -0.17887978855E+02 -0.20161304218E+01  0.23534345765E+02  0.30000000000E+02  0.47000000000E+01 0.  1.
</event>
<event>
 4    1  0.7581446E-002  0.6000000E+02  0.7546771E-02  0.1259629E+00
         11   -1    0    0    0    0  0.00000000000E+00  0.00000000000E+00  0.30000000000E+02  0.30000000000E+02  0.00000000000E+00 0.  1.
        -11   -1    0    0    0    0 -0.00000000000E+00 -0.00000000000E+00 -0.30000000000E+02  0.30000000000E+02  0.00000000000E+00 0. -1.
          5    1    1    2  501    0 -0.28844489606E+02  0.29397646528E+01  0.61043593562E+01  0.30000000000E+02  0.47000000000E+01 0.  1.
         -5    1    1    2    0  501  0.28844489606E+02 -0.29397646528E+01 -0.61043593562E+01  0.30000000000E+02  0.47000000000E+01 0. -1.
</event>
<event>
 4    1  0.7581446E-002  0.6000000E+02  0.7546771E-02  0.1259629E+00
         11   -1    0    0    0    0  0.00000000000E+00  0.00000000000E+00  0.30000000000E+02  0.30000000000E+02  0.00000000000E+00 0.  1.
        -11   -1    0    0    0    0 -0.00000000000E+00 -0.00000000000E+00 -0.30000000000E+02  0.30000000000E+02  0.00000000000E+00 0. -1.
          5    1    1    2  501    0  0.25896697530E+02 -0.58759095401E+01 -0.13143239483E+02  0.30000000000E+02  0.47000000000E+01 0. -1.
         -5    1    1    2    0  501 -0.25896697530E+02  0.58759095401E+01  0.13143239483E+02  0.30000000000E+02  0.47000000000E+01 0.  1.
</event>
<event>
 4    1  0.7581446E-002  0.6000000E+02  0.7546771E-02  0.1259629E+00
         11   -1    0    0    0    0  0.00000000000E+00  0.00000000000E+00  0.30000000000E+02  0.30000000000E+02  0.00000000000E+00 0.  1.
        -11   -1    0    0    0    0 -0.00000000000E+00 -0.00000000000E+00 -0.30000000000E+02  0.30000000000E+02  0.00000000000E+00 0. -1.
          5    1    1    2  501    0  0.64234747984E+01  0.28803444063E+02 -0.26477502943E+01  0.30000000000E+02  0.47000000000E+01 0. -1.
         -5    1    1    2    0  501 -0.64234747984E+01 -0.28803444063E+02  0.26477502943E+01  0.30000000000E+02  0.47000000000E+01 0.  1.
</event>
<event>
 4    1  0.7581446E-002  0.6000000E+02  0.7546771E-02  0.1259629E+00
         11   -1    0    0    0    0  0.00000000000E+00  0.00000000000E+00  0.30000000000E+02  0.30000000000E+02  0.00000000000E+00 0. -1.
        -11   -1    0    0    0    0 -0.00000000000E+00 -0.00000000000E+00 -0.30000000000E+02  0.30000000000E+02  0.00000000000E+00 0.  1.
          5    1    1    2  501    0  0.57981879235E+01 -0.38011531250E+00  0.29054199854E+02  0.30000000000E+02  0.47000000000E+01 0. -1.
         -5    1    1    2    0  501 -0.57981879235E+01  0.38011531250E+00 -0.29054199854E+02  0.30000000000E+02  0.47000000000E+01 0.  1.
</event>
<event>
 4    1  0.7581446E-002  0.6000000E+02  0.7546771E-02  0.1259629E+00
         11   -1    0    0    0    0  0.00000000000E+00  0.00000000000E+00  0.30000000000E+02  0.30000000000E+02  0.00000000000E+00 0.  1.
        -11   -1    0    0    0    0 -0.00000000000E+00 -0.00000000000E+00 -0.30000000000E+02  0.30000000000E+02  0.00000000000E+00 0. -1.
          5    1    1    2  501    0  0.28541917381E+02  0.20028968115E+01 -0.76978800042E+01  0.30000000000E+02  0.47000000000E+01 0. -1.
         -5    1    1    2    0  501 -0.28541917381E+02 -0.20028968115E+01  0.76978800042E+01  0.30000000000E+02  0.47000000000E+01 0.  1.
</event>
<event>
 4    1  0.7581446E-002  0.6000000E+02  0.7546771E-02  0.1259629E+00
         11   -1    0    0    0    0  0.00000000000E+00  0.00000000000E+00  0.30000000000E+02  0.30000000000E+02  0.00000000000E+00 0. -1.
        -11   -1    0    0    0    0 -0.00000000000E+00 -0.00000000000E+00 -0.30000000000E+02  0.30000000000E+02  0.00000000000E+00 0.  1.
          5    1    1    2  501    0  0.11483901761E+02 -0.15781201169E+02 -0.22293131005E+02  0.30000000000E+02  0.47000000000E+01 0.  1.
         -5    1    1    2    0  501 -0.11483901761E+02  0.15781201169E+02  0.22293131005E+02  0.30000000000E+02  0.47000000000E+01 0. -1.
</event>
<event>
 4    1  0.7581446E-002  0.6000000E+02  0.7546771E-02  0.1259629E+00
         11   -1    0    0    0    0  0.00000000000E+00  0.00000000000E+00  0.30000000000E+02  0.30000000000E+02  0.00000000000E+00 0.  1.
        -11   -1    0    0    0    0 -0.00000000000E+00 -0.00000000000E+00 -0.30000000000E+02  0.30000000000E+02  0.00000000000E+00 0. -1.
          5    1    1    2  501    0  0.29283200457E+02  0.27150968065E+01 -0.36100443690E+01  0.30000000000E+02  0.47000000000E+01 0. -1.
         -5    1    1    2    0  501 -0.29283200457E+02 -0.27150968065E+01  0.36100443690E+01  0.30000000000E+02  0.47000000000E+01 0.  1.
</event>
<event>
 4    1  0.7581446E-002  0.6000000E+02  0.7546771E-02  0.1259629E+00
         11   -1    0    0    0    0  0.00000000000E+00  0.00000000000E+00  0.30000000000E+02  0.30000000000E+02  0.00000000000E+00 0. -1.
        -11   -1    0    0    0    0 -0.00000000000E+00 -0.00000000000E+00 -0.30000000000E+02  0.30000000000E+02  0.00000000000E+00 0.  1.
          5    1    1    2  501    0  0.13951103463E+01  0.58694615609E+01 -0.29008844998E+02  0.30000000000E+02  0.47000000000E+01 0.  1.
         -5    1    1    2    0  501 -0.13951103463E+01 -0.58694615609E+01  0.29008844998E+02  0.30000000000E+02  0.47000000000E+01 0. -1.
</event>
<event>
 4    1  0.7581446E-002  0.6000000E+02  0.7546771E-02  0.1259629E+00
         11   -1    0    0    0    0  0.00000000000E+00  0.00000000000E+00  0.30000000000E+02  0.30000000000E+02  0.00000000000E+00 0.  1.
        -11   -1    0    0    0    0 -0.00000000000E+00 -0.00000000000E+00 -0.30000000000E+02  0.30000000000E+02  0.00000000000E+00 0. -1.
          5    1    1    2  501    0 -0.23356345043E+02  0.17540030862E+02 -0.49737775963E+01  0.30000000000E+02  0.47000000000E+01 0. -1.
         -5    1    1    2    0  501  0.23356345043E+02 -0.17540030862E+02  0.49737775963E+01  0.30000000000E+02  0.47000000000E+01 0.  1.
</event>
<event>
 4    1  0.7581446E-002  0.6000000E+02  0.7546771E-02  0.1259629E+00
         11   -1    0    0    0    0  0.00000000000E+00  0.00000000000E+00  0.30000000000E+02  0.30000000000E+02  0.00000000000E+00 0.  1.
        -11   -1    0    0    0    0 -0.00000000000E+00 -0.00000000000E+00 -0.30000000000E+02  0.30000000000E+02  0.00000000000E+00 0. -1.
          5    1    1    2  501    0  0.68808066295E+01 -0.24865627636E+02 -0.14569319216E+02  0.30000000000E+02  0.47000000000E+01 0. -1.
         -5    1    1    2    0  501 -0.68808066295E+01  0.24865627636E+02  0.14569319216E+02  0.30000000000E+02  0.47000000000E+01 0.  1.
</event>
<event>
 4    1  0.7581446E-002  0.6000000E+02  0.7546771E-02  0.1259629E+00
         11   -1    0    0    0    0  0.00000000000E+00  0.00000000000E+00  0.30000000000E+02  0.30000000000E+02  0.00000000000E+00 0.  1.
        -11   -1    0    0    0    0 -0.00000000000E+00 -0.00000000000E+00 -0.30000000000E+02  0.30000000000E+02  0.00000000000E+00 0. -1.
          5    1    1    2  501    0  0.11110926628E+02 -0.17912659078E+02 -0.20822918965E+02  0.30000000000E+02  0.47000000000E+01 0. -1.
         -5    1    1    2    0  501 -0.11110926628E+02  0.17912659078E+02  0.20822918965E+02  0.30000000000E+02  0.47000000000E+01 0.  1.
</event>
<event>
 4    1  0.7581446E-002  0.6000000E+02  0.7546771E-02  0.1259629E+00
         11   -1    0    0    0    0  0.00000000000E+00  0.00000000000E+00  0.30000000000E+02  0.30000000000E+02  0.00000000000E+00 0.  1.
        -11   -1    0    0    0    0 -0.00000000000E+00 -0.00000000000E+00 -0.30000000000E+02  0.30000000000E+02  0.00000000000E+00 0. -1.
          5    1    1    2  501    0 -0.11364406424E+02  0.80296996702E+01  0.26158826232E+02  0.30000000000E+02  0.47000000000E+01 0.  1.
         -5    1    1    2    0  501  0.11364406424E+02 -0.80296996702E+01 -0.26158826232E+02  0.30000000000E+02  0.47000000000E+01 0. -1.
</event>
<event>
 4    1  0.7581446E-002  0.6000000E+02  0.7546771E-02  0.1259629E+00
         11   -1    0    0    0    0  0.00000000000E+00  0.00000000000E+00  0.30000000000E+02  0.30000000000E+02  0.00000000000E+00 0.  1.
        -11   -1    0    0    0    0 -0.00000000000E+00 -0.00000000000E+00 -0.30000000000E+02  0.30000000000E+02  0.00000000000E+00 0. -1.
          5    1    1    2  501    0  0.17234992408E+02 -0.12090308394E+02 -0.20849208129E+02  0.30000000000E+02  0.47000000000E+01 0. -1.
         -5    1    1    2    0  501 -0.17234992408E+02  0.12090308394E+02  0.20849208129E+02  0.30000000000E+02  0.47000000000E+01 0.  1.
</event>
<event>
 4    1  0.7581446E-002  0.6000000E+02  0.7546771E-02  0.1259629E+00
         11   -1    0    0    0    0  0.00000000000E+00  0.00000000000E+00  0.30000000000E+02  0.30000000000E+02  0.00000000000E+00 0.  1.
        -11   -1    0    0    0    0 -0.00000000000E+00 -0.00000000000E+00 -0.30000000000E+02  0.30000000000E+02  0.00000000000E+00 0. -1.
          5    1    1    2  501    0  0.23125150197E+02 -0.14907382039E+02 -0.10995789609E+02  0.30000000000E+02  0.47000000000E+01 0. -1.
         -5    1    1    2    0  501 -0.23125150197E+02  0.14907382039E+02  0.10995789609E+02  0.30000000000E+02  0.47000000000E+01 0.  1.
</event>
<event>
 4    1  0.7581446E-002  0.6000000E+02  0.7546771E-02  0.1259629E+00
         11   -1    0    0    0    0  0.00000000000E+00  0.00000000000E+00  0.30000000000E+02  0.30000000000E+02  0.00000000000E+00 0.  1.
        -11   -1    0    0    0    0 -0.00000000000E+00 -0.00000000000E+00 -0.30000000000E+02  0.30000000000E+02  0.00000000000E+00 0. -1.
          5    1    1    2  501    0  0.27836383032E+02  0.10078843980E+02 -0.12094146302E+01  0.30000000000E+02  0.47000000000E+01 0. -1.
         -5    1    1    2    0  501 -0.27836383032E+02 -0.10078843980E+02  0.12094146302E+01  0.30000000000E+02  0.47000000000E+01 0.  1.
</event>
<event>
 4    1  0.7581446E-002  0.6000000E+02  0.7546771E-02  0.1259629E+00
         11   -1    0    0    0    0  0.00000000000E+00  0.00000000000E+00  0.30000000000E+02  0.30000000000E+02  0.00000000000E+00 0. -1.
        -11   -1    0    0    0    0 -0.00000000000E+00 -0.00000000000E+00 -0.30000000000E+02  0.30000000000E+02  0.00000000000E+00 0.  1.
          5    1    1    2  501    0  0.55860272250E+01  0.27753211293E+02 -0.87444589750E+01  0.30000000000E+02  0.47000000000E+01 0.  1.
         -5    1    1    2    0  501 -0.55860272250E+01 -0.27753211293E+02  0.87444589750E+01  0.30000000000E+02  0.47000000000E+01 0. -1.
</event>
<event>
 4    1  0.7581446E-002  0.6000000E+02  0.7546771E-02  0.1259629E+00
         11   -1    0    0    0    0  0.00000000000E+00  0.00000000000E+00  0.30000000000E+02  0.30000000000E+02  0.00000000000E+00 0.  1.
        -11   -1    0    0    0    0 -0.00000000000E+00 -0.00000000000E+00 -0.30000000000E+02  0.30000000000E+02  0.00000000000E+00 0. -1.
          5    1    1    2  501    0  0.19392153907E+02 -0.22015406646E+02 -0.41444224054E+01  0.30000000000E+02  0.47000000000E+01 0. -1.
         -5    1    1    2    0  501 -0.19392153907E+02  0.22015406646E+02  0.41444224054E+01  0.30000000000E+02  0.47000000000E+01 0.  1.
</event>
<event>
 4    1  0.7581446E-002  0.6000000E+02  0.7546771E-02  0.1259629E+00
         11   -1    0    0    0    0  0.00000000000E+00  0.00000000000E+00  0.30000000000E+02  0.30000000000E+02  0.00000000000E+00 0.  1.
        -11   -1    0    0    0    0 -0.00000000000E+00 -0.00000000000E+00 -0.30000000000E+02  0.30000000000E+02  0.00000000000E+00 0. -1.
          5    1    1    2  501    0  0.11932617021E+02  0.15737186621E+02 -0.22087634737E+02  0.30000000000E+02  0.47000000000E+01 0. -1.
         -5    1    1    2    0  501 -0.11932617021E+02 -0.15737186621E+02  0.22087634737E+02  0.30000000000E+02  0.47000000000E+01 0.  1.
</event>
<event>
 4    1  0.7581446E-002  0.6000000E+02  0.7546771E-02  0.1259629E+00
         11   -1    0    0    0    0  0.00000000000E+00  0.00000000000E+00  0.30000000000E+02  0.30000000000E+02  0.00000000000E+00 0.  1.
        -11   -1    0    0    0    0 -0.00000000000E+00 -0.00000000000E+00 -0.30000000000E+02  0.30000000000E+02  0.00000000000E+00 0. -1.
          5    1    1    2  501    0  0.45996278875E+01 -0.89236370143E+00 -0.29256744698E+02  0.30000000000E+02  0.47000000000E+01 0. -1.
         -5    1    1    2    0  501 -0.45996278875E+01  0.89236370143E+00  0.29256744698E+02  0.30000000000E+02  0.47000000000E+01 0.  1.
</event>
<event>
 4    1  0.7581446E-002  0.6000000E+02  0.7546771E-02  0.1259629E+00
         11   -1    0    0    0    0  0.00000000000E+00  0.00000000000E+00  0.30000000000E+02  0.30000000000E+02  0.00000000000E+00 0.  1.
        -11   -1    0    0    0    0 -0.00000000000E+00 -0.00000000000E+00 -0.30000000000E+02  0.30000000000E+02  0.00000000000E+00 0. -1.
          5    1    1    2  501    0 -0.99496554184E+01  0.27461429882E+02  0.49783758289E+01  0.30000000000E+02  0.47000000000E+01 0. -1.
         -5    1    1    2    0  501  0.99496554184E+01 -0.27461429882E+02 -0.49783758289E+01  0.30000000000E+02  0.47000000000E+01 0.  1.
</event>
<event>
 4    1  0.7581446E-002  0.6000000E+02  0.7546771E-02  0.1259629E+00
         11   -1    0    0    0    0  0.00000000000E+00  0.00000000000E+00  0.30000000000E+02  0.30000000000E+02  0.00000000000E+00 0.  1.
        -11   -1    0    0    0    0 -0.00000000000E+00 -0.00000000000E+00 -0.30000000000E+02  0.30000000000E+02  0.00000000000E+00 0. -1.
          5    1    1    2  501    0  0.53509696195E+01  0.28572121553E+02 -0.57368104448E+01  0.30000000000E+02  0.47000000000E+01 0. -1.
         -5    1    1    2    0  501 -0.53509696195E+01 -0.28572121553E+02  0.57368104448E+01  0.30000000000E+02  0.47000000000E+01 0.  1.
</event>
<event>
 4    1  0.7581446E-002  0.6000000E+02  0.7546771E-02  0.1259629E+00
         11   -1    0    0    0    0  0.00000000000E+00  0.00000000000E+00  0.30000000000E+02  0.30000000000E+02  0.00000000000E+00 0. -1.
        -11   -1    0    0    0    0 -0.00000000000E+00 -0.00000000000E+00 -0.30000000000E+02  0.30000000000E+02  0.00000000000E+00 0.  1.
          5    1    1    2  501    0 -0.12694414004E+02 -0.26468217252E+02  0.40243420114E+01  0.30000000000E+02  0.47000000000E+01 0. -1.
         -5    1    1    2    0  501  0.12694414004E+02  0.26468217252E+02 -0.40243420114E+01  0.30000000000E+02  0.47000000000E+01 0.  1.
</event>
<event>
 4    1  0.7581446E-002  0.6000000E+02  0.7546771E-02  0.1259629E+00
         11   -1    0    0    0    0  0.00000000000E+00  0.00000000000E+00  0.30000000000E+02  0.30000000000E+02  0.00000000000E+00 0.  1.
        -11   -1    0    0    0    0 -0.00000000000E+00 -0.00000000000E+00 -0.30000000000E+02  0.30000000000E+02  0.00000000000E+00 0. -1.
          5    1    1    2  501    0  0.94340855725E+01 -0.94985014508E+01 -0.26432678631E+02  0.30000000000E+02  0.47000000000E+01 0. -1.
         -5    1    1    2    0  501 -0.94340855725E+01  0.94985014508E+01  0.26432678631E+02  0.30000000000E+02  0.47000000000E+01 0.  1.
</event>
<event>
 4    1  0.7581446E-002  0.6000000E+02  0.7546771E-02  0.1259629E+00
         11   -1    0    0    0    0  0.00000000000E+00  0.00000000000E+00  0.30000000000E+02  0.30000000000E+02  0.00000000000E+00 0.  1.
        -11   -1    0    0    0    0 -0.00000000000E+00 -0.00000000000E+00 -0.30000000000E+02  0.30000000000E+02  0.00000000000E+00 0. -1.
          5    1    1    2  501    0  0.25798382733E+02  0.11760466090E+02  0.86049337992E+01  0.30000000000E+02  0.47000000000E+01 0. -1.
         -5    1    1    2    0  501 -0.25798382733E+02 -0.11760466090E+02 -0.86049337992E+01  0.30000000000E+02  0.47000000000E+01 0.  1.
</event>
<event>
 4    1  0.7581446E-002  0.6000000E+02  0.7546771E-02  0.1259629E+00
         11   -1    0    0    0    0  0.00000000000E+00  0.00000000000E+00  0.30000000000E+02  0.30000000000E+02  0.00000000000E+00 0.  1.
        -11   -1    0    0    0    0 -0.00000000000E+00 -0.00000000000E+00 -0.30000000000E+02  0.30000000000E+02  0.00000000000E+00 0. -1.
          5    1    1    2  501    0  0.13713610333E+02 -0.86468280472E+01 -0.24800791446E+02  0.30000000000E+02  0.47000000000E+01 0. -1.
         -5    1    1    2    0  501 -0.13713610333E+02  0.86468280472E+01  0.24800791446E+02  0.30000000000E+02  0.47000000000E+01 0.  1.
</event>
<event>
 4    1  0.7581446E-002  0.6000000E+02  0.7546771E-02  0.1259629E+00
         11   -1    0    0    0    0  0.00000000000E+00  0.00000000000E+00  0.30000000000E+02  0.30000000000E+02  0.00000000000E+00 0.  1.
        -11   -1    0    0    0    0 -0.00000000000E+00 -0.00000000000E+00 -0.30000000000E+02  0.30000000000E+02  0.00000000000E+00 0. -1.
          5    1    1    2  501    0 -0.14299844888E+01  0.16503762909E+02 -0.24566052882E+02  0.30000000000E+02  0.47000000000E+01 0. -1.
         -5    1    1    2    0  501  0.14299844888E+01 -0.16503762909E+02  0.24566052882E+02  0.30000000000E+02  0.47000000000E+01 0.  1.
</event>
<event>
 4    1  0.7581446E-002  0.6000000E+02  0.7546771E-02  0.1259629E+00
         11   -1    0    0    0    0  0.00000000000E+00  0.00000000000E+00  0.30000000000E+02  0.30000000000E+02  0.00000000000E+00 0. -1.
        -11   -1    0    0    0    0 -0.00000000000E+00 -0.00000000000E+00 -0.30000000000E+02  0.30000000000E+02  0.00000000000E+00 0.  1.
          5    1    1    2  501    0 -0.23851146035E+02  0.50324125374E+01 -0.16843623627E+02  0.30000000000E+02  0.47000000000E+01 0.  1.
         -5    1    1    2    0  501  0.23851146035E+02 -0.50324125374E+01  0.16843623627E+02  0.30000000000E+02  0.47000000000E+01 0. -1.
</event>
<event>
 4    1  0.7581446E-002  0.6000000E+02  0.7546771E-02  0.1259629E+00
         11   -1    0    0    0    0  0.00000000000E+00  0.00000000000E+00  0.30000000000E+02  0.30000000000E+02  0.00000000000E+00 0.  1.
        -11   -1    0    0    0    0 -0.00000000000E+00 -0.00000000000E+00 -0.30000000000E+02  0.30000000000E+02  0.00000000000E+00 0. -1.
          5    1    1    2  501    0 -0.13683400506E+02 -0.15457914913E+02 -0.21253880049E+02  0.30000000000E+02  0.47000000000E+01 0. -1.
         -5    1    1    2    0  501  0.13683400506E+02  0.15457914913E+02  0.21253880049E+02  0.30000000000E+02  0.47000000000E+01 0.  1.
</event>
<event>
 4    1  0.7581446E-002  0.6000000E+02  0.7546771E-02  0.1259629E+00
         11   -1    0    0    0    0  0.00000000000E+00  0.00000000000E+00  0.30000000000E+02  0.30000000000E+02  0.00000000000E+00 0.  1.
        -11   -1    0    0    0    0 -0.00000000000E+00 -0.00000000000E+00 -0.30000000000E+02  0.30000000000E+02  0.00000000000E+00 0. -1.
          5    1    1    2  501    0 -0.85670258949E+01 -0.25582904981E+02 -0.12248715854E+02  0.30000000000E+02  0.47000000000E+01 0. -1.
         -5    1    1    2    0  501  0.85670258949E+01  0.25582904981E+02  0.12248715854E+02  0.30000000000E+02  0.47000000000E+01 0.  1.
</event>
<event>
 4    1  0.7581446E-002  0.6000000E+02  0.7546771E-02  0.1259629E+00
         11   -1    0    0    0    0  0.00000000000E+00  0.00000000000E+00  0.30000000000E+02  0.30000000000E+02  0.00000000000E+00 0. -1.
        -11   -1    0    0    0    0 -0.00000000000E+00 -0.00000000000E+00 -0.30000000000E+02  0.30000000000E+02  0.00000000000E+00 0.  1.
          5    1    1    2  501    0 -0.27013151564E+02 -0.92942739439E+00  0.12138196212E+02  0.30000000000E+02  0.47000000000E+01 0.  1.
         -5    1    1    2    0  501  0.27013151564E+02  0.92942739439E+00 -0.12138196212E+02  0.30000000000E+02  0.47000000000E+01 0. -1.
</event>
<event>
 4    1  0.7581446E-002  0.6000000E+02  0.7546771E-02  0.1259629E+00
         11   -1    0    0    0    0  0.00000000000E+00  0.00000000000E+00  0.30000000000E+02  0.30000000000E+02  0.00000000000E+00 0.  1.
        -11   -1    0    0    0    0 -0.00000000000E+00 -0.00000000000E+00 -0.30000000000E+02  0.30000000000E+02  0.00000000000E+00 0. -1.
          5    1    1    2  501    0  0.11918128673E+02 -0.27234980081E+01 -0.26989827112E+02  0.30000000000E+02  0.47000000000E+01 0. -1.
         -5    1    1    2    0  501 -0.11918128673E+02  0.27234980081E+01  0.26989827112E+02  0.30000000000E+02  0.47000000000E+01 0.  1.
</event>
<event>
 4    1  0.7581446E-002  0.6000000E+02  0.7546771E-02  0.1259629E+00
         11   -1    0    0    0    0  0.00000000000E+00  0.00000000000E+00  0.30000000000E+02  0.30000000000E+02  0.00000000000E+00 0. -1.
        -11   -1    0    0    0    0 -0.00000000000E+00 -0.00000000000E+00 -0.30000000000E+02  0.30000000000E+02  0.00000000000E+00 0.  1.
          5    1    1    2  501    0  0.39088062186E+00 -0.26698778163E+02  0.12842603201E+02  0.30000000000E+02  0.47000000000E+01 0. -1.
         -5    1    1    2    0  501 -0.39088062186E+00  0.26698778163E+02 -0.12842603201E+02  0.30000000000E+02  0.47000000000E+01 0.  1.
</event>
<event>
 4    1  0.7581446E-002  0.6000000E+02  0.7546771E-02  0.1259629E+00
         11   -1    0    0    0    0  0.00000000000E+00  0.00000000000E+00  0.30000000000E+02  0.30000000000E+02  0.00000000000E+00 0.  1.
        -11   -1    0    0    0    0 -0.00000000000E+00 -0.00000000000E+00 -0.30000000000E+02  0.30000000000E+02  0.00000000000E+00 0. -1.
          5    1    1    2  501    0  0.95009161729E+01 -0.17107324279E+02 -0.22248192014E+02  0.30000000000E+02  0.47000000000E+01 0. -1.
         -5    1    1    2    0  501 -0.95009161729E+01  0.17107324279E+02  0.22248192014E+02  0.30000000000E+02  0.47000000000E+01 0.  1.
</event>
<event>
 4    1  0.7581446E-002  0.6000000E+02  0.7546771E-02  0.1259629E+00
         11   -1    0    0    0    0  0.00000000000E+00  0.00000000000E+00  0.30000000000E+02  0.30000000000E+02  0.00000000000E+00 0.  1.
        -11   -1    0    0    0    0 -0.00000000000E+00 -0.00000000000E+00 -0.30000000000E+02  0.30000000000E+02  0.00000000000E+00 0. -1.
          5    1    1    2  501    0  0.22726857446E+02  0.15588669880E+02 -0.10880869543E+02  0.30000000000E+02  0.47000000000E+01 0. -1.
         -5    1    1    2    0  501 -0.22726857446E+02 -0.15588669880E+02  0.10880869543E+02  0.30000000000E+02  0.47000000000E+01 0.  1.
</event>
<event>
 4    1  0.7581446E-002  0.6000000E+02  0.7546771E-02  0.1259629E+00
         11   -1    0    0    0    0  0.00000000000E+00  0.00000000000E+00  0.30000000000E+02  0.30000000000E+02  0.00000000000E+00 0.  1.
        -11   -1    0    0    0    0 -0.00000000000E+00 -0.00000000000E+00 -0.30000000000E+02  0.30000000000E+02  0.00000000000E+00 0. -1.
          5    1    1    2  501    0 -0.61980554651E+01  0.27237358005E+02  0.98803055309E+01  0.30000000000E+02  0.47000000000E+01 0. -1.
         -5    1    1    2    0  501  0.61980554651E+01 -0.27237358005E+02 -0.98803055309E+01  0.30000000000E+02  0.47000000000E+01 0.  1.
</event>
<event>
 4    1  0.7581446E-002  0.6000000E+02  0.7546771E-02  0.1259629E+00
         11   -1    0    0    0    0  0.00000000000E+00  0.00000000000E+00  0.30000000000E+02  0.30000000000E+02  0.00000000000E+00 0.  1.
        -11   -1    0    0    0    0 -0.00000000000E+00 -0.00000000000E+00 -0.30000000000E+02  0.30000000000E+02  0.00000000000E+00 0. -1.
          5    1    1    2  501    0  0.90636313956E+01  0.27984364715E+02 -0.35547035641E+01  0.30000000000E+02  0.47000000000E+01 0.  1.
         -5    1    1    2    0  501 -0.90636313956E+01 -0.27984364715E+02  0.35547035641E+01  0.30000000000E+02  0.47000000000E+01 0.  1.
</event>
<event>
 4    1  0.7581446E-002  0.6000000E+02  0.7546771E-02  0.1259629E+00
         11   -1    0    0    0    0  0.00000000000E+00  0.00000000000E+00  0.30000000000E+02  0.30000000000E+02  0.00000000000E+00 0. -1.
        -11   -1    0    0    0    0 -0.00000000000E+00 -0.00000000000E+00 -0.30000000000E+02  0.30000000000E+02  0.00000000000E+00 0.  1.
          5    1    1    2  501    0  0.85765518888E+01 -0.24358092949E+02  0.14527080421E+02  0.30000000000E+02  0.47000000000E+01 0. -1.
         -5    1    1    2    0  501 -0.85765518888E+01  0.24358092949E+02 -0.14527080421E+02  0.30000000000E+02  0.47000000000E+01 0.  1.
</event>
<event>
 4    1  0.7581446E-002  0.6000000E+02  0.7546771E-02  0.1259629E+00
         11   -1    0    0    0    0  0.00000000000E+00  0.00000000000E+00  0.30000000000E+02  0.30000000000E+02  0.00000000000E+00 0.  1.
        -11   -1    0    0    0    0 -0.00000000000E+00 -0.00000000000E+00 -0.30000000000E+02  0.30000000000E+02  0.00000000000E+00 0. -1.
          5    1    1    2  501    0  0.29944070047E+01  0.10795692250E+02 -0.27429847895E+02  0.30000000000E+02  0.47000000000E+01 0. -1.
         -5    1    1    2    0  501 -0.29944070047E+01 -0.10795692250E+02  0.27429847895E+02  0.30000000000E+02  0.47000000000E+01 0.  1.
</event>
<event>
 4    1  0.7581446E-002  0.6000000E+02  0.7546771E-02  0.1259629E+00
         11   -1    0    0    0    0  0.00000000000E+00  0.00000000000E+00  0.30000000000E+02  0.30000000000E+02  0.00000000000E+00 0. -1.
        -11   -1    0    0    0    0 -0.00000000000E+00 -0.00000000000E+00 -0.30000000000E+02  0.30000000000E+02  0.00000000000E+00 0.  1.
          5    1    1    2  501    0  0.90343574615E+01 -0.28197475580E+02 -0.10921337811E+01  0.30000000000E+02  0.47000000000E+01 0.  1.
         -5    1    1    2    0  501 -0.90343574615E+01  0.28197475580E+02  0.10921337811E+01  0.30000000000E+02  0.47000000000E+01 0. -1.
</event>
<event>
 4    1  0.7581446E-002  0.6000000E+02  0.7546771E-02  0.1259629E+00
         11   -1    0    0    0    0  0.00000000000E+00  0.00000000000E+00  0.30000000000E+02  0.30000000000E+02  0.00000000000E+00 0. -1.
        -11   -1    0    0    0    0 -0.00000000000E+00 -0.00000000000E+00 -0.30000000000E+02  0.30000000000E+02  0.00000000000E+00 0.  1.
          5    1    1    2  501    0 -0.15253940232E+02 -0.60826452603E+01 -0.24662293771E+02  0.30000000000E+02  0.47000000000E+01 0.  1.
         -5    1    1    2    0  501  0.15253940232E+02  0.60826452603E+01  0.24662293771E+02  0.30000000000E+02  0.47000000000E+01 0. -1.
</event>
<event>
 4    1  0.7581446E-002  0.6000000E+02  0.7546771E-02  0.1259629E+00
         11   -1    0    0    0    0  0.00000000000E+00  0.00000000000E+00  0.30000000000E+02  0.30000000000E+02  0.00000000000E+00 0.  1.
        -11   -1    0    0    0    0 -0.00000000000E+00 -0.00000000000E+00 -0.30000000000E+02  0.30000000000E+02  0.00000000000E+00 0. -1.
          5    1    1    2  501    0  0.16047917038E+02 -0.15846395513E+02 -0.19216297978E+02  0.30000000000E+02  0.47000000000E+01 0. -1.
         -5    1    1    2    0  501 -0.16047917038E+02  0.15846395513E+02  0.19216297978E+02  0.30000000000E+02  0.47000000000E+01 0.  1.
</event>
<event>
 4    1  0.7581446E-002  0.6000000E+02  0.7546771E-02  0.1259629E+00
         11   -1    0    0    0    0  0.00000000000E+00  0.00000000000E+00  0.30000000000E+02  0.30000000000E+02  0.00000000000E+00 0.  1.
        -11   -1    0    0    0    0 -0.00000000000E+00 -0.00000000000E+00 -0.30000000000E+02  0.30000000000E+02  0.00000000000E+00 0. -1.
          5    1    1    2  501    0 -0.19873124891E+02 -0.21500197764E+02 -0.45508684006E+01  0.30000000000E+02  0.47000000000E+01 0. -1.
         -5    1    1    2    0  501  0.19873124891E+02  0.21500197764E+02  0.45508684006E+01  0.30000000000E+02  0.47000000000E+01 0.  1.
</event>
<event>
 4    1  0.7581446E-002  0.6000000E+02  0.7546771E-02  0.1259629E+00
         11   -1    0    0    0    0  0.00000000000E+00  0.00000000000E+00  0.30000000000E+02  0.30000000000E+02  0.00000000000E+00 0.  1.
        -11   -1    0    0    0    0 -0.00000000000E+00 -0.00000000000E+00 -0.30000000000E+02  0.30000000000E+02  0.00000000000E+00 0. -1.
          5    1    1    2  501    0 -0.23981760319E+02  0.13741475540E+02 -0.10675065433E+02  0.30000000000E+02  0.47000000000E+01 0. -1.
         -5    1    1    2    0  501  0.23981760319E+02 -0.13741475540E+02  0.10675065433E+02  0.30000000000E+02  0.47000000000E+01 0.  1.
</event>
<event>
 4    1  0.7581446E-002  0.6000000E+02  0.7546771E-02  0.1259629E+00
         11   -1    0    0    0    0  0.00000000000E+00  0.00000000000E+00  0.30000000000E+02  0.30000000000E+02  0.00000000000E+00 0.  1.
        -11   -1    0    0    0    0 -0.00000000000E+00 -0.00000000000E+00 -0.30000000000E+02  0.30000000000E+02  0.00000000000E+00 0. -1.
          5    1    1    2  501    0 -0.54758649511E+00  0.29451901279E+02 -0.31930643744E+01  0.30000000000E+02  0.47000000000E+01 0. -1.
         -5    1    1    2    0  501  0.54758649511E+00 -0.29451901279E+02  0.31930643744E+01  0.30000000000E+02  0.47000000000E+01 0.  1.
</event>
<event>
 4    1  0.7581446E-002  0.6000000E+02  0.7546771E-02  0.1259629E+00
         11   -1    0    0    0    0  0.00000000000E+00  0.00000000000E+00  0.30000000000E+02  0.30000000000E+02  0.00000000000E+00 0.  1.
        -11   -1    0    0    0    0 -0.00000000000E+00 -0.00000000000E+00 -0.30000000000E+02  0.30000000000E+02  0.00000000000E+00 0. -1.
          5    1    1    2  501    0  0.11485233766E+02  0.53602282598E+01 -0.26781847553E+02  0.30000000000E+02  0.47000000000E+01 0. -1.
         -5    1    1    2    0  501 -0.11485233766E+02 -0.53602282598E+01  0.26781847553E+02  0.30000000000E+02  0.47000000000E+01 0.  1.
</event>
<event>
 4    1  0.7581446E-002  0.6000000E+02  0.7546771E-02  0.1259629E+00
         11   -1    0    0    0    0  0.00000000000E+00  0.00000000000E+00  0.30000000000E+02  0.30000000000E+02  0.00000000000E+00 0.  1.
        -11   -1    0    0    0    0 -0.00000000000E+00 -0.00000000000E+00 -0.30000000000E+02  0.30000000000E+02  0.00000000000E+00 0. -1.
          5    1    1    2  501    0 -0.24598347249E+01  0.23868621740E+02 -0.17382408042E+02  0.30000000000E+02  0.47000000000E+01 0. -1.
         -5    1    1    2    0  501  0.24598347249E+01 -0.23868621740E+02  0.17382408042E+02  0.30000000000E+02  0.47000000000E+01 0.  1.
</event>
<event>
 4    1  0.7581446E-002  0.6000000E+02  0.7546771E-02  0.1259629E+00
         11   -1    0    0    0    0  0.00000000000E+00  0.00000000000E+00  0.30000000000E+02  0.30000000000E+02  0.00000000000E+00 0. -1.
        -11   -1    0    0    0    0 -0.00000000000E+00 -0.00000000000E+00 -0.30000000000E+02  0.30000000000E+02  0.00000000000E+00 0.  1.
          5    1    1    2  501    0  0.10688056360E+02 -0.22626602924E+02  0.15865443308E+02  0.30000000000E+02  0.47000000000E+01 0. -1.
         -5    1    1    2    0  501 -0.10688056360E+02  0.22626602924E+02 -0.15865443308E+02  0.30000000000E+02  0.47000000000E+01 0.  1.
</event>
<event>
 4    1  0.7581446E-002  0.6000000E+02  0.7546771E-02  0.1259629E+00
         11   -1    0    0    0    0  0.00000000000E+00  0.00000000000E+00  0.30000000000E+02  0.30000000000E+02  0.00000000000E+00 0. -1.
        -11   -1    0    0    0    0 -0.00000000000E+00 -0.00000000000E+00 -0.30000000000E+02  0.30000000000E+02  0.00000000000E+00 0.  1.
          5    1    1    2  501    0  0.11491003071E+02 -0.18683993482E+02 -0.19919217755E+02  0.30000000000E+02  0.47000000000E+01 0.  1.
         -5    1    1    2    0  501 -0.11491003071E+02  0.18683993482E+02  0.19919217755E+02  0.30000000000E+02  0.47000000000E+01 0. -1.
</event>
<event>
 4    1  0.7581446E-002  0.6000000E+02  0.7546771E-02  0.1259629E+00
         11   -1    0    0    0    0  0.00000000000E+00  0.00000000000E+00  0.30000000000E+02  0.30000000000E+02  0.00000000000E+00 0. -1.
        -11   -1    0    0    0    0 -0.00000000000E+00 -0.00000000000E+00 -0.30000000000E+02  0.30000000000E+02  0.00000000000E+00 0.  1.
          5    1    1    2  501    0  0.81189500533E+01 -0.42785776937E+01 -0.28172440841E+02  0.30000000000E+02  0.47000000000E+01 0.  1.
         -5    1    1    2    0  501 -0.81189500533E+01  0.42785776937E+01  0.28172440841E+02  0.30000000000E+02  0.47000000000E+01 0. -1.
</event>
<event>
 4    1  0.7581446E-002  0.6000000E+02  0.7546771E-02  0.1259629E+00
         11   -1    0    0    0    0  0.00000000000E+00  0.00000000000E+00  0.30000000000E+02  0.30000000000E+02  0.00000000000E+00 0. -1.
        -11   -1    0    0    0    0 -0.00000000000E+00 -0.00000000000E+00 -0.30000000000E+02  0.30000000000E+02  0.00000000000E+00 0.  1.
          5    1    1    2  501    0  0.11163872127E+02  0.14462911784E+02 -0.23325997125E+02  0.30000000000E+02  0.47000000000E+01 0.  1.
         -5    1    1    2    0  501 -0.11163872127E+02 -0.14462911784E+02  0.23325997125E+02  0.30000000000E+02  0.47000000000E+01 0. -1.
</event>
<event>
 4    1  0.7581446E-002  0.6000000E+02  0.7546771E-02  0.1259629E+00
         11   -1    0    0    0    0  0.00000000000E+00  0.00000000000E+00  0.30000000000E+02  0.30000000000E+02  0.00000000000E+00 0.  1.
        -11   -1    0    0    0    0 -0.00000000000E+00 -0.00000000000E+00 -0.30000000000E+02  0.30000000000E+02  0.00000000000E+00 0. -1.
          5    1    1    2  501    0  0.10336152206E+01  0.38388846103E+00 -0.29609023443E+02  0.30000000000E+02  0.47000000000E+01 0. -1.
         -5    1    1    2    0  501 -0.10336152206E+01 -0.38388846103E+00  0.29609023443E+02  0.30000000000E+02  0.47000000000E+01 0.  1.
</event>
<event>
 4    1  0.7581446E-002  0.6000000E+02  0.7546771E-02  0.1259629E+00
         11   -1    0    0    0    0  0.00000000000E+00  0.00000000000E+00  0.30000000000E+02  0.30000000000E+02  0.00000000000E+00 0.  1.
        -11   -1    0    0    0    0 -0.00000000000E+00 -0.00000000000E+00 -0.30000000000E+02  0.30000000000E+02  0.00000000000E+00 0. -1.
          5    1    1    2  501    0 -0.19282005162E+02  0.19380647552E+02 -0.11423868758E+02  0.30000000000E+02  0.47000000000E+01 0. -1.
         -5    1    1    2    0  501  0.19282005162E+02 -0.19380647552E+02  0.11423868758E+02  0.30000000000E+02  0.47000000000E+01 0.  1.
</event>
<event>
 4    1  0.7581446E-002  0.6000000E+02  0.7546771E-02  0.1259629E+00
         11   -1    0    0    0    0  0.00000000000E+00  0.00000000000E+00  0.30000000000E+02  0.30000000000E+02  0.00000000000E+00 0.  1.
        -11   -1    0    0    0    0 -0.00000000000E+00 -0.00000000000E+00 -0.30000000000E+02  0.30000000000E+02  0.00000000000E+00 0. -1.
          5    1    1    2  501    0  0.17006954564E+02  0.20584409466E+02 -0.12843503548E+02  0.30000000000E+02  0.47000000000E+01 0. -1.
         -5    1    1    2    0  501 -0.17006954564E+02 -0.20584409466E+02  0.12843503548E+02  0.30000000000E+02  0.47000000000E+01 0.  1.
</event>
<event>
 4    1  0.7581446E-002  0.6000000E+02  0.7546771E-02  0.1259629E+00
         11   -1    0    0    0    0  0.00000000000E+00  0.00000000000E+00  0.30000000000E+02  0.30000000000E+02  0.00000000000E+00 0.  1.
        -11   -1    0    0    0    0 -0.00000000000E+00 -0.00000000000E+00 -0.30000000000E+02  0.30000000000E+02  0.00000000000E+00 0. -1.
          5    1    1    2  501    0 -0.34156187131E+01 -0.12541841307E+02 -0.26626035481E+02  0.30000000000E+02  0.47000000000E+01 0. -1.
         -5    1    1    2    0  501  0.34156187131E+01  0.12541841307E+02  0.26626035481E+02  0.30000000000E+02  0.47000000000E+01 0.  1.
</event>
<event>
 4    1  0.7581446E-002  0.6000000E+02  0.7546771E-02  0.1259629E+00
         11   -1    0    0    0    0  0.00000000000E+00  0.00000000000E+00  0.30000000000E+02  0.30000000000E+02  0.00000000000E+00 0.  1.
        -11   -1    0    0    0    0 -0.00000000000E+00 -0.00000000000E+00 -0.30000000000E+02  0.30000000000E+02  0.00000000000E+00 0. -1.
          5    1    1    2  501    0 -0.13359340624E+02  0.10061440375E+02 -0.24458238605E+02  0.30000000000E+02  0.47000000000E+01 0. -1.
         -5    1    1    2    0  501  0.13359340624E+02 -0.10061440375E+02  0.24458238605E+02  0.30000000000E+02  0.47000000000E+01 0.  1.
</event>
<event>
 4    1  0.7581446E-002  0.6000000E+02  0.7546771E-02  0.1259629E+00
         11   -1    0    0    0    0  0.00000000000E+00  0.00000000000E+00  0.30000000000E+02  0.30000000000E+02  0.00000000000E+00 0. -1.
        -11   -1    0    0    0    0 -0.00000000000E+00 -0.00000000000E+00 -0.30000000000E+02  0.30000000000E+02  0.00000000000E+00 0.  1.
          5    1    1    2  501    0 -0.21695487607E+01 -0.21920721100E+02 -0.19816282311E+02  0.30000000000E+02  0.47000000000E+01 0.  1.
         -5    1    1    2    0  501  0.21695487607E+01  0.21920721100E+02  0.19816282311E+02  0.30000000000E+02  0.47000000000E+01 0. -1.
</event>
<event>
 4    1  0.7581446E-002  0.6000000E+02  0.7546771E-02  0.1259629E+00
         11   -1    0    0    0    0  0.00000000000E+00  0.00000000000E+00  0.30000000000E+02  0.30000000000E+02  0.00000000000E+00 0.  1.
        -11   -1    0    0    0    0 -0.00000000000E+00 -0.00000000000E+00 -0.30000000000E+02  0.30000000000E+02  0.00000000000E+00 0. -1.
          5    1    1    2  501    0 -0.14820386765E+02 -0.69930077778E+01 -0.24685298830E+02  0.30000000000E+02  0.47000000000E+01 0. -1.
         -5    1    1    2    0  501  0.14820386765E+02  0.69930077778E+01  0.24685298830E+02  0.30000000000E+02  0.47000000000E+01 0.  1.
</event>
<event>
 4    1  0.7581446E-002  0.6000000E+02  0.7546771E-02  0.1259629E+00
         11   -1    0    0    0    0  0.00000000000E+00  0.00000000000E+00  0.30000000000E+02  0.30000000000E+02  0.00000000000E+00 0.  1.
        -11   -1    0    0    0    0 -0.00000000000E+00 -0.00000000000E+00 -0.30000000000E+02  0.30000000000E+02  0.00000000000E+00 0. -1.
          5    1    1    2  501    0  0.26386934616E+02  0.41559324766E+01  0.12820604775E+02  0.30000000000E+02  0.47000000000E+01 0. -1.
         -5    1    1    2    0  501 -0.26386934616E+02 -0.41559324766E+01 -0.12820604775E+02  0.30000000000E+02  0.47000000000E+01 0.  1.
</event>
<event>
 4    1  0.7581446E-002  0.6000000E+02  0.7546771E-02  0.1259629E+00
         11   -1    0    0    0    0  0.00000000000E+00  0.00000000000E+00  0.30000000000E+02  0.30000000000E+02  0.00000000000E+00 0. -1.
        -11   -1    0    0    0    0 -0.00000000000E+00 -0.00000000000E+00 -0.30000000000E+02  0.30000000000E+02  0.00000000000E+00 0.  1.
          5    1    1    2  501    0 -0.28387131485E+02 -0.46907873697E+01 -0.70765302162E+01  0.30000000000E+02  0.47000000000E+01 0.  1.
         -5    1    1    2    0  501  0.28387131485E+02  0.46907873697E+01  0.70765302162E+01  0.30000000000E+02  0.47000000000E+01 0. -1.
</event>
<event>
 4    1  0.7581446E-002  0.6000000E+02  0.7546771E-02  0.1259629E+00
         11   -1    0    0    0    0  0.00000000000E+00  0.00000000000E+00  0.30000000000E+02  0.30000000000E+02  0.00000000000E+00 0.  1.
        -11   -1    0    0    0    0 -0.00000000000E+00 -0.00000000000E+00 -0.30000000000E+02  0.30000000000E+02  0.00000000000E+00 0. -1.
          5    1    1    2  501    0  0.20185822534E+02  0.16278671026E+02 -0.14333437767E+02  0.30000000000E+02  0.47000000000E+01 0. -1.
         -5    1    1    2    0  501 -0.20185822534E+02 -0.16278671026E+02  0.14333437767E+02  0.30000000000E+02  0.47000000000E+01 0.  1.
</event>
<event>
 4    1  0.7581446E-002  0.6000000E+02  0.7546771E-02  0.1259629E+00
         11   -1    0    0    0    0  0.00000000000E+00  0.00000000000E+00  0.30000000000E+02  0.30000000000E+02  0.00000000000E+00 0.  1.
        -11   -1    0    0    0    0 -0.00000000000E+00 -0.00000000000E+00 -0.30000000000E+02  0.30000000000E+02  0.00000000000E+00 0. -1.
          5    1    1    2  501    0  0.14588018766E+02  0.54387432719E+01 -0.25209517649E+02  0.30000000000E+02  0.47000000000E+01 0. -1.
         -5    1    1    2    0  501 -0.14588018766E+02 -0.54387432719E+01  0.25209517649E+02  0.30000000000E+02  0.47000000000E+01 0.  1.
</event>
<event>
 4    1  0.7581446E-002  0.6000000E+02  0.7546771E-02  0.1259629E+00
         11   -1    0    0    0    0  0.00000000000E+00  0.00000000000E+00  0.30000000000E+02  0.30000000000E+02  0.00000000000E+00 0. -1.
        -11   -1    0    0    0    0 -0.00000000000E+00 -0.00000000000E+00 -0.30000000000E+02  0.30000000000E+02  0.00000000000E+00 0.  1.
          5    1    1    2  501    0 -0.28993699516E+02 -0.57838224254E+01 -0.19551947539E+01  0.30000000000E+02  0.47000000000E+01 0.  1.
         -5    1    1    2    0  501  0.28993699516E+02  0.57838224254E+01  0.19551947539E+01  0.30000000000E+02  0.47000000000E+01 0. -1.
</event>
<event>
 4    1  0.7581446E-002  0.6000000E+02  0.7546771E-02  0.1259629E+00
         11   -1    0    0    0    0  0.00000000000E+00  0.00000000000E+00  0.30000000000E+02  0.30000000000E+02  0.00000000000E+00 0.  1.
        -11   -1    0    0    0    0 -0.00000000000E+00 -0.00000000000E+00 -0.30000000000E+02  0.30000000000E+02  0.00000000000E+00 0. -1.
          5    1    1    2  501    0 -0.25984183732E+01  0.14366377413E+01 -0.29480405254E+02  0.30000000000E+02  0.47000000000E+01 0. -1.
         -5    1    1    2    0  501  0.25984183732E+01 -0.14366377413E+01  0.29480405254E+02  0.30000000000E+02  0.47000000000E+01 0.  1.
</event>
<event>
 4    1  0.7581446E-002  0.6000000E+02  0.7546771E-02  0.1259629E+00
         11   -1    0    0    0    0  0.00000000000E+00  0.00000000000E+00  0.30000000000E+02  0.30000000000E+02  0.00000000000E+00 0.  1.
        -11   -1    0    0    0    0 -0.00000000000E+00 -0.00000000000E+00 -0.30000000000E+02  0.30000000000E+02  0.00000000000E+00 0. -1.
          5    1    1    2  501    0 -0.24366690295E+01 -0.18156413250E+02 -0.23287707099E+02  0.30000000000E+02  0.47000000000E+01 0. -1.
         -5    1    1    2    0  501  0.24366690295E+01  0.18156413250E+02  0.23287707099E+02  0.30000000000E+02  0.47000000000E+01 0.  1.
</event>
<event>
 4    1  0.7581446E-002  0.6000000E+02  0.7546771E-02  0.1259629E+00
         11   -1    0    0    0    0  0.00000000000E+00  0.00000000000E+00  0.30000000000E+02  0.30000000000E+02  0.00000000000E+00 0.  1.
        -11   -1    0    0    0    0 -0.00000000000E+00 -0.00000000000E+00 -0.30000000000E+02  0.30000000000E+02  0.00000000000E+00 0. -1.
          5    1    1    2  501    0  0.12193412778E+02 -0.16845684060E+01 -0.26951677390E+02  0.30000000000E+02  0.47000000000E+01 0. -1.
         -5    1    1    2    0  501 -0.12193412778E+02  0.16845684060E+01  0.26951677390E+02  0.30000000000E+02  0.47000000000E+01 0.  1.
</event>
<event>
 4    1  0.7581446E-002  0.6000000E+02  0.7546771E-02  0.1259629E+00
         11   -1    0    0    0    0  0.00000000000E+00  0.00000000000E+00  0.30000000000E+02  0.30000000000E+02  0.00000000000E+00 0.  1.
        -11   -1    0    0    0    0 -0.00000000000E+00 -0.00000000000E+00 -0.30000000000E+02  0.30000000000E+02  0.00000000000E+00 0. -1.
          5    1    1    2  501    0  0.14591912789E+02  0.10770036291E+02 -0.23430586835E+02  0.30000000000E+02  0.47000000000E+01 0. -1.
         -5    1    1    2    0  501 -0.14591912789E+02 -0.10770036291E+02  0.23430586835E+02  0.30000000000E+02  0.47000000000E+01 0.  1.
</event>
<event>
 4    1  0.7581446E-002  0.6000000E+02  0.7546771E-02  0.1259629E+00
         11   -1    0    0    0    0  0.00000000000E+00  0.00000000000E+00  0.30000000000E+02  0.30000000000E+02  0.00000000000E+00 0.  1.
        -11   -1    0    0    0    0 -0.00000000000E+00 -0.00000000000E+00 -0.30000000000E+02  0.30000000000E+02  0.00000000000E+00 0. -1.
          5    1    1    2  501    0 -0.14730077882E+02 -0.15998936266E+02 -0.20123837704E+02  0.30000000000E+02  0.47000000000E+01 0. -1.
         -5    1    1    2    0  501  0.14730077882E+02  0.15998936266E+02  0.20123837704E+02  0.30000000000E+02  0.47000000000E+01 0.  1.
</event>
<event>
 4    1  0.7581446E-002  0.6000000E+02  0.7546771E-02  0.1259629E+00
         11   -1    0    0    0    0  0.00000000000E+00  0.00000000000E+00  0.30000000000E+02  0.30000000000E+02  0.00000000000E+00 0.  1.
        -11   -1    0    0    0    0 -0.00000000000E+00 -0.00000000000E+00 -0.30000000000E+02  0.30000000000E+02  0.00000000000E+00 0. -1.
          5    1    1    2  501    0  0.68152161676E+01 -0.85811611130E+01 -0.27528648760E+02  0.30000000000E+02  0.47000000000E+01 0. -1.
         -5    1    1    2    0  501 -0.68152161676E+01  0.85811611130E+01  0.27528648760E+02  0.30000000000E+02  0.47000000000E+01 0.  1.
</event>
<event>
 4    1  0.7581446E-002  0.6000000E+02  0.7546771E-02  0.1259629E+00
         11   -1    0    0    0    0  0.00000000000E+00  0.00000000000E+00  0.30000000000E+02  0.30000000000E+02  0.00000000000E+00 0.  1.
        -11   -1    0    0    0    0 -0.00000000000E+00 -0.00000000000E+00 -0.30000000000E+02  0.30000000000E+02  0.00000000000E+00 0. -1.
          5    1    1    2  501    0 -0.16989385418E+02  0.22978329884E+02  0.78273328049E+01  0.30000000000E+02  0.47000000000E+01 0.  1.
         -5    1    1    2    0  501  0.16989385418E+02 -0.22978329884E+02 -0.78273328049E+01  0.30000000000E+02  0.47000000000E+01 0. -1.
</event>
<event>
 4    1  0.7581446E-002  0.6000000E+02  0.7546771E-02  0.1259629E+00
         11   -1    0    0    0    0  0.00000000000E+00  0.00000000000E+00  0.30000000000E+02  0.30000000000E+02  0.00000000000E+00 0.  1.
        -11   -1    0    0    0    0 -0.00000000000E+00 -0.00000000000E+00 -0.30000000000E+02  0.30000000000E+02  0.00000000000E+00 0. -1.
          5    1    1    2  501    0 -0.13292527244E+02  0.24869186370E+02 -0.90962788421E+01  0.30000000000E+02  0.47000000000E+01 0. -1.
         -5    1    1    2    0  501  0.13292527244E+02 -0.24869186370E+02  0.90962788421E+01  0.30000000000E+02  0.47000000000E+01 0.  1.
</event>
<event>
 4    1  0.7581446E-002  0.6000000E+02  0.7546771E-02  0.1259629E+00
         11   -1    0    0    0    0  0.00000000000E+00  0.00000000000E+00  0.30000000000E+02  0.30000000000E+02  0.00000000000E+00 0.  1.
        -11   -1    0    0    0    0 -0.00000000000E+00 -0.00000000000E+00 -0.30000000000E+02  0.30000000000E+02  0.00000000000E+00 0. -1.
          5    1    1    2  501    0  0.83446682143E+01  0.19377487347E+02 -0.20803593356E+02  0.30000000000E+02  0.47000000000E+01 0. -1.
         -5    1    1    2    0  501 -0.83446682143E+01 -0.19377487347E+02  0.20803593356E+02  0.30000000000E+02  0.47000000000E+01 0.  1.
</event>
<event>
 4    1  0.7581446E-002  0.6000000E+02  0.7546771E-02  0.1259629E+00
         11   -1    0    0    0    0  0.00000000000E+00  0.00000000000E+00  0.30000000000E+02  0.30000000000E+02  0.00000000000E+00 0.  1.
        -11   -1    0    0    0    0 -0.00000000000E+00 -0.00000000000E+00 -0.30000000000E+02  0.30000000000E+02  0.00000000000E+00 0. -1.
          5    1    1    2  501    0 -0.19454748990E+02 -0.15374683765E+02 -0.16218564698E+02  0.30000000000E+02  0.47000000000E+01 0. -1.
         -5    1    1    2    0  501  0.19454748990E+02  0.15374683765E+02  0.16218564698E+02  0.30000000000E+02  0.47000000000E+01 0.  1.
</event>
<event>
 4    1  0.7581446E-002  0.6000000E+02  0.7546771E-02  0.1259629E+00
         11   -1    0    0    0    0  0.00000000000E+00  0.00000000000E+00  0.30000000000E+02  0.30000000000E+02  0.00000000000E+00 0.  1.
        -11   -1    0    0    0    0 -0.00000000000E+00 -0.00000000000E+00 -0.30000000000E+02  0.30000000000E+02  0.00000000000E+00 0. -1.
          5    1    1    2  501    0  0.21483363981E+02 -0.10078536862E+02 -0.17742552431E+02  0.30000000000E+02  0.47000000000E+01 0. -1.
         -5    1    1    2    0  501 -0.21483363981E+02  0.10078536862E+02  0.17742552431E+02  0.30000000000E+02  0.47000000000E+01 0.  1.
</event>
<event>
 4    1  0.7581446E-002  0.6000000E+02  0.7546771E-02  0.1259629E+00
         11   -1    0    0    0    0  0.00000000000E+00  0.00000000000E+00  0.30000000000E+02  0.30000000000E+02  0.00000000000E+00 0.  1.
        -11   -1    0    0    0    0 -0.00000000000E+00 -0.00000000000E+00 -0.30000000000E+02  0.30000000000E+02  0.00000000000E+00 0. -1.
          5    1    1    2  501    0 -0.27474530573E+01 -0.28167610421E+02 -0.87719567303E+01  0.30000000000E+02  0.47000000000E+01 0. -1.
         -5    1    1    2    0  501  0.27474530573E+01  0.28167610421E+02  0.87719567303E+01  0.30000000000E+02  0.47000000000E+01 0.  1.
</event>
<event>
 4    1  0.7581446E-002  0.6000000E+02  0.7546771E-02  0.1259629E+00
         11   -1    0    0    0    0  0.00000000000E+00  0.00000000000E+00  0.30000000000E+02  0.30000000000E+02  0.00000000000E+00 0.  1.
        -11   -1    0    0    0    0 -0.00000000000E+00 -0.00000000000E+00 -0.30000000000E+02  0.30000000000E+02  0.00000000000E+00 0. -1.
          5    1    1    2  501    0  0.83037693036E+01 -0.55557897457E+01 -0.27894275679E+02  0.30000000000E+02  0.47000000000E+01 0. -1.
         -5    1    1    2    0  501 -0.83037693036E+01  0.55557897457E+01  0.27894275679E+02  0.30000000000E+02  0.47000000000E+01 0.  1.
</event>
<event>
 4    1  0.7581446E-002  0.6000000E+02  0.7546771E-02  0.1259629E+00
         11   -1    0    0    0    0  0.00000000000E+00  0.00000000000E+00  0.30000000000E+02  0.30000000000E+02  0.00000000000E+00 0. -1.
        -11   -1    0    0    0    0 -0.00000000000E+00 -0.00000000000E+00 -0.30000000000E+02  0.30000000000E+02  0.00000000000E+00 0.  1.
          5    1    1    2  501    0  0.20609781255E+02  0.10809361750E+02  0.18338609957E+02  0.30000000000E+02  0.47000000000E+01 0. -1.
         -5    1    1    2    0  501 -0.20609781255E+02 -0.10809361750E+02 -0.18338609957E+02  0.30000000000E+02  0.47000000000E+01 0.  1.
</event>
<event>
 4    1  0.7581446E-002  0.6000000E+02  0.7546771E-02  0.1259629E+00
         11   -1    0    0    0    0  0.00000000000E+00  0.00000000000E+00  0.30000000000E+02  0.30000000000E+02  0.00000000000E+00 0.  1.
        -11   -1    0    0    0    0 -0.00000000000E+00 -0.00000000000E+00 -0.30000000000E+02  0.30000000000E+02  0.00000000000E+00 0. -1.
          5    1    1    2  501    0  0.10306108688E+02 -0.57240007757E+01  0.27183265787E+02  0.30000000000E+02  0.47000000000E+01 0.  1.
         -5    1    1    2    0  501 -0.10306108688E+02  0.57240007757E+01 -0.27183265787E+02  0.30000000000E+02  0.47000000000E+01 0. -1.
</event>
<event>
 4    1  0.7581446E-002  0.6000000E+02  0.7546771E-02  0.1259629E+00
         11   -1    0    0    0    0  0.00000000000E+00  0.00000000000E+00  0.30000000000E+02  0.30000000000E+02  0.00000000000E+00 0.  1.
        -11   -1    0    0    0    0 -0.00000000000E+00 -0.00000000000E+00 -0.30000000000E+02  0.30000000000E+02  0.00000000000E+00 0. -1.
          5    1    1    2  501    0 -0.16527047741E+02 -0.19773989702E+02 -0.14620397540E+02  0.30000000000E+02  0.47000000000E+01 0. -1.
         -5    1    1    2    0  501  0.16527047741E+02  0.19773989702E+02  0.14620397540E+02  0.30000000000E+02  0.47000000000E+01 0.  1.
</event>
<event>
 4    1  0.7581446E-002  0.6000000E+02  0.7546771E-02  0.1259629E+00
         11   -1    0    0    0    0  0.00000000000E+00  0.00000000000E+00  0.30000000000E+02  0.30000000000E+02  0.00000000000E+00 0.  1.
        -11   -1    0    0    0    0 -0.00000000000E+00 -0.00000000000E+00 -0.30000000000E+02  0.30000000000E+02  0.00000000000E+00 0. -1.
          5    1    1    2  501    0  0.11541909704E+02 -0.13154037150E+02 -0.23909530046E+02  0.30000000000E+02  0.47000000000E+01 0. -1.
         -5    1    1    2    0  501 -0.11541909704E+02  0.13154037150E+02  0.23909530046E+02  0.30000000000E+02  0.47000000000E+01 0.  1.
</event>
<event>
 4    1  0.7581446E-002  0.6000000E+02  0.7546771E-02  0.1259629E+00
         11   -1    0    0    0    0  0.00000000000E+00  0.00000000000E+00  0.30000000000E+02  0.30000000000E+02  0.00000000000E+00 0.  1.
        -11   -1    0    0    0    0 -0.00000000000E+00 -0.00000000000E+00 -0.30000000000E+02  0.30000000000E+02  0.00000000000E+00 0. -1.
          5    1    1    2  501    0  0.19740415638E+01  0.12152988832E+02 -0.26950287983E+02  0.30000000000E+02  0.47000000000E+01 0. -1.
         -5    1    1    2    0  501 -0.19740415638E+01 -0.12152988832E+02  0.26950287983E+02  0.30000000000E+02  0.47000000000E+01 0.  1.
</event>
<event>
 4    1  0.7581446E-002  0.6000000E+02  0.7546771E-02  0.1259629E+00
         11   -1    0    0    0    0  0.00000000000E+00  0.00000000000E+00  0.30000000000E+02  0.30000000000E+02  0.00000000000E+00 0.  1.
        -11   -1    0    0    0    0 -0.00000000000E+00 -0.00000000000E+00 -0.30000000000E+02  0.30000000000E+02  0.00000000000E+00 0. -1.
          5    1    1    2  501    0  0.15505501635E+02 -0.25217481585E+02 -0.12522146694E+01  0.30000000000E+02  0.47000000000E+01 0.  1.
         -5    1    1    2    0  501 -0.15505501635E+02  0.25217481585E+02  0.12522146694E+01  0.30000000000E+02  0.47000000000E+01 0. -1.
</event>
<event>
 4    1  0.7581446E-002  0.6000000E+02  0.7546771E-02  0.1259629E+00
         11   -1    0    0    0    0  0.00000000000E+00  0.00000000000E+00  0.30000000000E+02  0.30000000000E+02  0.00000000000E+00 0.  1.
        -11   -1    0    0    0    0 -0.00000000000E+00 -0.00000000000E+00 -0.30000000000E+02  0.30000000000E+02  0.00000000000E+00 0. -1.
          5    1    1    2  501    0 -0.27587873014E+02 -0.80009453464E+01  0.72666454521E+01  0.30000000000E+02  0.47000000000E+01 0. -1.
         -5    1    1    2    0  501  0.27587873014E+02  0.80009453464E+01 -0.72666454521E+01  0.30000000000E+02  0.47000000000E+01 0.  1.
</event>
<event>
 4    1  0.7581446E-002  0.6000000E+02  0.7546771E-02  0.1259629E+00
         11   -1    0    0    0    0  0.00000000000E+00  0.00000000000E+00  0.30000000000E+02  0.30000000000E+02  0.00000000000E+00 0.  1.
        -11   -1    0    0    0    0 -0.00000000000E+00 -0.00000000000E+00 -0.30000000000E+02  0.30000000000E+02  0.00000000000E+00 0. -1.
          5    1    1    2  501    0  0.95117122553E+01  0.33336355506E+01 -0.27862595069E+02  0.30000000000E+02  0.47000000000E+01 0. -1.
         -5    1    1    2    0  501 -0.95117122553E+01 -0.33336355506E+01  0.27862595069E+02  0.30000000000E+02  0.47000000000E+01 0.  1.
</event>
<event>
 4    1  0.7581446E-002  0.6000000E+02  0.7546771E-02  0.1259629E+00
         11   -1    0    0    0    0  0.00000000000E+00  0.00000000000E+00  0.30000000000E+02  0.30000000000E+02  0.00000000000E+00 0.  1.
        -11   -1    0    0    0    0 -0.00000000000E+00 -0.00000000000E+00 -0.30000000000E+02  0.30000000000E+02  0.00000000000E+00 0. -1.
          5    1    1    2  501    0 -0.21001427754E+02  0.18936149911E+02 -0.88471610607E+01  0.30000000000E+02  0.47000000000E+01 0. -1.
         -5    1    1    2    0  501  0.21001427754E+02 -0.18936149911E+02  0.88471610607E+01  0.30000000000E+02  0.47000000000E+01 0.  1.
</event>
<event>
 4    1  0.7581446E-002  0.6000000E+02  0.7546771E-02  0.1259629E+00
         11   -1    0    0    0    0  0.00000000000E+00  0.00000000000E+00  0.30000000000E+02  0.30000000000E+02  0.00000000000E+00 0.  1.
        -11   -1    0    0    0    0 -0.00000000000E+00 -0.00000000000E+00 -0.30000000000E+02  0.30000000000E+02  0.00000000000E+00 0. -1.
          5    1    1    2  501    0 -0.90686025775E+01  0.15539717235E+02 -0.23541190190E+02  0.30000000000E+02  0.47000000000E+01 0. -1.
         -5    1    1    2    0  501  0.90686025775E+01 -0.15539717235E+02  0.23541190190E+02  0.30000000000E+02  0.47000000000E+01 0.  1.
</event>
<event>
 4    1  0.7581446E-002  0.6000000E+02  0.7546771E-02  0.1259629E+00
         11   -1    0    0    0    0  0.00000000000E+00  0.00000000000E+00  0.30000000000E+02  0.30000000000E+02  0.00000000000E+00 0.  1.
        -11   -1    0    0    0    0 -0.00000000000E+00 -0.00000000000E+00 -0.30000000000E+02  0.30000000000E+02  0.00000000000E+00 0. -1.
          5    1    1    2  501    0  0.58253153494E+01  0.28069265635E+02  0.74894611164E+01  0.30000000000E+02  0.47000000000E+01 0. -1.
         -5    1    1    2    0  501 -0.58253153494E+01 -0.28069265635E+02 -0.74894611164E+01  0.30000000000E+02  0.47000000000E+01 0.  1.
</event>
<event>
 4    1  0.7581446E-002  0.6000000E+02  0.7546771E-02  0.1259629E+00
         11   -1    0    0    0    0  0.00000000000E+00  0.00000000000E+00  0.30000000000E+02  0.30000000000E+02  0.00000000000E+00 0.  1.
        -11   -1    0    0    0    0 -0.00000000000E+00 -0.00000000000E+00 -0.30000000000E+02  0.30000000000E+02  0.00000000000E+00 0. -1.
          5    1    1    2  501    0 -0.18102163335E+02 -0.22435453811E+02 -0.68463198063E+01  0.30000000000E+02  0.47000000000E+01 0. -1.
         -5    1    1    2    0  501  0.18102163335E+02  0.22435453811E+02  0.68463198063E+01  0.30000000000E+02  0.47000000000E+01 0.  1.
</event>
<event>
 4    1  0.7581446E-002  0.6000000E+02  0.7546771E-02  0.1259629E+00
         11   -1    0    0    0    0  0.00000000000E+00  0.00000000000E+00  0.30000000000E+02  0.30000000000E+02  0.00000000000E+00 0.  1.
        -11   -1    0    0    0    0 -0.00000000000E+00 -0.00000000000E+00 -0.30000000000E+02  0.30000000000E+02  0.00000000000E+00 0. -1.
          5    1    1    2  501    0  0.87707623452E+01 -0.23924343877E+02 -0.15119837893E+02  0.30000000000E+02  0.47000000000E+01 0. -1.
         -5    1    1    2    0  501 -0.87707623452E+01  0.23924343877E+02  0.15119837893E+02  0.30000000000E+02  0.47000000000E+01 0.  1.
</event>
<event>
 4    1  0.7581446E-002  0.6000000E+02  0.7546771E-02  0.1259629E+00
         11   -1    0    0    0    0  0.00000000000E+00  0.00000000000E+00  0.30000000000E+02  0.30000000000E+02  0.00000000000E+00 0.  1.
        -11   -1    0    0    0    0 -0.00000000000E+00 -0.00000000000E+00 -0.30000000000E+02  0.30000000000E+02  0.00000000000E+00 0. -1.
          5    1    1    2  501    0 -0.25154672097E+01  0.18667547646E+02 -0.22871490761E+02  0.30000000000E+02  0.47000000000E+01 0. -1.
         -5    1    1    2    0  501  0.25154672097E+01 -0.18667547646E+02  0.22871490761E+02  0.30000000000E+02  0.47000000000E+01 0.  1.
</event>
<event>
 4    1  0.7581446E-002  0.6000000E+02  0.7546771E-02  0.1259629E+00
         11   -1    0    0    0    0  0.00000000000E+00  0.00000000000E+00  0.30000000000E+02  0.30000000000E+02  0.00000000000E+00 0.  1.
        -11   -1    0    0    0    0 -0.00000000000E+00 -0.00000000000E+00 -0.30000000000E+02  0.30000000000E+02  0.00000000000E+00 0. -1.
          5    1    1    2  501    0 -0.25197317342E+01 -0.20383887475E+02 -0.21355516462E+02  0.30000000000E+02  0.47000000000E+01 0. -1.
         -5    1    1    2    0  501  0.25197317342E+01  0.20383887475E+02  0.21355516462E+02  0.30000000000E+02  0.47000000000E+01 0.  1.
</event>
<event>
 4    1  0.7581446E-002  0.6000000E+02  0.7546771E-02  0.1259629E+00
         11   -1    0    0    0    0  0.00000000000E+00  0.00000000000E+00  0.30000000000E+02  0.30000000000E+02  0.00000000000E+00 0.  1.
        -11   -1    0    0    0    0 -0.00000000000E+00 -0.00000000000E+00 -0.30000000000E+02  0.30000000000E+02  0.00000000000E+00 0. -1.
          5    1    1    2  501    0  0.18979620245E+02 -0.92438073091E+01 -0.20790287198E+02  0.30000000000E+02  0.47000000000E+01 0. -1.
         -5    1    1    2    0  501 -0.18979620245E+02  0.92438073091E+01  0.20790287198E+02  0.30000000000E+02  0.47000000000E+01 0.  1.
</event>
<event>
 4    1  0.7581446E-002  0.6000000E+02  0.7546771E-02  0.1259629E+00
         11   -1    0    0    0    0  0.00000000000E+00  0.00000000000E+00  0.30000000000E+02  0.30000000000E+02  0.00000000000E+00 0.  1.
        -11   -1    0    0    0    0 -0.00000000000E+00 -0.00000000000E+00 -0.30000000000E+02  0.30000000000E+02  0.00000000000E+00 0. -1.
          5    1    1    2  501    0  0.14632086002E+02 -0.11347080465E+01 -0.25739551217E+02  0.30000000000E+02  0.47000000000E+01 0. -1.
         -5    1    1    2    0  501 -0.14632086002E+02  0.11347080465E+01  0.25739551217E+02  0.30000000000E+02  0.47000000000E+01 0.  1.
</event>
<event>
 4    1  0.7581446E-002  0.6000000E+02  0.7546771E-02  0.1259629E+00
         11   -1    0    0    0    0  0.00000000000E+00  0.00000000000E+00  0.30000000000E+02  0.30000000000E+02  0.00000000000E+00 0. -1.
        -11   -1    0    0    0    0 -0.00000000000E+00 -0.00000000000E+00 -0.30000000000E+02  0.30000000000E+02  0.00000000000E+00 0.  1.
          5    1    1    2  501    0  0.43524658380E+01 -0.28989602331E+02  0.43091760005E+01  0.30000000000E+02  0.47000000000E+01 0. -1.
         -5    1    1    2    0  501 -0.43524658380E+01  0.28989602331E+02 -0.43091760005E+01  0.30000000000E+02  0.47000000000E+01 0.  1.
</event>
<event>
 4    1  0.7581446E-002  0.6000000E+02  0.7546771E-02  0.1259629E+00
         11   -1    0    0    0    0  0.00000000000E+00  0.00000000000E+00  0.30000000000E+02  0.30000000000E+02  0.00000000000E+00 0. -1.
        -11   -1    0    0    0    0 -0.00000000000E+00 -0.00000000000E+00 -0.30000000000E+02  0.30000000000E+02  0.00000000000E+00 0.  1.
          5    1    1    2  501    0  0.92342838786E+01  0.50159170338E+01 -0.27703403718E+02  0.30000000000E+02  0.47000000000E+01 0.  1.
         -5    1    1    2    0  501 -0.92342838786E+01 -0.50159170338E+01  0.27703403718E+02  0.30000000000E+02  0.47000000000E+01 0. -1.
</event>
<event>
 4    1  0.7581446E-002  0.6000000E+02  0.7546771E-02  0.1259629E+00
         11   -1    0    0    0    0  0.00000000000E+00  0.00000000000E+00  0.30000000000E+02  0.30000000000E+02  0.00000000000E+00 0.  1.
        -11   -1    0    0    0    0 -0.00000000000E+00 -0.00000000000E+00 -0.30000000000E+02  0.30000000000E+02  0.00000000000E+00 0. -1.
          5    1    1    2  501    0  0.20821131077E+00 -0.99567716558E+00 -0.29612079884E+02  0.30000000000E+02  0.47000000000E+01 0. -1.
         -5    1    1    2    0  501 -0.20821131077E+00  0.99567716558E+00  0.29612079884E+02  0.30000000000E+02  0.47000000000E+01 0.  1.
</event>
<event>
 4    1  0.7581446E-002  0.6000000E+02  0.7546771E-02  0.1259629E+00
         11   -1    0    0    0    0  0.00000000000E+00  0.00000000000E+00  0.30000000000E+02  0.30000000000E+02  0.00000000000E+00 0. -1.
        -11   -1    0    0    0    0 -0.00000000000E+00 -0.00000000000E+00 -0.30000000000E+02  0.30000000000E+02  0.00000000000E+00 0.  1.
          5    1    1    2  501    0  0.18258364956E+02  0.16011633716E+02 -0.16975561696E+02  0.30000000000E+02  0.47000000000E+01 0.  1.
         -5    1    1    2    0  501 -0.18258364956E+02 -0.16011633716E+02  0.16975561696E+02  0.30000000000E+02  0.47000000000E+01 0. -1.
</event>
<event>
 4    1  0.7581446E-002  0.6000000E+02  0.7546771E-02  0.1259629E+00
         11   -1    0    0    0    0  0.00000000000E+00  0.00000000000E+00  0.30000000000E+02  0.30000000000E+02  0.00000000000E+00 0. -1.
        -11   -1    0    0    0    0 -0.00000000000E+00 -0.00000000000E+00 -0.30000000000E+02  0.30000000000E+02  0.00000000000E+00 0.  1.
          5    1    1    2  501    0 -0.23502503773E+02  0.16922014658E+02 -0.62600108872E+01  0.30000000000E+02  0.47000000000E+01 0.  1.
         -5    1    1    2    0  501  0.23502503773E+02 -0.16922014658E+02  0.62600108872E+01  0.30000000000E+02  0.47000000000E+01 0. -1.
</event>
<event>
 4    1  0.7581446E-002  0.6000000E+02  0.7546771E-02  0.1259629E+00
         11   -1    0    0    0    0  0.00000000000E+00  0.00000000000E+00  0.30000000000E+02  0.30000000000E+02  0.00000000000E+00 0. -1.
        -11   -1    0    0    0    0 -0.00000000000E+00 -0.00000000000E+00 -0.30000000000E+02  0.30000000000E+02  0.00000000000E+00 0.  1.
          5    1    1    2  501    0  0.53153618939E+01 -0.17654437314E+02  0.23194347825E+02  0.30000000000E+02  0.47000000000E+01 0. -1.
         -5    1    1    2    0  501 -0.53153618939E+01  0.17654437314E+02 -0.23194347825E+02  0.30000000000E+02  0.47000000000E+01 0.  1.
</event>
<event>
 4    1  0.7581446E-002  0.6000000E+02  0.7546771E-02  0.1259629E+00
         11   -1    0    0    0    0  0.00000000000E+00  0.00000000000E+00  0.30000000000E+02  0.30000000000E+02  0.00000000000E+00 0.  1.
        -11   -1    0    0    0    0 -0.00000000000E+00 -0.00000000000E+00 -0.30000000000E+02  0.30000000000E+02  0.00000000000E+00 0. -1.
          5    1    1    2  501    0 -0.17204961152E+01  0.73964545153E+01 -0.28639873493E+02  0.30000000000E+02  0.47000000000E+01 0. -1.
         -5    1    1    2    0  501  0.17204961152E+01 -0.73964545153E+01  0.28639873493E+02  0.30000000000E+02  0.47000000000E+01 0.  1.
</event>
<event>
 4    1  0.7581446E-002  0.6000000E+02  0.7546771E-02  0.1259629E+00
         11   -1    0    0    0    0  0.00000000000E+00  0.00000000000E+00  0.30000000000E+02  0.30000000000E+02  0.00000000000E+00 0.  1.
        -11   -1    0    0    0    0 -0.00000000000E+00 -0.00000000000E+00 -0.30000000000E+02  0.30000000000E+02  0.00000000000E+00 0. -1.
          5    1    1    2  501    0  0.17804465740E+01 -0.16037855218E+01 -0.29532488585E+02  0.30000000000E+02  0.47000000000E+01 0. -1.
         -5    1    1    2    0  501 -0.17804465740E+01  0.16037855218E+01  0.29532488585E+02  0.30000000000E+02  0.47000000000E+01 0.  1.
</event>
<event>
 4    1  0.7581446E-002  0.6000000E+02  0.7546771E-02  0.1259629E+00
         11   -1    0    0    0    0  0.00000000000E+00  0.00000000000E+00  0.30000000000E+02  0.30000000000E+02  0.00000000000E+00 0. -1.
        -11   -1    0    0    0    0 -0.00000000000E+00 -0.00000000000E+00 -0.30000000000E+02  0.30000000000E+02  0.00000000000E+00 0.  1.
          5    1    1    2  501    0  0.59582472465E+01 -0.26322928390E+02 -0.12227539848E+02  0.30000000000E+02  0.47000000000E+01 0.  1.
         -5    1    1    2    0  501 -0.59582472465E+01  0.26322928390E+02  0.12227539848E+02  0.30000000000E+02  0.47000000000E+01 0. -1.
</event>
<event>
 4    1  0.7581446E-002  0.6000000E+02  0.7546771E-02  0.1259629E+00
         11   -1    0    0    0    0  0.00000000000E+00  0.00000000000E+00  0.30000000000E+02  0.30000000000E+02  0.00000000000E+00 0. -1.
        -11   -1    0    0    0    0 -0.00000000000E+00 -0.00000000000E+00 -0.30000000000E+02  0.30000000000E+02  0.00000000000E+00 0.  1.
          5    1    1    2  501    0 -0.10569530879E+02  0.90585432675E+01 -0.26156028194E+02  0.30000000000E+02  0.47000000000E+01 0.  1.
         -5    1    1    2    0  501  0.10569530879E+02 -0.90585432675E+01  0.26156028194E+02  0.30000000000E+02  0.47000000000E+01 0. -1.
</event>
<event>
 4    1  0.7581446E-002  0.6000000E+02  0.7546771E-02  0.1259629E+00
         11   -1    0    0    0    0  0.00000000000E+00  0.00000000000E+00  0.30000000000E+02  0.30000000000E+02  0.00000000000E+00 0.  1.
        -11   -1    0    0    0    0 -0.00000000000E+00 -0.00000000000E+00 -0.30000000000E+02  0.30000000000E+02  0.00000000000E+00 0. -1.
          5    1    1    2  501    0 -0.49717563687E+01 -0.28182824733E+02 -0.76759382932E+01  0.30000000000E+02  0.47000000000E+01 0. -1.
         -5    1    1    2    0  501  0.49717563687E+01  0.28182824733E+02  0.76759382932E+01  0.30000000000E+02  0.47000000000E+01 0.  1.
</event>
<event>
 4    1  0.7581446E-002  0.6000000E+02  0.7546771E-02  0.1259629E+00
         11   -1    0    0    0    0  0.00000000000E+00  0.00000000000E+00  0.30000000000E+02  0.30000000000E+02  0.00000000000E+00 0.  1.
        -11   -1    0    0    0    0 -0.00000000000E+00 -0.00000000000E+00 -0.30000000000E+02  0.30000000000E+02  0.00000000000E+00 0. -1.
          5    1    1    2  501    0  0.37881316177E+01  0.27539811559E+02 -0.10252747835E+02  0.30000000000E+02  0.47000000000E+01 0. -1.
         -5    1    1    2    0  501 -0.37881316177E+01 -0.27539811559E+02  0.10252747835E+02  0.30000000000E+02  0.47000000000E+01 0.  1.
</event>
<event>
 4    1  0.7581446E-002  0.6000000E+02  0.7546771E-02  0.1259629E+00
         11   -1    0    0    0    0  0.00000000000E+00  0.00000000000E+00  0.30000000000E+02  0.30000000000E+02  0.00000000000E+00 0. -1.
        -11   -1    0    0    0    0 -0.00000000000E+00 -0.00000000000E+00 -0.30000000000E+02  0.30000000000E+02  0.00000000000E+00 0.  1.
          5    1    1    2  501    0 -0.10882237535E+02 -0.76704702258E+01 -0.26469809080E+02  0.30000000000E+02  0.47000000000E+01 0.  1.
         -5    1    1    2    0  501  0.10882237535E+02  0.76704702258E+01  0.26469809080E+02  0.30000000000E+02  0.47000000000E+01 0. -1.
</event>
<event>
 4    1  0.7581446E-002  0.6000000E+02  0.7546771E-02  0.1259629E+00
         11   -1    0    0    0    0  0.00000000000E+00  0.00000000000E+00  0.30000000000E+02  0.30000000000E+02  0.00000000000E+00 0. -1.
        -11   -1    0    0    0    0 -0.00000000000E+00 -0.00000000000E+00 -0.30000000000E+02  0.30000000000E+02  0.00000000000E+00 0.  1.
          5    1    1    2  501    0 -0.18725147081E+02 -0.16167963775E+02 -0.16305698825E+02  0.30000000000E+02  0.47000000000E+01 0.  1.
         -5    1    1    2    0  501  0.18725147081E+02  0.16167963775E+02  0.16305698825E+02  0.30000000000E+02  0.47000000000E+01 0. -1.
</event>
<event>
 4    1  0.7581446E-002  0.6000000E+02  0.7546771E-02  0.1259629E+00
         11   -1    0    0    0    0  0.00000000000E+00  0.00000000000E+00  0.30000000000E+02  0.30000000000E+02  0.00000000000E+00 0.  1.
        -11   -1    0    0    0    0 -0.00000000000E+00 -0.00000000000E+00 -0.30000000000E+02  0.30000000000E+02  0.00000000000E+00 0. -1.
          5    1    1    2  501    0  0.26297170884E+02 -0.27366300900E+01 -0.13374590060E+02  0.30000000000E+02  0.47000000000E+01 0. -1.
         -5    1    1    2    0  501 -0.26297170884E+02  0.27366300900E+01  0.13374590060E+02  0.30000000000E+02  0.47000000000E+01 0.  1.
</event>
<event>
 4    1  0.7581446E-002  0.6000000E+02  0.7546771E-02  0.1259629E+00
         11   -1    0    0    0    0  0.00000000000E+00  0.00000000000E+00  0.30000000000E+02  0.30000000000E+02  0.00000000000E+00 0.  1.
        -11   -1    0    0    0    0 -0.00000000000E+00 -0.00000000000E+00 -0.30000000000E+02  0.30000000000E+02  0.00000000000E+00 0. -1.
          5    1    1    2  501    0 -0.19492809320E+02 -0.46997275614E+01 -0.21814053857E+02  0.30000000000E+02  0.47000000000E+01 0. -1.
         -5    1    1    2    0  501  0.19492809320E+02  0.46997275614E+01  0.21814053857E+02  0.30000000000E+02  0.47000000000E+01 0.  1.
</event>
<event>
 4    1  0.7581446E-002  0.6000000E+02  0.7546771E-02  0.1259629E+00
         11   -1    0    0    0    0  0.00000000000E+00  0.00000000000E+00  0.30000000000E+02  0.30000000000E+02  0.00000000000E+00 0.  1.
        -11   -1    0    0    0    0 -0.00000000000E+00 -0.00000000000E+00 -0.30000000000E+02  0.30000000000E+02  0.00000000000E+00 0. -1.
          5    1    1    2  501    0  0.88792195119E+01 -0.25492035630E+02 -0.12215792250E+02  0.30000000000E+02  0.47000000000E+01 0. -1.
         -5    1    1    2    0  501 -0.88792195119E+01  0.25492035630E+02  0.12215792250E+02  0.30000000000E+02  0.47000000000E+01 0.  1.
</event>
<event>
 4    1  0.7581446E-002  0.6000000E+02  0.7546771E-02  0.1259629E+00
         11   -1    0    0    0    0  0.00000000000E+00  0.00000000000E+00  0.30000000000E+02  0.30000000000E+02  0.00000000000E+00 0. -1.
        -11   -1    0    0    0    0 -0.00000000000E+00 -0.00000000000E+00 -0.30000000000E+02  0.30000000000E+02  0.00000000000E+00 0.  1.
          5    1    1    2  501    0 -0.13129437968E+02 -0.98525027391E+01 -0.24666901881E+02  0.30000000000E+02  0.47000000000E+01 0.  1.
         -5    1    1    2    0  501  0.13129437968E+02  0.98525027391E+01  0.24666901881E+02  0.30000000000E+02  0.47000000000E+01 0. -1.
</event>
<event>
 4    1  0.7581446E-002  0.6000000E+02  0.7546771E-02  0.1259629E+00
         11   -1    0    0    0    0  0.00000000000E+00  0.00000000000E+00  0.30000000000E+02  0.30000000000E+02  0.00000000000E+00 0.  1.
        -11   -1    0    0    0    0 -0.00000000000E+00 -0.00000000000E+00 -0.30000000000E+02  0.30000000000E+02  0.00000000000E+00 0. -1.
          5    1    1    2  501    0 -0.18309683988E+02 -0.64564103288E+01 -0.22382587829E+02  0.30000000000E+02  0.47000000000E+01 0. -1.
         -5    1    1    2    0  501  0.18309683988E+02  0.64564103288E+01  0.22382587829E+02  0.30000000000E+02  0.47000000000E+01 0.  1.
</event>
<event>
 4    1  0.7581446E-002  0.6000000E+02  0.7546771E-02  0.1259629E+00
         11   -1    0    0    0    0  0.00000000000E+00  0.00000000000E+00  0.30000000000E+02  0.30000000000E+02  0.00000000000E+00 0. -1.
        -11   -1    0    0    0    0 -0.00000000000E+00 -0.00000000000E+00 -0.30000000000E+02  0.30000000000E+02  0.00000000000E+00 0.  1.
          5    1    1    2  501    0  0.60424345001E+01 -0.22764473985E+01 -0.28917412964E+02  0.30000000000E+02  0.47000000000E+01 0.  1.
         -5    1    1    2    0  501 -0.60424345001E+01  0.22764473985E+01  0.28917412964E+02  0.30000000000E+02  0.47000000000E+01 0. -1.
</event>
<event>
 4    1  0.7581446E-002  0.6000000E+02  0.7546771E-02  0.1259629E+00
         11   -1    0    0    0    0  0.00000000000E+00  0.00000000000E+00  0.30000000000E+02  0.30000000000E+02  0.00000000000E+00 0.  1.
        -11   -1    0    0    0    0 -0.00000000000E+00 -0.00000000000E+00 -0.30000000000E+02  0.30000000000E+02  0.00000000000E+00 0. -1.
          5    1    1    2  501    0 -0.69367845063E+00  0.13388363978E+02 -0.26423105801E+02  0.30000000000E+02  0.47000000000E+01 0. -1.
         -5    1    1    2    0  501  0.69367845063E+00 -0.13388363978E+02  0.26423105801E+02  0.30000000000E+02  0.47000000000E+01 0.  1.
</event>
<event>
 4    1  0.7581446E-002  0.6000000E+02  0.7546771E-02  0.1259629E+00
         11   -1    0    0    0    0  0.00000000000E+00  0.00000000000E+00  0.30000000000E+02  0.30000000000E+02  0.00000000000E+00 0.  1.
        -11   -1    0    0    0    0 -0.00000000000E+00 -0.00000000000E+00 -0.30000000000E+02  0.30000000000E+02  0.00000000000E+00 0. -1.
          5    1    1    2  501    0 -0.12461659269E+02 -0.13808595538E+02 -0.23063818798E+02  0.30000000000E+02  0.47000000000E+01 0. -1.
         -5    1    1    2    0  501  0.12461659269E+02  0.13808595538E+02  0.23063818798E+02  0.30000000000E+02  0.47000000000E+01 0.  1.
</event>
<event>
 4    1  0.7581446E-002  0.6000000E+02  0.7546771E-02  0.1259629E+00
         11   -1    0    0    0    0  0.00000000000E+00  0.00000000000E+00  0.30000000000E+02  0.30000000000E+02  0.00000000000E+00 0.  1.
        -11   -1    0    0    0    0 -0.00000000000E+00 -0.00000000000E+00 -0.30000000000E+02  0.30000000000E+02  0.00000000000E+00 0. -1.
          5    1    1    2  501    0 -0.15676249732E+02  0.41913654325E+01  0.24791080052E+02  0.30000000000E+02  0.47000000000E+01 0.  1.
         -5    1    1    2    0  501  0.15676249732E+02 -0.41913654325E+01 -0.24791080052E+02  0.30000000000E+02  0.47000000000E+01 0. -1.
</event>
<event>
 4    1  0.7581446E-002  0.6000000E+02  0.7546771E-02  0.1259629E+00
         11   -1    0    0    0    0  0.00000000000E+00  0.00000000000E+00  0.30000000000E+02  0.30000000000E+02  0.00000000000E+00 0. -1.
        -11   -1    0    0    0    0 -0.00000000000E+00 -0.00000000000E+00 -0.30000000000E+02  0.30000000000E+02  0.00000000000E+00 0.  1.
          5    1    1    2  501    0  0.12761780404E+02  0.68260689424E+01 -0.25854433734E+02  0.30000000000E+02  0.47000000000E+01 0.  1.
         -5    1    1    2    0  501 -0.12761780404E+02 -0.68260689424E+01  0.25854433734E+02  0.30000000000E+02  0.47000000000E+01 0. -1.
</event>
<event>
 4    1  0.7581446E-002  0.6000000E+02  0.7546771E-02  0.1259629E+00
         11   -1    0    0    0    0  0.00000000000E+00  0.00000000000E+00  0.30000000000E+02  0.30000000000E+02  0.00000000000E+00 0.  1.
        -11   -1    0    0    0    0 -0.00000000000E+00 -0.00000000000E+00 -0.30000000000E+02  0.30000000000E+02  0.00000000000E+00 0. -1.
          5    1    1    2  501    0  0.48817968680E+01 -0.13465818607E+02 -0.25937420623E+02  0.30000000000E+02  0.47000000000E+01 0. -1.
         -5    1    1    2    0  501 -0.48817968680E+01  0.13465818607E+02  0.25937420623E+02  0.30000000000E+02  0.47000000000E+01 0.  1.
</event>
<event>
 4    1  0.7581446E-002  0.6000000E+02  0.7546771E-02  0.1259629E+00
         11   -1    0    0    0    0  0.00000000000E+00  0.00000000000E+00  0.30000000000E+02  0.30000000000E+02  0.00000000000E+00 0.  1.
        -11   -1    0    0    0    0 -0.00000000000E+00 -0.00000000000E+00 -0.30000000000E+02  0.30000000000E+02  0.00000000000E+00 0. -1.
          5    1    1    2  501    0  0.26471695712E+02 -0.25243068714E+01  0.13068557722E+02  0.30000000000E+02  0.47000000000E+01 0.  1.
         -5    1    1    2    0  501 -0.26471695712E+02  0.25243068714E+01 -0.13068557722E+02  0.30000000000E+02  0.47000000000E+01 0. -1.
</event>
<event>
 4    1  0.7581446E-002  0.6000000E+02  0.7546771E-02  0.1259629E+00
         11   -1    0    0    0    0  0.00000000000E+00  0.00000000000E+00  0.30000000000E+02  0.30000000000E+02  0.00000000000E+00 0. -1.
        -11   -1    0    0    0    0 -0.00000000000E+00 -0.00000000000E+00 -0.30000000000E+02  0.30000000000E+02  0.00000000000E+00 0.  1.
          5    1    1    2  501    0 -0.18890362476E+02 -0.86335574203E+01 -0.21131159263E+02  0.30000000000E+02  0.47000000000E+01 0.  1.
         -5    1    1    2    0  501  0.18890362476E+02  0.86335574203E+01  0.21131159263E+02  0.30000000000E+02  0.47000000000E+01 0. -1.
</event>
<event>
 4    1  0.7581446E-002  0.6000000E+02  0.7546771E-02  0.1259629E+00
         11   -1    0    0    0    0  0.00000000000E+00  0.00000000000E+00  0.30000000000E+02  0.30000000000E+02  0.00000000000E+00 0.  1.
        -11   -1    0    0    0    0 -0.00000000000E+00 -0.00000000000E+00 -0.30000000000E+02  0.30000000000E+02  0.00000000000E+00 0. -1.
          5    1    1    2  501    0 -0.10894511501E+02  0.13332301339E+02 -0.24113675791E+02  0.30000000000E+02  0.47000000000E+01 0. -1.
         -5    1    1    2    0  501  0.10894511501E+02 -0.13332301339E+02  0.24113675791E+02  0.30000000000E+02  0.47000000000E+01 0.  1.
</event>
<event>
 4    1  0.7581446E-002  0.6000000E+02  0.7546771E-02  0.1259629E+00
         11   -1    0    0    0    0  0.00000000000E+00  0.00000000000E+00  0.30000000000E+02  0.30000000000E+02  0.00000000000E+00 0.  1.
        -11   -1    0    0    0    0 -0.00000000000E+00 -0.00000000000E+00 -0.30000000000E+02  0.30000000000E+02  0.00000000000E+00 0. -1.
          5    1    1    2  501    0  0.99010273431E+01  0.42383772857E+01 -0.27602822601E+02  0.30000000000E+02  0.47000000000E+01 0. -1.
         -5    1    1    2    0  501 -0.99010273431E+01 -0.42383772857E+01  0.27602822601E+02  0.30000000000E+02  0.47000000000E+01 0.  1.
</event>
<event>
 4    1  0.7581446E-002  0.6000000E+02  0.7546771E-02  0.1259629E+00
         11   -1    0    0    0    0  0.00000000000E+00  0.00000000000E+00  0.30000000000E+02  0.30000000000E+02  0.00000000000E+00 0.  1.
        -11   -1    0    0    0    0 -0.00000000000E+00 -0.00000000000E+00 -0.30000000000E+02  0.30000000000E+02  0.00000000000E+00 0. -1.
          5    1    1    2  501    0 -0.25612528854E+02 -0.14479910849E+02 -0.34986493816E+01  0.30000000000E+02  0.47000000000E+01 0. -1.
         -5    1    1    2    0  501  0.25612528854E+02  0.14479910849E+02  0.34986493816E+01  0.30000000000E+02  0.47000000000E+01 0.  1.
</event>
<event>
 4    1  0.7581446E-002  0.6000000E+02  0.7546771E-02  0.1259629E+00
         11   -1    0    0    0    0  0.00000000000E+00  0.00000000000E+00  0.30000000000E+02  0.30000000000E+02  0.00000000000E+00 0. -1.
        -11   -1    0    0    0    0 -0.00000000000E+00 -0.00000000000E+00 -0.30000000000E+02  0.30000000000E+02  0.00000000000E+00 0.  1.
          5    1    1    2  501    0 -0.22221582459E+02 -0.56128550106E+01 -0.18777836181E+02  0.30000000000E+02  0.47000000000E+01 0.  1.
         -5    1    1    2    0  501  0.22221582459E+02  0.56128550106E+01  0.18777836181E+02  0.30000000000E+02  0.47000000000E+01 0. -1.
</event>
<event>
 4    1  0.7581446E-002  0.6000000E+02  0.7546771E-02  0.1259629E+00
         11   -1    0    0    0    0  0.00000000000E+00  0.00000000000E+00  0.30000000000E+02  0.30000000000E+02  0.00000000000E+00 0.  1.
        -11   -1    0    0    0    0 -0.00000000000E+00 -0.00000000000E+00 -0.30000000000E+02  0.30000000000E+02  0.00000000000E+00 0. -1.
          5    1    1    2  501    0  0.15501835238E+01  0.20447196481E+02 -0.21387358114E+02  0.30000000000E+02  0.47000000000E+01 0. -1.
         -5    1    1    2    0  501 -0.15501835238E+01 -0.20447196481E+02  0.21387358114E+02  0.30000000000E+02  0.47000000000E+01 0.  1.
</event>
<event>
 4    1  0.7581446E-002  0.6000000E+02  0.7546771E-02  0.1259629E+00
         11   -1    0    0    0    0  0.00000000000E+00  0.00000000000E+00  0.30000000000E+02  0.30000000000E+02  0.00000000000E+00 0.  1.
        -11   -1    0    0    0    0 -0.00000000000E+00 -0.00000000000E+00 -0.30000000000E+02  0.30000000000E+02  0.00000000000E+00 0. -1.
          5    1    1    2  501    0  0.32299503349E+00  0.44647248655E+01  0.29289450423E+02  0.30000000000E+02  0.47000000000E+01 0.  1.
         -5    1    1    2    0  501 -0.32299503349E+00 -0.44647248655E+01 -0.29289450423E+02  0.30000000000E+02  0.47000000000E+01 0. -1.
</event>
<event>
 4    1  0.7581446E-002  0.6000000E+02  0.7546771E-02  0.1259629E+00
         11   -1    0    0    0    0  0.00000000000E+00  0.00000000000E+00  0.30000000000E+02  0.30000000000E+02  0.00000000000E+00 0.  1.
        -11   -1    0    0    0    0 -0.00000000000E+00 -0.00000000000E+00 -0.30000000000E+02  0.30000000000E+02  0.00000000000E+00 0. -1.
          5    1    1    2  501    0  0.25316939337E+02  0.12451101872E+02 -0.90516653048E+01  0.30000000000E+02  0.47000000000E+01 0. -1.
         -5    1    1    2    0  501 -0.25316939337E+02 -0.12451101872E+02  0.90516653048E+01  0.30000000000E+02  0.47000000000E+01 0.  1.
</event>
<event>
 4    1  0.7581446E-002  0.6000000E+02  0.7546771E-02  0.1259629E+00
         11   -1    0    0    0    0  0.00000000000E+00  0.00000000000E+00  0.30000000000E+02  0.30000000000E+02  0.00000000000E+00 0. -1.
        -11   -1    0    0    0    0 -0.00000000000E+00 -0.00000000000E+00 -0.30000000000E+02  0.30000000000E+02  0.00000000000E+00 0.  1.
          5    1    1    2  501    0  0.29226564943E+02 -0.39951608771E+01 -0.27850657486E+01  0.30000000000E+02  0.47000000000E+01 0.  1.
         -5    1    1    2    0  501 -0.29226564943E+02  0.39951608771E+01  0.27850657486E+01  0.30000000000E+02  0.47000000000E+01 0. -1.
</event>
<event>
 4    1  0.7581446E-002  0.6000000E+02  0.7546771E-02  0.1259629E+00
         11   -1    0    0    0    0  0.00000000000E+00  0.00000000000E+00  0.30000000000E+02  0.30000000000E+02  0.00000000000E+00 0.  1.
        -11   -1    0    0    0    0 -0.00000000000E+00 -0.00000000000E+00 -0.30000000000E+02  0.30000000000E+02  0.00000000000E+00 0. -1.
          5    1    1    2  501    0 -0.18436747318E+02  0.83938834471E+01 -0.21622651757E+02  0.30000000000E+02  0.47000000000E+01 0. -1.
         -5    1    1    2    0  501  0.18436747318E+02 -0.83938834471E+01  0.21622651757E+02  0.30000000000E+02  0.47000000000E+01 0.  1.
</event>
<event>
 4    1  0.7581446E-002  0.6000000E+02  0.7546771E-02  0.1259629E+00
         11   -1    0    0    0    0  0.00000000000E+00  0.00000000000E+00  0.30000000000E+02  0.30000000000E+02  0.00000000000E+00 0.  1.
        -11   -1    0    0    0    0 -0.00000000000E+00 -0.00000000000E+00 -0.30000000000E+02  0.30000000000E+02  0.00000000000E+00 0. -1.
          5    1    1    2  501    0  0.16454073276E+02 -0.15581419397E+02 -0.19089076515E+02  0.30000000000E+02  0.47000000000E+01 0. -1.
         -5    1    1    2    0  501 -0.16454073276E+02  0.15581419397E+02  0.19089076515E+02  0.30000000000E+02  0.47000000000E+01 0.  1.
</event>
<event>
 4    1  0.7581446E-002  0.6000000E+02  0.7546771E-02  0.1259629E+00
         11   -1    0    0    0    0  0.00000000000E+00  0.00000000000E+00  0.30000000000E+02  0.30000000000E+02  0.00000000000E+00 0.  1.
        -11   -1    0    0    0    0 -0.00000000000E+00 -0.00000000000E+00 -0.30000000000E+02  0.30000000000E+02  0.00000000000E+00 0. -1.
          5    1    1    2  501    0  0.13915209948E+02  0.15051507847E+02 -0.21394603143E+02  0.30000000000E+02  0.47000000000E+01 0. -1.
         -5    1    1    2    0  501 -0.13915209948E+02 -0.15051507847E+02  0.21394603143E+02  0.30000000000E+02  0.47000000000E+01 0.  1.
</event>
<event>
 4    1  0.7581446E-002  0.6000000E+02  0.7546771E-02  0.1259629E+00
         11   -1    0    0    0    0  0.00000000000E+00  0.00000000000E+00  0.30000000000E+02  0.30000000000E+02  0.00000000000E+00 0.  1.
        -11   -1    0    0    0    0 -0.00000000000E+00 -0.00000000000E+00 -0.30000000000E+02  0.30000000000E+02  0.00000000000E+00 0. -1.
          5    1    1    2  501    0 -0.28948537737E+02 -0.24994929585E+01 -0.58004049717E+01  0.30000000000E+02  0.47000000000E+01 0. -1.
         -5    1    1    2    0  501  0.28948537737E+02  0.24994929585E+01  0.58004049717E+01  0.30000000000E+02  0.47000000000E+01 0.  1.
</event>
<event>
 4    1  0.7581446E-002  0.6000000E+02  0.7546771E-02  0.1259629E+00
         11   -1    0    0    0    0  0.00000000000E+00  0.00000000000E+00  0.30000000000E+02  0.30000000000E+02  0.00000000000E+00 0. -1.
        -11   -1    0    0    0    0 -0.00000000000E+00 -0.00000000000E+00 -0.30000000000E+02  0.30000000000E+02  0.00000000000E+00 0.  1.
          5    1    1    2  501    0 -0.80862958710E+01 -0.24919334030E+02 -0.13840108763E+02  0.30000000000E+02  0.47000000000E+01 0.  1.
         -5    1    1    2    0  501  0.80862958710E+01  0.24919334030E+02  0.13840108763E+02  0.30000000000E+02  0.47000000000E+01 0. -1.
</event>
<event>
 4    1  0.7581446E-002  0.6000000E+02  0.7546771E-02  0.1259629E+00
         11   -1    0    0    0    0  0.00000000000E+00  0.00000000000E+00  0.30000000000E+02  0.30000000000E+02  0.00000000000E+00 0.  1.
        -11   -1    0    0    0    0 -0.00000000000E+00 -0.00000000000E+00 -0.30000000000E+02  0.30000000000E+02  0.00000000000E+00 0. -1.
          5    1    1    2  501    0  0.10764939557E+02 -0.30259363887E+00 -0.27603161294E+02  0.30000000000E+02  0.47000000000E+01 0. -1.
         -5    1    1    2    0  501 -0.10764939557E+02  0.30259363887E+00  0.27603161294E+02  0.30000000000E+02  0.47000000000E+01 0.  1.
</event>
<event>
 4    1  0.7581446E-002  0.6000000E+02  0.7546771E-02  0.1259629E+00
         11   -1    0    0    0    0  0.00000000000E+00  0.00000000000E+00  0.30000000000E+02  0.30000000000E+02  0.00000000000E+00 0.  1.
        -11   -1    0    0    0    0 -0.00000000000E+00 -0.00000000000E+00 -0.30000000000E+02  0.30000000000E+02  0.00000000000E+00 0. -1.
          5    1    1    2  501    0  0.26977157140E+02 -0.10867441924E+02 -0.56605387275E+01  0.30000000000E+02  0.47000000000E+01 0. -1.
         -5    1    1    2    0  501 -0.26977157140E+02  0.10867441924E+02  0.56605387275E+01  0.30000000000E+02  0.47000000000E+01 0.  1.
</event>
<event>
 4    1  0.7581446E-002  0.6000000E+02  0.7546771E-02  0.1259629E+00
         11   -1    0    0    0    0  0.00000000000E+00  0.00000000000E+00  0.30000000000E+02  0.30000000000E+02  0.00000000000E+00 0.  1.
        -11   -1    0    0    0    0 -0.00000000000E+00 -0.00000000000E+00 -0.30000000000E+02  0.30000000000E+02  0.00000000000E+00 0. -1.
          5    1    1    2  501    0  0.14717802071E+02 -0.21942769671E+02 -0.13409368418E+02  0.30000000000E+02  0.47000000000E+01 0. -1.
         -5    1    1    2    0  501 -0.14717802071E+02  0.21942769671E+02  0.13409368418E+02  0.30000000000E+02  0.47000000000E+01 0.  1.
</event>
<event>
 4    1  0.7581446E-002  0.6000000E+02  0.7546771E-02  0.1259629E+00
         11   -1    0    0    0    0  0.00000000000E+00  0.00000000000E+00  0.30000000000E+02  0.30000000000E+02  0.00000000000E+00 0.  1.
        -11   -1    0    0    0    0 -0.00000000000E+00 -0.00000000000E+00 -0.30000000000E+02  0.30000000000E+02  0.00000000000E+00 0. -1.
          5    1    1    2  501    0  0.78714588949E+01  0.17271310763E+02 -0.22751966055E+02  0.30000000000E+02  0.47000000000E+01 0. -1.
         -5    1    1    2    0  501 -0.78714588949E+01 -0.17271310763E+02  0.22751966055E+02  0.30000000000E+02  0.47000000000E+01 0.  1.
</event>
<event>
 4    1  0.7581446E-002  0.6000000E+02  0.7546771E-02  0.1259629E+00
         11   -1    0    0    0    0  0.00000000000E+00  0.00000000000E+00  0.30000000000E+02  0.30000000000E+02  0.00000000000E+00 0.  1.
        -11   -1    0    0    0    0 -0.00000000000E+00 -0.00000000000E+00 -0.30000000000E+02  0.30000000000E+02  0.00000000000E+00 0. -1.
          5    1    1    2  501    0 -0.11742858349E+02 -0.26513963807E+02  0.60848172570E+01  0.30000000000E+02  0.47000000000E+01 0. -1.
         -5    1    1    2    0  501  0.11742858349E+02  0.26513963807E+02 -0.60848172570E+01  0.30000000000E+02  0.47000000000E+01 0.  1.
</event>
<event>
 4    1  0.7581446E-002  0.6000000E+02  0.7546771E-02  0.1259629E+00
         11   -1    0    0    0    0  0.00000000000E+00  0.00000000000E+00  0.30000000000E+02  0.30000000000E+02  0.00000000000E+00 0. -1.
        -11   -1    0    0    0    0 -0.00000000000E+00 -0.00000000000E+00 -0.30000000000E+02  0.30000000000E+02  0.00000000000E+00 0.  1.
          5    1    1    2  501    0 -0.23246758828E+02 -0.17265945203E+02  0.62757740748E+01  0.30000000000E+02  0.47000000000E+01 0. -1.
         -5    1    1    2    0  501  0.23246758828E+02  0.17265945203E+02 -0.62757740748E+01  0.30000000000E+02  0.47000000000E+01 0.  1.
</event>
<event>
 4    1  0.7581446E-002  0.6000000E+02  0.7546771E-02  0.1259629E+00
         11   -1    0    0    0    0  0.00000000000E+00  0.00000000000E+00  0.30000000000E+02  0.30000000000E+02  0.00000000000E+00 0. -1.
        -11   -1    0    0    0    0 -0.00000000000E+00 -0.00000000000E+00 -0.30000000000E+02  0.30000000000E+02  0.00000000000E+00 0.  1.
          5    1    1    2  501    0  0.17264611924E+02 -0.16527201315E+02 -0.17512703727E+02  0.30000000000E+02  0.47000000000E+01 0.  1.
         -5    1    1    2    0  501 -0.17264611924E+02  0.16527201315E+02  0.17512703727E+02  0.30000000000E+02  0.47000000000E+01 0. -1.
</event>
<event>
 4    1  0.7581446E-002  0.6000000E+02  0.7546771E-02  0.1259629E+00
         11   -1    0    0    0    0  0.00000000000E+00  0.00000000000E+00  0.30000000000E+02  0.30000000000E+02  0.00000000000E+00 0. -1.
        -11   -1    0    0    0    0 -0.00000000000E+00 -0.00000000000E+00 -0.30000000000E+02  0.30000000000E+02  0.00000000000E+00 0.  1.
          5    1    1    2  501    0 -0.22538602147E+02 -0.12794696433E+01 -0.19190736585E+02  0.30000000000E+02  0.47000000000E+01 0.  1.
         -5    1    1    2    0  501  0.22538602147E+02  0.12794696433E+01  0.19190736585E+02  0.30000000000E+02  0.47000000000E+01 0. -1.
</event>
<event>
 4    1  0.7581446E-002  0.6000000E+02  0.7546771E-02  0.1259629E+00
         11   -1    0    0    0    0  0.00000000000E+00  0.00000000000E+00  0.30000000000E+02  0.30000000000E+02  0.00000000000E+00 0.  1.
        -11   -1    0    0    0    0 -0.00000000000E+00 -0.00000000000E+00 -0.30000000000E+02  0.30000000000E+02  0.00000000000E+00 0. -1.
          5    1    1    2  501    0 -0.19310769649E+02  0.22124694717E+02 -0.39372654511E+01  0.30000000000E+02  0.47000000000E+01 0. -1.
         -5    1    1    2    0  501  0.19310769649E+02 -0.22124694717E+02  0.39372654511E+01  0.30000000000E+02  0.47000000000E+01 0.  1.
</event>
<event>
 4    1  0.7581446E-002  0.6000000E+02  0.7546771E-02  0.1259629E+00
         11   -1    0    0    0    0  0.00000000000E+00  0.00000000000E+00  0.30000000000E+02  0.30000000000E+02  0.00000000000E+00 0. -1.
        -11   -1    0    0    0    0 -0.00000000000E+00 -0.00000000000E+00 -0.30000000000E+02  0.30000000000E+02  0.00000000000E+00 0.  1.
          5    1    1    2  501    0  0.13188605335E+01  0.22472163247E+02  0.19265837275E+02  0.30000000000E+02  0.47000000000E+01 0.  1.
         -5    1    1    2    0  501 -0.13188605335E+01 -0.22472163247E+02 -0.19265837275E+02  0.30000000000E+02  0.47000000000E+01 0. -1.
</event>
<event>
 4    1  0.7581446E-002  0.6000000E+02  0.7546771E-02  0.1259629E+00
         11   -1    0    0    0    0  0.00000000000E+00  0.00000000000E+00  0.30000000000E+02  0.30000000000E+02  0.00000000000E+00 0.  1.
        -11   -1    0    0    0    0 -0.00000000000E+00 -0.00000000000E+00 -0.30000000000E+02  0.30000000000E+02  0.00000000000E+00 0. -1.
          5    1    1    2  501    0 -0.26990634703E+02 -0.56958654963E+01 -0.10815394333E+02  0.30000000000E+02  0.47000000000E+01 0. -1.
         -5    1    1    2    0  501  0.26990634703E+02  0.56958654963E+01  0.10815394333E+02  0.30000000000E+02  0.47000000000E+01 0.  1.
</event>
<event>
 4    1  0.7581446E-002  0.6000000E+02  0.7546771E-02  0.1259629E+00
         11   -1    0    0    0    0  0.00000000000E+00  0.00000000000E+00  0.30000000000E+02  0.30000000000E+02  0.00000000000E+00 0. -1.
        -11   -1    0    0    0    0 -0.00000000000E+00 -0.00000000000E+00 -0.30000000000E+02  0.30000000000E+02  0.00000000000E+00 0.  1.
          5    1    1    2  501    0  0.87121490744E-01 -0.44218546426E+01 -0.29297604192E+02  0.30000000000E+02  0.47000000000E+01 0.  1.
         -5    1    1    2    0  501 -0.87121490744E-01  0.44218546426E+01  0.29297604192E+02  0.30000000000E+02  0.47000000000E+01 0. -1.
</event>
<event>
 4    1  0.7581446E-002  0.6000000E+02  0.7546771E-02  0.1259629E+00
         11   -1    0    0    0    0  0.00000000000E+00  0.00000000000E+00  0.30000000000E+02  0.30000000000E+02  0.00000000000E+00 0.  1.
        -11   -1    0    0    0    0 -0.00000000000E+00 -0.00000000000E+00 -0.30000000000E+02  0.30000000000E+02  0.00000000000E+00 0. -1.
          5    1    1    2  501    0 -0.17834683837E+02  0.11263301915E+02 -0.20807981219E+02  0.30000000000E+02  0.47000000000E+01 0. -1.
         -5    1    1    2    0  501  0.17834683837E+02 -0.11263301915E+02  0.20807981219E+02  0.30000000000E+02  0.47000000000E+01 0.  1.
</event>
<event>
 4    1  0.7581446E-002  0.6000000E+02  0.7546771E-02  0.1259629E+00
         11   -1    0    0    0    0  0.00000000000E+00  0.00000000000E+00  0.30000000000E+02  0.30000000000E+02  0.00000000000E+00 0.  1.
        -11   -1    0    0    0    0 -0.00000000000E+00 -0.00000000000E+00 -0.30000000000E+02  0.30000000000E+02  0.00000000000E+00 0. -1.
          5    1    1    2  501    0 -0.11469862723E+01 -0.16896673664E+02  0.24312483246E+02  0.30000000000E+02  0.47000000000E+01 0.  1.
         -5    1    1    2    0  501  0.11469862723E+01  0.16896673664E+02 -0.24312483246E+02  0.30000000000E+02  0.47000000000E+01 0. -1.
</event>
<event>
 4    1  0.7581446E-002  0.6000000E+02  0.7546771E-02  0.1259629E+00
         11   -1    0    0    0    0  0.00000000000E+00  0.00000000000E+00  0.30000000000E+02  0.30000000000E+02  0.00000000000E+00 0.  1.
        -11   -1    0    0    0    0 -0.00000000000E+00 -0.00000000000E+00 -0.30000000000E+02  0.30000000000E+02  0.00000000000E+00 0. -1.
          5    1    1    2  501    0  0.39298640155E+00  0.22197474612E+01 -0.29543667391E+02  0.30000000000E+02  0.47000000000E+01 0. -1.
         -5    1    1    2    0  501 -0.39298640155E+00 -0.22197474612E+01  0.29543667391E+02  0.30000000000E+02  0.47000000000E+01 0.  1.
</event>
<event>
 4    1  0.7581446E-002  0.6000000E+02  0.7546771E-02  0.1259629E+00
         11   -1    0    0    0    0  0.00000000000E+00  0.00000000000E+00  0.30000000000E+02  0.30000000000E+02  0.00000000000E+00 0.  1.
        -11   -1    0    0    0    0 -0.00000000000E+00 -0.00000000000E+00 -0.30000000000E+02  0.30000000000E+02  0.00000000000E+00 0. -1.
          5    1    1    2  501    0  0.49364212890E+01  0.15040633282E+02 -0.25046378887E+02  0.30000000000E+02  0.47000000000E+01 0. -1.
         -5    1    1    2    0  501 -0.49364212890E+01 -0.15040633282E+02  0.25046378887E+02  0.30000000000E+02  0.47000000000E+01 0.  1.
</event>
<event>
 4    1  0.7581446E-002  0.6000000E+02  0.7546771E-02  0.1259629E+00
         11   -1    0    0    0    0  0.00000000000E+00  0.00000000000E+00  0.30000000000E+02  0.30000000000E+02  0.00000000000E+00 0.  1.
        -11   -1    0    0    0    0 -0.00000000000E+00 -0.00000000000E+00 -0.30000000000E+02  0.30000000000E+02  0.00000000000E+00 0. -1.
          5    1    1    2  501    0 -0.29033236160E+01  0.24023013761E+02 -0.17098991836E+02  0.30000000000E+02  0.47000000000E+01 0. -1.
         -5    1    1    2    0  501  0.29033236160E+01 -0.24023013761E+02  0.17098991836E+02  0.30000000000E+02  0.47000000000E+01 0.  1.
</event>
<event>
 4    1  0.7581446E-002  0.6000000E+02  0.7546771E-02  0.1259629E+00
         11   -1    0    0    0    0  0.00000000000E+00  0.00000000000E+00  0.30000000000E+02  0.30000000000E+02  0.00000000000E+00 0. -1.
        -11   -1    0    0    0    0 -0.00000000000E+00 -0.00000000000E+00 -0.30000000000E+02  0.30000000000E+02  0.00000000000E+00 0.  1.
          5    1    1    2  501    0 -0.17614066613E+02 -0.56619539356E-01 -0.23825437070E+02  0.30000000000E+02  0.47000000000E+01 0.  1.
         -5    1    1    2    0  501  0.17614066613E+02  0.56619539356E-01  0.23825437070E+02  0.30000000000E+02  0.47000000000E+01 0. -1.
</event>
<event>
 4    1  0.7581446E-002  0.6000000E+02  0.7546771E-02  0.1259629E+00
         11   -1    0    0    0    0  0.00000000000E+00  0.00000000000E+00  0.30000000000E+02  0.30000000000E+02  0.00000000000E+00 0.  1.
        -11   -1    0    0    0    0 -0.00000000000E+00 -0.00000000000E+00 -0.30000000000E+02  0.30000000000E+02  0.00000000000E+00 0. -1.
          5    1    1    2  501    0  0.21422243375E+02  0.32905928026E+01  0.20203204890E+02  0.30000000000E+02  0.47000000000E+01 0. -1.
         -5    1    1    2    0  501 -0.21422243375E+02 -0.32905928026E+01 -0.20203204890E+02  0.30000000000E+02  0.47000000000E+01 0.  1.
</event>
<event>
 4    1  0.7581446E-002  0.6000000E+02  0.7546771E-02  0.1259629E+00
         11   -1    0    0    0    0  0.00000000000E+00  0.00000000000E+00  0.30000000000E+02  0.30000000000E+02  0.00000000000E+00 0.  1.
        -11   -1    0    0    0    0 -0.00000000000E+00 -0.00000000000E+00 -0.30000000000E+02  0.30000000000E+02  0.00000000000E+00 0. -1.
          5    1    1    2  501    0 -0.29131473962E+02  0.52286050723E+01  0.13888534107E+01  0.30000000000E+02  0.47000000000E+01 0. -1.
         -5    1    1    2    0  501  0.29131473962E+02 -0.52286050723E+01 -0.13888534107E+01  0.30000000000E+02  0.47000000000E+01 0.  1.
</event>
<event>
 4    1  0.7581446E-002  0.6000000E+02  0.7546771E-02  0.1259629E+00
         11   -1    0    0    0    0  0.00000000000E+00  0.00000000000E+00  0.30000000000E+02  0.30000000000E+02  0.00000000000E+00 0.  1.
        -11   -1    0    0    0    0 -0.00000000000E+00 -0.00000000000E+00 -0.30000000000E+02  0.30000000000E+02  0.00000000000E+00 0. -1.
          5    1    1    2  501    0  0.14042484158E+02 -0.13168453037E+02 -0.22523553966E+02  0.30000000000E+02  0.47000000000E+01 0. -1.
         -5    1    1    2    0  501 -0.14042484158E+02  0.13168453037E+02  0.22523553966E+02  0.30000000000E+02  0.47000000000E+01 0.  1.
</event>
<event>
 4    1  0.7581446E-002  0.6000000E+02  0.7546771E-02  0.1259629E+00
         11   -1    0    0    0    0  0.00000000000E+00  0.00000000000E+00  0.30000000000E+02  0.30000000000E+02  0.00000000000E+00 0.  1.
        -11   -1    0    0    0    0 -0.00000000000E+00 -0.00000000000E+00 -0.30000000000E+02  0.30000000000E+02  0.00000000000E+00 0. -1.
          5    1    1    2  501    0 -0.85164942036E+01 -0.69994927427E+01 -0.27502480394E+02  0.30000000000E+02  0.47000000000E+01 0. -1.
         -5    1    1    2    0  501  0.85164942036E+01  0.69994927427E+01  0.27502480394E+02  0.30000000000E+02  0.47000000000E+01 0.  1.
</event>
<event>
 4    1  0.7581446E-002  0.6000000E+02  0.7546771E-02  0.1259629E+00
         11   -1    0    0    0    0  0.00000000000E+00  0.00000000000E+00  0.30000000000E+02  0.30000000000E+02  0.00000000000E+00 0.  1.
        -11   -1    0    0    0    0 -0.00000000000E+00 -0.00000000000E+00 -0.30000000000E+02  0.30000000000E+02  0.00000000000E+00 0. -1.
          5    1    1    2  501    0  0.23678648838E+02  0.74545980565E+00 -0.17795389259E+02  0.30000000000E+02  0.47000000000E+01 0. -1.
         -5    1    1    2    0  501 -0.23678648838E+02 -0.74545980565E+00  0.17795389259E+02  0.30000000000E+02  0.47000000000E+01 0.  1.
</event>
<event>
 4    1  0.7581446E-002  0.6000000E+02  0.7546771E-02  0.1259629E+00
         11   -1    0    0    0    0  0.00000000000E+00  0.00000000000E+00  0.30000000000E+02  0.30000000000E+02  0.00000000000E+00 0.  1.
        -11   -1    0    0    0    0 -0.00000000000E+00 -0.00000000000E+00 -0.30000000000E+02  0.30000000000E+02  0.00000000000E+00 0. -1.
          5    1    1    2  501    0 -0.16588179057E+02 -0.13824226789E+02 -0.20288742427E+02  0.30000000000E+02  0.47000000000E+01 0. -1.
         -5    1    1    2    0  501  0.16588179057E+02  0.13824226789E+02  0.20288742427E+02  0.30000000000E+02  0.47000000000E+01 0.  1.
</event>
<event>
 4    1  0.7581446E-002  0.6000000E+02  0.7546771E-02  0.1259629E+00
         11   -1    0    0    0    0  0.00000000000E+00  0.00000000000E+00  0.30000000000E+02  0.30000000000E+02  0.00000000000E+00 0. -1.
        -11   -1    0    0    0    0 -0.00000000000E+00 -0.00000000000E+00 -0.30000000000E+02  0.30000000000E+02  0.00000000000E+00 0.  1.
          5    1    1    2  501    0 -0.14212032733E+02 -0.12069326949E+02  0.23027363562E+02  0.30000000000E+02  0.47000000000E+01 0. -1.
         -5    1    1    2    0  501  0.14212032733E+02  0.12069326949E+02 -0.23027363562E+02  0.30000000000E+02  0.47000000000E+01 0.  1.
</event>
<event>
 4    1  0.7581446E-002  0.6000000E+02  0.7546771E-02  0.1259629E+00
         11   -1    0    0    0    0  0.00000000000E+00  0.00000000000E+00  0.30000000000E+02  0.30000000000E+02  0.00000000000E+00 0.  1.
        -11   -1    0    0    0    0 -0.00000000000E+00 -0.00000000000E+00 -0.30000000000E+02  0.30000000000E+02  0.00000000000E+00 0. -1.
          5    1    1    2  501    0  0.21572801499E+01  0.25148755994E+02 -0.15517609814E+02  0.30000000000E+02  0.47000000000E+01 0. -1.
         -5    1    1    2    0  501 -0.21572801499E+01 -0.25148755994E+02  0.15517609814E+02  0.30000000000E+02  0.47000000000E+01 0.  1.
</event>
<event>
 4    1  0.7581446E-002  0.6000000E+02  0.7546771E-02  0.1259629E+00
         11   -1    0    0    0    0  0.00000000000E+00  0.00000000000E+00  0.30000000000E+02  0.30000000000E+02  0.00000000000E+00 0.  1.
        -11   -1    0    0    0    0 -0.00000000000E+00 -0.00000000000E+00 -0.30000000000E+02  0.30000000000E+02  0.00000000000E+00 0. -1.
          5    1    1    2  501    0  0.32601518619E+01 -0.19109801342E+01 -0.29387575007E+02  0.30000000000E+02  0.47000000000E+01 0. -1.
         -5    1    1    2    0  501 -0.32601518619E+01  0.19109801342E+01  0.29387575007E+02  0.30000000000E+02  0.47000000000E+01 0.  1.
</event>
<event>
 4    1  0.7581446E-002  0.6000000E+02  0.7546771E-02  0.1259629E+00
         11   -1    0    0    0    0  0.00000000000E+00  0.00000000000E+00  0.30000000000E+02  0.30000000000E+02  0.00000000000E+00 0.  1.
        -11   -1    0    0    0    0 -0.00000000000E+00 -0.00000000000E+00 -0.30000000000E+02  0.30000000000E+02  0.00000000000E+00 0. -1.
          5    1    1    2  501    0  0.12996017511E+02 -0.21885711976E+02 -0.15166711580E+02  0.30000000000E+02  0.47000000000E+01 0. -1.
         -5    1    1    2    0  501 -0.12996017511E+02  0.21885711976E+02  0.15166711580E+02  0.30000000000E+02  0.47000000000E+01 0.  1.
</event>
<event>
 4    1  0.7581446E-002  0.6000000E+02  0.7546771E-02  0.1259629E+00
         11   -1    0    0    0    0  0.00000000000E+00  0.00000000000E+00  0.30000000000E+02  0.30000000000E+02  0.00000000000E+00 0. -1.
        -11   -1    0    0    0    0 -0.00000000000E+00 -0.00000000000E+00 -0.30000000000E+02  0.30000000000E+02  0.00000000000E+00 0.  1.
          5    1    1    2  501    0 -0.15740791228E+02 -0.24435760754E+02  0.57472678618E+01  0.30000000000E+02  0.47000000000E+01 0.  1.
         -5    1    1    2    0  501  0.15740791228E+02  0.24435760754E+02 -0.57472678618E+01  0.30000000000E+02  0.47000000000E+01 0. -1.
</event>
<event>
 4    1  0.7581446E-002  0.6000000E+02  0.7546771E-02  0.1259629E+00
         11   -1    0    0    0    0  0.00000000000E+00  0.00000000000E+00  0.30000000000E+02  0.30000000000E+02  0.00000000000E+00 0.  1.
        -11   -1    0    0    0    0 -0.00000000000E+00 -0.00000000000E+00 -0.30000000000E+02  0.30000000000E+02  0.00000000000E+00 0. -1.
          5    1    1    2  501    0 -0.74421611014E+01  0.28404458295E+02  0.39637087545E+01  0.30000000000E+02  0.47000000000E+01 0. -1.
         -5    1    1    2    0  501  0.74421611014E+01 -0.28404458295E+02 -0.39637087545E+01  0.30000000000E+02  0.47000000000E+01 0.  1.
</event>
<event>
 4    1  0.7581446E-002  0.6000000E+02  0.7546771E-02  0.1259629E+00
         11   -1    0    0    0    0  0.00000000000E+00  0.00000000000E+00  0.30000000000E+02  0.30000000000E+02  0.00000000000E+00 0.  1.
        -11   -1    0    0    0    0 -0.00000000000E+00 -0.00000000000E+00 -0.30000000000E+02  0.30000000000E+02  0.00000000000E+00 0. -1.
          5    1    1    2  501    0  0.34328952481E+00  0.16646449814E+02 -0.24508934307E+02  0.30000000000E+02  0.47000000000E+01 0. -1.
         -5    1    1    2    0  501 -0.34328952481E+00 -0.16646449814E+02  0.24508934307E+02  0.30000000000E+02  0.47000000000E+01 0.  1.
</event>
<event>
 4    1  0.7581446E-002  0.6000000E+02  0.7546771E-02  0.1259629E+00
         11   -1    0    0    0    0  0.00000000000E+00  0.00000000000E+00  0.30000000000E+02  0.30000000000E+02  0.00000000000E+00 0.  1.
        -11   -1    0    0    0    0 -0.00000000000E+00 -0.00000000000E+00 -0.30000000000E+02  0.30000000000E+02  0.00000000000E+00 0. -1.
          5    1    1    2  501    0 -0.25374683779E+02 -0.78622012120E+01 -0.13123308090E+02  0.30000000000E+02  0.47000000000E+01 0. -1.
         -5    1    1    2    0  501  0.25374683779E+02  0.78622012120E+01  0.13123308090E+02  0.30000000000E+02  0.47000000000E+01 0. -1.
</event>
<event>
 4    1  0.7581446E-002  0.6000000E+02  0.7546771E-02  0.1259629E+00
         11   -1    0    0    0    0  0.00000000000E+00  0.00000000000E+00  0.30000000000E+02  0.30000000000E+02  0.00000000000E+00 0.  1.
        -11   -1    0    0    0    0 -0.00000000000E+00 -0.00000000000E+00 -0.30000000000E+02  0.30000000000E+02  0.00000000000E+00 0. -1.
          5    1    1    2  501    0  0.12872368507E+02  0.12075721732E+02 -0.23798930095E+02  0.30000000000E+02  0.47000000000E+01 0. -1.
         -5    1    1    2    0  501 -0.12872368507E+02 -0.12075721732E+02  0.23798930095E+02  0.30000000000E+02  0.47000000000E+01 0.  1.
</event>
<event>
 4    1  0.7581446E-002  0.6000000E+02  0.7546771E-02  0.1259629E+00
         11   -1    0    0    0    0  0.00000000000E+00  0.00000000000E+00  0.30000000000E+02  0.30000000000E+02  0.00000000000E+00 0.  1.
        -11   -1    0    0    0    0 -0.00000000000E+00 -0.00000000000E+00 -0.30000000000E+02  0.30000000000E+02  0.00000000000E+00 0. -1.
          5    1    1    2  501    0  0.11200699821E+02 -0.19186815417E+02  0.19604092371E+02  0.30000000000E+02  0.47000000000E+01 0. -1.
         -5    1    1    2    0  501 -0.11200699821E+02  0.19186815417E+02 -0.19604092371E+02  0.30000000000E+02  0.47000000000E+01 0.  1.
</event>
<event>
 4    1  0.7581446E-002  0.6000000E+02  0.7546771E-02  0.1259629E+00
         11   -1    0    0    0    0  0.00000000000E+00  0.00000000000E+00  0.30000000000E+02  0.30000000000E+02  0.00000000000E+00 0.  1.
        -11   -1    0    0    0    0 -0.00000000000E+00 -0.00000000000E+00 -0.30000000000E+02  0.30000000000E+02  0.00000000000E+00 0. -1.
          5    1    1    2  501    0 -0.26411370281E+02 -0.12672722025E+02  0.44442813103E+01  0.30000000000E+02  0.47000000000E+01 0.  1.
         -5    1    1    2    0  501  0.26411370281E+02  0.12672722025E+02 -0.44442813103E+01  0.30000000000E+02  0.47000000000E+01 0. -1.
</event>
<event>
 4    1  0.7581446E-002  0.6000000E+02  0.7546771E-02  0.1259629E+00
         11   -1    0    0    0    0  0.00000000000E+00  0.00000000000E+00  0.30000000000E+02  0.30000000000E+02  0.00000000000E+00 0.  1.
        -11   -1    0    0    0    0 -0.00000000000E+00 -0.00000000000E+00 -0.30000000000E+02  0.30000000000E+02  0.00000000000E+00 0. -1.
          5    1    1    2  501    0  0.23271002582E+02  0.75811979102E+01  0.16700175959E+02  0.30000000000E+02  0.47000000000E+01 0.  1.
         -5    1    1    2    0  501 -0.23271002582E+02 -0.75811979102E+01 -0.16700175959E+02  0.30000000000E+02  0.47000000000E+01 0. -1.
</event>
<event>
 4    1  0.7581446E-002  0.6000000E+02  0.7546771E-02  0.1259629E+00
         11   -1    0    0    0    0  0.00000000000E+00  0.00000000000E+00  0.30000000000E+02  0.30000000000E+02  0.00000000000E+00 0. -1.
        -11   -1    0    0    0    0 -0.00000000000E+00 -0.00000000000E+00 -0.30000000000E+02  0.30000000000E+02  0.00000000000E+00 0.  1.
          5    1    1    2  501    0 -0.27936639525E+02  0.92078863011E+00 -0.98288514245E+01  0.30000000000E+02  0.47000000000E+01 0.  1.
         -5    1    1    2    0  501  0.27936639525E+02 -0.92078863011E+00  0.98288514245E+01  0.30000000000E+02  0.47000000000E+01 0. -1.
</event>
<event>
 4    1  0.7581446E-002  0.6000000E+02  0.7546771E-02  0.1259629E+00
         11   -1    0    0    0    0  0.00000000000E+00  0.00000000000E+00  0.30000000000E+02  0.30000000000E+02  0.00000000000E+00 0.  1.
        -11   -1    0    0    0    0 -0.00000000000E+00 -0.00000000000E+00 -0.30000000000E+02  0.30000000000E+02  0.00000000000E+00 0. -1.
          5    1    1    2  501    0 -0.10594741496E+02 -0.19252459625E+02  0.19874713860E+02  0.30000000000E+02  0.47000000000E+01 0.  1.
         -5    1    1    2    0  501  0.10594741496E+02  0.19252459625E+02 -0.19874713860E+02  0.30000000000E+02  0.47000000000E+01 0. -1.
</event>
<event>
 4    1  0.7581446E-002  0.6000000E+02  0.7546771E-02  0.1259629E+00
         11   -1    0    0    0    0  0.00000000000E+00  0.00000000000E+00  0.30000000000E+02  0.30000000000E+02  0.00000000000E+00 0.  1.
        -11   -1    0    0    0    0 -0.00000000000E+00 -0.00000000000E+00 -0.30000000000E+02  0.30000000000E+02  0.00000000000E+00 0. -1.
          5    1    1    2  501    0  0.11267648700E+02 -0.19718467267E+02 -0.19029769873E+02  0.30000000000E+02  0.47000000000E+01 0. -1.
         -5    1    1    2    0  501 -0.11267648700E+02  0.19718467267E+02  0.19029769873E+02  0.30000000000E+02  0.47000000000E+01 0.  1.
</event>
<event>
 4    1  0.7581446E-002  0.6000000E+02  0.7546771E-02  0.1259629E+00
         11   -1    0    0    0    0  0.00000000000E+00  0.00000000000E+00  0.30000000000E+02  0.30000000000E+02  0.00000000000E+00 0. -1.
        -11   -1    0    0    0    0 -0.00000000000E+00 -0.00000000000E+00 -0.30000000000E+02  0.30000000000E+02  0.00000000000E+00 0.  1.
          5    1    1    2  501    0 -0.47132047651E+01 -0.27084173105E+02 -0.11051844555E+02  0.30000000000E+02  0.47000000000E+01 0.  1.
         -5    1    1    2    0  501  0.47132047651E+01  0.27084173105E+02  0.11051844555E+02  0.30000000000E+02  0.47000000000E+01 0. -1.
</event>
<event>
 4    1  0.7581446E-002  0.6000000E+02  0.7546771E-02  0.1259629E+00
         11   -1    0    0    0    0  0.00000000000E+00  0.00000000000E+00  0.30000000000E+02  0.30000000000E+02  0.00000000000E+00 0. -1.
        -11   -1    0    0    0    0 -0.00000000000E+00 -0.00000000000E+00 -0.30000000000E+02  0.30000000000E+02  0.00000000000E+00 0.  1.
          5    1    1    2  501    0 -0.66539520192E+01 -0.28812262609E+02 -0.18677381758E+01  0.30000000000E+02  0.47000000000E+01 0.  1.
         -5    1    1    2    0  501  0.66539520192E+01  0.28812262609E+02  0.18677381758E+01  0.30000000000E+02  0.47000000000E+01 0. -1.
</event>
<event>
 4    1  0.7581446E-002  0.6000000E+02  0.7546771E-02  0.1259629E+00
         11   -1    0    0    0    0  0.00000000000E+00  0.00000000000E+00  0.30000000000E+02  0.30000000000E+02  0.00000000000E+00 0.  1.
        -11   -1    0    0    0    0 -0.00000000000E+00 -0.00000000000E+00 -0.30000000000E+02  0.30000000000E+02  0.00000000000E+00 0. -1.
          5    1    1    2  501    0 -0.11270029812E+02  0.21008843952E+02 -0.17593319865E+02  0.30000000000E+02  0.47000000000E+01 0. -1.
         -5    1    1    2    0  501  0.11270029812E+02 -0.21008843952E+02  0.17593319865E+02  0.30000000000E+02  0.47000000000E+01 0.  1.
</event>
<event>
 4    1  0.7581446E-002  0.6000000E+02  0.7546771E-02  0.1259629E+00
         11   -1    0    0    0    0  0.00000000000E+00  0.00000000000E+00  0.30000000000E+02  0.30000000000E+02  0.00000000000E+00 0.  1.
        -11   -1    0    0    0    0 -0.00000000000E+00 -0.00000000000E+00 -0.30000000000E+02  0.30000000000E+02  0.00000000000E+00 0. -1.
          5    1    1    2  501    0 -0.24260681182E+02 -0.75489453544E+01  0.15242794122E+02  0.30000000000E+02  0.47000000000E+01 0. -1.
         -5    1    1    2    0  501  0.24260681182E+02  0.75489453544E+01 -0.15242794122E+02  0.30000000000E+02  0.47000000000E+01 0.  1.
</event>
<event>
 4    1  0.7581446E-002  0.6000000E+02  0.7546771E-02  0.1259629E+00
         11   -1    0    0    0    0  0.00000000000E+00  0.00000000000E+00  0.30000000000E+02  0.30000000000E+02  0.00000000000E+00 0.  1.
        -11   -1    0    0    0    0 -0.00000000000E+00 -0.00000000000E+00 -0.30000000000E+02  0.30000000000E+02  0.00000000000E+00 0. -1.
          5    1    1    2  501    0  0.17089070185E+02  0.19867454548E+02 -0.13825987487E+02  0.30000000000E+02  0.47000000000E+01 0. -1.
         -5    1    1    2    0  501 -0.17089070185E+02 -0.19867454548E+02  0.13825987487E+02  0.30000000000E+02  0.47000000000E+01 0.  1.
</event>
<event>
 4    1  0.7581446E-002  0.6000000E+02  0.7546771E-02  0.1259629E+00
         11   -1    0    0    0    0  0.00000000000E+00  0.00000000000E+00  0.30000000000E+02  0.30000000000E+02  0.00000000000E+00 0.  1.
        -11   -1    0    0    0    0 -0.00000000000E+00 -0.00000000000E+00 -0.30000000000E+02  0.30000000000E+02  0.00000000000E+00 0. -1.
          5    1    1    2  501    0 -0.15734735909E+02 -0.24647404885E+02 -0.47784430831E+01  0.30000000000E+02  0.47000000000E+01 0. -1.
         -5    1    1    2    0  501  0.15734735909E+02  0.24647404885E+02  0.47784430831E+01  0.30000000000E+02  0.47000000000E+01 0.  1.
</event>
<event>
 4    1  0.7581446E-002  0.6000000E+02  0.7546771E-02  0.1259629E+00
         11   -1    0    0    0    0  0.00000000000E+00  0.00000000000E+00  0.30000000000E+02  0.30000000000E+02  0.00000000000E+00 0.  1.
        -11   -1    0    0    0    0 -0.00000000000E+00 -0.00000000000E+00 -0.30000000000E+02  0.30000000000E+02  0.00000000000E+00 0. -1.
          5    1    1    2  501    0 -0.27813590871E+02 -0.88201065018E+01 -0.51497460298E+01  0.30000000000E+02  0.47000000000E+01 0. -1.
         -5    1    1    2    0  501  0.27813590871E+02  0.88201065018E+01  0.51497460298E+01  0.30000000000E+02  0.47000000000E+01 0.  1.
</event>
<event>
 4    1  0.7581446E-002  0.6000000E+02  0.7546771E-02  0.1259629E+00
         11   -1    0    0    0    0  0.00000000000E+00  0.00000000000E+00  0.30000000000E+02  0.30000000000E+02  0.00000000000E+00 0.  1.
        -11   -1    0    0    0    0 -0.00000000000E+00 -0.00000000000E+00 -0.30000000000E+02  0.30000000000E+02  0.00000000000E+00 0. -1.
          5    1    1    2  501    0 -0.11908342106E+02 -0.15284320255E+02 -0.22416309746E+02  0.30000000000E+02  0.47000000000E+01 0. -1.
         -5    1    1    2    0  501  0.11908342106E+02  0.15284320255E+02  0.22416309746E+02  0.30000000000E+02  0.47000000000E+01 0.  1.
</event>
<event>
 4    1  0.7581446E-002  0.6000000E+02  0.7546771E-02  0.1259629E+00
         11   -1    0    0    0    0  0.00000000000E+00  0.00000000000E+00  0.30000000000E+02  0.30000000000E+02  0.00000000000E+00 0.  1.
        -11   -1    0    0    0    0 -0.00000000000E+00 -0.00000000000E+00 -0.30000000000E+02  0.30000000000E+02  0.00000000000E+00 0. -1.
          5    1    1    2  501    0 -0.49102905401E+01  0.28526248778E+02 -0.63286789666E+01  0.30000000000E+02  0.47000000000E+01 0. -1.
         -5    1    1    2    0  501  0.49102905401E+01 -0.28526248778E+02  0.63286789666E+01  0.30000000000E+02  0.47000000000E+01 0.  1.
</event>
<event>
 4    1  0.7581446E-002  0.6000000E+02  0.7546771E-02  0.1259629E+00
         11   -1    0    0    0    0  0.00000000000E+00  0.00000000000E+00  0.30000000000E+02  0.30000000000E+02  0.00000000000E+00 0.  1.
        -11   -1    0    0    0    0 -0.00000000000E+00 -0.00000000000E+00 -0.30000000000E+02  0.30000000000E+02  0.00000000000E+00 0. -1.
          5    1    1    2  501    0 -0.28002390607E+02 -0.58448302667E+00 -0.96661522778E+01  0.30000000000E+02  0.47000000000E+01 0. -1.
         -5    1    1    2    0  501  0.28002390607E+02  0.58448302667E+00  0.96661522778E+01  0.30000000000E+02  0.47000000000E+01 0.  1.
</event>
<event>
 4    1  0.7581446E-002  0.6000000E+02  0.7546771E-02  0.1259629E+00
         11   -1    0    0    0    0  0.00000000000E+00  0.00000000000E+00  0.30000000000E+02  0.30000000000E+02  0.00000000000E+00 0.  1.
        -11   -1    0    0    0    0 -0.00000000000E+00 -0.00000000000E+00 -0.30000000000E+02  0.30000000000E+02  0.00000000000E+00 0. -1.
          5    1    1    2  501    0 -0.23237106308E+02  0.95612878574E+01  0.15701231319E+02  0.30000000000E+02  0.47000000000E+01 0. -1.
         -5    1    1    2    0  501  0.23237106308E+02 -0.95612878574E+01 -0.15701231319E+02  0.30000000000E+02  0.47000000000E+01 0.  1.
</event>
<event>
 4    1  0.7581446E-002  0.6000000E+02  0.7546771E-02  0.1259629E+00
         11   -1    0    0    0    0  0.00000000000E+00  0.00000000000E+00  0.30000000000E+02  0.30000000000E+02  0.00000000000E+00 0.  1.
        -11   -1    0    0    0    0 -0.00000000000E+00 -0.00000000000E+00 -0.30000000000E+02  0.30000000000E+02  0.00000000000E+00 0. -1.
          5    1    1    2  501    0  0.83293600514E+01 -0.90225191261E+01 -0.26965272291E+02  0.30000000000E+02  0.47000000000E+01 0. -1.
         -5    1    1    2    0  501 -0.83293600514E+01  0.90225191261E+01  0.26965272291E+02  0.30000000000E+02  0.47000000000E+01 0.  1.
</event>
<event>
 4    1  0.7581446E-002  0.6000000E+02  0.7546771E-02  0.1259629E+00
         11   -1    0    0    0    0  0.00000000000E+00  0.00000000000E+00  0.30000000000E+02  0.30000000000E+02  0.00000000000E+00 0.  1.
        -11   -1    0    0    0    0 -0.00000000000E+00 -0.00000000000E+00 -0.30000000000E+02  0.30000000000E+02  0.00000000000E+00 0. -1.
          5    1    1    2  501    0 -0.25957778452E+02 -0.31804485742E+01  0.13927974895E+02  0.30000000000E+02  0.47000000000E+01 0. -1.
         -5    1    1    2    0  501  0.25957778452E+02  0.31804485742E+01 -0.13927974895E+02  0.30000000000E+02  0.47000000000E+01 0.  1.
</event>
<event>
 4    1  0.7581446E-002  0.6000000E+02  0.7546771E-02  0.1259629E+00
         11   -1    0    0    0    0  0.00000000000E+00  0.00000000000E+00  0.30000000000E+02  0.30000000000E+02  0.00000000000E+00 0.  1.
        -11   -1    0    0    0    0 -0.00000000000E+00 -0.00000000000E+00 -0.30000000000E+02  0.30000000000E+02  0.00000000000E+00 0. -1.
          5    1    1    2  501    0  0.87154490030E+01 -0.13177650512E+02 -0.25065922597E+02  0.30000000000E+02  0.47000000000E+01 0. -1.
         -5    1    1    2    0  501 -0.87154490030E+01  0.13177650512E+02  0.25065922597E+02  0.30000000000E+02  0.47000000000E+01 0.  1.
</event>
<event>
 4    1  0.7581446E-002  0.6000000E+02  0.7546771E-02  0.1259629E+00
         11   -1    0    0    0    0  0.00000000000E+00  0.00000000000E+00  0.30000000000E+02  0.30000000000E+02  0.00000000000E+00 0. -1.
        -11   -1    0    0    0    0 -0.00000000000E+00 -0.00000000000E+00 -0.30000000000E+02  0.30000000000E+02  0.00000000000E+00 0.  1.
          5    1    1    2  501    0 -0.48546015622E+01 -0.23633501540E+02 -0.17198850212E+02  0.30000000000E+02  0.47000000000E+01 0.  1.
         -5    1    1    2    0  501  0.48546015622E+01  0.23633501540E+02  0.17198850212E+02  0.30000000000E+02  0.47000000000E+01 0. -1.
</event>
<event>
 4    1  0.7581446E-002  0.6000000E+02  0.7546771E-02  0.1259629E+00
         11   -1    0    0    0    0  0.00000000000E+00  0.00000000000E+00  0.30000000000E+02  0.30000000000E+02  0.00000000000E+00 0.  1.
        -11   -1    0    0    0    0 -0.00000000000E+00 -0.00000000000E+00 -0.30000000000E+02  0.30000000000E+02  0.00000000000E+00 0. -1.
          5    1    1    2  501    0 -0.13303568265E+02  0.39601572662E+01 -0.26177131734E+02  0.30000000000E+02  0.47000000000E+01 0. -1.
         -5    1    1    2    0  501  0.13303568265E+02 -0.39601572662E+01  0.26177131734E+02  0.30000000000E+02  0.47000000000E+01 0.  1.
</event>
<event>
 4    1  0.7581446E-002  0.6000000E+02  0.7546771E-02  0.1259629E+00
         11   -1    0    0    0    0  0.00000000000E+00  0.00000000000E+00  0.30000000000E+02  0.30000000000E+02  0.00000000000E+00 0.  1.
        -11   -1    0    0    0    0 -0.00000000000E+00 -0.00000000000E+00 -0.30000000000E+02  0.30000000000E+02  0.00000000000E+00 0. -1.
          5    1    1    2  501    0  0.12498161661E+01 -0.10331730647E+02 -0.27741724917E+02  0.30000000000E+02  0.47000000000E+01 0. -1.
         -5    1    1    2    0  501 -0.12498161661E+01  0.10331730647E+02  0.27741724917E+02  0.30000000000E+02  0.47000000000E+01 0.  1.
</event>
<event>
 4    1  0.7581446E-002  0.6000000E+02  0.7546771E-02  0.1259629E+00
         11   -1    0    0    0    0  0.00000000000E+00  0.00000000000E+00  0.30000000000E+02  0.30000000000E+02  0.00000000000E+00 0.  1.
        -11   -1    0    0    0    0 -0.00000000000E+00 -0.00000000000E+00 -0.30000000000E+02  0.30000000000E+02  0.00000000000E+00 0. -1.
          5    1    1    2  501    0 -0.87891872498E+01  0.27759399766E+02 -0.54841509954E+01  0.30000000000E+02  0.47000000000E+01 0. -1.
         -5    1    1    2    0  501  0.87891872498E+01 -0.27759399766E+02  0.54841509954E+01  0.30000000000E+02  0.47000000000E+01 0.  1.
</event>
<event>
 4    1  0.7581446E-002  0.6000000E+02  0.7546771E-02  0.1259629E+00
         11   -1    0    0    0    0  0.00000000000E+00  0.00000000000E+00  0.30000000000E+02  0.30000000000E+02  0.00000000000E+00 0.  1.
        -11   -1    0    0    0    0 -0.00000000000E+00 -0.00000000000E+00 -0.30000000000E+02  0.30000000000E+02  0.00000000000E+00 0. -1.
          5    1    1    2  501    0 -0.84230831004E+01 -0.35268993398E+01 -0.28187278197E+02  0.30000000000E+02  0.47000000000E+01 0. -1.
         -5    1    1    2    0  501  0.84230831004E+01  0.35268993398E+01  0.28187278197E+02  0.30000000000E+02  0.47000000000E+01 0.  1.
</event>
<event>
 4    1  0.7581446E-002  0.6000000E+02  0.7546771E-02  0.1259629E+00
         11   -1    0    0    0    0  0.00000000000E+00  0.00000000000E+00  0.30000000000E+02  0.30000000000E+02  0.00000000000E+00 0.  1.
        -11   -1    0    0    0    0 -0.00000000000E+00 -0.00000000000E+00 -0.30000000000E+02  0.30000000000E+02  0.00000000000E+00 0. -1.
          5    1    1    2  501    0  0.16220088583E+02 -0.22193837834E+02 -0.11056775685E+02  0.30000000000E+02  0.47000000000E+01 0. -1.
         -5    1    1    2    0  501 -0.16220088583E+02  0.22193837834E+02  0.11056775685E+02  0.30000000000E+02  0.47000000000E+01 0.  1.
</event>
<event>
 4    1  0.7581446E-002  0.6000000E+02  0.7546771E-02  0.1259629E+00
         11   -1    0    0    0    0  0.00000000000E+00  0.00000000000E+00  0.30000000000E+02  0.30000000000E+02  0.00000000000E+00 0. -1.
        -11   -1    0    0    0    0 -0.00000000000E+00 -0.00000000000E+00 -0.30000000000E+02  0.30000000000E+02  0.00000000000E+00 0.  1.
          5    1    1    2  501    0 -0.34645006891E+01 -0.64633884658E+01 -0.28707696608E+02  0.30000000000E+02  0.47000000000E+01 0.  1.
         -5    1    1    2    0  501  0.34645006891E+01  0.64633884658E+01  0.28707696608E+02  0.30000000000E+02  0.47000000000E+01 0. -1.
</event>
<event>
 4    1  0.7581446E-002  0.6000000E+02  0.7546771E-02  0.1259629E+00
         11   -1    0    0    0    0  0.00000000000E+00  0.00000000000E+00  0.30000000000E+02  0.30000000000E+02  0.00000000000E+00 0.  1.
        -11   -1    0    0    0    0 -0.00000000000E+00 -0.00000000000E+00 -0.30000000000E+02  0.30000000000E+02  0.00000000000E+00 0. -1.
          5    1    1    2  501    0  0.11049771254E+01  0.27028224367E+02 -0.12089835115E+02  0.30000000000E+02  0.47000000000E+01 0. -1.
         -5    1    1    2    0  501 -0.11049771254E+01 -0.27028224367E+02  0.12089835115E+02  0.30000000000E+02  0.47000000000E+01 0.  1.
</event>
<event>
 4    1  0.7581446E-002  0.6000000E+02  0.7546771E-02  0.1259629E+00
         11   -1    0    0    0    0  0.00000000000E+00  0.00000000000E+00  0.30000000000E+02  0.30000000000E+02  0.00000000000E+00 0.  1.
        -11   -1    0    0    0    0 -0.00000000000E+00 -0.00000000000E+00 -0.30000000000E+02  0.30000000000E+02  0.00000000000E+00 0. -1.
          5    1    1    2  501    0  0.37557364475E+01 -0.28659501751E+02  0.65143996729E+01  0.30000000000E+02  0.47000000000E+01 0.  1.
         -5    1    1    2    0  501 -0.37557364475E+01  0.28659501751E+02 -0.65143996729E+01  0.30000000000E+02  0.47000000000E+01 0. -1.
</event>
<event>
 4    1  0.7581446E-002  0.6000000E+02  0.7546771E-02  0.1259629E+00
         11   -1    0    0    0    0  0.00000000000E+00  0.00000000000E+00  0.30000000000E+02  0.30000000000E+02  0.00000000000E+00 0.  1.
        -11   -1    0    0    0    0 -0.00000000000E+00 -0.00000000000E+00 -0.30000000000E+02  0.30000000000E+02  0.00000000000E+00 0. -1.
          5    1    1    2  501    0 -0.22114621888E+02  0.19393464566E+02 -0.35702984300E+01  0.30000000000E+02  0.47000000000E+01 0. -1.
         -5    1    1    2    0  501  0.22114621888E+02 -0.19393464566E+02  0.35702984300E+01  0.30000000000E+02  0.47000000000E+01 0.  1.
</event>
<event>
 4    1  0.7581446E-002  0.6000000E+02  0.7546771E-02  0.1259629E+00
         11   -1    0    0    0    0  0.00000000000E+00  0.00000000000E+00  0.30000000000E+02  0.30000000000E+02  0.00000000000E+00 0.  1.
        -11   -1    0    0    0    0 -0.00000000000E+00 -0.00000000000E+00 -0.30000000000E+02  0.30000000000E+02  0.00000000000E+00 0. -1.
          5    1    1    2  501    0  0.21429030476E+02  0.87451172554E+01 -0.18499448020E+02  0.30000000000E+02  0.47000000000E+01 0. -1.
         -5    1    1    2    0  501 -0.21429030476E+02 -0.87451172554E+01  0.18499448020E+02  0.30000000000E+02  0.47000000000E+01 0.  1.
</event>
<event>
 4    1  0.7581446E-002  0.6000000E+02  0.7546771E-02  0.1259629E+00
         11   -1    0    0    0    0  0.00000000000E+00  0.00000000000E+00  0.30000000000E+02  0.30000000000E+02  0.00000000000E+00 0.  1.
        -11   -1    0    0    0    0 -0.00000000000E+00 -0.00000000000E+00 -0.30000000000E+02  0.30000000000E+02  0.00000000000E+00 0. -1.
          5    1    1    2  501    0 -0.25595115085E+02 -0.13127066297E+02  0.71049429437E+01  0.30000000000E+02  0.47000000000E+01 0. -1.
         -5    1    1    2    0  501  0.25595115085E+02  0.13127066297E+02 -0.71049429437E+01  0.30000000000E+02  0.47000000000E+01 0.  1.
</event>
<event>
 4    1  0.7581446E-002  0.6000000E+02  0.7546771E-02  0.1259629E+00
         11   -1    0    0    0    0  0.00000000000E+00  0.00000000000E+00  0.30000000000E+02  0.30000000000E+02  0.00000000000E+00 0.  1.
        -11   -1    0    0    0    0 -0.00000000000E+00 -0.00000000000E+00 -0.30000000000E+02  0.30000000000E+02  0.00000000000E+00 0. -1.
          5    1    1    2  501    0 -0.12917299014E+02  0.13594563307E+02 -0.22939948445E+02  0.30000000000E+02  0.47000000000E+01 0. -1.
         -5    1    1    2    0  501  0.12917299014E+02 -0.13594563307E+02  0.22939948445E+02  0.30000000000E+02  0.47000000000E+01 0.  1.
</event>
<event>
 4    1  0.7581446E-002  0.6000000E+02  0.7546771E-02  0.1259629E+00
         11   -1    0    0    0    0  0.00000000000E+00  0.00000000000E+00  0.30000000000E+02  0.30000000000E+02  0.00000000000E+00 0.  1.
        -11   -1    0    0    0    0 -0.00000000000E+00 -0.00000000000E+00 -0.30000000000E+02  0.30000000000E+02  0.00000000000E+00 0. -1.
          5    1    1    2  501    0 -0.12935781005E+02  0.67077228580E+00 -0.26648182571E+02  0.30000000000E+02  0.47000000000E+01 0. -1.
         -5    1    1    2    0  501  0.12935781005E+02 -0.67077228580E+00  0.26648182571E+02  0.30000000000E+02  0.47000000000E+01 0.  1.
</event>
<event>
 4    1  0.7581446E-002  0.6000000E+02  0.7546771E-02  0.1259629E+00
         11   -1    0    0    0    0  0.00000000000E+00  0.00000000000E+00  0.30000000000E+02  0.30000000000E+02  0.00000000000E+00 0. -1.
        -11   -1    0    0    0    0 -0.00000000000E+00 -0.00000000000E+00 -0.30000000000E+02  0.30000000000E+02  0.00000000000E+00 0.  1.
          5    1    1    2  501    0  0.25852333991E+01 -0.29031013983E+02 -0.53316784764E+01  0.30000000000E+02  0.47000000000E+01 0.  1.
         -5    1    1    2    0  501 -0.25852333991E+01  0.29031013983E+02  0.53316784764E+01  0.30000000000E+02  0.47000000000E+01 0. -1.
</event>
<event>
 4    1  0.7581446E-002  0.6000000E+02  0.7546771E-02  0.1259629E+00
         11   -1    0    0    0    0  0.00000000000E+00  0.00000000000E+00  0.30000000000E+02  0.30000000000E+02  0.00000000000E+00 0.  1.
        -11   -1    0    0    0    0 -0.00000000000E+00 -0.00000000000E+00 -0.30000000000E+02  0.30000000000E+02  0.00000000000E+00 0. -1.
          5    1    1    2  501    0 -0.81681020452E+01  0.28243754852E+01 -0.28341048183E+02  0.30000000000E+02  0.47000000000E+01 0. -1.
         -5    1    1    2    0  501  0.81681020452E+01 -0.28243754852E+01  0.28341048183E+02  0.30000000000E+02  0.47000000000E+01 0.  1.
</event>
<event>
 4    1  0.7581446E-002  0.6000000E+02  0.7546771E-02  0.1259629E+00
         11   -1    0    0    0    0  0.00000000000E+00  0.00000000000E+00  0.30000000000E+02  0.30000000000E+02  0.00000000000E+00 0.  1.
        -11   -1    0    0    0    0 -0.00000000000E+00 -0.00000000000E+00 -0.30000000000E+02  0.30000000000E+02  0.00000000000E+00 0. -1.
          5    1    1    2  501    0 -0.28131312080E+02 -0.90632249467E+01  0.20969583314E+01  0.30000000000E+02  0.47000000000E+01 0. -1.
         -5    1    1    2    0  501  0.28131312080E+02  0.90632249467E+01 -0.20969583314E+01  0.30000000000E+02  0.47000000000E+01 0.  1.
</event>
<event>
 4    1  0.7581446E-002  0.6000000E+02  0.7546771E-02  0.1259629E+00
         11   -1    0    0    0    0  0.00000000000E+00  0.00000000000E+00  0.30000000000E+02  0.30000000000E+02  0.00000000000E+00 0.  1.
        -11   -1    0    0    0    0 -0.00000000000E+00 -0.00000000000E+00 -0.30000000000E+02  0.30000000000E+02  0.00000000000E+00 0. -1.
          5    1    1    2  501    0  0.28403869162E+01  0.29353493904E+02 -0.28661119695E+01  0.30000000000E+02  0.47000000000E+01 0. -1.
         -5    1    1    2    0  501 -0.28403869162E+01 -0.29353493904E+02  0.28661119695E+01  0.30000000000E+02  0.47000000000E+01 0.  1.
</event>
<event>
 4    1  0.7581446E-002  0.6000000E+02  0.7546771E-02  0.1259629E+00
         11   -1    0    0    0    0  0.00000000000E+00  0.00000000000E+00  0.30000000000E+02  0.30000000000E+02  0.00000000000E+00 0.  1.
        -11   -1    0    0    0    0 -0.00000000000E+00 -0.00000000000E+00 -0.30000000000E+02  0.30000000000E+02  0.00000000000E+00 0. -1.
          5    1    1    2  501    0 -0.13727831856E+02 -0.36435369175E-02 -0.26257505961E+02  0.30000000000E+02  0.47000000000E+01 0. -1.
         -5    1    1    2    0  501  0.13727831856E+02  0.36435369175E-02  0.26257505961E+02  0.30000000000E+02  0.47000000000E+01 0.  1.
</event>
<event>
 4    1  0.7581446E-002  0.6000000E+02  0.7546771E-02  0.1259629E+00
         11   -1    0    0    0    0  0.00000000000E+00  0.00000000000E+00  0.30000000000E+02  0.30000000000E+02  0.00000000000E+00 0. -1.
        -11   -1    0    0    0    0 -0.00000000000E+00 -0.00000000000E+00 -0.30000000000E+02  0.30000000000E+02  0.00000000000E+00 0.  1.
          5    1    1    2  501    0  0.79164940715E+01 -0.12672288458E+02 -0.25586172571E+02  0.30000000000E+02  0.47000000000E+01 0.  1.
         -5    1    1    2    0  501 -0.79164940715E+01  0.12672288458E+02  0.25586172571E+02  0.30000000000E+02  0.47000000000E+01 0. -1.
</event>
<event>
 4    1  0.7581446E-002  0.6000000E+02  0.7546771E-02  0.1259629E+00
         11   -1    0    0    0    0  0.00000000000E+00  0.00000000000E+00  0.30000000000E+02  0.30000000000E+02  0.00000000000E+00 0.  1.
        -11   -1    0    0    0    0 -0.00000000000E+00 -0.00000000000E+00 -0.30000000000E+02  0.30000000000E+02  0.00000000000E+00 0. -1.
          5    1    1    2  501    0 -0.17705073978E+02  0.13433721076E+02 -0.19595292636E+02  0.30000000000E+02  0.47000000000E+01 0. -1.
         -5    1    1    2    0  501  0.17705073978E+02 -0.13433721076E+02  0.19595292636E+02  0.30000000000E+02  0.47000000000E+01 0.  1.
</event>
<event>
 4    1  0.7581446E-002  0.6000000E+02  0.7546771E-02  0.1259629E+00
         11   -1    0    0    0    0  0.00000000000E+00  0.00000000000E+00  0.30000000000E+02  0.30000000000E+02  0.00000000000E+00 0.  1.
        -11   -1    0    0    0    0 -0.00000000000E+00 -0.00000000000E+00 -0.30000000000E+02  0.30000000000E+02  0.00000000000E+00 0. -1.
          5    1    1    2  501    0 -0.18880331570E+02 -0.18106592680E+02 -0.13913819796E+02  0.30000000000E+02  0.47000000000E+01 0. -1.
         -5    1    1    2    0  501  0.18880331570E+02  0.18106592680E+02  0.13913819796E+02  0.30000000000E+02  0.47000000000E+01 0.  1.
</event>
<event>
 4    1  0.7581446E-002  0.6000000E+02  0.7546771E-02  0.1259629E+00
         11   -1    0    0    0    0  0.00000000000E+00  0.00000000000E+00  0.30000000000E+02  0.30000000000E+02  0.00000000000E+00 0.  1.
        -11   -1    0    0    0    0 -0.00000000000E+00 -0.00000000000E+00 -0.30000000000E+02  0.30000000000E+02  0.00000000000E+00 0. -1.
          5    1    1    2  501    0  0.10485442916E+02 -0.27694055978E+02 -0.10023723401E+01  0.30000000000E+02  0.47000000000E+01 0. -1.
         -5    1    1    2    0  501 -0.10485442916E+02  0.27694055978E+02  0.10023723401E+01  0.30000000000E+02  0.47000000000E+01 0.  1.
</event>
<event>
 4    1  0.7581446E-002  0.6000000E+02  0.7546771E-02  0.1259629E+00
         11   -1    0    0    0    0  0.00000000000E+00  0.00000000000E+00  0.30000000000E+02  0.30000000000E+02  0.00000000000E+00 0.  1.
        -11   -1    0    0    0    0 -0.00000000000E+00 -0.00000000000E+00 -0.30000000000E+02  0.30000000000E+02  0.00000000000E+00 0. -1.
          5    1    1    2  501    0 -0.11656811477E+02 -0.26350885074E+02 -0.69035934128E+01  0.30000000000E+02  0.47000000000E+01 0. -1.
         -5    1    1    2    0  501  0.11656811477E+02  0.26350885074E+02  0.69035934128E+01  0.30000000000E+02  0.47000000000E+01 0.  1.
</event>
<event>
 4    1  0.7581446E-002  0.6000000E+02  0.7546771E-02  0.1259629E+00
         11   -1    0    0    0    0  0.00000000000E+00  0.00000000000E+00  0.30000000000E+02  0.30000000000E+02  0.00000000000E+00 0. -1.
        -11   -1    0    0    0    0 -0.00000000000E+00 -0.00000000000E+00 -0.30000000000E+02  0.30000000000E+02  0.00000000000E+00 0.  1.
          5    1    1    2  501    0  0.17216988631E+02 -0.28007209844E+00 -0.24112379852E+02  0.30000000000E+02  0.47000000000E+01 0.  1.
         -5    1    1    2    0  501 -0.17216988631E+02  0.28007209844E+00  0.24112379852E+02  0.30000000000E+02  0.47000000000E+01 0. -1.
</event>
<event>
 4    1  0.7581446E-002  0.6000000E+02  0.7546771E-02  0.1259629E+00
         11   -1    0    0    0    0  0.00000000000E+00  0.00000000000E+00  0.30000000000E+02  0.30000000000E+02  0.00000000000E+00 0. -1.
        -11   -1    0    0    0    0 -0.00000000000E+00 -0.00000000000E+00 -0.30000000000E+02  0.30000000000E+02  0.00000000000E+00 0.  1.
          5    1    1    2  501    0 -0.66470248459E+01  0.10627214564E+02 -0.26847520766E+02  0.30000000000E+02  0.47000000000E+01 0.  1.
         -5    1    1    2    0  501  0.66470248459E+01 -0.10627214564E+02  0.26847520766E+02  0.30000000000E+02  0.47000000000E+01 0. -1.
</event>
<event>
 4    1  0.7581446E-002  0.6000000E+02  0.7546771E-02  0.1259629E+00
         11   -1    0    0    0    0  0.00000000000E+00  0.00000000000E+00  0.30000000000E+02  0.30000000000E+02  0.00000000000E+00 0.  1.
        -11   -1    0    0    0    0 -0.00000000000E+00 -0.00000000000E+00 -0.30000000000E+02  0.30000000000E+02  0.00000000000E+00 0. -1.
          5    1    1    2  501    0 -0.27024903304E+02 -0.11103888033E+02 -0.49262837863E+01  0.30000000000E+02  0.47000000000E+01 0. -1.
         -5    1    1    2    0  501  0.27024903304E+02  0.11103888033E+02  0.49262837863E+01  0.30000000000E+02  0.47000000000E+01 0.  1.
</event>
<event>
 4    1  0.7581446E-002  0.6000000E+02  0.7546771E-02  0.1259629E+00
         11   -1    0    0    0    0  0.00000000000E+00  0.00000000000E+00  0.30000000000E+02  0.30000000000E+02  0.00000000000E+00 0.  1.
        -11   -1    0    0    0    0 -0.00000000000E+00 -0.00000000000E+00 -0.30000000000E+02  0.30000000000E+02  0.00000000000E+00 0. -1.
          5    1    1    2  501    0 -0.27008157464E+02  0.46793342998E+00 -0.12175814909E+02  0.30000000000E+02  0.47000000000E+01 0. -1.
         -5    1    1    2    0  501  0.27008157464E+02 -0.46793342998E+00  0.12175814909E+02  0.30000000000E+02  0.47000000000E+01 0. -1.
</event>
<event>
 4    1  0.7581446E-002  0.6000000E+02  0.7546771E-02  0.1259629E+00
         11   -1    0    0    0    0  0.00000000000E+00  0.00000000000E+00  0.30000000000E+02  0.30000000000E+02  0.00000000000E+00 0.  1.
        -11   -1    0    0    0    0 -0.00000000000E+00 -0.00000000000E+00 -0.30000000000E+02  0.30000000000E+02  0.00000000000E+00 0. -1.
          5    1    1    2  501    0 -0.24276127529E+02  0.16560043711E+02 -0.37874245150E+01  0.30000000000E+02  0.47000000000E+01 0. -1.
         -5    1    1    2    0  501  0.24276127529E+02 -0.16560043711E+02  0.37874245150E+01  0.30000000000E+02  0.47000000000E+01 0.  1.
</event>
<event>
 4    1  0.7581446E-002  0.6000000E+02  0.7546771E-02  0.1259629E+00
         11   -1    0    0    0    0  0.00000000000E+00  0.00000000000E+00  0.30000000000E+02  0.30000000000E+02  0.00000000000E+00 0.  1.
        -11   -1    0    0    0    0 -0.00000000000E+00 -0.00000000000E+00 -0.30000000000E+02  0.30000000000E+02  0.00000000000E+00 0. -1.
          5    1    1    2  501    0 -0.26923215007E+01 -0.26479537742E+01 -0.29387918364E+02  0.30000000000E+02  0.47000000000E+01 0. -1.
         -5    1    1    2    0  501  0.26923215007E+01  0.26479537742E+01  0.29387918364E+02  0.30000000000E+02  0.47000000000E+01 0.  1.
</event>
<event>
 4    1  0.7581446E-002  0.6000000E+02  0.7546771E-02  0.1259629E+00
         11   -1    0    0    0    0  0.00000000000E+00  0.00000000000E+00  0.30000000000E+02  0.30000000000E+02  0.00000000000E+00 0.  1.
        -11   -1    0    0    0    0 -0.00000000000E+00 -0.00000000000E+00 -0.30000000000E+02  0.30000000000E+02  0.00000000000E+00 0. -1.
          5    1    1    2  501    0 -0.37429515765E+01  0.10193024983E+02 -0.27568143847E+02  0.30000000000E+02  0.47000000000E+01 0. -1.
         -5    1    1    2    0  501  0.37429515765E+01 -0.10193024983E+02  0.27568143847E+02  0.30000000000E+02  0.47000000000E+01 0.  1.
</event>
<event>
 4    1  0.7581446E-002  0.6000000E+02  0.7546771E-02  0.1259629E+00
         11   -1    0    0    0    0  0.00000000000E+00  0.00000000000E+00  0.30000000000E+02  0.30000000000E+02  0.00000000000E+00 0.  1.
        -11   -1    0    0    0    0 -0.00000000000E+00 -0.00000000000E+00 -0.30000000000E+02  0.30000000000E+02  0.00000000000E+00 0. -1.
          5    1    1    2  501    0  0.26097842259E+00 -0.14233073805E+02 -0.25985794202E+02  0.30000000000E+02  0.47000000000E+01 0. -1.
         -5    1    1    2    0  501 -0.26097842259E+00  0.14233073805E+02  0.25985794202E+02  0.30000000000E+02  0.47000000000E+01 0.  1.
</event>
<event>
 4    1  0.7581446E-002  0.6000000E+02  0.7546771E-02  0.1259629E+00
         11   -1    0    0    0    0  0.00000000000E+00  0.00000000000E+00  0.30000000000E+02  0.30000000000E+02  0.00000000000E+00 0.  1.
        -11   -1    0    0    0    0 -0.00000000000E+00 -0.00000000000E+00 -0.30000000000E+02  0.30000000000E+02  0.00000000000E+00 0. -1.
          5    1    1    2  501    0 -0.34838217880E+01  0.24547304250E+02 -0.16223527354E+02  0.30000000000E+02  0.47000000000E+01 0. -1.
         -5    1    1    2    0  501  0.34838217880E+01 -0.24547304250E+02  0.16223527354E+02  0.30000000000E+02  0.47000000000E+01 0.  1.
</event>
<event>
 4    1  0.7581446E-002  0.6000000E+02  0.7546771E-02  0.1259629E+00
         11   -1    0    0    0    0  0.00000000000E+00  0.00000000000E+00  0.30000000000E+02  0.30000000000E+02  0.00000000000E+00 0. -1.
        -11   -1    0    0    0    0 -0.00000000000E+00 -0.00000000000E+00 -0.30000000000E+02  0.30000000000E+02  0.00000000000E+00 0.  1.
          5    1    1    2  501    0  0.26585820228E+02  0.93578771387E+01  0.91397099669E+01  0.30000000000E+02  0.47000000000E+01 0. -1.
         -5    1    1    2    0  501 -0.26585820228E+02 -0.93578771387E+01 -0.91397099669E+01  0.30000000000E+02  0.47000000000E+01 0.  1.
</event>
<event>
 4    1  0.7581446E-002  0.6000000E+02  0.7546771E-02  0.1259629E+00
         11   -1    0    0    0    0  0.00000000000E+00  0.00000000000E+00  0.30000000000E+02  0.30000000000E+02  0.00000000000E+00 0.  1.
        -11   -1    0    0    0    0 -0.00000000000E+00 -0.00000000000E+00 -0.30000000000E+02  0.30000000000E+02  0.00000000000E+00 0. -1.
          5    1    1    2  501    0 -0.22802587008E+01 -0.84074035262E+01 -0.28320063316E+02  0.30000000000E+02  0.47000000000E+01 0. -1.
         -5    1    1    2    0  501  0.22802587008E+01  0.84074035262E+01  0.28320063316E+02  0.30000000000E+02  0.47000000000E+01 0.  1.
</event>
<event>
 4    1  0.7581446E-002  0.6000000E+02  0.7546771E-02  0.1259629E+00
         11   -1    0    0    0    0  0.00000000000E+00  0.00000000000E+00  0.30000000000E+02  0.30000000000E+02  0.00000000000E+00 0.  1.
        -11   -1    0    0    0    0 -0.00000000000E+00 -0.00000000000E+00 -0.30000000000E+02  0.30000000000E+02  0.00000000000E+00 0. -1.
          5    1    1    2  501    0  0.92651819552E+01 -0.26721589022E+02 -0.88330676137E+01  0.30000000000E+02  0.47000000000E+01 0. -1.
         -5    1    1    2    0  501 -0.92651819552E+01  0.26721589022E+02  0.88330676137E+01  0.30000000000E+02  0.47000000000E+01 0.  1.
</event>
<event>
 4    1  0.7581446E-002  0.6000000E+02  0.7546771E-02  0.1259629E+00
         11   -1    0    0    0    0  0.00000000000E+00  0.00000000000E+00  0.30000000000E+02  0.30000000000E+02  0.00000000000E+00 0.  1.
        -11   -1    0    0    0    0 -0.00000000000E+00 -0.00000000000E+00 -0.30000000000E+02  0.30000000000E+02  0.00000000000E+00 0. -1.
          5    1    1    2  501    0 -0.89945430943E+00 -0.35872506555E+01 -0.29397833503E+02  0.30000000000E+02  0.47000000000E+01 0. -1.
         -5    1    1    2    0  501  0.89945430943E+00  0.35872506555E+01  0.29397833503E+02  0.30000000000E+02  0.47000000000E+01 0.  1.
</event>
<event>
 4    1  0.7581446E-002  0.6000000E+02  0.7546771E-02  0.1259629E+00
         11   -1    0    0    0    0  0.00000000000E+00  0.00000000000E+00  0.30000000000E+02  0.30000000000E+02  0.00000000000E+00 0.  1.
        -11   -1    0    0    0    0 -0.00000000000E+00 -0.00000000000E+00 -0.30000000000E+02  0.30000000000E+02  0.00000000000E+00 0. -1.
          5    1    1    2  501    0 -0.26582631146E+02  0.56173888027E+01 -0.11820264988E+02  0.30000000000E+02  0.47000000000E+01 0. -1.
         -5    1    1    2    0  501  0.26582631146E+02 -0.56173888027E+01  0.11820264988E+02  0.30000000000E+02  0.47000000000E+01 0.  1.
</event>
<event>
 4    1  0.7581446E-002  0.6000000E+02  0.7546771E-02  0.1259629E+00
         11   -1    0    0    0    0  0.00000000000E+00  0.00000000000E+00  0.30000000000E+02  0.30000000000E+02  0.00000000000E+00 0.  1.
        -11   -1    0    0    0    0 -0.00000000000E+00 -0.00000000000E+00 -0.30000000000E+02  0.30000000000E+02  0.00000000000E+00 0. -1.
          5    1    1    2  501    0  0.27684609025E+02 -0.42623633123E+01  0.96594348766E+01  0.30000000000E+02  0.47000000000E+01 0.  1.
         -5    1    1    2    0  501 -0.27684609025E+02  0.42623633123E+01 -0.96594348766E+01  0.30000000000E+02  0.47000000000E+01 0. -1.
</event>
<event>
 4    1  0.7581446E-002  0.6000000E+02  0.7546771E-02  0.1259629E+00
         11   -1    0    0    0    0  0.00000000000E+00  0.00000000000E+00  0.30000000000E+02  0.30000000000E+02  0.00000000000E+00 0.  1.
        -11   -1    0    0    0    0 -0.00000000000E+00 -0.00000000000E+00 -0.30000000000E+02  0.30000000000E+02  0.00000000000E+00 0. -1.
          5    1    1    2  501    0  0.31180929446E+01 -0.10997277416E+02 -0.27335826050E+02  0.30000000000E+02  0.47000000000E+01 0. -1.
         -5    1    1    2    0  501 -0.31180929446E+01  0.10997277416E+02  0.27335826050E+02  0.30000000000E+02  0.47000000000E+01 0.  1.
</event>
<event>
 4    1  0.7581446E-002  0.6000000E+02  0.7546771E-02  0.1259629E+00
         11   -1    0    0    0    0  0.00000000000E+00  0.00000000000E+00  0.30000000000E+02  0.30000000000E+02  0.00000000000E+00 0.  1.
        -11   -1    0    0    0    0 -0.00000000000E+00 -0.00000000000E+00 -0.30000000000E+02  0.30000000000E+02  0.00000000000E+00 0. -1.
          5    1    1    2  501    0 -0.66981002309E+01  0.28715232685E+02 -0.29121924954E+01  0.30000000000E+02  0.47000000000E+01 0. -1.
         -5    1    1    2    0  501  0.66981002309E+01 -0.28715232685E+02  0.29121924954E+01  0.30000000000E+02  0.47000000000E+01 0.  1.
</event>
<event>
 4    1  0.7581446E-002  0.6000000E+02  0.7546771E-02  0.1259629E+00
         11   -1    0    0    0    0  0.00000000000E+00  0.00000000000E+00  0.30000000000E+02  0.30000000000E+02  0.00000000000E+00 0.  1.
        -11   -1    0    0    0    0 -0.00000000000E+00 -0.00000000000E+00 -0.30000000000E+02  0.30000000000E+02  0.00000000000E+00 0. -1.
          5    1    1    2  501    0 -0.73154203771E+00 -0.23093430419E+02 -0.18549078622E+02  0.30000000000E+02  0.47000000000E+01 0. -1.
         -5    1    1    2    0  501  0.73154203771E+00  0.23093430419E+02  0.18549078622E+02  0.30000000000E+02  0.47000000000E+01 0.  1.
</event>
<event>
 4    1  0.7581446E-002  0.6000000E+02  0.7546771E-02  0.1259629E+00
         11   -1    0    0    0    0  0.00000000000E+00  0.00000000000E+00  0.30000000000E+02  0.30000000000E+02  0.00000000000E+00 0.  1.
        -11   -1    0    0    0    0 -0.00000000000E+00 -0.00000000000E+00 -0.30000000000E+02  0.30000000000E+02  0.00000000000E+00 0. -1.
          5    1    1    2  501    0 -0.26084179009E+01  0.29482680587E+02 -0.13702924693E+01  0.30000000000E+02  0.47000000000E+01 0. -1.
         -5    1    1    2    0  501  0.26084179009E+01 -0.29482680587E+02  0.13702924693E+01  0.30000000000E+02  0.47000000000E+01 0. -1.
</event>
<event>
 4    1  0.7581446E-002  0.6000000E+02  0.7546771E-02  0.1259629E+00
         11   -1    0    0    0    0  0.00000000000E+00  0.00000000000E+00  0.30000000000E+02  0.30000000000E+02  0.00000000000E+00 0.  1.
        -11   -1    0    0    0    0 -0.00000000000E+00 -0.00000000000E+00 -0.30000000000E+02  0.30000000000E+02  0.00000000000E+00 0. -1.
          5    1    1    2  501    0  0.62701996562E+01  0.12875451947E+02 -0.25938722664E+02  0.30000000000E+02  0.47000000000E+01 0. -1.
         -5    1    1    2    0  501 -0.62701996562E+01 -0.12875451947E+02  0.25938722664E+02  0.30000000000E+02  0.47000000000E+01 0.  1.
</event>
<event>
 4    1  0.7581446E-002  0.6000000E+02  0.7546771E-02  0.1259629E+00
         11   -1    0    0    0    0  0.00000000000E+00  0.00000000000E+00  0.30000000000E+02  0.30000000000E+02  0.00000000000E+00 0.  1.
        -11   -1    0    0    0    0 -0.00000000000E+00 -0.00000000000E+00 -0.30000000000E+02  0.30000000000E+02  0.00000000000E+00 0. -1.
          5    1    1    2  501    0  0.28099701733E+02 -0.52474061655E+01  0.77962485230E+01  0.30000000000E+02  0.47000000000E+01 0. -1.
         -5    1    1    2    0  501 -0.28099701733E+02  0.52474061655E+01 -0.77962485230E+01  0.30000000000E+02  0.47000000000E+01 0.  1.
</event>
<event>
 4    1  0.7581446E-002  0.6000000E+02  0.7546771E-02  0.1259629E+00
         11   -1    0    0    0    0  0.00000000000E+00  0.00000000000E+00  0.30000000000E+02  0.30000000000E+02  0.00000000000E+00 0.  1.
        -11   -1    0    0    0    0 -0.00000000000E+00 -0.00000000000E+00 -0.30000000000E+02  0.30000000000E+02  0.00000000000E+00 0. -1.
          5    1    1    2  501    0  0.43009578898E+01 -0.55654255173E+01  0.28782595436E+02  0.30000000000E+02  0.47000000000E+01 0.  1.
         -5    1    1    2    0  501 -0.43009578898E+01  0.55654255173E+01 -0.28782595436E+02  0.30000000000E+02  0.47000000000E+01 0. -1.
</event>
<event>
 4    1  0.7581446E-002  0.6000000E+02  0.7546771E-02  0.1259629E+00
         11   -1    0    0    0    0  0.00000000000E+00  0.00000000000E+00  0.30000000000E+02  0.30000000000E+02  0.00000000000E+00 0.  1.
        -11   -1    0    0    0    0 -0.00000000000E+00 -0.00000000000E+00 -0.30000000000E+02  0.30000000000E+02  0.00000000000E+00 0. -1.
          5    1    1    2  501    0  0.57644376842E+00  0.14852232058E+02  0.25631795011E+02  0.30000000000E+02  0.47000000000E+01 0.  1.
         -5    1    1    2    0  501 -0.57644376842E+00 -0.14852232058E+02 -0.25631795011E+02  0.30000000000E+02  0.47000000000E+01 0. -1.
</event>
<event>
 4    1  0.7581446E-002  0.6000000E+02  0.7546771E-02  0.1259629E+00
         11   -1    0    0    0    0  0.00000000000E+00  0.00000000000E+00  0.30000000000E+02  0.30000000000E+02  0.00000000000E+00 0. -1.
        -11   -1    0    0    0    0 -0.00000000000E+00 -0.00000000000E+00 -0.30000000000E+02  0.30000000000E+02  0.00000000000E+00 0.  1.
          5    1    1    2  501    0  0.15933780051E+02  0.10319288266E+02  0.22749438300E+02  0.30000000000E+02  0.47000000000E+01 0. -1.
         -5    1    1    2    0  501 -0.15933780051E+02 -0.10319288266E+02 -0.22749438300E+02  0.30000000000E+02  0.47000000000E+01 0.  1.
</event>
<event>
 4    1  0.7581446E-002  0.6000000E+02  0.7546771E-02  0.1259629E+00
         11   -1    0    0    0    0  0.00000000000E+00  0.00000000000E+00  0.30000000000E+02  0.30000000000E+02  0.00000000000E+00 0.  1.
        -11   -1    0    0    0    0 -0.00000000000E+00 -0.00000000000E+00 -0.30000000000E+02  0.30000000000E+02  0.00000000000E+00 0. -1.
          5    1    1    2  501    0  0.43461007333E+01  0.28846582317E+02  0.51861447202E+01  0.30000000000E+02  0.47000000000E+01 0. -1.
         -5    1    1    2    0  501 -0.43461007333E+01 -0.28846582317E+02 -0.51861447202E+01  0.30000000000E+02  0.47000000000E+01 0.  1.
</event>
<event>
 4    1  0.7581446E-002  0.6000000E+02  0.7546771E-02  0.1259629E+00
         11   -1    0    0    0    0  0.00000000000E+00  0.00000000000E+00  0.30000000000E+02  0.30000000000E+02  0.00000000000E+00 0.  1.
        -11   -1    0    0    0    0 -0.00000000000E+00 -0.00000000000E+00 -0.30000000000E+02  0.30000000000E+02  0.00000000000E+00 0. -1.
          5    1    1    2  501    0 -0.17432760011E+01  0.15706955603E+02 -0.25063170878E+02  0.30000000000E+02  0.47000000000E+01 0. -1.
         -5    1    1    2    0  501  0.17432760011E+01 -0.15706955603E+02  0.25063170878E+02  0.30000000000E+02  0.47000000000E+01 0.  1.
</event>
<event>
 4    1  0.7581446E-002  0.6000000E+02  0.7546771E-02  0.1259629E+00
         11   -1    0    0    0    0  0.00000000000E+00  0.00000000000E+00  0.30000000000E+02  0.30000000000E+02  0.00000000000E+00 0.  1.
        -11   -1    0    0    0    0 -0.00000000000E+00 -0.00000000000E+00 -0.30000000000E+02  0.30000000000E+02  0.00000000000E+00 0. -1.
          5    1    1    2  501    0  0.28394071404E+02  0.81550245368E+01  0.22764630257E+01  0.30000000000E+02  0.47000000000E+01 0. -1.
         -5    1    1    2    0  501 -0.28394071404E+02 -0.81550245368E+01 -0.22764630257E+01  0.30000000000E+02  0.47000000000E+01 0.  1.
</event>
<event>
 4    1  0.7581446E-002  0.6000000E+02  0.7546771E-02  0.1259629E+00
         11   -1    0    0    0    0  0.00000000000E+00  0.00000000000E+00  0.30000000000E+02  0.30000000000E+02  0.00000000000E+00 0.  1.
        -11   -1    0    0    0    0 -0.00000000000E+00 -0.00000000000E+00 -0.30000000000E+02  0.30000000000E+02  0.00000000000E+00 0. -1.
          5    1    1    2  501    0  0.22953195124E+02 -0.18280621885E+02 -0.41084908551E+01  0.30000000000E+02  0.47000000000E+01 0. -1.
         -5    1    1    2    0  501 -0.22953195124E+02  0.18280621885E+02  0.41084908551E+01  0.30000000000E+02  0.47000000000E+01 0.  1.
</event>
<event>
 4    1  0.7581446E-002  0.6000000E+02  0.7546771E-02  0.1259629E+00
         11   -1    0    0    0    0  0.00000000000E+00  0.00000000000E+00  0.30000000000E+02  0.30000000000E+02  0.00000000000E+00 0. -1.
        -11   -1    0    0    0    0 -0.00000000000E+00 -0.00000000000E+00 -0.30000000000E+02  0.30000000000E+02  0.00000000000E+00 0.  1.
          5    1    1    2  501    0  0.94387552153E+00  0.26902461487E+02 -0.12380495343E+02  0.30000000000E+02  0.47000000000E+01 0.  1.
         -5    1    1    2    0  501 -0.94387552153E+00 -0.26902461487E+02  0.12380495343E+02  0.30000000000E+02  0.47000000000E+01 0. -1.
</event>
<event>
 4    1  0.7581446E-002  0.6000000E+02  0.7546771E-02  0.1259629E+00
         11   -1    0    0    0    0  0.00000000000E+00  0.00000000000E+00  0.30000000000E+02  0.30000000000E+02  0.00000000000E+00 0.  1.
        -11   -1    0    0    0    0 -0.00000000000E+00 -0.00000000000E+00 -0.30000000000E+02  0.30000000000E+02  0.00000000000E+00 0. -1.
          5    1    1    2  501    0 -0.95283767392E+01 -0.28439018604E+00 -0.28054218202E+02  0.30000000000E+02  0.47000000000E+01 0. -1.
         -5    1    1    2    0  501  0.95283767392E+01  0.28439018604E+00  0.28054218202E+02  0.30000000000E+02  0.47000000000E+01 0.  1.
</event>
<event>
 4    1  0.7581446E-002  0.6000000E+02  0.7546771E-02  0.1259629E+00
         11   -1    0    0    0    0  0.00000000000E+00  0.00000000000E+00  0.30000000000E+02  0.30000000000E+02  0.00000000000E+00 0.  1.
        -11   -1    0    0    0    0 -0.00000000000E+00 -0.00000000000E+00 -0.30000000000E+02  0.30000000000E+02  0.00000000000E+00 0. -1.
          5    1    1    2  501    0  0.15851239565E+02 -0.18646960379E+02 -0.16701469183E+02  0.30000000000E+02  0.47000000000E+01 0. -1.
         -5    1    1    2    0  501 -0.15851239565E+02  0.18646960379E+02  0.16701469183E+02  0.30000000000E+02  0.47000000000E+01 0.  1.
</event>
<event>
 4    1  0.7581446E-002  0.6000000E+02  0.7546771E-02  0.1259629E+00
         11   -1    0    0    0    0  0.00000000000E+00  0.00000000000E+00  0.30000000000E+02  0.30000000000E+02  0.00000000000E+00 0.  1.
        -11   -1    0    0    0    0 -0.00000000000E+00 -0.00000000000E+00 -0.30000000000E+02  0.30000000000E+02  0.00000000000E+00 0. -1.
          5    1    1    2  501    0 -0.71205602540E+01  0.27847673828E+01 -0.28626084124E+02  0.30000000000E+02  0.47000000000E+01 0. -1.
         -5    1    1    2    0  501  0.71205602540E+01 -0.27847673828E+01  0.28626084124E+02  0.30000000000E+02  0.47000000000E+01 0.  1.
</event>
<event>
 4    1  0.7581446E-002  0.6000000E+02  0.7546771E-02  0.1259629E+00
         11   -1    0    0    0    0  0.00000000000E+00  0.00000000000E+00  0.30000000000E+02  0.30000000000E+02  0.00000000000E+00 0.  1.
        -11   -1    0    0    0    0 -0.00000000000E+00 -0.00000000000E+00 -0.30000000000E+02  0.30000000000E+02  0.00000000000E+00 0. -1.
          5    1    1    2  501    0 -0.27208282232E+02  0.75997963853E+01 -0.89365806043E+01  0.30000000000E+02  0.47000000000E+01 0. -1.
         -5    1    1    2    0  501  0.27208282232E+02 -0.75997963853E+01  0.89365806043E+01  0.30000000000E+02  0.47000000000E+01 0.  1.
</event>
<event>
 4    1  0.7581446E-002  0.6000000E+02  0.7546771E-02  0.1259629E+00
         11   -1    0    0    0    0  0.00000000000E+00  0.00000000000E+00  0.30000000000E+02  0.30000000000E+02  0.00000000000E+00 0.  1.
        -11   -1    0    0    0    0 -0.00000000000E+00 -0.00000000000E+00 -0.30000000000E+02  0.30000000000E+02  0.00000000000E+00 0. -1.
          5    1    1    2  501    0  0.11871293288E+01  0.90751211543E+01 -0.28180541159E+02  0.30000000000E+02  0.47000000000E+01 0. -1.
         -5    1    1    2    0  501 -0.11871293288E+01 -0.90751211543E+01  0.28180541159E+02  0.30000000000E+02  0.47000000000E+01 0.  1.
</event>
<event>
 4    1  0.7581446E-002  0.6000000E+02  0.7546771E-02  0.1259629E+00
         11   -1    0    0    0    0  0.00000000000E+00  0.00000000000E+00  0.30000000000E+02  0.30000000000E+02  0.00000000000E+00 0.  1.
        -11   -1    0    0    0    0 -0.00000000000E+00 -0.00000000000E+00 -0.30000000000E+02  0.30000000000E+02  0.00000000000E+00 0. -1.
          5    1    1    2  501    0 -0.62098257517E+01  0.13576922818E+02 -0.25593265343E+02  0.30000000000E+02  0.47000000000E+01 0. -1.
         -5    1    1    2    0  501  0.62098257517E+01 -0.13576922818E+02  0.25593265343E+02  0.30000000000E+02  0.47000000000E+01 0.  1.
</event>
<event>
 4    1  0.7581446E-002  0.6000000E+02  0.7546771E-02  0.1259629E+00
         11   -1    0    0    0    0  0.00000000000E+00  0.00000000000E+00  0.30000000000E+02  0.30000000000E+02  0.00000000000E+00 0.  1.
        -11   -1    0    0    0    0 -0.00000000000E+00 -0.00000000000E+00 -0.30000000000E+02  0.30000000000E+02  0.00000000000E+00 0. -1.
          5    1    1    2  501    0  0.22613410333E+02 -0.17374656151E+02 -0.80414548906E+01  0.30000000000E+02  0.47000000000E+01 0. -1.
         -5    1    1    2    0  501 -0.22613410333E+02  0.17374656151E+02  0.80414548906E+01  0.30000000000E+02  0.47000000000E+01 0.  1.
</event>
<event>
 4    1  0.7581446E-002  0.6000000E+02  0.7546771E-02  0.1259629E+00
         11   -1    0    0    0    0  0.00000000000E+00  0.00000000000E+00  0.30000000000E+02  0.30000000000E+02  0.00000000000E+00 0. -1.
        -11   -1    0    0    0    0 -0.00000000000E+00 -0.00000000000E+00 -0.30000000000E+02  0.30000000000E+02  0.00000000000E+00 0.  1.
          5    1    1    2  501    0  0.18671560200E+02  0.17555443914E+02 -0.14869069530E+02  0.30000000000E+02  0.47000000000E+01 0.  1.
         -5    1    1    2    0  501 -0.18671560200E+02 -0.17555443914E+02  0.14869069530E+02  0.30000000000E+02  0.47000000000E+01 0. -1.
</event>
<event>
 4    1  0.7581446E-002  0.6000000E+02  0.7546771E-02  0.1259629E+00
         11   -1    0    0    0    0  0.00000000000E+00  0.00000000000E+00  0.30000000000E+02  0.30000000000E+02  0.00000000000E+00 0.  1.
        -11   -1    0    0    0    0 -0.00000000000E+00 -0.00000000000E+00 -0.30000000000E+02  0.30000000000E+02  0.00000000000E+00 0. -1.
          5    1    1    2  501    0  0.14633238397E+01 -0.96945171902E+01 -0.27960418806E+02  0.30000000000E+02  0.47000000000E+01 0. -1.
         -5    1    1    2    0  501 -0.14633238397E+01  0.96945171902E+01  0.27960418806E+02  0.30000000000E+02  0.47000000000E+01 0.  1.
</event>
<event>
 4    1  0.7581446E-002  0.6000000E+02  0.7546771E-02  0.1259629E+00
         11   -1    0    0    0    0  0.00000000000E+00  0.00000000000E+00  0.30000000000E+02  0.30000000000E+02  0.00000000000E+00 0.  1.
        -11   -1    0    0    0    0 -0.00000000000E+00 -0.00000000000E+00 -0.30000000000E+02  0.30000000000E+02  0.00000000000E+00 0. -1.
          5    1    1    2  501    0 -0.84481149914E+01  0.76847349700E+01 -0.27340157306E+02  0.30000000000E+02  0.47000000000E+01 0. -1.
         -5    1    1    2    0  501  0.84481149914E+01 -0.76847349700E+01  0.27340157306E+02  0.30000000000E+02  0.47000000000E+01 0.  1.
</event>
<event>
 4    1  0.7581446E-002  0.6000000E+02  0.7546771E-02  0.1259629E+00
         11   -1    0    0    0    0  0.00000000000E+00  0.00000000000E+00  0.30000000000E+02  0.30000000000E+02  0.00000000000E+00 0. -1.
        -11   -1    0    0    0    0 -0.00000000000E+00 -0.00000000000E+00 -0.30000000000E+02  0.30000000000E+02  0.00000000000E+00 0.  1.
          5    1    1    2  501    0  0.69787427720E+01 -0.43864098872E+01 -0.28459911413E+02  0.30000000000E+02  0.47000000000E+01 0.  1.
         -5    1    1    2    0  501 -0.69787427720E+01  0.43864098872E+01  0.28459911413E+02  0.30000000000E+02  0.47000000000E+01 0. -1.
</event>
<event>
 4    1  0.7581446E-002  0.6000000E+02  0.7546771E-02  0.1259629E+00
         11   -1    0    0    0    0  0.00000000000E+00  0.00000000000E+00  0.30000000000E+02  0.30000000000E+02  0.00000000000E+00 0.  1.
        -11   -1    0    0    0    0 -0.00000000000E+00 -0.00000000000E+00 -0.30000000000E+02  0.30000000000E+02  0.00000000000E+00 0. -1.
          5    1    1    2  501    0  0.15977555483E+02  0.19420502190E+02  0.15667540186E+02  0.30000000000E+02  0.47000000000E+01 0.  1.
         -5    1    1    2    0  501 -0.15977555483E+02 -0.19420502190E+02 -0.15667540186E+02  0.30000000000E+02  0.47000000000E+01 0. -1.
</event>
<event>
 4    1  0.7581446E-002  0.6000000E+02  0.7546771E-02  0.1259629E+00
         11   -1    0    0    0    0  0.00000000000E+00  0.00000000000E+00  0.30000000000E+02  0.30000000000E+02  0.00000000000E+00 0.  1.
        -11   -1    0    0    0    0 -0.00000000000E+00 -0.00000000000E+00 -0.30000000000E+02  0.30000000000E+02  0.00000000000E+00 0. -1.
          5    1    1    2  501    0 -0.29530014395E+02 -0.24120602179E+01 -0.26498179598E+00  0.30000000000E+02  0.47000000000E+01 0. -1.
         -5    1    1    2    0  501  0.29530014395E+02  0.24120602179E+01  0.26498179598E+00  0.30000000000E+02  0.47000000000E+01 0.  1.
</event>
<event>
 4    1  0.7581446E-002  0.6000000E+02  0.7546771E-02  0.1259629E+00
         11   -1    0    0    0    0  0.00000000000E+00  0.00000000000E+00  0.30000000000E+02  0.30000000000E+02  0.00000000000E+00 0.  1.
        -11   -1    0    0    0    0 -0.00000000000E+00 -0.00000000000E+00 -0.30000000000E+02  0.30000000000E+02  0.00000000000E+00 0. -1.
          5    1    1    2  501    0  0.60340826363E+01 -0.13896683428E+01 -0.28975311364E+02  0.30000000000E+02  0.47000000000E+01 0. -1.
         -5    1    1    2    0  501 -0.60340826363E+01  0.13896683428E+01  0.28975311364E+02  0.30000000000E+02  0.47000000000E+01 0.  1.
</event>
<event>
 4    1  0.7581446E-002  0.6000000E+02  0.7546771E-02  0.1259629E+00
         11   -1    0    0    0    0  0.00000000000E+00  0.00000000000E+00  0.30000000000E+02  0.30000000000E+02  0.00000000000E+00 0.  1.
        -11   -1    0    0    0    0 -0.00000000000E+00 -0.00000000000E+00 -0.30000000000E+02  0.30000000000E+02  0.00000000000E+00 0. -1.
          5    1    1    2  501    0 -0.15708329368E+02 -0.14048789340E+02 -0.20827623642E+02  0.30000000000E+02  0.47000000000E+01 0. -1.
         -5    1    1    2    0  501  0.15708329368E+02  0.14048789340E+02  0.20827623642E+02  0.30000000000E+02  0.47000000000E+01 0.  1.
</event>
<event>
 4    1  0.7581446E-002  0.6000000E+02  0.7546771E-02  0.1259629E+00
         11   -1    0    0    0    0  0.00000000000E+00  0.00000000000E+00  0.30000000000E+02  0.30000000000E+02  0.00000000000E+00 0. -1.
        -11   -1    0    0    0    0 -0.00000000000E+00 -0.00000000000E+00 -0.30000000000E+02  0.30000000000E+02  0.00000000000E+00 0.  1.
          5    1    1    2  501    0 -0.61102794904E+01  0.12111039278E+02 -0.26341928786E+02  0.30000000000E+02  0.47000000000E+01 0.  1.
         -5    1    1    2    0  501  0.61102794904E+01 -0.12111039278E+02  0.26341928786E+02  0.30000000000E+02  0.47000000000E+01 0. -1.
</event>
<event>
 4    1  0.7581446E-002  0.6000000E+02  0.7546771E-02  0.1259629E+00
         11   -1    0    0    0    0  0.00000000000E+00  0.00000000000E+00  0.30000000000E+02  0.30000000000E+02  0.00000000000E+00 0. -1.
        -11   -1    0    0    0    0 -0.00000000000E+00 -0.00000000000E+00 -0.30000000000E+02  0.30000000000E+02  0.00000000000E+00 0.  1.
          5    1    1    2  501    0 -0.24091595526E+02 -0.16688518703E+02 -0.43587117917E+01  0.30000000000E+02  0.47000000000E+01 0. -1.
         -5    1    1    2    0  501  0.24091595526E+02  0.16688518703E+02  0.43587117917E+01  0.30000000000E+02  0.47000000000E+01 0.  1.
</event>
<event>
 4    1  0.7581446E-002  0.6000000E+02  0.7546771E-02  0.1259629E+00
         11   -1    0    0    0    0  0.00000000000E+00  0.00000000000E+00  0.30000000000E+02  0.30000000000E+02  0.00000000000E+00 0.  1.
        -11   -1    0    0    0    0 -0.00000000000E+00 -0.00000000000E+00 -0.30000000000E+02  0.30000000000E+02  0.00000000000E+00 0. -1.
          5    1    1    2  501    0 -0.26902061561E+02 -0.12344760192E+02  0.13401416277E+01  0.30000000000E+02  0.47000000000E+01 0.  1.
         -5    1    1    2    0  501  0.26902061561E+02  0.12344760192E+02 -0.13401416277E+01  0.30000000000E+02  0.47000000000E+01 0. -1.
</event>
<event>
 4    1  0.7581446E-002  0.6000000E+02  0.7546771E-02  0.1259629E+00
         11   -1    0    0    0    0  0.00000000000E+00  0.00000000000E+00  0.30000000000E+02  0.30000000000E+02  0.00000000000E+00 0.  1.
        -11   -1    0    0    0    0 -0.00000000000E+00 -0.00000000000E+00 -0.30000000000E+02  0.30000000000E+02  0.00000000000E+00 0. -1.
          5    1    1    2  501    0  0.65551864533E+01  0.99637654576E+01 -0.27123106542E+02  0.30000000000E+02  0.47000000000E+01 0. -1.
         -5    1    1    2    0  501 -0.65551864533E+01 -0.99637654576E+01  0.27123106542E+02  0.30000000000E+02  0.47000000000E+01 0.  1.
</event>
<event>
 4    1  0.7581446E-002  0.6000000E+02  0.7546771E-02  0.1259629E+00
         11   -1    0    0    0    0  0.00000000000E+00  0.00000000000E+00  0.30000000000E+02  0.30000000000E+02  0.00000000000E+00 0.  1.
        -11   -1    0    0    0    0 -0.00000000000E+00 -0.00000000000E+00 -0.30000000000E+02  0.30000000000E+02  0.00000000000E+00 0. -1.
          5    1    1    2  501    0  0.16709023594E+02 -0.48708087099E+01  0.23979027358E+02  0.30000000000E+02  0.47000000000E+01 0.  1.
         -5    1    1    2    0  501 -0.16709023594E+02  0.48708087099E+01 -0.23979027358E+02  0.30000000000E+02  0.47000000000E+01 0. -1.
</event>
<event>
 4    1  0.7581446E-002  0.6000000E+02  0.7546771E-02  0.1259629E+00
         11   -1    0    0    0    0  0.00000000000E+00  0.00000000000E+00  0.30000000000E+02  0.30000000000E+02  0.00000000000E+00 0.  1.
        -11   -1    0    0    0    0 -0.00000000000E+00 -0.00000000000E+00 -0.30000000000E+02  0.30000000000E+02  0.00000000000E+00 0. -1.
          5    1    1    2  501    0 -0.16185555466E+02  0.19812198233E+02 -0.14947059759E+02  0.30000000000E+02  0.47000000000E+01 0. -1.
         -5    1    1    2    0  501  0.16185555466E+02 -0.19812198233E+02  0.14947059759E+02  0.30000000000E+02  0.47000000000E+01 0.  1.
</event>
<event>
 4    1  0.7581446E-002  0.6000000E+02  0.7546771E-02  0.1259629E+00
         11   -1    0    0    0    0  0.00000000000E+00  0.00000000000E+00  0.30000000000E+02  0.30000000000E+02  0.00000000000E+00 0.  1.
        -11   -1    0    0    0    0 -0.00000000000E+00 -0.00000000000E+00 -0.30000000000E+02  0.30000000000E+02  0.00000000000E+00 0. -1.
          5    1    1    2  501    0  0.26608878664E+02  0.14845672423E+01 -0.12948885525E+02  0.30000000000E+02  0.47000000000E+01 0. -1.
         -5    1    1    2    0  501 -0.26608878664E+02 -0.14845672423E+01  0.12948885525E+02  0.30000000000E+02  0.47000000000E+01 0.  1.
</event>
<event>
 4    1  0.7581446E-002  0.6000000E+02  0.7546771E-02  0.1259629E+00
         11   -1    0    0    0    0  0.00000000000E+00  0.00000000000E+00  0.30000000000E+02  0.30000000000E+02  0.00000000000E+00 0.  1.
        -11   -1    0    0    0    0 -0.00000000000E+00 -0.00000000000E+00 -0.30000000000E+02  0.30000000000E+02  0.00000000000E+00 0. -1.
          5    1    1    2  501    0  0.13997834264E+02 -0.15149526701E+02 -0.21271165381E+02  0.30000000000E+02  0.47000000000E+01 0. -1.
         -5    1    1    2    0  501 -0.13997834264E+02  0.15149526701E+02  0.21271165381E+02  0.30000000000E+02  0.47000000000E+01 0.  1.
</event>
<event>
 4    1  0.7581446E-002  0.6000000E+02  0.7546771E-02  0.1259629E+00
         11   -1    0    0    0    0  0.00000000000E+00  0.00000000000E+00  0.30000000000E+02  0.30000000000E+02  0.00000000000E+00 0.  1.
        -11   -1    0    0    0    0 -0.00000000000E+00 -0.00000000000E+00 -0.30000000000E+02  0.30000000000E+02  0.00000000000E+00 0. -1.
          5    1    1    2  501    0  0.29091269676E+02  0.52664886624E+01  0.19677717936E+01  0.30000000000E+02  0.47000000000E+01 0. -1.
         -5    1    1    2    0  501 -0.29091269676E+02 -0.52664886624E+01 -0.19677717936E+01  0.30000000000E+02  0.47000000000E+01 0.  1.
</event>
<event>
 4    1  0.7581446E-002  0.6000000E+02  0.7546771E-02  0.1259629E+00
         11   -1    0    0    0    0  0.00000000000E+00  0.00000000000E+00  0.30000000000E+02  0.30000000000E+02  0.00000000000E+00 0.  1.
        -11   -1    0    0    0    0 -0.00000000000E+00 -0.00000000000E+00 -0.30000000000E+02  0.30000000000E+02  0.00000000000E+00 0. -1.
          5    1    1    2  501    0  0.74953419698E-01 -0.86923978027E+01 -0.28325723335E+02  0.30000000000E+02  0.47000000000E+01 0. -1.
         -5    1    1    2    0  501 -0.74953419698E-01  0.86923978027E+01  0.28325723335E+02  0.30000000000E+02  0.47000000000E+01 0.  1.
</event>
<event>
 4    1  0.7581446E-002  0.6000000E+02  0.7546771E-02  0.1259629E+00
         11   -1    0    0    0    0  0.00000000000E+00  0.00000000000E+00  0.30000000000E+02  0.30000000000E+02  0.00000000000E+00 0.  1.
        -11   -1    0    0    0    0 -0.00000000000E+00 -0.00000000000E+00 -0.30000000000E+02  0.30000000000E+02  0.00000000000E+00 0. -1.
          5    1    1    2  501    0  0.17989232818E+02  0.17264533738E+02 -0.16007291384E+02  0.30000000000E+02  0.47000000000E+01 0. -1.
         -5    1    1    2    0  501 -0.17989232818E+02 -0.17264533738E+02  0.16007291384E+02  0.30000000000E+02  0.47000000000E+01 0.  1.
</event>
<event>
 4    1  0.7581446E-002  0.6000000E+02  0.7546771E-02  0.1259629E+00
         11   -1    0    0    0    0  0.00000000000E+00  0.00000000000E+00  0.30000000000E+02  0.30000000000E+02  0.00000000000E+00 0.  1.
        -11   -1    0    0    0    0 -0.00000000000E+00 -0.00000000000E+00 -0.30000000000E+02  0.30000000000E+02  0.00000000000E+00 0. -1.
          5    1    1    2  501    0  0.10413781810E+01 -0.24696325618E+02 -0.16337595675E+02  0.30000000000E+02  0.47000000000E+01 0. -1.
         -5    1    1    2    0  501 -0.10413781810E+01  0.24696325618E+02  0.16337595675E+02  0.30000000000E+02  0.47000000000E+01 0.  1.
</event>
<event>
 4    1  0.7581446E-002  0.6000000E+02  0.7546771E-02  0.1259629E+00
         11   -1    0    0    0    0  0.00000000000E+00  0.00000000000E+00  0.30000000000E+02  0.30000000000E+02  0.00000000000E+00 0.  1.
        -11   -1    0    0    0    0 -0.00000000000E+00 -0.00000000000E+00 -0.30000000000E+02  0.30000000000E+02  0.00000000000E+00 0. -1.
          5    1    1    2  501    0 -0.14650411075E+02 -0.25641856589E+02  0.24022168927E+01  0.30000000000E+02  0.47000000000E+01 0. -1.
         -5    1    1    2    0  501  0.14650411075E+02  0.25641856589E+02 -0.24022168927E+01  0.30000000000E+02  0.47000000000E+01 0.  1.
</event>
<event>
 4    1  0.7581446E-002  0.6000000E+02  0.7546771E-02  0.1259629E+00
         11   -1    0    0    0    0  0.00000000000E+00  0.00000000000E+00  0.30000000000E+02  0.30000000000E+02  0.00000000000E+00 0.  1.
        -11   -1    0    0    0    0 -0.00000000000E+00 -0.00000000000E+00 -0.30000000000E+02  0.30000000000E+02  0.00000000000E+00 0. -1.
          5    1    1    2  501    0  0.23534852333E+02 -0.16467758642E+02  0.72686760123E+01  0.30000000000E+02  0.47000000000E+01 0. -1.
         -5    1    1    2    0  501 -0.23534852333E+02  0.16467758642E+02 -0.72686760123E+01  0.30000000000E+02  0.47000000000E+01 0.  1.
</event>
<event>
 4    1  0.7581446E-002  0.6000000E+02  0.7546771E-02  0.1259629E+00
         11   -1    0    0    0    0  0.00000000000E+00  0.00000000000E+00  0.30000000000E+02  0.30000000000E+02  0.00000000000E+00 0. -1.
        -11   -1    0    0    0    0 -0.00000000000E+00 -0.00000000000E+00 -0.30000000000E+02  0.30000000000E+02  0.00000000000E+00 0.  1.
          5    1    1    2  501    0 -0.61357737735E+01  0.24677631536E+01 -0.28882043301E+02  0.30000000000E+02  0.47000000000E+01 0.  1.
         -5    1    1    2    0  501  0.61357737735E+01 -0.24677631536E+01  0.28882043301E+02  0.30000000000E+02  0.47000000000E+01 0. -1.
</event>
<event>
 4    1  0.7581446E-002  0.6000000E+02  0.7546771E-02  0.1259629E+00
         11   -1    0    0    0    0  0.00000000000E+00  0.00000000000E+00  0.30000000000E+02  0.30000000000E+02  0.00000000000E+00 0.  1.
        -11   -1    0    0    0    0 -0.00000000000E+00 -0.00000000000E+00 -0.30000000000E+02  0.30000000000E+02  0.00000000000E+00 0. -1.
          5    1    1    2  501    0  0.15729754521E+02  0.11957261097E+02  0.22079599855E+02  0.30000000000E+02  0.47000000000E+01 0.  1.
         -5    1    1    2    0  501 -0.15729754521E+02 -0.11957261097E+02 -0.22079599855E+02  0.30000000000E+02  0.47000000000E+01 0. -1.
</event>
<event>
 4    1  0.7581446E-002  0.6000000E+02  0.7546771E-02  0.1259629E+00
         11   -1    0    0    0    0  0.00000000000E+00  0.00000000000E+00  0.30000000000E+02  0.30000000000E+02  0.00000000000E+00 0.  1.
        -11   -1    0    0    0    0 -0.00000000000E+00 -0.00000000000E+00 -0.30000000000E+02  0.30000000000E+02  0.00000000000E+00 0. -1.
          5    1    1    2  501    0 -0.28204258396E+02  0.26680807543E+01 -0.86781998943E+01  0.30000000000E+02  0.47000000000E+01 0. -1.
         -5    1    1    2    0  501  0.28204258396E+02 -0.26680807543E+01  0.86781998943E+01  0.30000000000E+02  0.47000000000E+01 0.  1.
</event>
<event>
 4    1  0.7581446E-002  0.6000000E+02  0.7546771E-02  0.1259629E+00
         11   -1    0    0    0    0  0.00000000000E+00  0.00000000000E+00  0.30000000000E+02  0.30000000000E+02  0.00000000000E+00 0.  1.
        -11   -1    0    0    0    0 -0.00000000000E+00 -0.00000000000E+00 -0.30000000000E+02  0.30000000000E+02  0.00000000000E+00 0. -1.
          5    1    1    2  501    0 -0.20823450474E+01 -0.22783480365E+02 -0.18827821476E+02  0.30000000000E+02  0.47000000000E+01 0. -1.
         -5    1    1    2    0  501  0.20823450474E+01  0.22783480365E+02  0.18827821476E+02  0.30000000000E+02  0.47000000000E+01 0.  1.
</event>
<event>
 4    1  0.7581446E-002  0.6000000E+02  0.7546771E-02  0.1259629E+00
         11   -1    0    0    0    0  0.00000000000E+00  0.00000000000E+00  0.30000000000E+02  0.30000000000E+02  0.00000000000E+00 0.  1.
        -11   -1    0    0    0    0 -0.00000000000E+00 -0.00000000000E+00 -0.30000000000E+02  0.30000000000E+02  0.00000000000E+00 0. -1.
          5    1    1    2  501    0  0.18148541986E+02  0.11177738016E+02  0.20581511039E+02  0.30000000000E+02  0.47000000000E+01 0.  1.
         -5    1    1    2    0  501 -0.18148541986E+02 -0.11177738016E+02 -0.20581511039E+02  0.30000000000E+02  0.47000000000E+01 0. -1.
</event>
<event>
 4    1  0.7581446E-002  0.6000000E+02  0.7546771E-02  0.1259629E+00
         11   -1    0    0    0    0  0.00000000000E+00  0.00000000000E+00  0.30000000000E+02  0.30000000000E+02  0.00000000000E+00 0.  1.
        -11   -1    0    0    0    0 -0.00000000000E+00 -0.00000000000E+00 -0.30000000000E+02  0.30000000000E+02  0.00000000000E+00 0. -1.
          5    1    1    2  501    0 -0.25992422431E+02 -0.73352554529E+01 -0.12185975693E+02  0.30000000000E+02  0.47000000000E+01 0. -1.
         -5    1    1    2    0  501  0.25992422431E+02  0.73352554529E+01  0.12185975693E+02  0.30000000000E+02  0.47000000000E+01 0.  1.
</event>
<event>
 4    1  0.7581446E-002  0.6000000E+02  0.7546771E-02  0.1259629E+00
         11   -1    0    0    0    0  0.00000000000E+00  0.00000000000E+00  0.30000000000E+02  0.30000000000E+02  0.00000000000E+00 0.  1.
        -11   -1    0    0    0    0 -0.00000000000E+00 -0.00000000000E+00 -0.30000000000E+02  0.30000000000E+02  0.00000000000E+00 0. -1.
          5    1    1    2  501    0 -0.20703639140E+02 -0.21195438934E+02 -0.15064779700E+00  0.30000000000E+02  0.47000000000E+01 0. -1.
         -5    1    1    2    0  501  0.20703639140E+02  0.21195438934E+02  0.15064779700E+00  0.30000000000E+02  0.47000000000E+01 0.  1.
</event>
<event>
 4    1  0.7581446E-002  0.6000000E+02  0.7546771E-02  0.1259629E+00
         11   -1    0    0    0    0  0.00000000000E+00  0.00000000000E+00  0.30000000000E+02  0.30000000000E+02  0.00000000000E+00 0.  1.
        -11   -1    0    0    0    0 -0.00000000000E+00 -0.00000000000E+00 -0.30000000000E+02  0.30000000000E+02  0.00000000000E+00 0. -1.
          5    1    1    2  501    0  0.27275819787E+02 -0.78565562779E+01  0.84978925866E+01  0.30000000000E+02  0.47000000000E+01 0.  1.
         -5    1    1    2    0  501 -0.27275819787E+02  0.78565562779E+01 -0.84978925866E+01  0.30000000000E+02  0.47000000000E+01 0.  1.
</event>
<event>
 4    1  0.7581446E-002  0.6000000E+02  0.7546771E-02  0.1259629E+00
         11   -1    0    0    0    0  0.00000000000E+00  0.00000000000E+00  0.30000000000E+02  0.30000000000E+02  0.00000000000E+00 0.  1.
        -11   -1    0    0    0    0 -0.00000000000E+00 -0.00000000000E+00 -0.30000000000E+02  0.30000000000E+02  0.00000000000E+00 0. -1.
          5    1    1    2  501    0 -0.86881488389E+01 -0.20040864240E+02 -0.20019736019E+02  0.30000000000E+02  0.47000000000E+01 0. -1.
         -5    1    1    2    0  501  0.86881488389E+01  0.20040864240E+02  0.20019736019E+02  0.30000000000E+02  0.47000000000E+01 0.  1.
</event>
<event>
 4    1  0.7581446E-002  0.6000000E+02  0.7546771E-02  0.1259629E+00
         11   -1    0    0    0    0  0.00000000000E+00  0.00000000000E+00  0.30000000000E+02  0.30000000000E+02  0.00000000000E+00 0. -1.
        -11   -1    0    0    0    0 -0.00000000000E+00 -0.00000000000E+00 -0.30000000000E+02  0.30000000000E+02  0.00000000000E+00 0.  1.
          5    1    1    2  501    0  0.11613788502E+02  0.46503400669E+01 -0.26858969710E+02  0.30000000000E+02  0.47000000000E+01 0.  1.
         -5    1    1    2    0  501 -0.11613788502E+02 -0.46503400669E+01  0.26858969710E+02  0.30000000000E+02  0.47000000000E+01 0. -1.
</event>
<event>
 4    1  0.7581446E-002  0.6000000E+02  0.7546771E-02  0.1259629E+00
         11   -1    0    0    0    0  0.00000000000E+00  0.00000000000E+00  0.30000000000E+02  0.30000000000E+02  0.00000000000E+00 0.  1.
        -11   -1    0    0    0    0 -0.00000000000E+00 -0.00000000000E+00 -0.30000000000E+02  0.30000000000E+02  0.00000000000E+00 0. -1.
          5    1    1    2  501    0 -0.29432147770E+02  0.34119357392E+01  0.13180348397E+00  0.30000000000E+02  0.47000000000E+01 0. -1.
         -5    1    1    2    0  501  0.29432147770E+02 -0.34119357392E+01 -0.13180348397E+00  0.30000000000E+02  0.47000000000E+01 0.  1.
</event>
<event>
 4    1  0.7581446E-002  0.6000000E+02  0.7546771E-02  0.1259629E+00
         11   -1    0    0    0    0  0.00000000000E+00  0.00000000000E+00  0.30000000000E+02  0.30000000000E+02  0.00000000000E+00 0.  1.
        -11   -1    0    0    0    0 -0.00000000000E+00 -0.00000000000E+00 -0.30000000000E+02  0.30000000000E+02  0.00000000000E+00 0. -1.
          5    1    1    2  501    0  0.55530931991E+00 -0.20402054559E+01 -0.29554004691E+02  0.30000000000E+02  0.47000000000E+01 0. -1.
         -5    1    1    2    0  501 -0.55530931991E+00  0.20402054559E+01  0.29554004691E+02  0.30000000000E+02  0.47000000000E+01 0.  1.
</event>
<event>
 4    1  0.7581446E-002  0.6000000E+02  0.7546771E-02  0.1259629E+00
         11   -1    0    0    0    0  0.00000000000E+00  0.00000000000E+00  0.30000000000E+02  0.30000000000E+02  0.00000000000E+00 0. -1.
        -11   -1    0    0    0    0 -0.00000000000E+00 -0.00000000000E+00 -0.30000000000E+02  0.30000000000E+02  0.00000000000E+00 0.  1.
          5    1    1    2  501    0 -0.15477541464E+02 -0.24995945365E+02  0.36821767392E+01  0.30000000000E+02  0.47000000000E+01 0.  1.
         -5    1    1    2    0  501  0.15477541464E+02  0.24995945365E+02 -0.36821767392E+01  0.30000000000E+02  0.47000000000E+01 0. -1.
</event>
<event>
 4    1  0.7581446E-002  0.6000000E+02  0.7546771E-02  0.1259629E+00
         11   -1    0    0    0    0  0.00000000000E+00  0.00000000000E+00  0.30000000000E+02  0.30000000000E+02  0.00000000000E+00 0.  1.
        -11   -1    0    0    0    0 -0.00000000000E+00 -0.00000000000E+00 -0.30000000000E+02  0.30000000000E+02  0.00000000000E+00 0. -1.
          5    1    1    2  501    0 -0.27114519887E+02 -0.68374844387E+01 -0.97960000940E+01  0.30000000000E+02  0.47000000000E+01 0. -1.
         -5    1    1    2    0  501  0.27114519887E+02  0.68374844387E+01  0.97960000940E+01  0.30000000000E+02  0.47000000000E+01 0.  1.
</event>
<event>
 4    1  0.7581446E-002  0.6000000E+02  0.7546771E-02  0.1259629E+00
         11   -1    0    0    0    0  0.00000000000E+00  0.00000000000E+00  0.30000000000E+02  0.30000000000E+02  0.00000000000E+00 0.  1.
        -11   -1    0    0    0    0 -0.00000000000E+00 -0.00000000000E+00 -0.30000000000E+02  0.30000000000E+02  0.00000000000E+00 0. -1.
          5    1    1    2  501    0 -0.68327432323E+01  0.18676945822E+02 -0.21963499600E+02  0.30000000000E+02  0.47000000000E+01 0. -1.
         -5    1    1    2    0  501  0.68327432323E+01 -0.18676945822E+02  0.21963499600E+02  0.30000000000E+02  0.47000000000E+01 0.  1.
</event>
<event>
 4    1  0.7581446E-002  0.6000000E+02  0.7546771E-02  0.1259629E+00
         11   -1    0    0    0    0  0.00000000000E+00  0.00000000000E+00  0.30000000000E+02  0.30000000000E+02  0.00000000000E+00 0.  1.
        -11   -1    0    0    0    0 -0.00000000000E+00 -0.00000000000E+00 -0.30000000000E+02  0.30000000000E+02  0.00000000000E+00 0. -1.
          5    1    1    2  501    0  0.10581615628E+02 -0.20154334560E+02 -0.18966871359E+02  0.30000000000E+02  0.47000000000E+01 0. -1.
         -5    1    1    2    0  501 -0.10581615628E+02  0.20154334560E+02  0.18966871359E+02  0.30000000000E+02  0.47000000000E+01 0.  1.
</event>
<event>
 4    1  0.7581446E-002  0.6000000E+02  0.7546771E-02  0.1259629E+00
         11   -1    0    0    0    0  0.00000000000E+00  0.00000000000E+00  0.30000000000E+02  0.30000000000E+02  0.00000000000E+00 0. -1.
        -11   -1    0    0    0    0 -0.00000000000E+00 -0.00000000000E+00 -0.30000000000E+02  0.30000000000E+02  0.00000000000E+00 0.  1.
          5    1    1    2  501    0 -0.77031801730E+01 -0.21177700823E+02 -0.19237359566E+02  0.30000000000E+02  0.47000000000E+01 0.  1.
         -5    1    1    2    0  501  0.77031801730E+01  0.21177700823E+02  0.19237359566E+02  0.30000000000E+02  0.47000000000E+01 0. -1.
</event>
<event>
 4    1  0.7581446E-002  0.6000000E+02  0.7546771E-02  0.1259629E+00
         11   -1    0    0    0    0  0.00000000000E+00  0.00000000000E+00  0.30000000000E+02  0.30000000000E+02  0.00000000000E+00 0.  1.
        -11   -1    0    0    0    0 -0.00000000000E+00 -0.00000000000E+00 -0.30000000000E+02  0.30000000000E+02  0.00000000000E+00 0. -1.
          5    1    1    2  501    0 -0.16106506056E+02  0.16265292994E+01 -0.24816221813E+02  0.30000000000E+02  0.47000000000E+01 0. -1.
         -5    1    1    2    0  501  0.16106506056E+02 -0.16265292994E+01  0.24816221813E+02  0.30000000000E+02  0.47000000000E+01 0.  1.
</event>
<event>
 4    1  0.7581446E-002  0.6000000E+02  0.7546771E-02  0.1259629E+00
         11   -1    0    0    0    0  0.00000000000E+00  0.00000000000E+00  0.30000000000E+02  0.30000000000E+02  0.00000000000E+00 0.  1.
        -11   -1    0    0    0    0 -0.00000000000E+00 -0.00000000000E+00 -0.30000000000E+02  0.30000000000E+02  0.00000000000E+00 0. -1.
          5    1    1    2  501    0  0.23906554372E+02 -0.13416988334E+02 -0.11241489319E+02  0.30000000000E+02  0.47000000000E+01 0. -1.
         -5    1    1    2    0  501 -0.23906554372E+02  0.13416988334E+02  0.11241489319E+02  0.30000000000E+02  0.47000000000E+01 0.  1.
</event>
<event>
 4    1  0.7581446E-002  0.6000000E+02  0.7546771E-02  0.1259629E+00
         11   -1    0    0    0    0  0.00000000000E+00  0.00000000000E+00  0.30000000000E+02  0.30000000000E+02  0.00000000000E+00 0. -1.
        -11   -1    0    0    0    0 -0.00000000000E+00 -0.00000000000E+00 -0.30000000000E+02  0.30000000000E+02  0.00000000000E+00 0.  1.
          5    1    1    2  501    0  0.22112008268E+02 -0.15850244609E+01 -0.19658504211E+02  0.30000000000E+02  0.47000000000E+01 0.  1.
         -5    1    1    2    0  501 -0.22112008268E+02  0.15850244609E+01  0.19658504211E+02  0.30000000000E+02  0.47000000000E+01 0. -1.
</event>
<event>
 4    1  0.7581446E-002  0.6000000E+02  0.7546771E-02  0.1259629E+00
         11   -1    0    0    0    0  0.00000000000E+00  0.00000000000E+00  0.30000000000E+02  0.30000000000E+02  0.00000000000E+00 0.  1.
        -11   -1    0    0    0    0 -0.00000000000E+00 -0.00000000000E+00 -0.30000000000E+02  0.30000000000E+02  0.00000000000E+00 0. -1.
          5    1    1    2  501    0 -0.17965911930E+01  0.27651575091E+02 -0.10491551604E+02  0.30000000000E+02  0.47000000000E+01 0. -1.
         -5    1    1    2    0  501  0.17965911930E+01 -0.27651575091E+02  0.10491551604E+02  0.30000000000E+02  0.47000000000E+01 0.  1.
</event>
<event>
 4    1  0.7581446E-002  0.6000000E+02  0.7546771E-02  0.1259629E+00
         11   -1    0    0    0    0  0.00000000000E+00  0.00000000000E+00  0.30000000000E+02  0.30000000000E+02  0.00000000000E+00 0.  1.
        -11   -1    0    0    0    0 -0.00000000000E+00 -0.00000000000E+00 -0.30000000000E+02  0.30000000000E+02  0.00000000000E+00 0. -1.
          5    1    1    2  501    0 -0.11785937437E+02 -0.18370270818E+02 -0.20038333982E+02  0.30000000000E+02  0.47000000000E+01 0. -1.
         -5    1    1    2    0  501  0.11785937437E+02  0.18370270818E+02  0.20038333982E+02  0.30000000000E+02  0.47000000000E+01 0.  1.
</event>
<event>
 4    1  0.7581446E-002  0.6000000E+02  0.7546771E-02  0.1259629E+00
         11   -1    0    0    0    0  0.00000000000E+00  0.00000000000E+00  0.30000000000E+02  0.30000000000E+02  0.00000000000E+00 0.  1.
        -11   -1    0    0    0    0 -0.00000000000E+00 -0.00000000000E+00 -0.30000000000E+02  0.30000000000E+02  0.00000000000E+00 0. -1.
          5    1    1    2  501    0 -0.38692712156E+01  0.27807238448E+02  0.94708093729E+01  0.30000000000E+02  0.47000000000E+01 0. -1.
         -5    1    1    2    0  501  0.38692712156E+01 -0.27807238448E+02 -0.94708093729E+01  0.30000000000E+02  0.47000000000E+01 0.  1.
</event>
<event>
 4    1  0.7581446E-002  0.6000000E+02  0.7546771E-02  0.1259629E+00
         11   -1    0    0    0    0  0.00000000000E+00  0.00000000000E+00  0.30000000000E+02  0.30000000000E+02  0.00000000000E+00 0.  1.
        -11   -1    0    0    0    0 -0.00000000000E+00 -0.00000000000E+00 -0.30000000000E+02  0.30000000000E+02  0.00000000000E+00 0. -1.
          5    1    1    2  501    0  0.14088149890E+02 -0.26028658246E+02 -0.13939091003E+01  0.30000000000E+02  0.47000000000E+01 0. -1.
         -5    1    1    2    0  501 -0.14088149890E+02  0.26028658246E+02  0.13939091003E+01  0.30000000000E+02  0.47000000000E+01 0.  1.
</event>
<event>
 4    1  0.7581446E-002  0.6000000E+02  0.7546771E-02  0.1259629E+00
         11   -1    0    0    0    0  0.00000000000E+00  0.00000000000E+00  0.30000000000E+02  0.30000000000E+02  0.00000000000E+00 0.  1.
        -11   -1    0    0    0    0 -0.00000000000E+00 -0.00000000000E+00 -0.30000000000E+02  0.30000000000E+02  0.00000000000E+00 0. -1.
          5    1    1    2  501    0  0.13999847427E+02  0.37386157414E+01 -0.25844477638E+02  0.30000000000E+02  0.47000000000E+01 0. -1.
         -5    1    1    2    0  501 -0.13999847427E+02 -0.37386157414E+01  0.25844477638E+02  0.30000000000E+02  0.47000000000E+01 0.  1.
</event>
<event>
 4    1  0.7581446E-002  0.6000000E+02  0.7546771E-02  0.1259629E+00
         11   -1    0    0    0    0  0.00000000000E+00  0.00000000000E+00  0.30000000000E+02  0.30000000000E+02  0.00000000000E+00 0. -1.
        -11   -1    0    0    0    0 -0.00000000000E+00 -0.00000000000E+00 -0.30000000000E+02  0.30000000000E+02  0.00000000000E+00 0.  1.
          5    1    1    2  501    0  0.25616162297E+02  0.12684102210E+02 -0.77997295027E+01  0.30000000000E+02  0.47000000000E+01 0.  1.
         -5    1    1    2    0  501 -0.25616162297E+02 -0.12684102210E+02  0.77997295027E+01  0.30000000000E+02  0.47000000000E+01 0. -1.
</event>
<event>
 4    1  0.7581446E-002  0.6000000E+02  0.7546771E-02  0.1259629E+00
         11   -1    0    0    0    0  0.00000000000E+00  0.00000000000E+00  0.30000000000E+02  0.30000000000E+02  0.00000000000E+00 0.  1.
        -11   -1    0    0    0    0 -0.00000000000E+00 -0.00000000000E+00 -0.30000000000E+02  0.30000000000E+02  0.00000000000E+00 0. -1.
          5    1    1    2  501    0  0.27180256764E+02 -0.86955150241E+01 -0.79706750481E+01  0.30000000000E+02  0.47000000000E+01 0. -1.
         -5    1    1    2    0  501 -0.27180256764E+02  0.86955150241E+01  0.79706750481E+01  0.30000000000E+02  0.47000000000E+01 0.  1.
</event>
<event>
 4    1  0.7581446E-002  0.6000000E+02  0.7546771E-02  0.1259629E+00
         11   -1    0    0    0    0  0.00000000000E+00  0.00000000000E+00  0.30000000000E+02  0.30000000000E+02  0.00000000000E+00 0.  1.
        -11   -1    0    0    0    0 -0.00000000000E+00 -0.00000000000E+00 -0.30000000000E+02  0.30000000000E+02  0.00000000000E+00 0. -1.
          5    1    1    2  501    0 -0.76981828558E+00  0.28281620968E+02  0.88015507293E+01  0.30000000000E+02  0.47000000000E+01 0. -1.
         -5    1    1    2    0  501  0.76981828558E+00 -0.28281620968E+02 -0.88015507293E+01  0.30000000000E+02  0.47000000000E+01 0.  1.
</event>
<event>
 4    1  0.7581446E-002  0.6000000E+02  0.7546771E-02  0.1259629E+00
         11   -1    0    0    0    0  0.00000000000E+00  0.00000000000E+00  0.30000000000E+02  0.30000000000E+02  0.00000000000E+00 0.  1.
        -11   -1    0    0    0    0 -0.00000000000E+00 -0.00000000000E+00 -0.30000000000E+02  0.30000000000E+02  0.00000000000E+00 0. -1.
          5    1    1    2  501    0  0.83332329289E+01  0.70236622474E+01 -0.27552411829E+02  0.30000000000E+02  0.47000000000E+01 0. -1.
         -5    1    1    2    0  501 -0.83332329289E+01 -0.70236622474E+01  0.27552411829E+02  0.30000000000E+02  0.47000000000E+01 0.  1.
</event>
<event>
 4    1  0.7581446E-002  0.6000000E+02  0.7546771E-02  0.1259629E+00
         11   -1    0    0    0    0  0.00000000000E+00  0.00000000000E+00  0.30000000000E+02  0.30000000000E+02  0.00000000000E+00 0.  1.
        -11   -1    0    0    0    0 -0.00000000000E+00 -0.00000000000E+00 -0.30000000000E+02  0.30000000000E+02  0.00000000000E+00 0. -1.
          5    1    1    2  501    0  0.59843130823E+01 -0.26137591606E+02 -0.12606518233E+02  0.30000000000E+02  0.47000000000E+01 0. -1.
         -5    1    1    2    0  501 -0.59843130823E+01  0.26137591606E+02  0.12606518233E+02  0.30000000000E+02  0.47000000000E+01 0.  1.
</event>
<event>
 4    1  0.7581446E-002  0.6000000E+02  0.7546771E-02  0.1259629E+00
         11   -1    0    0    0    0  0.00000000000E+00  0.00000000000E+00  0.30000000000E+02  0.30000000000E+02  0.00000000000E+00 0.  1.
        -11   -1    0    0    0    0 -0.00000000000E+00 -0.00000000000E+00 -0.30000000000E+02  0.30000000000E+02  0.00000000000E+00 0. -1.
          5    1    1    2  501    0 -0.24525283750E+02  0.12672993521E+02 -0.10761769938E+02  0.30000000000E+02  0.47000000000E+01 0. -1.
         -5    1    1    2    0  501  0.24525283750E+02 -0.12672993521E+02  0.10761769938E+02  0.30000000000E+02  0.47000000000E+01 0.  1.
</event>
<event>
 4    1  0.7581446E-002  0.6000000E+02  0.7546771E-02  0.1259629E+00
         11   -1    0    0    0    0  0.00000000000E+00  0.00000000000E+00  0.30000000000E+02  0.30000000000E+02  0.00000000000E+00 0. -1.
        -11   -1    0    0    0    0 -0.00000000000E+00 -0.00000000000E+00 -0.30000000000E+02  0.30000000000E+02  0.00000000000E+00 0.  1.
          5    1    1    2  501    0  0.17913092259E+02  0.20501733843E+02 -0.11692306666E+02  0.30000000000E+02  0.47000000000E+01 0.  1.
         -5    1    1    2    0  501 -0.17913092259E+02 -0.20501733843E+02  0.11692306666E+02  0.30000000000E+02  0.47000000000E+01 0. -1.
</event>
<event>
 4    1  0.7581446E-002  0.6000000E+02  0.7546771E-02  0.1259629E+00
         11   -1    0    0    0    0  0.00000000000E+00  0.00000000000E+00  0.30000000000E+02  0.30000000000E+02  0.00000000000E+00 0. -1.
        -11   -1    0    0    0    0 -0.00000000000E+00 -0.00000000000E+00 -0.30000000000E+02  0.30000000000E+02  0.00000000000E+00 0.  1.
          5    1    1    2  501    0  0.16081581531E+02 -0.21094202713E+02 -0.13203308199E+02  0.30000000000E+02  0.47000000000E+01 0.  1.
         -5    1    1    2    0  501 -0.16081581531E+02  0.21094202713E+02  0.13203308199E+02  0.30000000000E+02  0.47000000000E+01 0. -1.
</event>
<event>
 4    1  0.7581446E-002  0.6000000E+02  0.7546771E-02  0.1259629E+00
         11   -1    0    0    0    0  0.00000000000E+00  0.00000000000E+00  0.30000000000E+02  0.30000000000E+02  0.00000000000E+00 0.  1.
        -11   -1    0    0    0    0 -0.00000000000E+00 -0.00000000000E+00 -0.30000000000E+02  0.30000000000E+02  0.00000000000E+00 0. -1.
          5    1    1    2  501    0  0.21003768661E+02  0.12112729787E+02  0.17030369320E+02  0.30000000000E+02  0.47000000000E+01 0. -1.
         -5    1    1    2    0  501 -0.21003768661E+02 -0.12112729787E+02 -0.17030369320E+02  0.30000000000E+02  0.47000000000E+01 0.  1.
</event>
<event>
 4    1  0.7581446E-002  0.6000000E+02  0.7546771E-02  0.1259629E+00
         11   -1    0    0    0    0  0.00000000000E+00  0.00000000000E+00  0.30000000000E+02  0.30000000000E+02  0.00000000000E+00 0.  1.
        -11   -1    0    0    0    0 -0.00000000000E+00 -0.00000000000E+00 -0.30000000000E+02  0.30000000000E+02  0.00000000000E+00 0. -1.
          5    1    1    2  501    0  0.27717335660E+02 -0.99138088174E+01 -0.33727879619E+01  0.30000000000E+02  0.47000000000E+01 0. -1.
         -5    1    1    2    0  501 -0.27717335660E+02  0.99138088174E+01  0.33727879619E+01  0.30000000000E+02  0.47000000000E+01 0.  1.
</event>
<event>
 4    1  0.7581446E-002  0.6000000E+02  0.7546771E-02  0.1259629E+00
         11   -1    0    0    0    0  0.00000000000E+00  0.00000000000E+00  0.30000000000E+02  0.30000000000E+02  0.00000000000E+00 0.  1.
        -11   -1    0    0    0    0 -0.00000000000E+00 -0.00000000000E+00 -0.30000000000E+02  0.30000000000E+02  0.00000000000E+00 0. -1.
          5    1    1    2  501    0 -0.29456940152E+01 -0.26695178274E+02 -0.12514005902E+02  0.30000000000E+02  0.47000000000E+01 0. -1.
         -5    1    1    2    0  501  0.29456940152E+01  0.26695178274E+02  0.12514005902E+02  0.30000000000E+02  0.47000000000E+01 0.  1.
</event>
<event>
 4    1  0.7581446E-002  0.6000000E+02  0.7546771E-02  0.1259629E+00
         11   -1    0    0    0    0  0.00000000000E+00  0.00000000000E+00  0.30000000000E+02  0.30000000000E+02  0.00000000000E+00 0.  1.
        -11   -1    0    0    0    0 -0.00000000000E+00 -0.00000000000E+00 -0.30000000000E+02  0.30000000000E+02  0.00000000000E+00 0. -1.
          5    1    1    2  501    0  0.29377399313E+02 -0.37268338358E+01 -0.99454469645E+00  0.30000000000E+02  0.47000000000E+01 0. -1.
         -5    1    1    2    0  501 -0.29377399313E+02  0.37268338358E+01  0.99454469645E+00  0.30000000000E+02  0.47000000000E+01 0.  1.
</event>
<event>
 4    1  0.7581446E-002  0.6000000E+02  0.7546771E-02  0.1259629E+00
         11   -1    0    0    0    0  0.00000000000E+00  0.00000000000E+00  0.30000000000E+02  0.30000000000E+02  0.00000000000E+00 0.  1.
        -11   -1    0    0    0    0 -0.00000000000E+00 -0.00000000000E+00 -0.30000000000E+02  0.30000000000E+02  0.00000000000E+00 0. -1.
          5    1    1    2  501    0  0.10828084698E+02  0.27495346975E+02  0.21606657498E+01  0.30000000000E+02  0.47000000000E+01 0. -1.
         -5    1    1    2    0  501 -0.10828084698E+02 -0.27495346975E+02 -0.21606657498E+01  0.30000000000E+02  0.47000000000E+01 0.  1.
</event>
<event>
 4    1  0.7581446E-002  0.6000000E+02  0.7546771E-02  0.1259629E+00
         11   -1    0    0    0    0  0.00000000000E+00  0.00000000000E+00  0.30000000000E+02  0.30000000000E+02  0.00000000000E+00 0. -1.
        -11   -1    0    0    0    0 -0.00000000000E+00 -0.00000000000E+00 -0.30000000000E+02  0.30000000000E+02  0.00000000000E+00 0.  1.
          5    1    1    2  501    0  0.63468053250E+01  0.27169695663E+02  0.99717450711E+01  0.30000000000E+02  0.47000000000E+01 0.  1.
         -5    1    1    2    0  501 -0.63468053250E+01 -0.27169695663E+02 -0.99717450711E+01  0.30000000000E+02  0.47000000000E+01 0. -1.
</event>
<event>
 4    1  0.7581446E-002  0.6000000E+02  0.7546771E-02  0.1259629E+00
         11   -1    0    0    0    0  0.00000000000E+00  0.00000000000E+00  0.30000000000E+02  0.30000000000E+02  0.00000000000E+00 0.  1.
        -11   -1    0    0    0    0 -0.00000000000E+00 -0.00000000000E+00 -0.30000000000E+02  0.30000000000E+02  0.00000000000E+00 0. -1.
          5    1    1    2  501    0  0.16246499900E+02 -0.19923943592E+02  0.14730842228E+02  0.30000000000E+02  0.47000000000E+01 0.  1.
         -5    1    1    2    0  501 -0.16246499900E+02  0.19923943592E+02 -0.14730842228E+02  0.30000000000E+02  0.47000000000E+01 0. -1.
</event>
<event>
 4    1  0.7581446E-002  0.6000000E+02  0.7546771E-02  0.1259629E+00
         11   -1    0    0    0    0  0.00000000000E+00  0.00000000000E+00  0.30000000000E+02  0.30000000000E+02  0.00000000000E+00 0.  1.
        -11   -1    0    0    0    0 -0.00000000000E+00 -0.00000000000E+00 -0.30000000000E+02  0.30000000000E+02  0.00000000000E+00 0. -1.
          5    1    1    2  501    0 -0.39165397087E+01  0.23914177736E+02 -0.17049422862E+02  0.30000000000E+02  0.47000000000E+01 0. -1.
         -5    1    1    2    0  501  0.39165397087E+01 -0.23914177736E+02  0.17049422862E+02  0.30000000000E+02  0.47000000000E+01 0.  1.
</event>
<event>
 4    1  0.7581446E-002  0.6000000E+02  0.7546771E-02  0.1259629E+00
         11   -1    0    0    0    0  0.00000000000E+00  0.00000000000E+00  0.30000000000E+02  0.30000000000E+02  0.00000000000E+00 0. -1.
        -11   -1    0    0    0    0 -0.00000000000E+00 -0.00000000000E+00 -0.30000000000E+02  0.30000000000E+02  0.00000000000E+00 0.  1.
          5    1    1    2  501    0  0.24539705225E+02 -0.11582225651E+02 -0.11898105582E+02  0.30000000000E+02  0.47000000000E+01 0.  1.
         -5    1    1    2    0  501 -0.24539705225E+02  0.11582225651E+02  0.11898105582E+02  0.30000000000E+02  0.47000000000E+01 0. -1.
</event>
<event>
 4    1  0.7581446E-002  0.6000000E+02  0.7546771E-02  0.1259629E+00
         11   -1    0    0    0    0  0.00000000000E+00  0.00000000000E+00  0.30000000000E+02  0.30000000000E+02  0.00000000000E+00 0.  1.
        -11   -1    0    0    0    0 -0.00000000000E+00 -0.00000000000E+00 -0.30000000000E+02  0.30000000000E+02  0.00000000000E+00 0. -1.
          5    1    1    2  501    0  0.40729704559E+01 -0.20686800309E+02 -0.20817713723E+02  0.30000000000E+02  0.47000000000E+01 0. -1.
         -5    1    1    2    0  501 -0.40729704559E+01  0.20686800309E+02  0.20817713723E+02  0.30000000000E+02  0.47000000000E+01 0.  1.
</event>
<event>
 4    1  0.7581446E-002  0.6000000E+02  0.7546771E-02  0.1259629E+00
         11   -1    0    0    0    0  0.00000000000E+00  0.00000000000E+00  0.30000000000E+02  0.30000000000E+02  0.00000000000E+00 0.  1.
        -11   -1    0    0    0    0 -0.00000000000E+00 -0.00000000000E+00 -0.30000000000E+02  0.30000000000E+02  0.00000000000E+00 0. -1.
          5    1    1    2  501    0 -0.28377821462E+02  0.83571078035E+01 -0.16637302129E+01  0.30000000000E+02  0.47000000000E+01 0. -1.
         -5    1    1    2    0  501  0.28377821462E+02 -0.83571078035E+01  0.16637302129E+01  0.30000000000E+02  0.47000000000E+01 0.  1.
</event>
<event>
 4    1  0.7581446E-002  0.6000000E+02  0.7546771E-02  0.1259629E+00
         11   -1    0    0    0    0  0.00000000000E+00  0.00000000000E+00  0.30000000000E+02  0.30000000000E+02  0.00000000000E+00 0.  1.
        -11   -1    0    0    0    0 -0.00000000000E+00 -0.00000000000E+00 -0.30000000000E+02  0.30000000000E+02  0.00000000000E+00 0. -1.
          5    1    1    2  501    0  0.29471864772E+00  0.22656083442E+02  0.19092538438E+02  0.30000000000E+02  0.47000000000E+01 0.  1.
         -5    1    1    2    0  501 -0.29471864772E+00 -0.22656083442E+02 -0.19092538438E+02  0.30000000000E+02  0.47000000000E+01 0. -1.
</event>
<event>
 4    1  0.7581446E-002  0.6000000E+02  0.7546771E-02  0.1259629E+00
         11   -1    0    0    0    0  0.00000000000E+00  0.00000000000E+00  0.30000000000E+02  0.30000000000E+02  0.00000000000E+00 0.  1.
        -11   -1    0    0    0    0 -0.00000000000E+00 -0.00000000000E+00 -0.30000000000E+02  0.30000000000E+02  0.00000000000E+00 0. -1.
          5    1    1    2  501    0 -0.29443023231E+02  0.23110247762E+01  0.23827604773E+01  0.30000000000E+02  0.47000000000E+01 0. -1.
         -5    1    1    2    0  501  0.29443023231E+02 -0.23110247762E+01 -0.23827604773E+01  0.30000000000E+02  0.47000000000E+01 0.  1.
</event>
<event>
 4    1  0.7581446E-002  0.6000000E+02  0.7546771E-02  0.1259629E+00
         11   -1    0    0    0    0  0.00000000000E+00  0.00000000000E+00  0.30000000000E+02  0.30000000000E+02  0.00000000000E+00 0.  1.
        -11   -1    0    0    0    0 -0.00000000000E+00 -0.00000000000E+00 -0.30000000000E+02  0.30000000000E+02  0.00000000000E+00 0. -1.
          5    1    1    2  501    0 -0.22663834997E+02  0.13439139813E+02 -0.13551756503E+02  0.30000000000E+02  0.47000000000E+01 0.  1.
         -5    1    1    2    0  501  0.22663834997E+02 -0.13439139813E+02  0.13551756503E+02  0.30000000000E+02  0.47000000000E+01 0. -1.
</event>
<event>
 4    1  0.7581446E-002  0.6000000E+02  0.7546771E-02  0.1259629E+00
         11   -1    0    0    0    0  0.00000000000E+00  0.00000000000E+00  0.30000000000E+02  0.30000000000E+02  0.00000000000E+00 0.  1.
        -11   -1    0    0    0    0 -0.00000000000E+00 -0.00000000000E+00 -0.30000000000E+02  0.30000000000E+02  0.00000000000E+00 0. -1.
          5    1    1    2  501    0  0.43796260607E+01 -0.13112164649E+02 -0.26206869592E+02  0.30000000000E+02  0.47000000000E+01 0. -1.
         -5    1    1    2    0  501 -0.43796260607E+01  0.13112164649E+02  0.26206869592E+02  0.30000000000E+02  0.47000000000E+01 0.  1.
</event>
<event>
 4    1  0.7581446E-002  0.6000000E+02  0.7546771E-02  0.1259629E+00
         11   -1    0    0    0    0  0.00000000000E+00  0.00000000000E+00  0.30000000000E+02  0.30000000000E+02  0.00000000000E+00 0.  1.
        -11   -1    0    0    0    0 -0.00000000000E+00 -0.00000000000E+00 -0.30000000000E+02  0.30000000000E+02  0.00000000000E+00 0. -1.
          5    1    1    2  501    0 -0.12201893272E+02  0.72299502619E+00 -0.26990759136E+02  0.30000000000E+02  0.47000000000E+01 0. -1.
         -5    1    1    2    0  501  0.12201893272E+02 -0.72299502619E+00  0.26990759136E+02  0.30000000000E+02  0.47000000000E+01 0.  1.
</event>
<event>
 4    1  0.7581446E-002  0.6000000E+02  0.7546771E-02  0.1259629E+00
         11   -1    0    0    0    0  0.00000000000E+00  0.00000000000E+00  0.30000000000E+02  0.30000000000E+02  0.00000000000E+00 0.  1.
        -11   -1    0    0    0    0 -0.00000000000E+00 -0.00000000000E+00 -0.30000000000E+02  0.30000000000E+02  0.00000000000E+00 0. -1.
          5    1    1    2  501    0 -0.31244285710E+00  0.28370660094E+02 -0.85392051916E+01  0.30000000000E+02  0.47000000000E+01 0. -1.
         -5    1    1    2    0  501  0.31244285710E+00 -0.28370660094E+02  0.85392051916E+01  0.30000000000E+02  0.47000000000E+01 0.  1.
</event>
<event>
 4    1  0.7581446E-002  0.6000000E+02  0.7546771E-02  0.1259629E+00
         11   -1    0    0    0    0  0.00000000000E+00  0.00000000000E+00  0.30000000000E+02  0.30000000000E+02  0.00000000000E+00 0. -1.
        -11   -1    0    0    0    0 -0.00000000000E+00 -0.00000000000E+00 -0.30000000000E+02  0.30000000000E+02  0.00000000000E+00 0.  1.
          5    1    1    2  501    0 -0.20945033789E+02  0.50662181633E+01 -0.20335904040E+02  0.30000000000E+02  0.47000000000E+01 0.  1.
         -5    1    1    2    0  501  0.20945033789E+02 -0.50662181633E+01  0.20335904040E+02  0.30000000000E+02  0.47000000000E+01 0. -1.
</event>
<event>
 4    1  0.7581446E-002  0.6000000E+02  0.7546771E-02  0.1259629E+00
         11   -1    0    0    0    0  0.00000000000E+00  0.00000000000E+00  0.30000000000E+02  0.30000000000E+02  0.00000000000E+00 0.  1.
        -11   -1    0    0    0    0 -0.00000000000E+00 -0.00000000000E+00 -0.30000000000E+02  0.30000000000E+02  0.00000000000E+00 0. -1.
          5    1    1    2  501    0 -0.62065271183E+00  0.22324516570E+02 -0.19471536922E+02  0.30000000000E+02  0.47000000000E+01 0. -1.
         -5    1    1    2    0  501  0.62065271183E+00 -0.22324516570E+02  0.19471536922E+02  0.30000000000E+02  0.47000000000E+01 0.  1.
</event>
<event>
 4    1  0.7581446E-002  0.6000000E+02  0.7546771E-02  0.1259629E+00
         11   -1    0    0    0    0  0.00000000000E+00  0.00000000000E+00  0.30000000000E+02  0.30000000000E+02  0.00000000000E+00 0.  1.
        -11   -1    0    0    0    0 -0.00000000000E+00 -0.00000000000E+00 -0.30000000000E+02  0.30000000000E+02  0.00000000000E+00 0. -1.
          5    1    1    2  501    0  0.12818740544E+02  0.27815580731E+01 -0.26567890875E+02  0.30000000000E+02  0.47000000000E+01 0. -1.
         -5    1    1    2    0  501 -0.12818740544E+02 -0.27815580731E+01  0.26567890875E+02  0.30000000000E+02  0.47000000000E+01 0.  1.
</event>
<event>
 4    1  0.7581446E-002  0.6000000E+02  0.7546771E-02  0.1259629E+00
         11   -1    0    0    0    0  0.00000000000E+00  0.00000000000E+00  0.30000000000E+02  0.30000000000E+02  0.00000000000E+00 0.  1.
        -11   -1    0    0    0    0 -0.00000000000E+00 -0.00000000000E+00 -0.30000000000E+02  0.30000000000E+02  0.00000000000E+00 0. -1.
          5    1    1    2  501    0 -0.92264549495E+01  0.18111012611E+01 -0.28098086079E+02  0.30000000000E+02  0.47000000000E+01 0. -1.
         -5    1    1    2    0  501  0.92264549495E+01 -0.18111012611E+01  0.28098086079E+02  0.30000000000E+02  0.47000000000E+01 0.  1.
</event>
<event>
 4    1  0.7581446E-002  0.6000000E+02  0.7546771E-02  0.1259629E+00
         11   -1    0    0    0    0  0.00000000000E+00  0.00000000000E+00  0.30000000000E+02  0.30000000000E+02  0.00000000000E+00 0. -1.
        -11   -1    0    0    0    0 -0.00000000000E+00 -0.00000000000E+00 -0.30000000000E+02  0.30000000000E+02  0.00000000000E+00 0.  1.
          5    1    1    2  501    0 -0.17251933802E+02 -0.24031153749E+02 -0.16686610123E+01  0.30000000000E+02  0.47000000000E+01 0.  1.
         -5    1    1    2    0  501  0.17251933802E+02  0.24031153749E+02  0.16686610123E+01  0.30000000000E+02  0.47000000000E+01 0. -1.
</event>
<event>
 4    1  0.7581446E-002  0.6000000E+02  0.7546771E-02  0.1259629E+00
         11   -1    0    0    0    0  0.00000000000E+00  0.00000000000E+00  0.30000000000E+02  0.30000000000E+02  0.00000000000E+00 0.  1.
        -11   -1    0    0    0    0 -0.00000000000E+00 -0.00000000000E+00 -0.30000000000E+02  0.30000000000E+02  0.00000000000E+00 0. -1.
          5    1    1    2  501    0  0.28748307632E+02 -0.71520678407E+01 -0.54104887637E+00  0.30000000000E+02  0.47000000000E+01 0. -1.
         -5    1    1    2    0  501 -0.28748307632E+02  0.71520678407E+01  0.54104887637E+00  0.30000000000E+02  0.47000000000E+01 0.  1.
</event>
<event>
 4    1  0.7581446E-002  0.6000000E+02  0.7546771E-02  0.1259629E+00
         11   -1    0    0    0    0  0.00000000000E+00  0.00000000000E+00  0.30000000000E+02  0.30000000000E+02  0.00000000000E+00 0.  1.
        -11   -1    0    0    0    0 -0.00000000000E+00 -0.00000000000E+00 -0.30000000000E+02  0.30000000000E+02  0.00000000000E+00 0. -1.
          5    1    1    2  501    0  0.46121201289E+01 -0.15554357673E+01 -0.29227024609E+02  0.30000000000E+02  0.47000000000E+01 0. -1.
         -5    1    1    2    0  501 -0.46121201289E+01  0.15554357673E+01  0.29227024609E+02  0.30000000000E+02  0.47000000000E+01 0.  1.
</event>
<event>
 4    1  0.7581446E-002  0.6000000E+02  0.7546771E-02  0.1259629E+00
         11   -1    0    0    0    0  0.00000000000E+00  0.00000000000E+00  0.30000000000E+02  0.30000000000E+02  0.00000000000E+00 0.  1.
        -11   -1    0    0    0    0 -0.00000000000E+00 -0.00000000000E+00 -0.30000000000E+02  0.30000000000E+02  0.00000000000E+00 0. -1.
          5    1    1    2  501    0 -0.99769870624E+01  0.27433172687E+02 -0.50784609359E+01  0.30000000000E+02  0.47000000000E+01 0. -1.
         -5    1    1    2    0  501  0.99769870624E+01 -0.27433172687E+02  0.50784609359E+01  0.30000000000E+02  0.47000000000E+01 0.  1.
</event>
<event>
 4    1  0.7581446E-002  0.6000000E+02  0.7546771E-02  0.1259629E+00
         11   -1    0    0    0    0  0.00000000000E+00  0.00000000000E+00  0.30000000000E+02  0.30000000000E+02  0.00000000000E+00 0.  1.
        -11   -1    0    0    0    0 -0.00000000000E+00 -0.00000000000E+00 -0.30000000000E+02  0.30000000000E+02  0.00000000000E+00 0. -1.
          5    1    1    2  501    0 -0.23881193855E+02 -0.39086679842E+01  0.17097394382E+02  0.30000000000E+02  0.47000000000E+01 0. -1.
         -5    1    1    2    0  501  0.23881193855E+02  0.39086679842E+01 -0.17097394382E+02  0.30000000000E+02  0.47000000000E+01 0.  1.
</event>
<event>
 4    1  0.7581446E-002  0.6000000E+02  0.7546771E-02  0.1259629E+00
         11   -1    0    0    0    0  0.00000000000E+00  0.00000000000E+00  0.30000000000E+02  0.30000000000E+02  0.00000000000E+00 0.  1.
        -11   -1    0    0    0    0 -0.00000000000E+00 -0.00000000000E+00 -0.30000000000E+02  0.30000000000E+02  0.00000000000E+00 0. -1.
          5    1    1    2  501    0  0.11090284764E+02 -0.11464032393E+02 -0.24969812677E+02  0.30000000000E+02  0.47000000000E+01 0. -1.
         -5    1    1    2    0  501 -0.11090284764E+02  0.11464032393E+02  0.24969812677E+02  0.30000000000E+02  0.47000000000E+01 0.  1.
</event>
<event>
 4    1  0.7581446E-002  0.6000000E+02  0.7546771E-02  0.1259629E+00
         11   -1    0    0    0    0  0.00000000000E+00  0.00000000000E+00  0.30000000000E+02  0.30000000000E+02  0.00000000000E+00 0.  1.
        -11   -1    0    0    0    0 -0.00000000000E+00 -0.00000000000E+00 -0.30000000000E+02  0.30000000000E+02  0.00000000000E+00 0. -1.
          5    1    1    2  501    0  0.22519124690E+02  0.36282392472E+01 -0.18911237483E+02  0.30000000000E+02  0.47000000000E+01 0. -1.
         -5    1    1    2    0  501 -0.22519124690E+02 -0.36282392472E+01  0.18911237483E+02  0.30000000000E+02  0.47000000000E+01 0.  1.
</event>
<event>
 4    1  0.7581446E-002  0.6000000E+02  0.7546771E-02  0.1259629E+00
         11   -1    0    0    0    0  0.00000000000E+00  0.00000000000E+00  0.30000000000E+02  0.30000000000E+02  0.00000000000E+00 0.  1.
        -11   -1    0    0    0    0 -0.00000000000E+00 -0.00000000000E+00 -0.30000000000E+02  0.30000000000E+02  0.00000000000E+00 0. -1.
          5    1    1    2  501    0  0.20995728954E+02  0.85466166399E+00 -0.20889205804E+02  0.30000000000E+02  0.47000000000E+01 0. -1.
         -5    1    1    2    0  501 -0.20995728954E+02 -0.85466166399E+00  0.20889205804E+02  0.30000000000E+02  0.47000000000E+01 0.  1.
</event>
<event>
 4    1  0.7581446E-002  0.6000000E+02  0.7546771E-02  0.1259629E+00
         11   -1    0    0    0    0  0.00000000000E+00  0.00000000000E+00  0.30000000000E+02  0.30000000000E+02  0.00000000000E+00 0.  1.
        -11   -1    0    0    0    0 -0.00000000000E+00 -0.00000000000E+00 -0.30000000000E+02  0.30000000000E+02  0.00000000000E+00 0. -1.
          5    1    1    2  501    0 -0.18868817774E+02  0.84791799553E+01 -0.21212760855E+02  0.30000000000E+02  0.47000000000E+01 0. -1.
         -5    1    1    2    0  501  0.18868817774E+02 -0.84791799553E+01  0.21212760855E+02  0.30000000000E+02  0.47000000000E+01 0.  1.
</event>
<event>
 4    1  0.7581446E-002  0.6000000E+02  0.7546771E-02  0.1259629E+00
         11   -1    0    0    0    0  0.00000000000E+00  0.00000000000E+00  0.30000000000E+02  0.30000000000E+02  0.00000000000E+00 0. -1.
        -11   -1    0    0    0    0 -0.00000000000E+00 -0.00000000000E+00 -0.30000000000E+02  0.30000000000E+02  0.00000000000E+00 0.  1.
          5    1    1    2  501    0  0.41339381751E+01  0.15105242915E+02 -0.25152578231E+02  0.30000000000E+02  0.47000000000E+01 0.  1.
         -5    1    1    2    0  501 -0.41339381751E+01 -0.15105242915E+02  0.25152578231E+02  0.30000000000E+02  0.47000000000E+01 0. -1.
</event>
<event>
 4    1  0.7581446E-002  0.6000000E+02  0.7546771E-02  0.1259629E+00
         11   -1    0    0    0    0  0.00000000000E+00  0.00000000000E+00  0.30000000000E+02  0.30000000000E+02  0.00000000000E+00 0. -1.
        -11   -1    0    0    0    0 -0.00000000000E+00 -0.00000000000E+00 -0.30000000000E+02  0.30000000000E+02  0.00000000000E+00 0.  1.
          5    1    1    2  501    0  0.20970274512E+02 -0.56390353639E+01 -0.20158344849E+02  0.30000000000E+02  0.47000000000E+01 0.  1.
         -5    1    1    2    0  501 -0.20970274512E+02  0.56390353639E+01  0.20158344849E+02  0.30000000000E+02  0.47000000000E+01 0. -1.
</event>
<event>
 4    1  0.7581446E-002  0.6000000E+02  0.7546771E-02  0.1259629E+00
         11   -1    0    0    0    0  0.00000000000E+00  0.00000000000E+00  0.30000000000E+02  0.30000000000E+02  0.00000000000E+00 0. -1.
        -11   -1    0    0    0    0 -0.00000000000E+00 -0.00000000000E+00 -0.30000000000E+02  0.30000000000E+02  0.00000000000E+00 0.  1.
          5    1    1    2  501    0  0.55286724735E+01 -0.53447002059E+01 -0.28614296434E+02  0.30000000000E+02  0.47000000000E+01 0.  1.
         -5    1    1    2    0  501 -0.55286724735E+01  0.53447002059E+01  0.28614296434E+02  0.30000000000E+02  0.47000000000E+01 0. -1.
</event>
<event>
 4    1  0.7581446E-002  0.6000000E+02  0.7546771E-02  0.1259629E+00
         11   -1    0    0    0    0  0.00000000000E+00  0.00000000000E+00  0.30000000000E+02  0.30000000000E+02  0.00000000000E+00 0.  1.
        -11   -1    0    0    0    0 -0.00000000000E+00 -0.00000000000E+00 -0.30000000000E+02  0.30000000000E+02  0.00000000000E+00 0. -1.
          5    1    1    2  501    0  0.86506454181E+01 -0.53436620845E+00 -0.28333562900E+02  0.30000000000E+02  0.47000000000E+01 0. -1.
         -5    1    1    2    0  501 -0.86506454181E+01  0.53436620845E+00  0.28333562900E+02  0.30000000000E+02  0.47000000000E+01 0.  1.
</event>
<event>
 4    1  0.7581446E-002  0.6000000E+02  0.7546771E-02  0.1259629E+00
         11   -1    0    0    0    0  0.00000000000E+00  0.00000000000E+00  0.30000000000E+02  0.30000000000E+02  0.00000000000E+00 0. -1.
        -11   -1    0    0    0    0 -0.00000000000E+00 -0.00000000000E+00 -0.30000000000E+02  0.30000000000E+02  0.00000000000E+00 0.  1.
          5    1    1    2  501    0  0.29391934028E+01  0.22966692852E+02 -0.18487892298E+02  0.30000000000E+02  0.47000000000E+01 0.  1.
         -5    1    1    2    0  501 -0.29391934028E+01 -0.22966692852E+02  0.18487892298E+02  0.30000000000E+02  0.47000000000E+01 0. -1.
</event>
<event>
 4    1  0.7581446E-002  0.6000000E+02  0.7546771E-02  0.1259629E+00
         11   -1    0    0    0    0  0.00000000000E+00  0.00000000000E+00  0.30000000000E+02  0.30000000000E+02  0.00000000000E+00 0.  1.
        -11   -1    0    0    0    0 -0.00000000000E+00 -0.00000000000E+00 -0.30000000000E+02  0.30000000000E+02  0.00000000000E+00 0. -1.
          5    1    1    2  501    0 -0.57474041106E+01 -0.25183384878E+00 -0.29065682956E+02  0.30000000000E+02  0.47000000000E+01 0. -1.
         -5    1    1    2    0  501  0.57474041106E+01  0.25183384878E+00  0.29065682956E+02  0.30000000000E+02  0.47000000000E+01 0.  1.
</event>
<event>
 4    1  0.7581446E-002  0.6000000E+02  0.7546771E-02  0.1259629E+00
         11   -1    0    0    0    0  0.00000000000E+00  0.00000000000E+00  0.30000000000E+02  0.30000000000E+02  0.00000000000E+00 0.  1.
        -11   -1    0    0    0    0 -0.00000000000E+00 -0.00000000000E+00 -0.30000000000E+02  0.30000000000E+02  0.00000000000E+00 0. -1.
          5    1    1    2  501    0  0.57302745871E+01  0.92942081780E+01 -0.27544357816E+02  0.30000000000E+02  0.47000000000E+01 0. -1.
         -5    1    1    2    0  501 -0.57302745871E+01 -0.92942081780E+01  0.27544357816E+02  0.30000000000E+02  0.47000000000E+01 0.  1.
</event>
<event>
 4    1  0.7581446E-002  0.6000000E+02  0.7546771E-02  0.1259629E+00
         11   -1    0    0    0    0  0.00000000000E+00  0.00000000000E+00  0.30000000000E+02  0.30000000000E+02  0.00000000000E+00 0.  1.
        -11   -1    0    0    0    0 -0.00000000000E+00 -0.00000000000E+00 -0.30000000000E+02  0.30000000000E+02  0.00000000000E+00 0. -1.
          5    1    1    2  501    0  0.28737760778E+02  0.68696742028E+01 -0.22042417804E+01  0.30000000000E+02  0.47000000000E+01 0. -1.
         -5    1    1    2    0  501 -0.28737760778E+02 -0.68696742028E+01  0.22042417804E+01  0.30000000000E+02  0.47000000000E+01 0.  1.
</event>
<event>
 4    1  0.7581446E-002  0.6000000E+02  0.7546771E-02  0.1259629E+00
         11   -1    0    0    0    0  0.00000000000E+00  0.00000000000E+00  0.30000000000E+02  0.30000000000E+02  0.00000000000E+00 0. -1.
        -11   -1    0    0    0    0 -0.00000000000E+00 -0.00000000000E+00 -0.30000000000E+02  0.30000000000E+02  0.00000000000E+00 0.  1.
          5    1    1    2  501    0 -0.16819175640E+02  0.19263407285E+02 -0.14964841147E+02  0.30000000000E+02  0.47000000000E+01 0.  1.
         -5    1    1    2    0  501  0.16819175640E+02 -0.19263407285E+02  0.14964841147E+02  0.30000000000E+02  0.47000000000E+01 0. -1.
</event>
<event>
 4    1  0.7581446E-002  0.6000000E+02  0.7546771E-02  0.1259629E+00
         11   -1    0    0    0    0  0.00000000000E+00  0.00000000000E+00  0.30000000000E+02  0.30000000000E+02  0.00000000000E+00 0.  1.
        -11   -1    0    0    0    0 -0.00000000000E+00 -0.00000000000E+00 -0.30000000000E+02  0.30000000000E+02  0.00000000000E+00 0. -1.
          5    1    1    2  501    0 -0.11027715899E+02 -0.18513528808E+02 -0.20335897647E+02  0.30000000000E+02  0.47000000000E+01 0. -1.
         -5    1    1    2    0  501  0.11027715899E+02  0.18513528808E+02  0.20335897647E+02  0.30000000000E+02  0.47000000000E+01 0.  1.
</event>
<event>
 4    1  0.7581446E-002  0.6000000E+02  0.7546771E-02  0.1259629E+00
         11   -1    0    0    0    0  0.00000000000E+00  0.00000000000E+00  0.30000000000E+02  0.30000000000E+02  0.00000000000E+00 0. -1.
        -11   -1    0    0    0    0 -0.00000000000E+00 -0.00000000000E+00 -0.30000000000E+02  0.30000000000E+02  0.00000000000E+00 0.  1.
          5    1    1    2  501    0 -0.34011225387E+01  0.20238600306E+02 -0.21371509613E+02  0.30000000000E+02  0.47000000000E+01 0.  1.
         -5    1    1    2    0  501  0.34011225387E+01 -0.20238600306E+02  0.21371509613E+02  0.30000000000E+02  0.47000000000E+01 0. -1.
</event>
<event>
 4    1  0.7581446E-002  0.6000000E+02  0.7546771E-02  0.1259629E+00
         11   -1    0    0    0    0  0.00000000000E+00  0.00000000000E+00  0.30000000000E+02  0.30000000000E+02  0.00000000000E+00 0.  1.
        -11   -1    0    0    0    0 -0.00000000000E+00 -0.00000000000E+00 -0.30000000000E+02  0.30000000000E+02  0.00000000000E+00 0. -1.
          5    1    1    2  501    0  0.40199022738E+01  0.21856613772E+02 -0.19596908433E+02  0.30000000000E+02  0.47000000000E+01 0. -1.
         -5    1    1    2    0  501 -0.40199022738E+01 -0.21856613772E+02  0.19596908433E+02  0.30000000000E+02  0.47000000000E+01 0.  1.
</event>
<event>
 4    1  0.7581446E-002  0.6000000E+02  0.7546771E-02  0.1259629E+00
         11   -1    0    0    0    0  0.00000000000E+00  0.00000000000E+00  0.30000000000E+02  0.30000000000E+02  0.00000000000E+00 0. -1.
        -11   -1    0    0    0    0 -0.00000000000E+00 -0.00000000000E+00 -0.30000000000E+02  0.30000000000E+02  0.00000000000E+00 0.  1.
          5    1    1    2  501    0  0.17958561816E+02  0.17737913923E+02 -0.15516651287E+02  0.30000000000E+02  0.47000000000E+01 0.  1.
         -5    1    1    2    0  501 -0.17958561816E+02 -0.17737913923E+02  0.15516651287E+02  0.30000000000E+02  0.47000000000E+01 0. -1.
</event>
<event>
 4    1  0.7581446E-002  0.6000000E+02  0.7546771E-02  0.1259629E+00
         11   -1    0    0    0    0  0.00000000000E+00  0.00000000000E+00  0.30000000000E+02  0.30000000000E+02  0.00000000000E+00 0.  1.
        -11   -1    0    0    0    0 -0.00000000000E+00 -0.00000000000E+00 -0.30000000000E+02  0.30000000000E+02  0.00000000000E+00 0. -1.
          5    1    1    2  501    0  0.29112088887E+01  0.90588884531E+01 -0.28060139037E+02  0.30000000000E+02  0.47000000000E+01 0. -1.
         -5    1    1    2    0  501 -0.29112088887E+01 -0.90588884531E+01  0.28060139037E+02  0.30000000000E+02  0.47000000000E+01 0.  1.
</event>
<event>
 4    1  0.7581446E-002  0.6000000E+02  0.7546771E-02  0.1259629E+00
         11   -1    0    0    0    0  0.00000000000E+00  0.00000000000E+00  0.30000000000E+02  0.30000000000E+02  0.00000000000E+00 0.  1.
        -11   -1    0    0    0    0 -0.00000000000E+00 -0.00000000000E+00 -0.30000000000E+02  0.30000000000E+02  0.00000000000E+00 0. -1.
          5    1    1    2  501    0  0.26076205306E+02  0.10120955127E+02 -0.97728084063E+01  0.30000000000E+02  0.47000000000E+01 0. -1.
         -5    1    1    2    0  501 -0.26076205306E+02 -0.10120955127E+02  0.97728084063E+01  0.30000000000E+02  0.47000000000E+01 0.  1.
</event>
<event>
 4    1  0.7581446E-002  0.6000000E+02  0.7546771E-02  0.1259629E+00
         11   -1    0    0    0    0  0.00000000000E+00  0.00000000000E+00  0.30000000000E+02  0.30000000000E+02  0.00000000000E+00 0.  1.
        -11   -1    0    0    0    0 -0.00000000000E+00 -0.00000000000E+00 -0.30000000000E+02  0.30000000000E+02  0.00000000000E+00 0. -1.
          5    1    1    2  501    0  0.26810099956E+02 -0.12117238375E+02  0.35072887701E+01  0.30000000000E+02  0.47000000000E+01 0. -1.
         -5    1    1    2    0  501 -0.26810099956E+02  0.12117238375E+02 -0.35072887701E+01  0.30000000000E+02  0.47000000000E+01 0.  1.
</event>
<event>
 4    1  0.7581446E-002  0.6000000E+02  0.7546771E-02  0.1259629E+00
         11   -1    0    0    0    0  0.00000000000E+00  0.00000000000E+00  0.30000000000E+02  0.30000000000E+02  0.00000000000E+00 0.  1.
        -11   -1    0    0    0    0 -0.00000000000E+00 -0.00000000000E+00 -0.30000000000E+02  0.30000000000E+02  0.00000000000E+00 0. -1.
          5    1    1    2  501    0 -0.23096447088E+02 -0.10569898700E+02  0.15255863574E+02  0.30000000000E+02  0.47000000000E+01 0.  1.
         -5    1    1    2    0  501  0.23096447088E+02  0.10569898700E+02 -0.15255863574E+02  0.30000000000E+02  0.47000000000E+01 0. -1.
</event>
<event>
 4    1  0.7581446E-002  0.6000000E+02  0.7546771E-02  0.1259629E+00
         11   -1    0    0    0    0  0.00000000000E+00  0.00000000000E+00  0.30000000000E+02  0.30000000000E+02  0.00000000000E+00 0.  1.
        -11   -1    0    0    0    0 -0.00000000000E+00 -0.00000000000E+00 -0.30000000000E+02  0.30000000000E+02  0.00000000000E+00 0. -1.
          5    1    1    2  501    0 -0.12700845417E+02 -0.14004459363E+01 -0.26732700516E+02  0.30000000000E+02  0.47000000000E+01 0. -1.
         -5    1    1    2    0  501  0.12700845417E+02  0.14004459363E+01  0.26732700516E+02  0.30000000000E+02  0.47000000000E+01 0.  1.
</event>
<event>
 4    1  0.7581446E-002  0.6000000E+02  0.7546771E-02  0.1259629E+00
         11   -1    0    0    0    0  0.00000000000E+00  0.00000000000E+00  0.30000000000E+02  0.30000000000E+02  0.00000000000E+00 0.  1.
        -11   -1    0    0    0    0 -0.00000000000E+00 -0.00000000000E+00 -0.30000000000E+02  0.30000000000E+02  0.00000000000E+00 0. -1.
          5    1    1    2  501    0 -0.23040230914E+02 -0.14080654235E+02 -0.12198070984E+02  0.30000000000E+02  0.47000000000E+01 0. -1.
         -5    1    1    2    0  501  0.23040230914E+02  0.14080654235E+02  0.12198070984E+02  0.30000000000E+02  0.47000000000E+01 0.  1.
</event>
<event>
 4    1  0.7581446E-002  0.6000000E+02  0.7546771E-02  0.1259629E+00
         11   -1    0    0    0    0  0.00000000000E+00  0.00000000000E+00  0.30000000000E+02  0.30000000000E+02  0.00000000000E+00 0.  1.
        -11   -1    0    0    0    0 -0.00000000000E+00 -0.00000000000E+00 -0.30000000000E+02  0.30000000000E+02  0.00000000000E+00 0. -1.
          5    1    1    2  501    0  0.73190670987E+00  0.22105978026E+02 -0.19715477374E+02  0.30000000000E+02  0.47000000000E+01 0. -1.
         -5    1    1    2    0  501 -0.73190670987E+00 -0.22105978026E+02  0.19715477374E+02  0.30000000000E+02  0.47000000000E+01 0.  1.
</event>
<event>
 4    1  0.7581446E-002  0.6000000E+02  0.7546771E-02  0.1259629E+00
         11   -1    0    0    0    0  0.00000000000E+00  0.00000000000E+00  0.30000000000E+02  0.30000000000E+02  0.00000000000E+00 0.  1.
        -11   -1    0    0    0    0 -0.00000000000E+00 -0.00000000000E+00 -0.30000000000E+02  0.30000000000E+02  0.00000000000E+00 0. -1.
          5    1    1    2  501    0 -0.28578362511E+02  0.42244633226E+01  0.65833962218E+01  0.30000000000E+02  0.47000000000E+01 0. -1.
         -5    1    1    2    0  501  0.28578362511E+02 -0.42244633226E+01 -0.65833962218E+01  0.30000000000E+02  0.47000000000E+01 0.  1.
</event>
<event>
 4    1  0.7581446E-002  0.6000000E+02  0.7546771E-02  0.1259629E+00
         11   -1    0    0    0    0  0.00000000000E+00  0.00000000000E+00  0.30000000000E+02  0.30000000000E+02  0.00000000000E+00 0.  1.
        -11   -1    0    0    0    0 -0.00000000000E+00 -0.00000000000E+00 -0.30000000000E+02  0.30000000000E+02  0.00000000000E+00 0. -1.
          5    1    1    2  501    0  0.28384841824E+02 -0.31319134352E+00 -0.84919176770E+01  0.30000000000E+02  0.47000000000E+01 0. -1.
         -5    1    1    2    0  501 -0.28384841824E+02  0.31319134352E+00  0.84919176770E+01  0.30000000000E+02  0.47000000000E+01 0.  1.
</event>
<event>
 4    1  0.7581446E-002  0.6000000E+02  0.7546771E-02  0.1259629E+00
         11   -1    0    0    0    0  0.00000000000E+00  0.00000000000E+00  0.30000000000E+02  0.30000000000E+02  0.00000000000E+00 0.  1.
        -11   -1    0    0    0    0 -0.00000000000E+00 -0.00000000000E+00 -0.30000000000E+02  0.30000000000E+02  0.00000000000E+00 0. -1.
          5    1    1    2  501    0  0.16293186814E+02 -0.10433436314E+02 -0.22440710107E+02  0.30000000000E+02  0.47000000000E+01 0. -1.
         -5    1    1    2    0  501 -0.16293186814E+02  0.10433436314E+02  0.22440710107E+02  0.30000000000E+02  0.47000000000E+01 0.  1.
</event>
<event>
 4    1  0.7581446E-002  0.6000000E+02  0.7546771E-02  0.1259629E+00
         11   -1    0    0    0    0  0.00000000000E+00  0.00000000000E+00  0.30000000000E+02  0.30000000000E+02  0.00000000000E+00 0.  1.
        -11   -1    0    0    0    0 -0.00000000000E+00 -0.00000000000E+00 -0.30000000000E+02  0.30000000000E+02  0.00000000000E+00 0. -1.
          5    1    1    2  501    0  0.18267897337E+02 -0.99708592599E+01 -0.21089710583E+02  0.30000000000E+02  0.47000000000E+01 0. -1.
         -5    1    1    2    0  501 -0.18267897337E+02  0.99708592599E+01  0.21089710583E+02  0.30000000000E+02  0.47000000000E+01 0.  1.
</event>
<event>
 4    1  0.7581446E-002  0.6000000E+02  0.7546771E-02  0.1259629E+00
         11   -1    0    0    0    0  0.00000000000E+00  0.00000000000E+00  0.30000000000E+02  0.30000000000E+02  0.00000000000E+00 0. -1.
        -11   -1    0    0    0    0 -0.00000000000E+00 -0.00000000000E+00 -0.30000000000E+02  0.30000000000E+02  0.00000000000E+00 0.  1.
          5    1    1    2  501    0  0.28955470193E+02 -0.27267665455E+01 -0.56617568057E+01  0.30000000000E+02  0.47000000000E+01 0.  1.
         -5    1    1    2    0  501 -0.28955470193E+02  0.27267665455E+01  0.56617568057E+01  0.30000000000E+02  0.47000000000E+01 0. -1.
</event>
<event>
 4    1  0.7581446E-002  0.6000000E+02  0.7546771E-02  0.1259629E+00
         11   -1    0    0    0    0  0.00000000000E+00  0.00000000000E+00  0.30000000000E+02  0.30000000000E+02  0.00000000000E+00 0.  1.
        -11   -1    0    0    0    0 -0.00000000000E+00 -0.00000000000E+00 -0.30000000000E+02  0.30000000000E+02  0.00000000000E+00 0. -1.
          5    1    1    2  501    0 -0.12612098658E+02 -0.20537519044E+02 -0.17235291670E+02  0.30000000000E+02  0.47000000000E+01 0. -1.
         -5    1    1    2    0  501  0.12612098658E+02  0.20537519044E+02  0.17235291670E+02  0.30000000000E+02  0.47000000000E+01 0.  1.
</event>
<event>
 4    1  0.7581446E-002  0.6000000E+02  0.7546771E-02  0.1259629E+00
         11   -1    0    0    0    0  0.00000000000E+00  0.00000000000E+00  0.30000000000E+02  0.30000000000E+02  0.00000000000E+00 0.  1.
        -11   -1    0    0    0    0 -0.00000000000E+00 -0.00000000000E+00 -0.30000000000E+02  0.30000000000E+02  0.00000000000E+00 0. -1.
          5    1    1    2  501    0  0.13682095429E+01  0.15260231381E+02 -0.25360665229E+02  0.30000000000E+02  0.47000000000E+01 0. -1.
         -5    1    1    2    0  501 -0.13682095429E+01 -0.15260231381E+02  0.25360665229E+02  0.30000000000E+02  0.47000000000E+01 0.  1.
</event>
<event>
 4    1  0.7581446E-002  0.6000000E+02  0.7546771E-02  0.1259629E+00
         11   -1    0    0    0    0  0.00000000000E+00  0.00000000000E+00  0.30000000000E+02  0.30000000000E+02  0.00000000000E+00 0.  1.
        -11   -1    0    0    0    0 -0.00000000000E+00 -0.00000000000E+00 -0.30000000000E+02  0.30000000000E+02  0.00000000000E+00 0. -1.
          5    1    1    2  501    0  0.70997119447E+01  0.28634786624E+02  0.27482877057E+01  0.30000000000E+02  0.47000000000E+01 0. -1.
         -5    1    1    2    0  501 -0.70997119447E+01 -0.28634786624E+02 -0.27482877057E+01  0.30000000000E+02  0.47000000000E+01 0. -1.
</event>
<event>
 4    1  0.7581446E-002  0.6000000E+02  0.7546771E-02  0.1259629E+00
         11   -1    0    0    0    0  0.00000000000E+00  0.00000000000E+00  0.30000000000E+02  0.30000000000E+02  0.00000000000E+00 0.  1.
        -11   -1    0    0    0    0 -0.00000000000E+00 -0.00000000000E+00 -0.30000000000E+02  0.30000000000E+02  0.00000000000E+00 0. -1.
          5    1    1    2  501    0  0.28812798745E+02 -0.51108412000E+01  0.46488633804E+01  0.30000000000E+02  0.47000000000E+01 0. -1.
         -5    1    1    2    0  501 -0.28812798745E+02  0.51108412000E+01 -0.46488633804E+01  0.30000000000E+02  0.47000000000E+01 0.  1.
</event>
<event>
 4    1  0.7581446E-002  0.6000000E+02  0.7546771E-02  0.1259629E+00
         11   -1    0    0    0    0  0.00000000000E+00  0.00000000000E+00  0.30000000000E+02  0.30000000000E+02  0.00000000000E+00 0.  1.
        -11   -1    0    0    0    0 -0.00000000000E+00 -0.00000000000E+00 -0.30000000000E+02  0.30000000000E+02  0.00000000000E+00 0. -1.
          5    1    1    2  501    0 -0.21203681910E+02  0.27417525483E+01 -0.20513328994E+02  0.30000000000E+02  0.47000000000E+01 0. -1.
         -5    1    1    2    0  501  0.21203681910E+02 -0.27417525483E+01  0.20513328994E+02  0.30000000000E+02  0.47000000000E+01 0.  1.
</event>
<event>
 4    1  0.7581446E-002  0.6000000E+02  0.7546771E-02  0.1259629E+00
         11   -1    0    0    0    0  0.00000000000E+00  0.00000000000E+00  0.30000000000E+02  0.30000000000E+02  0.00000000000E+00 0.  1.
        -11   -1    0    0    0    0 -0.00000000000E+00 -0.00000000000E+00 -0.30000000000E+02  0.30000000000E+02  0.00000000000E+00 0. -1.
          5    1    1    2  501    0  0.10545459322E+02  0.56454618263E+01 -0.27107785754E+02  0.30000000000E+02  0.47000000000E+01 0. -1.
         -5    1    1    2    0  501 -0.10545459322E+02 -0.56454618263E+01  0.27107785754E+02  0.30000000000E+02  0.47000000000E+01 0.  1.
</event>
<event>
 4    1  0.7581446E-002  0.6000000E+02  0.7546771E-02  0.1259629E+00
         11   -1    0    0    0    0  0.00000000000E+00  0.00000000000E+00  0.30000000000E+02  0.30000000000E+02  0.00000000000E+00 0. -1.
        -11   -1    0    0    0    0 -0.00000000000E+00 -0.00000000000E+00 -0.30000000000E+02  0.30000000000E+02  0.00000000000E+00 0.  1.
          5    1    1    2  501    0 -0.28628866543E+02 -0.26893157693E+01 -0.71460185535E+01  0.30000000000E+02  0.47000000000E+01 0.  1.
         -5    1    1    2    0  501  0.28628866543E+02  0.26893157693E+01  0.71460185535E+01  0.30000000000E+02  0.47000000000E+01 0. -1.
</event>
<event>
 4    1  0.7581446E-002  0.6000000E+02  0.7546771E-02  0.1259629E+00
         11   -1    0    0    0    0  0.00000000000E+00  0.00000000000E+00  0.30000000000E+02  0.30000000000E+02  0.00000000000E+00 0.  1.
        -11   -1    0    0    0    0 -0.00000000000E+00 -0.00000000000E+00 -0.30000000000E+02  0.30000000000E+02  0.00000000000E+00 0. -1.
          5    1    1    2  501    0  0.24789745357E+02  0.13403242961E+02  0.91504974332E+01  0.30000000000E+02  0.47000000000E+01 0. -1.
         -5    1    1    2    0  501 -0.24789745357E+02 -0.13403242961E+02 -0.91504974332E+01  0.30000000000E+02  0.47000000000E+01 0.  1.
</event>
<event>
 4    1  0.7581446E-002  0.6000000E+02  0.7546771E-02  0.1259629E+00
         11   -1    0    0    0    0  0.00000000000E+00  0.00000000000E+00  0.30000000000E+02  0.30000000000E+02  0.00000000000E+00 0. -1.
        -11   -1    0    0    0    0 -0.00000000000E+00 -0.00000000000E+00 -0.30000000000E+02  0.30000000000E+02  0.00000000000E+00 0.  1.
          5    1    1    2  501    0  0.12469586379E+02 -0.41544467925E+00 -0.26874650161E+02  0.30000000000E+02  0.47000000000E+01 0.  1.
         -5    1    1    2    0  501 -0.12469586379E+02  0.41544467925E+00  0.26874650161E+02  0.30000000000E+02  0.47000000000E+01 0. -1.
</event>
<event>
 4    1  0.7581446E-002  0.6000000E+02  0.7546771E-02  0.1259629E+00
         11   -1    0    0    0    0  0.00000000000E+00  0.00000000000E+00  0.30000000000E+02  0.30000000000E+02  0.00000000000E+00 0.  1.
        -11   -1    0    0    0    0 -0.00000000000E+00 -0.00000000000E+00 -0.30000000000E+02  0.30000000000E+02  0.00000000000E+00 0. -1.
          5    1    1    2  501    0 -0.81251992089E+01  0.21470700419E+02 -0.18732329308E+02  0.30000000000E+02  0.47000000000E+01 0. -1.
         -5    1    1    2    0  501  0.81251992089E+01 -0.21470700419E+02  0.18732329308E+02  0.30000000000E+02  0.47000000000E+01 0.  1.
</event>
<event>
 4    1  0.7581446E-002  0.6000000E+02  0.7546771E-02  0.1259629E+00
         11   -1    0    0    0    0  0.00000000000E+00  0.00000000000E+00  0.30000000000E+02  0.30000000000E+02  0.00000000000E+00 0. -1.
        -11   -1    0    0    0    0 -0.00000000000E+00 -0.00000000000E+00 -0.30000000000E+02  0.30000000000E+02  0.00000000000E+00 0.  1.
          5    1    1    2  501    0  0.10543717146E+02 -0.94360896510E+01 -0.26032676406E+02  0.30000000000E+02  0.47000000000E+01 0.  1.
         -5    1    1    2    0  501 -0.10543717146E+02  0.94360896510E+01  0.26032676406E+02  0.30000000000E+02  0.47000000000E+01 0. -1.
</event>
<event>
 4    1  0.7581446E-002  0.6000000E+02  0.7546771E-02  0.1259629E+00
         11   -1    0    0    0    0  0.00000000000E+00  0.00000000000E+00  0.30000000000E+02  0.30000000000E+02  0.00000000000E+00 0.  1.
        -11   -1    0    0    0    0 -0.00000000000E+00 -0.00000000000E+00 -0.30000000000E+02  0.30000000000E+02  0.00000000000E+00 0. -1.
          5    1    1    2  501    0 -0.60766604294E+01 -0.26265787207E+02  0.12291973821E+02  0.30000000000E+02  0.47000000000E+01 0. -1.
         -5    1    1    2    0  501  0.60766604294E+01  0.26265787207E+02 -0.12291973821E+02  0.30000000000E+02  0.47000000000E+01 0.  1.
</event>
<event>
 4    1  0.7581446E-002  0.6000000E+02  0.7546771E-02  0.1259629E+00
         11   -1    0    0    0    0  0.00000000000E+00  0.00000000000E+00  0.30000000000E+02  0.30000000000E+02  0.00000000000E+00 0.  1.
        -11   -1    0    0    0    0 -0.00000000000E+00 -0.00000000000E+00 -0.30000000000E+02  0.30000000000E+02  0.00000000000E+00 0. -1.
          5    1    1    2  501    0 -0.94469659214E+01  0.15895182813E+02 -0.23151846540E+02  0.30000000000E+02  0.47000000000E+01 0. -1.
         -5    1    1    2    0  501  0.94469659214E+01 -0.15895182813E+02  0.23151846540E+02  0.30000000000E+02  0.47000000000E+01 0.  1.
</event>
<event>
 4    1  0.7581446E-002  0.6000000E+02  0.7546771E-02  0.1259629E+00
         11   -1    0    0    0    0  0.00000000000E+00  0.00000000000E+00  0.30000000000E+02  0.30000000000E+02  0.00000000000E+00 0.  1.
        -11   -1    0    0    0    0 -0.00000000000E+00 -0.00000000000E+00 -0.30000000000E+02  0.30000000000E+02  0.00000000000E+00 0. -1.
          5    1    1    2  501    0  0.25211465758E+02  0.67395640434E+01 -0.14031046677E+02  0.30000000000E+02  0.47000000000E+01 0. -1.
         -5    1    1    2    0  501 -0.25211465758E+02 -0.67395640434E+01  0.14031046677E+02  0.30000000000E+02  0.47000000000E+01 0.  1.
</event>
<event>
 4    1  0.7581446E-002  0.6000000E+02  0.7546771E-02  0.1259629E+00
         11   -1    0    0    0    0  0.00000000000E+00  0.00000000000E+00  0.30000000000E+02  0.30000000000E+02  0.00000000000E+00 0. -1.
        -11   -1    0    0    0    0 -0.00000000000E+00 -0.00000000000E+00 -0.30000000000E+02  0.30000000000E+02  0.00000000000E+00 0.  1.
          5    1    1    2  501    0 -0.16529546179E+02 -0.57118770831E+01 -0.23917745782E+02  0.30000000000E+02  0.47000000000E+01 0.  1.
         -5    1    1    2    0  501  0.16529546179E+02  0.57118770831E+01  0.23917745782E+02  0.30000000000E+02  0.47000000000E+01 0. -1.
</event>
<event>
 4    1  0.7581446E-002  0.6000000E+02  0.7546771E-02  0.1259629E+00
         11   -1    0    0    0    0  0.00000000000E+00  0.00000000000E+00  0.30000000000E+02  0.30000000000E+02  0.00000000000E+00 0. -1.
        -11   -1    0    0    0    0 -0.00000000000E+00 -0.00000000000E+00 -0.30000000000E+02  0.30000000000E+02  0.00000000000E+00 0.  1.
          5    1    1    2  501    0 -0.11246714484E+02  0.16695014103E+02  0.21741617176E+02  0.30000000000E+02  0.47000000000E+01 0. -1.
         -5    1    1    2    0  501  0.11246714484E+02 -0.16695014103E+02 -0.21741617176E+02  0.30000000000E+02  0.47000000000E+01 0.  1.
</event>
<event>
 4    1  0.7581446E-002  0.6000000E+02  0.7546771E-02  0.1259629E+00
         11   -1    0    0    0    0  0.00000000000E+00  0.00000000000E+00  0.30000000000E+02  0.30000000000E+02  0.00000000000E+00 0.  1.
        -11   -1    0    0    0    0 -0.00000000000E+00 -0.00000000000E+00 -0.30000000000E+02  0.30000000000E+02  0.00000000000E+00 0. -1.
          5    1    1    2  501    0  0.14414354829E+02 -0.24222866550E+02 -0.91317638478E+01  0.30000000000E+02  0.47000000000E+01 0. -1.
         -5    1    1    2    0  501 -0.14414354829E+02  0.24222866550E+02  0.91317638478E+01  0.30000000000E+02  0.47000000000E+01 0.  1.
</event>
<event>
 4    1  0.7581446E-002  0.6000000E+02  0.7546771E-02  0.1259629E+00
         11   -1    0    0    0    0  0.00000000000E+00  0.00000000000E+00  0.30000000000E+02  0.30000000000E+02  0.00000000000E+00 0.  1.
        -11   -1    0    0    0    0 -0.00000000000E+00 -0.00000000000E+00 -0.30000000000E+02  0.30000000000E+02  0.00000000000E+00 0. -1.
          5    1    1    2  501    0 -0.10891340303E+02  0.24667521864E+02  0.12280149490E+02  0.30000000000E+02  0.47000000000E+01 0. -1.
         -5    1    1    2    0  501  0.10891340303E+02 -0.24667521864E+02 -0.12280149490E+02  0.30000000000E+02  0.47000000000E+01 0.  1.
</event>
<event>
 4    1  0.7581446E-002  0.6000000E+02  0.7546771E-02  0.1259629E+00
         11   -1    0    0    0    0  0.00000000000E+00  0.00000000000E+00  0.30000000000E+02  0.30000000000E+02  0.00000000000E+00 0.  1.
        -11   -1    0    0    0    0 -0.00000000000E+00 -0.00000000000E+00 -0.30000000000E+02  0.30000000000E+02  0.00000000000E+00 0. -1.
          5    1    1    2  501    0  0.25733149315E+02  0.14543875244E+02  0.20471246244E+01  0.30000000000E+02  0.47000000000E+01 0. -1.
         -5    1    1    2    0  501 -0.25733149315E+02 -0.14543875244E+02 -0.20471246244E+01  0.30000000000E+02  0.47000000000E+01 0.  1.
</event>
<event>
 4    1  0.7581446E-002  0.6000000E+02  0.7546771E-02  0.1259629E+00
         11   -1    0    0    0    0  0.00000000000E+00  0.00000000000E+00  0.30000000000E+02  0.30000000000E+02  0.00000000000E+00 0. -1.
        -11   -1    0    0    0    0 -0.00000000000E+00 -0.00000000000E+00 -0.30000000000E+02  0.30000000000E+02  0.00000000000E+00 0.  1.
          5    1    1    2  501    0 -0.29170007897E+02  0.11061283560E+01 -0.50790864662E+01  0.30000000000E+02  0.47000000000E+01 0.  1.
         -5    1    1    2    0  501  0.29170007897E+02 -0.11061283560E+01  0.50790864662E+01  0.30000000000E+02  0.47000000000E+01 0. -1.
</event>
<event>
 4    1  0.7581446E-002  0.6000000E+02  0.7546771E-02  0.1259629E+00
         11   -1    0    0    0    0  0.00000000000E+00  0.00000000000E+00  0.30000000000E+02  0.30000000000E+02  0.00000000000E+00 0.  1.
        -11   -1    0    0    0    0 -0.00000000000E+00 -0.00000000000E+00 -0.30000000000E+02  0.30000000000E+02  0.00000000000E+00 0. -1.
          5    1    1    2  501    0  0.15240926163E+02  0.25012700125E+02 -0.44709061872E+01  0.30000000000E+02  0.47000000000E+01 0. -1.
         -5    1    1    2    0  501 -0.15240926163E+02 -0.25012700125E+02  0.44709061872E+01  0.30000000000E+02  0.47000000000E+01 0.  1.
</event>
<event>
 4    1  0.7581446E-002  0.6000000E+02  0.7546771E-02  0.1259629E+00
         11   -1    0    0    0    0  0.00000000000E+00  0.00000000000E+00  0.30000000000E+02  0.30000000000E+02  0.00000000000E+00 0.  1.
        -11   -1    0    0    0    0 -0.00000000000E+00 -0.00000000000E+00 -0.30000000000E+02  0.30000000000E+02  0.00000000000E+00 0. -1.
          5    1    1    2  501    0 -0.13558500000E+01 -0.10037983610E+01 -0.29581481701E+02  0.30000000000E+02  0.47000000000E+01 0. -1.
         -5    1    1    2    0  501  0.13558500000E+01  0.10037983610E+01  0.29581481701E+02  0.30000000000E+02  0.47000000000E+01 0.  1.
</event>
<event>
 4    1  0.7581446E-002  0.6000000E+02  0.7546771E-02  0.1259629E+00
         11   -1    0    0    0    0  0.00000000000E+00  0.00000000000E+00  0.30000000000E+02  0.30000000000E+02  0.00000000000E+00 0.  1.
        -11   -1    0    0    0    0 -0.00000000000E+00 -0.00000000000E+00 -0.30000000000E+02  0.30000000000E+02  0.00000000000E+00 0. -1.
          5    1    1    2  501    0 -0.32526076270E+01 -0.18825884813E+02 -0.22647662233E+02  0.30000000000E+02  0.47000000000E+01 0. -1.
         -5    1    1    2    0  501  0.32526076270E+01  0.18825884813E+02  0.22647662233E+02  0.30000000000E+02  0.47000000000E+01 0.  1.
</event>
<event>
 4    1  0.7581446E-002  0.6000000E+02  0.7546771E-02  0.1259629E+00
         11   -1    0    0    0    0  0.00000000000E+00  0.00000000000E+00  0.30000000000E+02  0.30000000000E+02  0.00000000000E+00 0. -1.
        -11   -1    0    0    0    0 -0.00000000000E+00 -0.00000000000E+00 -0.30000000000E+02  0.30000000000E+02  0.00000000000E+00 0.  1.
          5    1    1    2  501    0 -0.22029351752E+02 -0.12989662396E+01 -0.19771958630E+02  0.30000000000E+02  0.47000000000E+01 0.  1.
         -5    1    1    2    0  501  0.22029351752E+02  0.12989662396E+01  0.19771958630E+02  0.30000000000E+02  0.47000000000E+01 0. -1.
</event>
<event>
 4    1  0.7581446E-002  0.6000000E+02  0.7546771E-02  0.1259629E+00
         11   -1    0    0    0    0  0.00000000000E+00  0.00000000000E+00  0.30000000000E+02  0.30000000000E+02  0.00000000000E+00 0. -1.
        -11   -1    0    0    0    0 -0.00000000000E+00 -0.00000000000E+00 -0.30000000000E+02  0.30000000000E+02  0.00000000000E+00 0.  1.
          5    1    1    2  501    0 -0.20511950301E+02 -0.13470052970E+02  0.16605046456E+02  0.30000000000E+02  0.47000000000E+01 0. -1.
         -5    1    1    2    0  501  0.20511950301E+02  0.13470052970E+02 -0.16605046456E+02  0.30000000000E+02  0.47000000000E+01 0.  1.
</event>
<event>
 4    1  0.7581446E-002  0.6000000E+02  0.7546771E-02  0.1259629E+00
         11   -1    0    0    0    0  0.00000000000E+00  0.00000000000E+00  0.30000000000E+02  0.30000000000E+02  0.00000000000E+00 0. -1.
        -11   -1    0    0    0    0 -0.00000000000E+00 -0.00000000000E+00 -0.30000000000E+02  0.30000000000E+02  0.00000000000E+00 0.  1.
          5    1    1    2  501    0  0.15979035770E+02  0.14265177437E+02 -0.20471568786E+02  0.30000000000E+02  0.47000000000E+01 0.  1.
         -5    1    1    2    0  501 -0.15979035770E+02 -0.14265177437E+02  0.20471568786E+02  0.30000000000E+02  0.47000000000E+01 0. -1.
</event>
<event>
 4    1  0.7581446E-002  0.6000000E+02  0.7546771E-02  0.1259629E+00
         11   -1    0    0    0    0  0.00000000000E+00  0.00000000000E+00  0.30000000000E+02  0.30000000000E+02  0.00000000000E+00 0.  1.
        -11   -1    0    0    0    0 -0.00000000000E+00 -0.00000000000E+00 -0.30000000000E+02  0.30000000000E+02  0.00000000000E+00 0. -1.
          5    1    1    2  501    0  0.54588651403E+01 -0.85139776859E+01  0.27850008534E+02  0.30000000000E+02  0.47000000000E+01 0.  1.
         -5    1    1    2    0  501 -0.54588651403E+01  0.85139776859E+01 -0.27850008534E+02  0.30000000000E+02  0.47000000000E+01 0. -1.
</event>
<event>
 4    1  0.7581446E-002  0.6000000E+02  0.7546771E-02  0.1259629E+00
         11   -1    0    0    0    0  0.00000000000E+00  0.00000000000E+00  0.30000000000E+02  0.30000000000E+02  0.00000000000E+00 0. -1.
        -11   -1    0    0    0    0 -0.00000000000E+00 -0.00000000000E+00 -0.30000000000E+02  0.30000000000E+02  0.00000000000E+00 0.  1.
          5    1    1    2  501    0 -0.26853593559E+02 -0.83362010299E+01  0.93435681277E+01  0.30000000000E+02  0.47000000000E+01 0. -1.
         -5    1    1    2    0  501  0.26853593559E+02  0.83362010299E+01 -0.93435681277E+01  0.30000000000E+02  0.47000000000E+01 0.  1.
</event>
<event>
 4    1  0.7581446E-002  0.6000000E+02  0.7546771E-02  0.1259629E+00
         11   -1    0    0    0    0  0.00000000000E+00  0.00000000000E+00  0.30000000000E+02  0.30000000000E+02  0.00000000000E+00 0.  1.
        -11   -1    0    0    0    0 -0.00000000000E+00 -0.00000000000E+00 -0.30000000000E+02  0.30000000000E+02  0.00000000000E+00 0. -1.
          5    1    1    2  501    0  0.23866665142E+02 -0.17208960017E+02 -0.34848228274E+01  0.30000000000E+02  0.47000000000E+01 0. -1.
         -5    1    1    2    0  501 -0.23866665142E+02  0.17208960017E+02  0.34848228274E+01  0.30000000000E+02  0.47000000000E+01 0.  1.
</event>
<event>
 4    1  0.7581446E-002  0.6000000E+02  0.7546771E-02  0.1259629E+00
         11   -1    0    0    0    0  0.00000000000E+00  0.00000000000E+00  0.30000000000E+02  0.30000000000E+02  0.00000000000E+00 0.  1.
        -11   -1    0    0    0    0 -0.00000000000E+00 -0.00000000000E+00 -0.30000000000E+02  0.30000000000E+02  0.00000000000E+00 0. -1.
          5    1    1    2  501    0 -0.19612028177E+02 -0.17192656466E+02 -0.14060260112E+02  0.30000000000E+02  0.47000000000E+01 0. -1.
         -5    1    1    2    0  501  0.19612028177E+02  0.17192656466E+02  0.14060260112E+02  0.30000000000E+02  0.47000000000E+01 0.  1.
</event>
<event>
 4    1  0.7581446E-002  0.6000000E+02  0.7546771E-02  0.1259629E+00
         11   -1    0    0    0    0  0.00000000000E+00  0.00000000000E+00  0.30000000000E+02  0.30000000000E+02  0.00000000000E+00 0.  1.
        -11   -1    0    0    0    0 -0.00000000000E+00 -0.00000000000E+00 -0.30000000000E+02  0.30000000000E+02  0.00000000000E+00 0. -1.
          5    1    1    2  501    0  0.19355340125E+02  0.16873601039E+02 -0.14783855945E+02  0.30000000000E+02  0.47000000000E+01 0. -1.
         -5    1    1    2    0  501 -0.19355340125E+02 -0.16873601039E+02  0.14783855945E+02  0.30000000000E+02  0.47000000000E+01 0.  1.
</event>
<event>
 4    1  0.7581446E-002  0.6000000E+02  0.7546771E-02  0.1259629E+00
         11   -1    0    0    0    0  0.00000000000E+00  0.00000000000E+00  0.30000000000E+02  0.30000000000E+02  0.00000000000E+00 0.  1.
        -11   -1    0    0    0    0 -0.00000000000E+00 -0.00000000000E+00 -0.30000000000E+02  0.30000000000E+02  0.00000000000E+00 0. -1.
          5    1    1    2  501    0 -0.77983329176E-01  0.29532855178E+02 -0.23904776948E+01  0.30000000000E+02  0.47000000000E+01 0. -1.
         -5    1    1    2    0  501  0.77983329176E-01 -0.29532855178E+02  0.23904776948E+01  0.30000000000E+02  0.47000000000E+01 0.  1.
</event>
<event>
 4    1  0.7581446E-002  0.6000000E+02  0.7546771E-02  0.1259629E+00
         11   -1    0    0    0    0  0.00000000000E+00  0.00000000000E+00  0.30000000000E+02  0.30000000000E+02  0.00000000000E+00 0.  1.
        -11   -1    0    0    0    0 -0.00000000000E+00 -0.00000000000E+00 -0.30000000000E+02  0.30000000000E+02  0.00000000000E+00 0. -1.
          5    1    1    2  501    0 -0.26259654210E+02 -0.64953972033E+01  0.12089266973E+02  0.30000000000E+02  0.47000000000E+01 0. -1.
         -5    1    1    2    0  501  0.26259654210E+02  0.64953972033E+01 -0.12089266973E+02  0.30000000000E+02  0.47000000000E+01 0.  1.
</event>
<event>
 4    1  0.7581446E-002  0.6000000E+02  0.7546771E-02  0.1259629E+00
         11   -1    0    0    0    0  0.00000000000E+00  0.00000000000E+00  0.30000000000E+02  0.30000000000E+02  0.00000000000E+00 0.  1.
        -11   -1    0    0    0    0 -0.00000000000E+00 -0.00000000000E+00 -0.30000000000E+02  0.30000000000E+02  0.00000000000E+00 0. -1.
          5    1    1    2  501    0  0.27643866284E+02 -0.30159378024E+01 -0.10228918617E+02  0.30000000000E+02  0.47000000000E+01 0. -1.
         -5    1    1    2    0  501 -0.27643866284E+02  0.30159378024E+01  0.10228918617E+02  0.30000000000E+02  0.47000000000E+01 0.  1.
</event>
<event>
 4    1  0.7581446E-002  0.6000000E+02  0.7546771E-02  0.1259629E+00
         11   -1    0    0    0    0  0.00000000000E+00  0.00000000000E+00  0.30000000000E+02  0.30000000000E+02  0.00000000000E+00 0.  1.
        -11   -1    0    0    0    0 -0.00000000000E+00 -0.00000000000E+00 -0.30000000000E+02  0.30000000000E+02  0.00000000000E+00 0. -1.
          5    1    1    2  501    0 -0.11960658378E+02  0.74706921198E+01 -0.26058423023E+02  0.30000000000E+02  0.47000000000E+01 0. -1.
         -5    1    1    2    0  501  0.11960658378E+02 -0.74706921198E+01  0.26058423023E+02  0.30000000000E+02  0.47000000000E+01 0.  1.
</event>
<event>
 4    1  0.7581446E-002  0.6000000E+02  0.7546771E-02  0.1259629E+00
         11   -1    0    0    0    0  0.00000000000E+00  0.00000000000E+00  0.30000000000E+02  0.30000000000E+02  0.00000000000E+00 0. -1.
        -11   -1    0    0    0    0 -0.00000000000E+00 -0.00000000000E+00 -0.30000000000E+02  0.30000000000E+02  0.00000000000E+00 0.  1.
          5    1    1    2  501    0  0.27502796220E+02  0.10367618623E+02  0.37441533311E+01  0.30000000000E+02  0.47000000000E+01 0.  1.
         -5    1    1    2    0  501 -0.27502796220E+02 -0.10367618623E+02 -0.37441533311E+01  0.30000000000E+02  0.47000000000E+01 0. -1.
</event>
<event>
 4    1  0.7581446E-002  0.6000000E+02  0.7546771E-02  0.1259629E+00
         11   -1    0    0    0    0  0.00000000000E+00  0.00000000000E+00  0.30000000000E+02  0.30000000000E+02  0.00000000000E+00 0.  1.
        -11   -1    0    0    0    0 -0.00000000000E+00 -0.00000000000E+00 -0.30000000000E+02  0.30000000000E+02  0.00000000000E+00 0. -1.
          5    1    1    2  501    0 -0.14563544083E+02 -0.16089209183E+02 -0.20173014936E+02  0.30000000000E+02  0.47000000000E+01 0. -1.
         -5    1    1    2    0  501  0.14563544083E+02  0.16089209183E+02  0.20173014936E+02  0.30000000000E+02  0.47000000000E+01 0.  1.
</event>
<event>
 4    1  0.7581446E-002  0.6000000E+02  0.7546771E-02  0.1259629E+00
         11   -1    0    0    0    0  0.00000000000E+00  0.00000000000E+00  0.30000000000E+02  0.30000000000E+02  0.00000000000E+00 0.  1.
        -11   -1    0    0    0    0 -0.00000000000E+00 -0.00000000000E+00 -0.30000000000E+02  0.30000000000E+02  0.00000000000E+00 0. -1.
          5    1    1    2  501    0 -0.31769403689E+00  0.28892431683E+02 -0.65602181303E+01  0.30000000000E+02  0.47000000000E+01 0. -1.
         -5    1    1    2    0  501  0.31769403689E+00 -0.28892431683E+02  0.65602181303E+01  0.30000000000E+02  0.47000000000E+01 0.  1.
</event>
<event>
 4    1  0.7581446E-002  0.6000000E+02  0.7546771E-02  0.1259629E+00
         11   -1    0    0    0    0  0.00000000000E+00  0.00000000000E+00  0.30000000000E+02  0.30000000000E+02  0.00000000000E+00 0. -1.
        -11   -1    0    0    0    0 -0.00000000000E+00 -0.00000000000E+00 -0.30000000000E+02  0.30000000000E+02  0.00000000000E+00 0.  1.
          5    1    1    2  501    0  0.11884474531E+02 -0.12341331389E+01 -0.27113579264E+02  0.30000000000E+02  0.47000000000E+01 0.  1.
         -5    1    1    2    0  501 -0.11884474531E+02  0.12341331389E+01  0.27113579264E+02  0.30000000000E+02  0.47000000000E+01 0. -1.
</event>
<event>
 4    1  0.7581446E-002  0.6000000E+02  0.7546771E-02  0.1259629E+00
         11   -1    0    0    0    0  0.00000000000E+00  0.00000000000E+00  0.30000000000E+02  0.30000000000E+02  0.00000000000E+00 0. -1.
        -11   -1    0    0    0    0 -0.00000000000E+00 -0.00000000000E+00 -0.30000000000E+02  0.30000000000E+02  0.00000000000E+00 0.  1.
          5    1    1    2  501    0 -0.11156028696E+02  0.27367387613E+02 -0.21163929198E+01  0.30000000000E+02  0.47000000000E+01 0.  1.
         -5    1    1    2    0  501  0.11156028696E+02 -0.27367387613E+02  0.21163929198E+01  0.30000000000E+02  0.47000000000E+01 0. -1.
</event>
<event>
 4    1  0.7581446E-002  0.6000000E+02  0.7546771E-02  0.1259629E+00
         11   -1    0    0    0    0  0.00000000000E+00  0.00000000000E+00  0.30000000000E+02  0.30000000000E+02  0.00000000000E+00 0.  1.
        -11   -1    0    0    0    0 -0.00000000000E+00 -0.00000000000E+00 -0.30000000000E+02  0.30000000000E+02  0.00000000000E+00 0. -1.
          5    1    1    2  501    0  0.21962768370E+01  0.21742789348E+02 -0.20008435207E+02  0.30000000000E+02  0.47000000000E+01 0. -1.
         -5    1    1    2    0  501 -0.21962768370E+01 -0.21742789348E+02  0.20008435207E+02  0.30000000000E+02  0.47000000000E+01 0.  1.
</event>
<event>
 4    1  0.7581446E-002  0.6000000E+02  0.7546771E-02  0.1259629E+00
         11   -1    0    0    0    0  0.00000000000E+00  0.00000000000E+00  0.30000000000E+02  0.30000000000E+02  0.00000000000E+00 0.  1.
        -11   -1    0    0    0    0 -0.00000000000E+00 -0.00000000000E+00 -0.30000000000E+02  0.30000000000E+02  0.00000000000E+00 0. -1.
          5    1    1    2  501    0  0.13651015584E+02 -0.43784956669E+01 -0.25930456016E+02  0.30000000000E+02  0.47000000000E+01 0. -1.
         -5    1    1    2    0  501 -0.13651015584E+02  0.43784956669E+01  0.25930456016E+02  0.30000000000E+02  0.47000000000E+01 0.  1.
</event>
<event>
 4    1  0.7581446E-002  0.6000000E+02  0.7546771E-02  0.1259629E+00
         11   -1    0    0    0    0  0.00000000000E+00  0.00000000000E+00  0.30000000000E+02  0.30000000000E+02  0.00000000000E+00 0.  1.
        -11   -1    0    0    0    0 -0.00000000000E+00 -0.00000000000E+00 -0.30000000000E+02  0.30000000000E+02  0.00000000000E+00 0. -1.
          5    1    1    2  501    0 -0.24877279997E+02 -0.59744674646E+01 -0.14944453100E+02  0.30000000000E+02  0.47000000000E+01 0. -1.
         -5    1    1    2    0  501  0.24877279997E+02  0.59744674646E+01  0.14944453100E+02  0.30000000000E+02  0.47000000000E+01 0.  1.
</event>
<event>
 4    1  0.7581446E-002  0.6000000E+02  0.7546771E-02  0.1259629E+00
         11   -1    0    0    0    0  0.00000000000E+00  0.00000000000E+00  0.30000000000E+02  0.30000000000E+02  0.00000000000E+00 0.  1.
        -11   -1    0    0    0    0 -0.00000000000E+00 -0.00000000000E+00 -0.30000000000E+02  0.30000000000E+02  0.00000000000E+00 0. -1.
          5    1    1    2  501    0 -0.21265355717E+02  0.59019233204E+01 -0.19770228814E+02  0.30000000000E+02  0.47000000000E+01 0. -1.
         -5    1    1    2    0  501  0.21265355717E+02 -0.59019233204E+01  0.19770228814E+02  0.30000000000E+02  0.47000000000E+01 0.  1.
</event>
<event>
 4    1  0.7581446E-002  0.6000000E+02  0.7546771E-02  0.1259629E+00
         11   -1    0    0    0    0  0.00000000000E+00  0.00000000000E+00  0.30000000000E+02  0.30000000000E+02  0.00000000000E+00 0.  1.
        -11   -1    0    0    0    0 -0.00000000000E+00 -0.00000000000E+00 -0.30000000000E+02  0.30000000000E+02  0.00000000000E+00 0. -1.
          5    1    1    2  501    0  0.61440257712E+01  0.19884338703E+02 -0.21089666229E+02  0.30000000000E+02  0.47000000000E+01 0. -1.
         -5    1    1    2    0  501 -0.61440257712E+01 -0.19884338703E+02  0.21089666229E+02  0.30000000000E+02  0.47000000000E+01 0.  1.
</event>
<event>
 4    1  0.7581446E-002  0.6000000E+02  0.7546771E-02  0.1259629E+00
         11   -1    0    0    0    0  0.00000000000E+00  0.00000000000E+00  0.30000000000E+02  0.30000000000E+02  0.00000000000E+00 0. -1.
        -11   -1    0    0    0    0 -0.00000000000E+00 -0.00000000000E+00 -0.30000000000E+02  0.30000000000E+02  0.00000000000E+00 0.  1.
          5    1    1    2  501    0 -0.16002006906E+02  0.24935840824E+02 -0.22274958775E+00  0.30000000000E+02  0.47000000000E+01 0.  1.
         -5    1    1    2    0  501  0.16002006906E+02 -0.24935840824E+02  0.22274958775E+00  0.30000000000E+02  0.47000000000E+01 0. -1.
</event>
<event>
 4    1  0.7581446E-002  0.6000000E+02  0.7546771E-02  0.1259629E+00
         11   -1    0    0    0    0  0.00000000000E+00  0.00000000000E+00  0.30000000000E+02  0.30000000000E+02  0.00000000000E+00 0.  1.
        -11   -1    0    0    0    0 -0.00000000000E+00 -0.00000000000E+00 -0.30000000000E+02  0.30000000000E+02  0.00000000000E+00 0. -1.
          5    1    1    2  501    0 -0.96957043539E+01  0.27527026720E+02 -0.51152826920E+01  0.30000000000E+02  0.47000000000E+01 0. -1.
         -5    1    1    2    0  501  0.96957043539E+01 -0.27527026720E+02  0.51152826920E+01  0.30000000000E+02  0.47000000000E+01 0.  1.
</event>
<event>
 4    1  0.7581446E-002  0.6000000E+02  0.7546771E-02  0.1259629E+00
         11   -1    0    0    0    0  0.00000000000E+00  0.00000000000E+00  0.30000000000E+02  0.30000000000E+02  0.00000000000E+00 0.  1.
        -11   -1    0    0    0    0 -0.00000000000E+00 -0.00000000000E+00 -0.30000000000E+02  0.30000000000E+02  0.00000000000E+00 0. -1.
          5    1    1    2  501    0  0.34353056887E+01  0.21280740405E+02 -0.20328274955E+02  0.30000000000E+02  0.47000000000E+01 0. -1.
         -5    1    1    2    0  501 -0.34353056887E+01 -0.21280740405E+02  0.20328274955E+02  0.30000000000E+02  0.47000000000E+01 0.  1.
</event>
<event>
 4    1  0.7581446E-002  0.6000000E+02  0.7546771E-02  0.1259629E+00
         11   -1    0    0    0    0  0.00000000000E+00  0.00000000000E+00  0.30000000000E+02  0.30000000000E+02  0.00000000000E+00 0.  1.
        -11   -1    0    0    0    0 -0.00000000000E+00 -0.00000000000E+00 -0.30000000000E+02  0.30000000000E+02  0.00000000000E+00 0. -1.
          5    1    1    2  501    0 -0.11104554963E+02 -0.13537035933E+02 -0.23902876756E+02  0.30000000000E+02  0.47000000000E+01 0. -1.
         -5    1    1    2    0  501  0.11104554963E+02  0.13537035933E+02  0.23902876756E+02  0.30000000000E+02  0.47000000000E+01 0.  1.
</event>
<event>
 4    1  0.7581446E-002  0.6000000E+02  0.7546771E-02  0.1259629E+00
         11   -1    0    0    0    0  0.00000000000E+00  0.00000000000E+00  0.30000000000E+02  0.30000000000E+02  0.00000000000E+00 0.  1.
        -11   -1    0    0    0    0 -0.00000000000E+00 -0.00000000000E+00 -0.30000000000E+02  0.30000000000E+02  0.00000000000E+00 0. -1.
          5    1    1    2  501    0  0.16418677530E+02  0.24358977927E+02  0.38700416688E+01  0.30000000000E+02  0.47000000000E+01 0. -1.
         -5    1    1    2    0  501 -0.16418677530E+02 -0.24358977927E+02 -0.38700416688E+01  0.30000000000E+02  0.47000000000E+01 0.  1.
</event>
<event>
 4    1  0.7581446E-002  0.6000000E+02  0.7546771E-02  0.1259629E+00
         11   -1    0    0    0    0  0.00000000000E+00  0.00000000000E+00  0.30000000000E+02  0.30000000000E+02  0.00000000000E+00 0. -1.
        -11   -1    0    0    0    0 -0.00000000000E+00 -0.00000000000E+00 -0.30000000000E+02  0.30000000000E+02  0.00000000000E+00 0.  1.
          5    1    1    2  501    0 -0.12829749229E+02  0.25080084599E+02  0.91813338473E+01  0.30000000000E+02  0.47000000000E+01 0. -1.
         -5    1    1    2    0  501  0.12829749229E+02 -0.25080084599E+02 -0.91813338473E+01  0.30000000000E+02  0.47000000000E+01 0.  1.
</event>
<event>
 4    1  0.7581446E-002  0.6000000E+02  0.7546771E-02  0.1259629E+00
         11   -1    0    0    0    0  0.00000000000E+00  0.00000000000E+00  0.30000000000E+02  0.30000000000E+02  0.00000000000E+00 0. -1.
        -11   -1    0    0    0    0 -0.00000000000E+00 -0.00000000000E+00 -0.30000000000E+02  0.30000000000E+02  0.00000000000E+00 0.  1.
          5    1    1    2  501    0  0.82582751389E+01 -0.10921998580E+02 -0.26275860381E+02  0.30000000000E+02  0.47000000000E+01 0.  1.
         -5    1    1    2    0  501 -0.82582751389E+01  0.10921998580E+02  0.26275860381E+02  0.30000000000E+02  0.47000000000E+01 0. -1.
</event>
<event>
 4    1  0.7581446E-002  0.6000000E+02  0.7546771E-02  0.1259629E+00
         11   -1    0    0    0    0  0.00000000000E+00  0.00000000000E+00  0.30000000000E+02  0.30000000000E+02  0.00000000000E+00 0.  1.
        -11   -1    0    0    0    0 -0.00000000000E+00 -0.00000000000E+00 -0.30000000000E+02  0.30000000000E+02  0.00000000000E+00 0. -1.
          5    1    1    2  501    0 -0.26811599611E+02 -0.68980497979E+01 -0.10557700283E+02  0.30000000000E+02  0.47000000000E+01 0. -1.
         -5    1    1    2    0  501  0.26811599611E+02  0.68980497979E+01  0.10557700283E+02  0.30000000000E+02  0.47000000000E+01 0.  1.
</event>
<event>
 4    1  0.7581446E-002  0.6000000E+02  0.7546771E-02  0.1259629E+00
         11   -1    0    0    0    0  0.00000000000E+00  0.00000000000E+00  0.30000000000E+02  0.30000000000E+02  0.00000000000E+00 0. -1.
        -11   -1    0    0    0    0 -0.00000000000E+00 -0.00000000000E+00 -0.30000000000E+02  0.30000000000E+02  0.00000000000E+00 0.  1.
          5    1    1    2  501    0  0.17620951876E+02 -0.23369691890E+02  0.46118928832E+01  0.30000000000E+02  0.47000000000E+01 0.  1.
         -5    1    1    2    0  501 -0.17620951876E+02  0.23369691890E+02 -0.46118928832E+01  0.30000000000E+02  0.47000000000E+01 0. -1.
</event>
<event>
 4    1  0.7581446E-002  0.6000000E+02  0.7546771E-02  0.1259629E+00
         11   -1    0    0    0    0  0.00000000000E+00  0.00000000000E+00  0.30000000000E+02  0.30000000000E+02  0.00000000000E+00 0.  1.
        -11   -1    0    0    0    0 -0.00000000000E+00 -0.00000000000E+00 -0.30000000000E+02  0.30000000000E+02  0.00000000000E+00 0. -1.
          5    1    1    2  501    0 -0.28193327307E+02 -0.91129653406E+01 -0.12571424949E-01  0.30000000000E+02  0.47000000000E+01 0.  1.
         -5    1    1    2    0  501  0.28193327307E+02  0.91129653406E+01  0.12571424949E-01  0.30000000000E+02  0.47000000000E+01 0.  1.
</event>
<event>
 4    1  0.7581446E-002  0.6000000E+02  0.7546771E-02  0.1259629E+00
         11   -1    0    0    0    0  0.00000000000E+00  0.00000000000E+00  0.30000000000E+02  0.30000000000E+02  0.00000000000E+00 0. -1.
        -11   -1    0    0    0    0 -0.00000000000E+00 -0.00000000000E+00 -0.30000000000E+02  0.30000000000E+02  0.00000000000E+00 0.  1.
          5    1    1    2  501    0  0.22360574415E+02 -0.54457569000E-01  0.19439952320E+02  0.30000000000E+02  0.47000000000E+01 0. -1.
         -5    1    1    2    0  501 -0.22360574415E+02  0.54457569000E-01 -0.19439952320E+02  0.30000000000E+02  0.47000000000E+01 0.  1.
</event>
<event>
 4    1  0.7581446E-002  0.6000000E+02  0.7546771E-02  0.1259629E+00
         11   -1    0    0    0    0  0.00000000000E+00  0.00000000000E+00  0.30000000000E+02  0.30000000000E+02  0.00000000000E+00 0. -1.
        -11   -1    0    0    0    0 -0.00000000000E+00 -0.00000000000E+00 -0.30000000000E+02  0.30000000000E+02  0.00000000000E+00 0.  1.
          5    1    1    2  501    0 -0.27481157731E+02 -0.94495018406E+01  0.57795228801E+01  0.30000000000E+02  0.47000000000E+01 0.  1.
         -5    1    1    2    0  501  0.27481157731E+02  0.94495018406E+01 -0.57795228801E+01  0.30000000000E+02  0.47000000000E+01 0. -1.
</event>
<event>
 4    1  0.7581446E-002  0.6000000E+02  0.7546771E-02  0.1259629E+00
         11   -1    0    0    0    0  0.00000000000E+00  0.00000000000E+00  0.30000000000E+02  0.30000000000E+02  0.00000000000E+00 0.  1.
        -11   -1    0    0    0    0 -0.00000000000E+00 -0.00000000000E+00 -0.30000000000E+02  0.30000000000E+02  0.00000000000E+00 0. -1.
          5    1    1    2  501    0 -0.99947118688E+01 -0.22899055439E+02 -0.15926361627E+02  0.30000000000E+02  0.47000000000E+01 0. -1.
         -5    1    1    2    0  501  0.99947118688E+01  0.22899055439E+02  0.15926361627E+02  0.30000000000E+02  0.47000000000E+01 0.  1.
</event>
<event>
 4    1  0.7581446E-002  0.6000000E+02  0.7546771E-02  0.1259629E+00
         11   -1    0    0    0    0  0.00000000000E+00  0.00000000000E+00  0.30000000000E+02  0.30000000000E+02  0.00000000000E+00 0.  1.
        -11   -1    0    0    0    0 -0.00000000000E+00 -0.00000000000E+00 -0.30000000000E+02  0.30000000000E+02  0.00000000000E+00 0. -1.
          5    1    1    2  501    0 -0.10075372322E+02 -0.15205605386E+02 -0.23349227769E+02  0.30000000000E+02  0.47000000000E+01 0. -1.
         -5    1    1    2    0  501  0.10075372322E+02  0.15205605386E+02  0.23349227769E+02  0.30000000000E+02  0.47000000000E+01 0.  1.
</event>
<event>
 4    1  0.7581446E-002  0.6000000E+02  0.7546771E-02  0.1259629E+00
         11   -1    0    0    0    0  0.00000000000E+00  0.00000000000E+00  0.30000000000E+02  0.30000000000E+02  0.00000000000E+00 0. -1.
        -11   -1    0    0    0    0 -0.00000000000E+00 -0.00000000000E+00 -0.30000000000E+02  0.30000000000E+02  0.00000000000E+00 0.  1.
          5    1    1    2  501    0 -0.27666566023E+02  0.50944987602E+01 -0.93014626197E+01  0.30000000000E+02  0.47000000000E+01 0.  1.
         -5    1    1    2    0  501  0.27666566023E+02 -0.50944987602E+01  0.93014626197E+01  0.30000000000E+02  0.47000000000E+01 0. -1.
</event>
<event>
 4    1  0.7581446E-002  0.6000000E+02  0.7546771E-02  0.1259629E+00
         11   -1    0    0    0    0  0.00000000000E+00  0.00000000000E+00  0.30000000000E+02  0.30000000000E+02  0.00000000000E+00 0. -1.
        -11   -1    0    0    0    0 -0.00000000000E+00 -0.00000000000E+00 -0.30000000000E+02  0.30000000000E+02  0.00000000000E+00 0.  1.
          5    1    1    2  501    0  0.91395126934E+01  0.17159693013E+02 -0.22358985742E+02  0.30000000000E+02  0.47000000000E+01 0.  1.
         -5    1    1    2    0  501 -0.91395126934E+01 -0.17159693013E+02  0.22358985742E+02  0.30000000000E+02  0.47000000000E+01 0. -1.
</event>
<event>
 4    1  0.7581446E-002  0.6000000E+02  0.7546771E-02  0.1259629E+00
         11   -1    0    0    0    0  0.00000000000E+00  0.00000000000E+00  0.30000000000E+02  0.30000000000E+02  0.00000000000E+00 0. -1.
        -11   -1    0    0    0    0 -0.00000000000E+00 -0.00000000000E+00 -0.30000000000E+02  0.30000000000E+02  0.00000000000E+00 0.  1.
          5    1    1    2  501    0  0.97156979029E+01 -0.75120387156E+01 -0.26964504234E+02  0.30000000000E+02  0.47000000000E+01 0.  1.
         -5    1    1    2    0  501 -0.97156979029E+01  0.75120387156E+01  0.26964504234E+02  0.30000000000E+02  0.47000000000E+01 0. -1.
</event>
<event>
 4    1  0.7581446E-002  0.6000000E+02  0.7546771E-02  0.1259629E+00
         11   -1    0    0    0    0  0.00000000000E+00  0.00000000000E+00  0.30000000000E+02  0.30000000000E+02  0.00000000000E+00 0.  1.
        -11   -1    0    0    0    0 -0.00000000000E+00 -0.00000000000E+00 -0.30000000000E+02  0.30000000000E+02  0.00000000000E+00 0. -1.
          5    1    1    2  501    0 -0.35967281737E+01 -0.13583809852E+02 -0.26085506634E+02  0.30000000000E+02  0.47000000000E+01 0. -1.
         -5    1    1    2    0  501  0.35967281737E+01  0.13583809852E+02  0.26085506634E+02  0.30000000000E+02  0.47000000000E+01 0.  1.
</event>
<event>
 4    1  0.7581446E-002  0.6000000E+02  0.7546771E-02  0.1259629E+00
         11   -1    0    0    0    0  0.00000000000E+00  0.00000000000E+00  0.30000000000E+02  0.30000000000E+02  0.00000000000E+00 0.  1.
        -11   -1    0    0    0    0 -0.00000000000E+00 -0.00000000000E+00 -0.30000000000E+02  0.30000000000E+02  0.00000000000E+00 0. -1.
          5    1    1    2  501    0 -0.22280780365E+02  0.18847587736E+02 -0.51230130630E+01  0.30000000000E+02  0.47000000000E+01 0. -1.
         -5    1    1    2    0  501  0.22280780365E+02 -0.18847587736E+02  0.51230130630E+01  0.30000000000E+02  0.47000000000E+01 0.  1.
</event>
<event>
 4    1  0.7581446E-002  0.6000000E+02  0.7546771E-02  0.1259629E+00
         11   -1    0    0    0    0  0.00000000000E+00  0.00000000000E+00  0.30000000000E+02  0.30000000000E+02  0.00000000000E+00 0.  1.
        -11   -1    0    0    0    0 -0.00000000000E+00 -0.00000000000E+00 -0.30000000000E+02  0.30000000000E+02  0.00000000000E+00 0. -1.
          5    1    1    2  501    0  0.11057222270E+02  0.18920348861E+02 -0.19941620662E+02  0.30000000000E+02  0.47000000000E+01 0. -1.
         -5    1    1    2    0  501 -0.11057222270E+02 -0.18920348861E+02  0.19941620662E+02  0.30000000000E+02  0.47000000000E+01 0.  1.
</event>
<event>
 4    1  0.7581446E-002  0.6000000E+02  0.7546771E-02  0.1259629E+00
         11   -1    0    0    0    0  0.00000000000E+00  0.00000000000E+00  0.30000000000E+02  0.30000000000E+02  0.00000000000E+00 0.  1.
        -11   -1    0    0    0    0 -0.00000000000E+00 -0.00000000000E+00 -0.30000000000E+02  0.30000000000E+02  0.00000000000E+00 0. -1.
          5    1    1    2  501    0  0.51863488165E+01 -0.27812527629E+02 -0.88019936840E+01  0.30000000000E+02  0.47000000000E+01 0. -1.
         -5    1    1    2    0  501 -0.51863488165E+01  0.27812527629E+02  0.88019936840E+01  0.30000000000E+02  0.47000000000E+01 0.  1.
</event>
<event>
 4    1  0.7581446E-002  0.6000000E+02  0.7546771E-02  0.1259629E+00
         11   -1    0    0    0    0  0.00000000000E+00  0.00000000000E+00  0.30000000000E+02  0.30000000000E+02  0.00000000000E+00 0.  1.
        -11   -1    0    0    0    0 -0.00000000000E+00 -0.00000000000E+00 -0.30000000000E+02  0.30000000000E+02  0.00000000000E+00 0. -1.
          5    1    1    2  501    0  0.23755313823E+02  0.28924919261E+01 -0.17470791500E+02  0.30000000000E+02  0.47000000000E+01 0. -1.
         -5    1    1    2    0  501 -0.23755313823E+02 -0.28924919261E+01  0.17470791500E+02  0.30000000000E+02  0.47000000000E+01 0.  1.
</event>
<event>
 4    1  0.7581446E-002  0.6000000E+02  0.7546771E-02  0.1259629E+00
         11   -1    0    0    0    0  0.00000000000E+00  0.00000000000E+00  0.30000000000E+02  0.30000000000E+02  0.00000000000E+00 0.  1.
        -11   -1    0    0    0    0 -0.00000000000E+00 -0.00000000000E+00 -0.30000000000E+02  0.30000000000E+02  0.00000000000E+00 0. -1.
          5    1    1    2  501    0 -0.11906696512E+02  0.14153523833E+02 -0.23147750242E+02  0.30000000000E+02  0.47000000000E+01 0. -1.
         -5    1    1    2    0  501  0.11906696512E+02 -0.14153523833E+02  0.23147750242E+02  0.30000000000E+02  0.47000000000E+01 0.  1.
</event>
<event>
 4    1  0.7581446E-002  0.6000000E+02  0.7546771E-02  0.1259629E+00
         11   -1    0    0    0    0  0.00000000000E+00  0.00000000000E+00  0.30000000000E+02  0.30000000000E+02  0.00000000000E+00 0.  1.
        -11   -1    0    0    0    0 -0.00000000000E+00 -0.00000000000E+00 -0.30000000000E+02  0.30000000000E+02  0.00000000000E+00 0. -1.
          5    1    1    2  501    0 -0.27590558924E+02  0.81570947085E+01  0.70804564954E+01  0.30000000000E+02  0.47000000000E+01 0. -1.
         -5    1    1    2    0  501  0.27590558924E+02 -0.81570947085E+01 -0.70804564954E+01  0.30000000000E+02  0.47000000000E+01 0.  1.
</event>
<event>
 4    1  0.7581446E-002  0.6000000E+02  0.7546771E-02  0.1259629E+00
         11   -1    0    0    0    0  0.00000000000E+00  0.00000000000E+00  0.30000000000E+02  0.30000000000E+02  0.00000000000E+00 0.  1.
        -11   -1    0    0    0    0 -0.00000000000E+00 -0.00000000000E+00 -0.30000000000E+02  0.30000000000E+02  0.00000000000E+00 0. -1.
          5    1    1    2  501    0  0.64104236577E+01  0.26565488794E+02  0.11449509756E+02  0.30000000000E+02  0.47000000000E+01 0. -1.
         -5    1    1    2    0  501 -0.64104236577E+01 -0.26565488794E+02 -0.11449509756E+02  0.30000000000E+02  0.47000000000E+01 0.  1.
</event>
<event>
 4    1  0.7581446E-002  0.6000000E+02  0.7546771E-02  0.1259629E+00
         11   -1    0    0    0    0  0.00000000000E+00  0.00000000000E+00  0.30000000000E+02  0.30000000000E+02  0.00000000000E+00 0.  1.
        -11   -1    0    0    0    0 -0.00000000000E+00 -0.00000000000E+00 -0.30000000000E+02  0.30000000000E+02  0.00000000000E+00 0. -1.
          5    1    1    2  501    0  0.83155563169E+01 -0.12591796552E+01  0.28410842820E+02  0.30000000000E+02  0.47000000000E+01 0. -1.
         -5    1    1    2    0  501 -0.83155563169E+01  0.12591796552E+01 -0.28410842820E+02  0.30000000000E+02  0.47000000000E+01 0.  1.
</event>
<event>
 4    1  0.7581446E-002  0.6000000E+02  0.7546771E-02  0.1259629E+00
         11   -1    0    0    0    0  0.00000000000E+00  0.00000000000E+00  0.30000000000E+02  0.30000000000E+02  0.00000000000E+00 0.  1.
        -11   -1    0    0    0    0 -0.00000000000E+00 -0.00000000000E+00 -0.30000000000E+02  0.30000000000E+02  0.00000000000E+00 0. -1.
          5    1    1    2  501    0 -0.28132488188E+02 -0.18923010457E+01  0.91045211365E+01  0.30000000000E+02  0.47000000000E+01 0. -1.
         -5    1    1    2    0  501  0.28132488188E+02  0.18923010457E+01 -0.91045211365E+01  0.30000000000E+02  0.47000000000E+01 0.  1.
</event>
<event>
 4    1  0.7581446E-002  0.6000000E+02  0.7546771E-02  0.1259629E+00
         11   -1    0    0    0    0  0.00000000000E+00  0.00000000000E+00  0.30000000000E+02  0.30000000000E+02  0.00000000000E+00 0.  1.
        -11   -1    0    0    0    0 -0.00000000000E+00 -0.00000000000E+00 -0.30000000000E+02  0.30000000000E+02  0.00000000000E+00 0. -1.
          5    1    1    2  501    0  0.26665156283E+01 -0.18179069315E+02 -0.23244808737E+02  0.30000000000E+02  0.47000000000E+01 0. -1.
         -5    1    1    2    0  501 -0.26665156283E+01  0.18179069315E+02  0.23244808737E+02  0.30000000000E+02  0.47000000000E+01 0.  1.
</event>
<event>
 4    1  0.7581446E-002  0.6000000E+02  0.7546771E-02  0.1259629E+00
         11   -1    0    0    0    0  0.00000000000E+00  0.00000000000E+00  0.30000000000E+02  0.30000000000E+02  0.00000000000E+00 0.  1.
        -11   -1    0    0    0    0 -0.00000000000E+00 -0.00000000000E+00 -0.30000000000E+02  0.30000000000E+02  0.00000000000E+00 0. -1.
          5    1    1    2  501    0 -0.24908148170E+02  0.15750109033E+02 -0.30705406970E+01  0.30000000000E+02  0.47000000000E+01 0. -1.
         -5    1    1    2    0  501  0.24908148170E+02 -0.15750109033E+02  0.30705406970E+01  0.30000000000E+02  0.47000000000E+01 0.  1.
</event>
<event>
 4    1  0.7581446E-002  0.6000000E+02  0.7546771E-02  0.1259629E+00
         11   -1    0    0    0    0  0.00000000000E+00  0.00000000000E+00  0.30000000000E+02  0.30000000000E+02  0.00000000000E+00 0.  1.
        -11   -1    0    0    0    0 -0.00000000000E+00 -0.00000000000E+00 -0.30000000000E+02  0.30000000000E+02  0.00000000000E+00 0. -1.
          5    1    1    2  501    0 -0.25079666828E+02  0.12067499733E+02  0.10163452268E+02  0.30000000000E+02  0.47000000000E+01 0.  1.
         -5    1    1    2    0  501  0.25079666828E+02 -0.12067499733E+02 -0.10163452268E+02  0.30000000000E+02  0.47000000000E+01 0. -1.
</event>
<event>
 4    1  0.7581446E-002  0.6000000E+02  0.7546771E-02  0.1259629E+00
         11   -1    0    0    0    0  0.00000000000E+00  0.00000000000E+00  0.30000000000E+02  0.30000000000E+02  0.00000000000E+00 0. -1.
        -11   -1    0    0    0    0 -0.00000000000E+00 -0.00000000000E+00 -0.30000000000E+02  0.30000000000E+02  0.00000000000E+00 0.  1.
          5    1    1    2  501    0 -0.14782246693E+02  0.25071835279E+02  0.55496178631E+01  0.30000000000E+02  0.47000000000E+01 0.  1.
         -5    1    1    2    0  501  0.14782246693E+02 -0.25071835279E+02 -0.55496178631E+01  0.30000000000E+02  0.47000000000E+01 0. -1.
</event>
<event>
 4    1  0.7581446E-002  0.6000000E+02  0.7546771E-02  0.1259629E+00
         11   -1    0    0    0    0  0.00000000000E+00  0.00000000000E+00  0.30000000000E+02  0.30000000000E+02  0.00000000000E+00 0. -1.
        -11   -1    0    0    0    0 -0.00000000000E+00 -0.00000000000E+00 -0.30000000000E+02  0.30000000000E+02  0.00000000000E+00 0.  1.
          5    1    1    2  501    0  0.23065766870E+02  0.22609649386E+01  0.18459914308E+02  0.30000000000E+02  0.47000000000E+01 0. -1.
         -5    1    1    2    0  501 -0.23065766870E+02 -0.22609649386E+01 -0.18459914308E+02  0.30000000000E+02  0.47000000000E+01 0.  1.
</event>
<event>
 4    1  0.7581446E-002  0.6000000E+02  0.7546771E-02  0.1259629E+00
         11   -1    0    0    0    0  0.00000000000E+00  0.00000000000E+00  0.30000000000E+02  0.30000000000E+02  0.00000000000E+00 0. -1.
        -11   -1    0    0    0    0 -0.00000000000E+00 -0.00000000000E+00 -0.30000000000E+02  0.30000000000E+02  0.00000000000E+00 0.  1.
          5    1    1    2  501    0 -0.10559469829E+02  0.33858259702E+01 -0.27476240271E+02  0.30000000000E+02  0.47000000000E+01 0.  1.
         -5    1    1    2    0  501  0.10559469829E+02 -0.33858259702E+01  0.27476240271E+02  0.30000000000E+02  0.47000000000E+01 0. -1.
</event>
<event>
 4    1  0.7581446E-002  0.6000000E+02  0.7546771E-02  0.1259629E+00
         11   -1    0    0    0    0  0.00000000000E+00  0.00000000000E+00  0.30000000000E+02  0.30000000000E+02  0.00000000000E+00 0.  1.
        -11   -1    0    0    0    0 -0.00000000000E+00 -0.00000000000E+00 -0.30000000000E+02  0.30000000000E+02  0.00000000000E+00 0. -1.
          5    1    1    2  501    0  0.16395479499E+02 -0.43190961682E+01 -0.24299046489E+02  0.30000000000E+02  0.47000000000E+01 0. -1.
         -5    1    1    2    0  501 -0.16395479499E+02  0.43190961682E+01  0.24299046489E+02  0.30000000000E+02  0.47000000000E+01 0.  1.
</event>
<event>
 4    1  0.7581446E-002  0.6000000E+02  0.7546771E-02  0.1259629E+00
         11   -1    0    0    0    0  0.00000000000E+00  0.00000000000E+00  0.30000000000E+02  0.30000000000E+02  0.00000000000E+00 0. -1.
        -11   -1    0    0    0    0 -0.00000000000E+00 -0.00000000000E+00 -0.30000000000E+02  0.30000000000E+02  0.00000000000E+00 0.  1.
          5    1    1    2  501    0 -0.23440291551E+00  0.18672041047E+02  0.23004563426E+02  0.30000000000E+02  0.47000000000E+01 0. -1.
         -5    1    1    2    0  501  0.23440291551E+00 -0.18672041047E+02 -0.23004563426E+02  0.30000000000E+02  0.47000000000E+01 0.  1.
</event>
<event>
 4    1  0.7581446E-002  0.6000000E+02  0.7546771E-02  0.1259629E+00
         11   -1    0    0    0    0  0.00000000000E+00  0.00000000000E+00  0.30000000000E+02  0.30000000000E+02  0.00000000000E+00 0.  1.
        -11   -1    0    0    0    0 -0.00000000000E+00 -0.00000000000E+00 -0.30000000000E+02  0.30000000000E+02  0.00000000000E+00 0. -1.
          5    1    1    2  501    0 -0.17372687291E+02  0.80101057008E+00 -0.23988708143E+02  0.30000000000E+02  0.47000000000E+01 0. -1.
         -5    1    1    2    0  501  0.17372687291E+02 -0.80101057008E+00  0.23988708143E+02  0.30000000000E+02  0.47000000000E+01 0.  1.
</event>
<event>
 4    1  0.7581446E-002  0.6000000E+02  0.7546771E-02  0.1259629E+00
         11   -1    0    0    0    0  0.00000000000E+00  0.00000000000E+00  0.30000000000E+02  0.30000000000E+02  0.00000000000E+00 0.  1.
        -11   -1    0    0    0    0 -0.00000000000E+00 -0.00000000000E+00 -0.30000000000E+02  0.30000000000E+02  0.00000000000E+00 0. -1.
          5    1    1    2  501    0 -0.71267490899E+01  0.19759756361E+02 -0.20896685765E+02  0.30000000000E+02  0.47000000000E+01 0. -1.
         -5    1    1    2    0  501  0.71267490899E+01 -0.19759756361E+02  0.20896685765E+02  0.30000000000E+02  0.47000000000E+01 0.  1.
</event>
<event>
 4    1  0.7581446E-002  0.6000000E+02  0.7546771E-02  0.1259629E+00
         11   -1    0    0    0    0  0.00000000000E+00  0.00000000000E+00  0.30000000000E+02  0.30000000000E+02  0.00000000000E+00 0.  1.
        -11   -1    0    0    0    0 -0.00000000000E+00 -0.00000000000E+00 -0.30000000000E+02  0.30000000000E+02  0.00000000000E+00 0. -1.
          5    1    1    2  501    0  0.12067524226E+02  0.19798950481E+02 -0.18446853903E+02  0.30000000000E+02  0.47000000000E+01 0. -1.
         -5    1    1    2    0  501 -0.12067524226E+02 -0.19798950481E+02  0.18446853903E+02  0.30000000000E+02  0.47000000000E+01 0.  1.
</event>
<event>
 4    1  0.7581446E-002  0.6000000E+02  0.7546771E-02  0.1259629E+00
         11   -1    0    0    0    0  0.00000000000E+00  0.00000000000E+00  0.30000000000E+02  0.30000000000E+02  0.00000000000E+00 0.  1.
        -11   -1    0    0    0    0 -0.00000000000E+00 -0.00000000000E+00 -0.30000000000E+02  0.30000000000E+02  0.00000000000E+00 0. -1.
          5    1    1    2  501    0  0.62507653389E+01  0.70409593230E+01 -0.28093821821E+02  0.30000000000E+02  0.47000000000E+01 0. -1.
         -5    1    1    2    0  501 -0.62507653389E+01 -0.70409593230E+01  0.28093821821E+02  0.30000000000E+02  0.47000000000E+01 0.  1.
</event>
<event>
 4    1  0.7581446E-002  0.6000000E+02  0.7546771E-02  0.1259629E+00
         11   -1    0    0    0    0  0.00000000000E+00  0.00000000000E+00  0.30000000000E+02  0.30000000000E+02  0.00000000000E+00 0. -1.
        -11   -1    0    0    0    0 -0.00000000000E+00 -0.00000000000E+00 -0.30000000000E+02  0.30000000000E+02  0.00000000000E+00 0.  1.
          5    1    1    2  501    0  0.16016717196E+02 -0.23479209592E+02  0.83726630874E+01  0.30000000000E+02  0.47000000000E+01 0.  1.
         -5    1    1    2    0  501 -0.16016717196E+02  0.23479209592E+02 -0.83726630874E+01  0.30000000000E+02  0.47000000000E+01 0. -1.
</event>
<event>
 4    1  0.7581446E-002  0.6000000E+02  0.7546771E-02  0.1259629E+00
         11   -1    0    0    0    0  0.00000000000E+00  0.00000000000E+00  0.30000000000E+02  0.30000000000E+02  0.00000000000E+00 0.  1.
        -11   -1    0    0    0    0 -0.00000000000E+00 -0.00000000000E+00 -0.30000000000E+02  0.30000000000E+02  0.00000000000E+00 0. -1.
          5    1    1    2  501    0 -0.57529805878E+01  0.19507587089E+02 -0.21546861960E+02  0.30000000000E+02  0.47000000000E+01 0. -1.
         -5    1    1    2    0  501  0.57529805878E+01 -0.19507587089E+02  0.21546861960E+02  0.30000000000E+02  0.47000000000E+01 0.  1.
</event>
<event>
 4    1  0.7581446E-002  0.6000000E+02  0.7546771E-02  0.1259629E+00
         11   -1    0    0    0    0  0.00000000000E+00  0.00000000000E+00  0.30000000000E+02  0.30000000000E+02  0.00000000000E+00 0. -1.
        -11   -1    0    0    0    0 -0.00000000000E+00 -0.00000000000E+00 -0.30000000000E+02  0.30000000000E+02  0.00000000000E+00 0.  1.
          5    1    1    2  501    0  0.13366401737E+02 -0.10841968410E+02 -0.24118478923E+02  0.30000000000E+02  0.47000000000E+01 0.  1.
         -5    1    1    2    0  501 -0.13366401737E+02  0.10841968410E+02  0.24118478923E+02  0.30000000000E+02  0.47000000000E+01 0. -1.
</event>
<event>
 4    1  0.7581446E-002  0.6000000E+02  0.7546771E-02  0.1259629E+00
         11   -1    0    0    0    0  0.00000000000E+00  0.00000000000E+00  0.30000000000E+02  0.30000000000E+02  0.00000000000E+00 0.  1.
        -11   -1    0    0    0    0 -0.00000000000E+00 -0.00000000000E+00 -0.30000000000E+02  0.30000000000E+02  0.00000000000E+00 0. -1.
          5    1    1    2  501    0 -0.12846122731E+02 -0.39599965603E+01 -0.26404650311E+02  0.30000000000E+02  0.47000000000E+01 0. -1.
         -5    1    1    2    0  501  0.12846122731E+02  0.39599965603E+01  0.26404650311E+02  0.30000000000E+02  0.47000000000E+01 0.  1.
</event>
<event>
 4    1  0.7581446E-002  0.6000000E+02  0.7546771E-02  0.1259629E+00
         11   -1    0    0    0    0  0.00000000000E+00  0.00000000000E+00  0.30000000000E+02  0.30000000000E+02  0.00000000000E+00 0.  1.
        -11   -1    0    0    0    0 -0.00000000000E+00 -0.00000000000E+00 -0.30000000000E+02  0.30000000000E+02  0.00000000000E+00 0. -1.
          5    1    1    2  501    0  0.24073863083E+02  0.74260251453E+01 -0.15595296304E+02  0.30000000000E+02  0.47000000000E+01 0.  1.
         -5    1    1    2    0  501 -0.24073863083E+02 -0.74260251453E+01  0.15595296304E+02  0.30000000000E+02  0.47000000000E+01 0. -1.
</event>
<event>
 4    1  0.7581446E-002  0.6000000E+02  0.7546771E-02  0.1259629E+00
         11   -1    0    0    0    0  0.00000000000E+00  0.00000000000E+00  0.30000000000E+02  0.30000000000E+02  0.00000000000E+00 0.  1.
        -11   -1    0    0    0    0 -0.00000000000E+00 -0.00000000000E+00 -0.30000000000E+02  0.30000000000E+02  0.00000000000E+00 0. -1.
          5    1    1    2  501    0 -0.14296842291E+02  0.90301475462E+01 -0.24330366536E+02  0.30000000000E+02  0.47000000000E+01 0. -1.
         -5    1    1    2    0  501  0.14296842291E+02 -0.90301475462E+01  0.24330366536E+02  0.30000000000E+02  0.47000000000E+01 0.  1.
</event>
<event>
 4    1  0.7581446E-002  0.6000000E+02  0.7546771E-02  0.1259629E+00
         11   -1    0    0    0    0  0.00000000000E+00  0.00000000000E+00  0.30000000000E+02  0.30000000000E+02  0.00000000000E+00 0. -1.
        -11   -1    0    0    0    0 -0.00000000000E+00 -0.00000000000E+00 -0.30000000000E+02  0.30000000000E+02  0.00000000000E+00 0.  1.
          5    1    1    2  501    0 -0.23780861485E+02 -0.56623003988E+01 -0.16742729204E+02  0.30000000000E+02  0.47000000000E+01 0.  1.
         -5    1    1    2    0  501  0.23780861485E+02  0.56623003988E+01  0.16742729204E+02  0.30000000000E+02  0.47000000000E+01 0. -1.
</event>
<event>
 4    1  0.7581446E-002  0.6000000E+02  0.7546771E-02  0.1259629E+00
         11   -1    0    0    0    0  0.00000000000E+00  0.00000000000E+00  0.30000000000E+02  0.30000000000E+02  0.00000000000E+00 0.  1.
        -11   -1    0    0    0    0 -0.00000000000E+00 -0.00000000000E+00 -0.30000000000E+02  0.30000000000E+02  0.00000000000E+00 0. -1.
          5    1    1    2  501    0 -0.11837983478E+02 -0.11017567741E+02 -0.24827109140E+02  0.30000000000E+02  0.47000000000E+01 0. -1.
         -5    1    1    2    0  501  0.11837983478E+02  0.11017567741E+02  0.24827109140E+02  0.30000000000E+02  0.47000000000E+01 0.  1.
</event>
<event>
 4    1  0.7581446E-002  0.6000000E+02  0.7546771E-02  0.1259629E+00
         11   -1    0    0    0    0  0.00000000000E+00  0.00000000000E+00  0.30000000000E+02  0.30000000000E+02  0.00000000000E+00 0. -1.
        -11   -1    0    0    0    0 -0.00000000000E+00 -0.00000000000E+00 -0.30000000000E+02  0.30000000000E+02  0.00000000000E+00 0.  1.
          5    1    1    2  501    0 -0.60709180286E+01 -0.28979048058E+02  0.11263782314E+01  0.30000000000E+02  0.47000000000E+01 0.  1.
         -5    1    1    2    0  501  0.60709180286E+01  0.28979048058E+02 -0.11263782314E+01  0.30000000000E+02  0.47000000000E+01 0. -1.
</event>
<event>
 4    1  0.7581446E-002  0.6000000E+02  0.7546771E-02  0.1259629E+00
         11   -1    0    0    0    0  0.00000000000E+00  0.00000000000E+00  0.30000000000E+02  0.30000000000E+02  0.00000000000E+00 0.  1.
        -11   -1    0    0    0    0 -0.00000000000E+00 -0.00000000000E+00 -0.30000000000E+02  0.30000000000E+02  0.00000000000E+00 0. -1.
          5    1    1    2  501    0 -0.14279021507E+02  0.21652883336E+02 -0.14323832868E+02  0.30000000000E+02  0.47000000000E+01 0. -1.
         -5    1    1    2    0  501  0.14279021507E+02 -0.21652883336E+02  0.14323832868E+02  0.30000000000E+02  0.47000000000E+01 0.  1.
</event>
<event>
 4    1  0.7581446E-002  0.6000000E+02  0.7546771E-02  0.1259629E+00
         11   -1    0    0    0    0  0.00000000000E+00  0.00000000000E+00  0.30000000000E+02  0.30000000000E+02  0.00000000000E+00 0.  1.
        -11   -1    0    0    0    0 -0.00000000000E+00 -0.00000000000E+00 -0.30000000000E+02  0.30000000000E+02  0.00000000000E+00 0. -1.
          5    1    1    2  501    0 -0.94003182477E+01 -0.28091290078E+02 -0.65072158100E+00  0.30000000000E+02  0.47000000000E+01 0. -1.
         -5    1    1    2    0  501  0.94003182477E+01  0.28091290078E+02  0.65072158100E+00  0.30000000000E+02  0.47000000000E+01 0.  1.
</event>
<event>
 4    1  0.7581446E-002  0.6000000E+02  0.7546771E-02  0.1259629E+00
         11   -1    0    0    0    0  0.00000000000E+00  0.00000000000E+00  0.30000000000E+02  0.30000000000E+02  0.00000000000E+00 0.  1.
        -11   -1    0    0    0    0 -0.00000000000E+00 -0.00000000000E+00 -0.30000000000E+02  0.30000000000E+02  0.00000000000E+00 0. -1.
          5    1    1    2  501    0 -0.21147139672E+02  0.20753516724E+02  0.52240833110E-02  0.30000000000E+02  0.47000000000E+01 0. -1.
         -5    1    1    2    0  501  0.21147139672E+02 -0.20753516724E+02 -0.52240833110E-02  0.30000000000E+02  0.47000000000E+01 0.  1.
</event>
<event>
 4    1  0.7581446E-002  0.6000000E+02  0.7546771E-02  0.1259629E+00
         11   -1    0    0    0    0  0.00000000000E+00  0.00000000000E+00  0.30000000000E+02  0.30000000000E+02  0.00000000000E+00 0. -1.
        -11   -1    0    0    0    0 -0.00000000000E+00 -0.00000000000E+00 -0.30000000000E+02  0.30000000000E+02  0.00000000000E+00 0.  1.
          5    1    1    2  501    0  0.74853603573E+01  0.24876855115E+02 -0.14248559924E+02  0.30000000000E+02  0.47000000000E+01 0.  1.
         -5    1    1    2    0  501 -0.74853603573E+01 -0.24876855115E+02  0.14248559924E+02  0.30000000000E+02  0.47000000000E+01 0. -1.
</event>
<event>
 4    1  0.7581446E-002  0.6000000E+02  0.7546771E-02  0.1259629E+00
         11   -1    0    0    0    0  0.00000000000E+00  0.00000000000E+00  0.30000000000E+02  0.30000000000E+02  0.00000000000E+00 0.  1.
        -11   -1    0    0    0    0 -0.00000000000E+00 -0.00000000000E+00 -0.30000000000E+02  0.30000000000E+02  0.00000000000E+00 0. -1.
          5    1    1    2  501    0  0.44353551515E+01  0.13108643311E+02 -0.26199257532E+02  0.30000000000E+02  0.47000000000E+01 0. -1.
         -5    1    1    2    0  501 -0.44353551515E+01 -0.13108643311E+02  0.26199257532E+02  0.30000000000E+02  0.47000000000E+01 0.  1.
</event>
<event>
 4    1  0.7581446E-002  0.6000000E+02  0.7546771E-02  0.1259629E+00
         11   -1    0    0    0    0  0.00000000000E+00  0.00000000000E+00  0.30000000000E+02  0.30000000000E+02  0.00000000000E+00 0. -1.
        -11   -1    0    0    0    0 -0.00000000000E+00 -0.00000000000E+00 -0.30000000000E+02  0.30000000000E+02  0.00000000000E+00 0.  1.
          5    1    1    2  501    0  0.17439613148E+02  0.19074212771E+02 -0.14489454801E+02  0.30000000000E+02  0.47000000000E+01 0.  1.
         -5    1    1    2    0  501 -0.17439613148E+02 -0.19074212771E+02  0.14489454801E+02  0.30000000000E+02  0.47000000000E+01 0. -1.
</event>
<event>
 4    1  0.7581446E-002  0.6000000E+02  0.7546771E-02  0.1259629E+00
         11   -1    0    0    0    0  0.00000000000E+00  0.00000000000E+00  0.30000000000E+02  0.30000000000E+02  0.00000000000E+00 0.  1.
        -11   -1    0    0    0    0 -0.00000000000E+00 -0.00000000000E+00 -0.30000000000E+02  0.30000000000E+02  0.00000000000E+00 0. -1.
          5    1    1    2  501    0  0.10053498483E+01 -0.98097120584E+01 -0.27940451339E+02  0.30000000000E+02  0.47000000000E+01 0. -1.
         -5    1    1    2    0  501 -0.10053498483E+01  0.98097120584E+01  0.27940451339E+02  0.30000000000E+02  0.47000000000E+01 0.  1.
</event>
<event>
 4    1  0.7581446E-002  0.6000000E+02  0.7546771E-02  0.1259629E+00
         11   -1    0    0    0    0  0.00000000000E+00  0.00000000000E+00  0.30000000000E+02  0.30000000000E+02  0.00000000000E+00 0.  1.
        -11   -1    0    0    0    0 -0.00000000000E+00 -0.00000000000E+00 -0.30000000000E+02  0.30000000000E+02  0.00000000000E+00 0. -1.
          5    1    1    2  501    0  0.25816077035E+02  0.40196635071E+01  0.13974350496E+02  0.30000000000E+02  0.47000000000E+01 0. -1.
         -5    1    1    2    0  501 -0.25816077035E+02 -0.40196635071E+01 -0.13974350496E+02  0.30000000000E+02  0.47000000000E+01 0.  1.
</event>
<event>
 4    1  0.7581446E-002  0.6000000E+02  0.7546771E-02  0.1259629E+00
         11   -1    0    0    0    0  0.00000000000E+00  0.00000000000E+00  0.30000000000E+02  0.30000000000E+02  0.00000000000E+00 0. -1.
        -11   -1    0    0    0    0 -0.00000000000E+00 -0.00000000000E+00 -0.30000000000E+02  0.30000000000E+02  0.00000000000E+00 0.  1.
          5    1    1    2  501    0  0.27217124932E+02  0.81248789099E+01  0.84335314751E+01  0.30000000000E+02  0.47000000000E+01 0.  1.
         -5    1    1    2    0  501 -0.27217124932E+02 -0.81248789099E+01 -0.84335314751E+01  0.30000000000E+02  0.47000000000E+01 0. -1.
</event>
<event>
 4    1  0.7581446E-002  0.6000000E+02  0.7546771E-02  0.1259629E+00
         11   -1    0    0    0    0  0.00000000000E+00  0.00000000000E+00  0.30000000000E+02  0.30000000000E+02  0.00000000000E+00 0.  1.
        -11   -1    0    0    0    0 -0.00000000000E+00 -0.00000000000E+00 -0.30000000000E+02  0.30000000000E+02  0.00000000000E+00 0. -1.
          5    1    1    2  501    0 -0.10071978247E+02  0.27551408681E+02 -0.41695484068E+01  0.30000000000E+02  0.47000000000E+01 0. -1.
         -5    1    1    2    0  501  0.10071978247E+02 -0.27551408681E+02  0.41695484068E+01  0.30000000000E+02  0.47000000000E+01 0.  1.
</event>
<event>
 4    1  0.7581446E-002  0.6000000E+02  0.7546771E-02  0.1259629E+00
         11   -1    0    0    0    0  0.00000000000E+00  0.00000000000E+00  0.30000000000E+02  0.30000000000E+02  0.00000000000E+00 0. -1.
        -11   -1    0    0    0    0 -0.00000000000E+00 -0.00000000000E+00 -0.30000000000E+02  0.30000000000E+02  0.00000000000E+00 0.  1.
          5    1    1    2  501    0 -0.46256682123E+01  0.22163401484E+00 -0.29265407428E+02  0.30000000000E+02  0.47000000000E+01 0.  1.
         -5    1    1    2    0  501  0.46256682123E+01 -0.22163401484E+00  0.29265407428E+02  0.30000000000E+02  0.47000000000E+01 0. -1.
</event>
<event>
 4    1  0.7581446E-002  0.6000000E+02  0.7546771E-02  0.1259629E+00
         11   -1    0    0    0    0  0.00000000000E+00  0.00000000000E+00  0.30000000000E+02  0.30000000000E+02  0.00000000000E+00 0.  1.
        -11   -1    0    0    0    0 -0.00000000000E+00 -0.00000000000E+00 -0.30000000000E+02  0.30000000000E+02  0.00000000000E+00 0. -1.
          5    1    1    2  501    0  0.16729135942E+02  0.32031363076E+01 -0.24244296823E+02  0.30000000000E+02  0.47000000000E+01 0. -1.
         -5    1    1    2    0  501 -0.16729135942E+02 -0.32031363076E+01  0.24244296823E+02  0.30000000000E+02  0.47000000000E+01 0.  1.
</event>
<event>
 4    1  0.7581446E-002  0.6000000E+02  0.7546771E-02  0.1259629E+00
         11   -1    0    0    0    0  0.00000000000E+00  0.00000000000E+00  0.30000000000E+02  0.30000000000E+02  0.00000000000E+00 0.  1.
        -11   -1    0    0    0    0 -0.00000000000E+00 -0.00000000000E+00 -0.30000000000E+02  0.30000000000E+02  0.00000000000E+00 0. -1.
          5    1    1    2  501    0 -0.16579692915E+02 -0.46445564894E+01 -0.24113313291E+02  0.30000000000E+02  0.47000000000E+01 0. -1.
         -5    1    1    2    0  501  0.16579692915E+02  0.46445564894E+01  0.24113313291E+02  0.30000000000E+02  0.47000000000E+01 0.  1.
</event>
<event>
 4    1  0.7581446E-002  0.6000000E+02  0.7546771E-02  0.1259629E+00
         11   -1    0    0    0    0  0.00000000000E+00  0.00000000000E+00  0.30000000000E+02  0.30000000000E+02  0.00000000000E+00 0.  1.
        -11   -1    0    0    0    0 -0.00000000000E+00 -0.00000000000E+00 -0.30000000000E+02  0.30000000000E+02  0.00000000000E+00 0. -1.
          5    1    1    2  501    0  0.15590396547E+01  0.17770223656E+02 -0.23657948909E+02  0.30000000000E+02  0.47000000000E+01 0. -1.
         -5    1    1    2    0  501 -0.15590396547E+01 -0.17770223656E+02  0.23657948909E+02  0.30000000000E+02  0.47000000000E+01 0.  1.
</event>
<event>
 4    1  0.7581446E-002  0.6000000E+02  0.7546771E-02  0.1259629E+00
         11   -1    0    0    0    0  0.00000000000E+00  0.00000000000E+00  0.30000000000E+02  0.30000000000E+02  0.00000000000E+00 0.  1.
        -11   -1    0    0    0    0 -0.00000000000E+00 -0.00000000000E+00 -0.30000000000E+02  0.30000000000E+02  0.00000000000E+00 0. -1.
          5    1    1    2  501    0 -0.39000410137E+00  0.28176028810E+02 -0.91580181957E+01  0.30000000000E+02  0.47000000000E+01 0. -1.
         -5    1    1    2    0  501  0.39000410137E+00 -0.28176028810E+02  0.91580181957E+01  0.30000000000E+02  0.47000000000E+01 0.  1.
</event>
<event>
 4    1  0.7581446E-002  0.6000000E+02  0.7546771E-02  0.1259629E+00
         11   -1    0    0    0    0  0.00000000000E+00  0.00000000000E+00  0.30000000000E+02  0.30000000000E+02  0.00000000000E+00 0.  1.
        -11   -1    0    0    0    0 -0.00000000000E+00 -0.00000000000E+00 -0.30000000000E+02  0.30000000000E+02  0.00000000000E+00 0. -1.
          5    1    1    2  501    0 -0.42492511478E+01  0.76816409955E+00 -0.29313201609E+02  0.30000000000E+02  0.47000000000E+01 0. -1.
         -5    1    1    2    0  501  0.42492511478E+01 -0.76816409955E+00  0.29313201609E+02  0.30000000000E+02  0.47000000000E+01 0.  1.
</event>
<event>
 4    1  0.7581446E-002  0.6000000E+02  0.7546771E-02  0.1259629E+00
         11   -1    0    0    0    0  0.00000000000E+00  0.00000000000E+00  0.30000000000E+02  0.30000000000E+02  0.00000000000E+00 0.  1.
        -11   -1    0    0    0    0 -0.00000000000E+00 -0.00000000000E+00 -0.30000000000E+02  0.30000000000E+02  0.00000000000E+00 0. -1.
          5    1    1    2  501    0  0.18120564433E+01 -0.17581285693E+02 -0.23780766279E+02  0.30000000000E+02  0.47000000000E+01 0. -1.
         -5    1    1    2    0  501 -0.18120564433E+01  0.17581285693E+02  0.23780766279E+02  0.30000000000E+02  0.47000000000E+01 0.  1.
</event>
<event>
 4    1  0.7581446E-002  0.6000000E+02  0.7546771E-02  0.1259629E+00
         11   -1    0    0    0    0  0.00000000000E+00  0.00000000000E+00  0.30000000000E+02  0.30000000000E+02  0.00000000000E+00 0. -1.
        -11   -1    0    0    0    0 -0.00000000000E+00 -0.00000000000E+00 -0.30000000000E+02  0.30000000000E+02  0.00000000000E+00 0.  1.
          5    1    1    2  501    0 -0.66241874604E+01  0.24399525321E+02 -0.15449702412E+02  0.30000000000E+02  0.47000000000E+01 0.  1.
         -5    1    1    2    0  501  0.66241874604E+01 -0.24399525321E+02  0.15449702412E+02  0.30000000000E+02  0.47000000000E+01 0. -1.
</event>
<event>
 4    1  0.7581446E-002  0.6000000E+02  0.7546771E-02  0.1259629E+00
         11   -1    0    0    0    0  0.00000000000E+00  0.00000000000E+00  0.30000000000E+02  0.30000000000E+02  0.00000000000E+00 0.  1.
        -11   -1    0    0    0    0 -0.00000000000E+00 -0.00000000000E+00 -0.30000000000E+02  0.30000000000E+02  0.00000000000E+00 0. -1.
          5    1    1    2  501    0  0.28244902284E+01 -0.19479067500E+02 -0.22147193598E+02  0.30000000000E+02  0.47000000000E+01 0. -1.
         -5    1    1    2    0  501 -0.28244902284E+01  0.19479067500E+02  0.22147193598E+02  0.30000000000E+02  0.47000000000E+01 0.  1.
</event>
<event>
 4    1  0.7581446E-002  0.6000000E+02  0.7546771E-02  0.1259629E+00
         11   -1    0    0    0    0  0.00000000000E+00  0.00000000000E+00  0.30000000000E+02  0.30000000000E+02  0.00000000000E+00 0. -1.
        -11   -1    0    0    0    0 -0.00000000000E+00 -0.00000000000E+00 -0.30000000000E+02  0.30000000000E+02  0.00000000000E+00 0.  1.
          5    1    1    2  501    0 -0.19790251578E+02 -0.57443075356E+01 -0.21289877253E+02  0.30000000000E+02  0.47000000000E+01 0.  1.
         -5    1    1    2    0  501  0.19790251578E+02  0.57443075356E+01  0.21289877253E+02  0.30000000000E+02  0.47000000000E+01 0. -1.
</event>
<event>
 4    1  0.7581446E-002  0.6000000E+02  0.7546771E-02  0.1259629E+00
         11   -1    0    0    0    0  0.00000000000E+00  0.00000000000E+00  0.30000000000E+02  0.30000000000E+02  0.00000000000E+00 0. -1.
        -11   -1    0    0    0    0 -0.00000000000E+00 -0.00000000000E+00 -0.30000000000E+02  0.30000000000E+02  0.00000000000E+00 0.  1.
          5    1    1    2  501    0 -0.14536796832E+02 -0.16132339742E+02 -0.20157855846E+02  0.30000000000E+02  0.47000000000E+01 0.  1.
         -5    1    1    2    0  501  0.14536796832E+02  0.16132339742E+02  0.20157855846E+02  0.30000000000E+02  0.47000000000E+01 0. -1.
</event>
<event>
 4    1  0.7581446E-002  0.6000000E+02  0.7546771E-02  0.1259629E+00
         11   -1    0    0    0    0  0.00000000000E+00  0.00000000000E+00  0.30000000000E+02  0.30000000000E+02  0.00000000000E+00 0.  1.
        -11   -1    0    0    0    0 -0.00000000000E+00 -0.00000000000E+00 -0.30000000000E+02  0.30000000000E+02  0.00000000000E+00 0. -1.
          5    1    1    2  501    0  0.67355684770E+01 -0.94788679804E+01  0.27252397676E+02  0.30000000000E+02  0.47000000000E+01 0.  1.
         -5    1    1    2    0  501 -0.67355684770E+01  0.94788679804E+01 -0.27252397676E+02  0.30000000000E+02  0.47000000000E+01 0. -1.
</event>
<event>
 4    1  0.7581446E-002  0.6000000E+02  0.7546771E-02  0.1259629E+00
         11   -1    0    0    0    0  0.00000000000E+00  0.00000000000E+00  0.30000000000E+02  0.30000000000E+02  0.00000000000E+00 0.  1.
        -11   -1    0    0    0    0 -0.00000000000E+00 -0.00000000000E+00 -0.30000000000E+02  0.30000000000E+02  0.00000000000E+00 0. -1.
          5    1    1    2  501    0 -0.17632090249E+02 -0.17387942362E+02 -0.16268953681E+02  0.30000000000E+02  0.47000000000E+01 0. -1.
         -5    1    1    2    0  501  0.17632090249E+02  0.17387942362E+02  0.16268953681E+02  0.30000000000E+02  0.47000000000E+01 0.  1.
</event>
<event>
 4    1  0.7581446E-002  0.6000000E+02  0.7546771E-02  0.1259629E+00
         11   -1    0    0    0    0  0.00000000000E+00  0.00000000000E+00  0.30000000000E+02  0.30000000000E+02  0.00000000000E+00 0.  1.
        -11   -1    0    0    0    0 -0.00000000000E+00 -0.00000000000E+00 -0.30000000000E+02  0.30000000000E+02  0.00000000000E+00 0. -1.
          5    1    1    2  501    0 -0.27418105923E+02 -0.10941151462E+02 -0.25394236095E+01  0.30000000000E+02  0.47000000000E+01 0. -1.
         -5    1    1    2    0  501  0.27418105923E+02  0.10941151462E+02  0.25394236095E+01  0.30000000000E+02  0.47000000000E+01 0.  1.
</event>
<event>
 4    1  0.7581446E-002  0.6000000E+02  0.7546771E-02  0.1259629E+00
         11   -1    0    0    0    0  0.00000000000E+00  0.00000000000E+00  0.30000000000E+02  0.30000000000E+02  0.00000000000E+00 0.  1.
        -11   -1    0    0    0    0 -0.00000000000E+00 -0.00000000000E+00 -0.30000000000E+02  0.30000000000E+02  0.00000000000E+00 0. -1.
          5    1    1    2  501    0 -0.96115577837E+01  0.14475316589E+02 -0.23999857637E+02  0.30000000000E+02  0.47000000000E+01 0. -1.
         -5    1    1    2    0  501  0.96115577837E+01 -0.14475316589E+02  0.23999857637E+02  0.30000000000E+02  0.47000000000E+01 0.  1.
</event>
<event>
 4    1  0.7581446E-002  0.6000000E+02  0.7546771E-02  0.1259629E+00
         11   -1    0    0    0    0  0.00000000000E+00  0.00000000000E+00  0.30000000000E+02  0.30000000000E+02  0.00000000000E+00 0.  1.
        -11   -1    0    0    0    0 -0.00000000000E+00 -0.00000000000E+00 -0.30000000000E+02  0.30000000000E+02  0.00000000000E+00 0. -1.
          5    1    1    2  501    0 -0.23331397547E+02  0.10638735254E+02  0.14844972236E+02  0.30000000000E+02  0.47000000000E+01 0. -1.
         -5    1    1    2    0  501  0.23331397547E+02 -0.10638735254E+02 -0.14844972236E+02  0.30000000000E+02  0.47000000000E+01 0.  1.
</event>
<event>
 4    1  0.7581446E-002  0.6000000E+02  0.7546771E-02  0.1259629E+00
         11   -1    0    0    0    0  0.00000000000E+00  0.00000000000E+00  0.30000000000E+02  0.30000000000E+02  0.00000000000E+00 0.  1.
        -11   -1    0    0    0    0 -0.00000000000E+00 -0.00000000000E+00 -0.30000000000E+02  0.30000000000E+02  0.00000000000E+00 0. -1.
          5    1    1    2  501    0  0.16030272660E+02 -0.24582714128E+02 -0.40780540141E+01  0.30000000000E+02  0.47000000000E+01 0. -1.
         -5    1    1    2    0  501 -0.16030272660E+02  0.24582714128E+02  0.40780540141E+01  0.30000000000E+02  0.47000000000E+01 0.  1.
</event>
<event>
 4    1  0.7581446E-002  0.6000000E+02  0.7546771E-02  0.1259629E+00
         11   -1    0    0    0    0  0.00000000000E+00  0.00000000000E+00  0.30000000000E+02  0.30000000000E+02  0.00000000000E+00 0. -1.
        -11   -1    0    0    0    0 -0.00000000000E+00 -0.00000000000E+00 -0.30000000000E+02  0.30000000000E+02  0.00000000000E+00 0.  1.
          5    1    1    2  501    0  0.65055098974E+01  0.24653875487E+02 -0.15092208733E+02  0.30000000000E+02  0.47000000000E+01 0.  1.
         -5    1    1    2    0  501 -0.65055098974E+01 -0.24653875487E+02  0.15092208733E+02  0.30000000000E+02  0.47000000000E+01 0. -1.
</event>
<event>
 4    1  0.7581446E-002  0.6000000E+02  0.7546771E-02  0.1259629E+00
         11   -1    0    0    0    0  0.00000000000E+00  0.00000000000E+00  0.30000000000E+02  0.30000000000E+02  0.00000000000E+00 0.  1.
        -11   -1    0    0    0    0 -0.00000000000E+00 -0.00000000000E+00 -0.30000000000E+02  0.30000000000E+02  0.00000000000E+00 0. -1.
          5    1    1    2  501    0  0.16208768368E+01 -0.10655944633E+02 -0.27599521776E+02  0.30000000000E+02  0.47000000000E+01 0. -1.
         -5    1    1    2    0  501 -0.16208768368E+01  0.10655944633E+02  0.27599521776E+02  0.30000000000E+02  0.47000000000E+01 0.  1.
</event>
<event>
 4    1  0.7581446E-002  0.6000000E+02  0.7546771E-02  0.1259629E+00
         11   -1    0    0    0    0  0.00000000000E+00  0.00000000000E+00  0.30000000000E+02  0.30000000000E+02  0.00000000000E+00 0.  1.
        -11   -1    0    0    0    0 -0.00000000000E+00 -0.00000000000E+00 -0.30000000000E+02  0.30000000000E+02  0.00000000000E+00 0. -1.
          5    1    1    2  501    0 -0.27224767023E+02  0.37580389076E+01 -0.11072452488E+02  0.30000000000E+02  0.47000000000E+01 0. -1.
         -5    1    1    2    0  501  0.27224767023E+02 -0.37580389076E+01  0.11072452488E+02  0.30000000000E+02  0.47000000000E+01 0. -1.
</event>
<event>
 4    1  0.7581446E-002  0.6000000E+02  0.7546771E-02  0.1259629E+00
         11   -1    0    0    0    0  0.00000000000E+00  0.00000000000E+00  0.30000000000E+02  0.30000000000E+02  0.00000000000E+00 0.  1.
        -11   -1    0    0    0    0 -0.00000000000E+00 -0.00000000000E+00 -0.30000000000E+02  0.30000000000E+02  0.00000000000E+00 0. -1.
          5    1    1    2  501    0  0.24284433880E+02  0.37179360296E+01 -0.16563611406E+02  0.30000000000E+02  0.47000000000E+01 0. -1.
         -5    1    1    2    0  501 -0.24284433880E+02 -0.37179360296E+01  0.16563611406E+02  0.30000000000E+02  0.47000000000E+01 0.  1.
</event>
<event>
 4    1  0.7581446E-002  0.6000000E+02  0.7546771E-02  0.1259629E+00
         11   -1    0    0    0    0  0.00000000000E+00  0.00000000000E+00  0.30000000000E+02  0.30000000000E+02  0.00000000000E+00 0.  1.
        -11   -1    0    0    0    0 -0.00000000000E+00 -0.00000000000E+00 -0.30000000000E+02  0.30000000000E+02  0.00000000000E+00 0. -1.
          5    1    1    2  501    0  0.21891989290E+02  0.12969154951E+02 -0.15180639801E+02  0.30000000000E+02  0.47000000000E+01 0. -1.
         -5    1    1    2    0  501 -0.21891989290E+02 -0.12969154951E+02  0.15180639801E+02  0.30000000000E+02  0.47000000000E+01 0.  1.
</event>
<event>
 4    1  0.7581446E-002  0.6000000E+02  0.7546771E-02  0.1259629E+00
         11   -1    0    0    0    0  0.00000000000E+00  0.00000000000E+00  0.30000000000E+02  0.30000000000E+02  0.00000000000E+00 0.  1.
        -11   -1    0    0    0    0 -0.00000000000E+00 -0.00000000000E+00 -0.30000000000E+02  0.30000000000E+02  0.00000000000E+00 0. -1.
          5    1    1    2  501    0  0.10025596798E+02 -0.20631066934E+02 -0.18755172247E+02  0.30000000000E+02  0.47000000000E+01 0. -1.
         -5    1    1    2    0  501 -0.10025596798E+02  0.20631066934E+02  0.18755172247E+02  0.30000000000E+02  0.47000000000E+01 0.  1.
</event>
<event>
 4    1  0.7581446E-002  0.6000000E+02  0.7546771E-02  0.1259629E+00
         11   -1    0    0    0    0  0.00000000000E+00  0.00000000000E+00  0.30000000000E+02  0.30000000000E+02  0.00000000000E+00 0. -1.
        -11   -1    0    0    0    0 -0.00000000000E+00 -0.00000000000E+00 -0.30000000000E+02  0.30000000000E+02  0.00000000000E+00 0.  1.
          5    1    1    2  501    0 -0.27976406402E+02  0.28684233248E+01  0.93275308890E+01  0.30000000000E+02  0.47000000000E+01 0. -1.
         -5    1    1    2    0  501  0.27976406402E+02 -0.28684233248E+01 -0.93275308890E+01  0.30000000000E+02  0.47000000000E+01 0.  1.
</event>
<event>
 4    1  0.7581446E-002  0.6000000E+02  0.7546771E-02  0.1259629E+00
         11   -1    0    0    0    0  0.00000000000E+00  0.00000000000E+00  0.30000000000E+02  0.30000000000E+02  0.00000000000E+00 0.  1.
        -11   -1    0    0    0    0 -0.00000000000E+00 -0.00000000000E+00 -0.30000000000E+02  0.30000000000E+02  0.00000000000E+00 0. -1.
          5    1    1    2  501    0 -0.28661550194E+02  0.34754166097E+01 -0.66593558161E+01  0.30000000000E+02  0.47000000000E+01 0. -1.
         -5    1    1    2    0  501  0.28661550194E+02 -0.34754166097E+01  0.66593558161E+01  0.30000000000E+02  0.47000000000E+01 0.  1.
</event>
<event>
 4    1  0.7581446E-002  0.6000000E+02  0.7546771E-02  0.1259629E+00
         11   -1    0    0    0    0  0.00000000000E+00  0.00000000000E+00  0.30000000000E+02  0.30000000000E+02  0.00000000000E+00 0.  1.
        -11   -1    0    0    0    0 -0.00000000000E+00 -0.00000000000E+00 -0.30000000000E+02  0.30000000000E+02  0.00000000000E+00 0. -1.
          5    1    1    2  501    0 -0.13467136015E+01 -0.29516158065E+02 -0.22119619244E+01  0.30000000000E+02  0.47000000000E+01 0.  1.
         -5    1    1    2    0  501  0.13467136015E+01  0.29516158065E+02  0.22119619244E+01  0.30000000000E+02  0.47000000000E+01 0. -1.
</event>
<event>
 4    1  0.7581446E-002  0.6000000E+02  0.7546771E-02  0.1259629E+00
         11   -1    0    0    0    0  0.00000000000E+00  0.00000000000E+00  0.30000000000E+02  0.30000000000E+02  0.00000000000E+00 0.  1.
        -11   -1    0    0    0    0 -0.00000000000E+00 -0.00000000000E+00 -0.30000000000E+02  0.30000000000E+02  0.00000000000E+00 0. -1.
          5    1    1    2  501    0  0.20713923965E+02 -0.13931198030E+02 -0.15961361954E+02  0.30000000000E+02  0.47000000000E+01 0. -1.
         -5    1    1    2    0  501 -0.20713923965E+02  0.13931198030E+02  0.15961361954E+02  0.30000000000E+02  0.47000000000E+01 0.  1.
</event>
<event>
 4    1  0.7581446E-002  0.6000000E+02  0.7546771E-02  0.1259629E+00
         11   -1    0    0    0    0  0.00000000000E+00  0.00000000000E+00  0.30000000000E+02  0.30000000000E+02  0.00000000000E+00 0.  1.
        -11   -1    0    0    0    0 -0.00000000000E+00 -0.00000000000E+00 -0.30000000000E+02  0.30000000000E+02  0.00000000000E+00 0. -1.
          5    1    1    2  501    0  0.13393273925E+02 -0.25197662153E+02 -0.79754646009E+01  0.30000000000E+02  0.47000000000E+01 0. -1.
         -5    1    1    2    0  501 -0.13393273925E+02  0.25197662153E+02  0.79754646009E+01  0.30000000000E+02  0.47000000000E+01 0.  1.
</event>
<event>
 4    1  0.7581446E-002  0.6000000E+02  0.7546771E-02  0.1259629E+00
         11   -1    0    0    0    0  0.00000000000E+00  0.00000000000E+00  0.30000000000E+02  0.30000000000E+02  0.00000000000E+00 0.  1.
        -11   -1    0    0    0    0 -0.00000000000E+00 -0.00000000000E+00 -0.30000000000E+02  0.30000000000E+02  0.00000000000E+00 0. -1.
          5    1    1    2  501    0 -0.41106427758E+01 -0.12460755101E+02 -0.26565808821E+02  0.30000000000E+02  0.47000000000E+01 0. -1.
         -5    1    1    2    0  501  0.41106427758E+01  0.12460755101E+02  0.26565808821E+02  0.30000000000E+02  0.47000000000E+01 0.  1.
</event>
<event>
 4    1  0.7581446E-002  0.6000000E+02  0.7546771E-02  0.1259629E+00
         11   -1    0    0    0    0  0.00000000000E+00  0.00000000000E+00  0.30000000000E+02  0.30000000000E+02  0.00000000000E+00 0. -1.
        -11   -1    0    0    0    0 -0.00000000000E+00 -0.00000000000E+00 -0.30000000000E+02  0.30000000000E+02  0.00000000000E+00 0.  1.
          5    1    1    2  501    0  0.24914319972E+02 -0.15553034424E+02  0.39102149004E+01  0.30000000000E+02  0.47000000000E+01 0. -1.
         -5    1    1    2    0  501 -0.24914319972E+02  0.15553034424E+02 -0.39102149004E+01  0.30000000000E+02  0.47000000000E+01 0.  1.
</event>
<event>
 4    1  0.7581446E-002  0.6000000E+02  0.7546771E-02  0.1259629E+00
         11   -1    0    0    0    0  0.00000000000E+00  0.00000000000E+00  0.30000000000E+02  0.30000000000E+02  0.00000000000E+00 0.  1.
        -11   -1    0    0    0    0 -0.00000000000E+00 -0.00000000000E+00 -0.30000000000E+02  0.30000000000E+02  0.00000000000E+00 0. -1.
          5    1    1    2  501    0 -0.16797322036E+02 -0.13352260294E+02 -0.20432256788E+02  0.30000000000E+02  0.47000000000E+01 0. -1.
         -5    1    1    2    0  501  0.16797322036E+02  0.13352260294E+02  0.20432256788E+02  0.30000000000E+02  0.47000000000E+01 0.  1.
</event>
<event>
 4    1  0.7581446E-002  0.6000000E+02  0.7546771E-02  0.1259629E+00
         11   -1    0    0    0    0  0.00000000000E+00  0.00000000000E+00  0.30000000000E+02  0.30000000000E+02  0.00000000000E+00 0.  1.
        -11   -1    0    0    0    0 -0.00000000000E+00 -0.00000000000E+00 -0.30000000000E+02  0.30000000000E+02  0.00000000000E+00 0. -1.
          5    1    1    2  501    0 -0.17246725547E+02 -0.12466439977E+01  0.24060472494E+02  0.30000000000E+02  0.47000000000E+01 0.  1.
         -5    1    1    2    0  501  0.17246725547E+02  0.12466439977E+01 -0.24060472494E+02  0.30000000000E+02  0.47000000000E+01 0. -1.
</event>
<event>
 4    1  0.7581446E-002  0.6000000E+02  0.7546771E-02  0.1259629E+00
         11   -1    0    0    0    0  0.00000000000E+00  0.00000000000E+00  0.30000000000E+02  0.30000000000E+02  0.00000000000E+00 0.  1.
        -11   -1    0    0    0    0 -0.00000000000E+00 -0.00000000000E+00 -0.30000000000E+02  0.30000000000E+02  0.00000000000E+00 0. -1.
          5    1    1    2  501    0 -0.26852904567E+02  0.12316497610E+02 -0.22661427431E+01  0.30000000000E+02  0.47000000000E+01 0. -1.
         -5    1    1    2    0  501  0.26852904567E+02 -0.12316497610E+02  0.22661427431E+01  0.30000000000E+02  0.47000000000E+01 0.  1.
</event>
<event>
 4    1  0.7581446E-002  0.6000000E+02  0.7546771E-02  0.1259629E+00
         11   -1    0    0    0    0  0.00000000000E+00  0.00000000000E+00  0.30000000000E+02  0.30000000000E+02  0.00000000000E+00 0.  1.
        -11   -1    0    0    0    0 -0.00000000000E+00 -0.00000000000E+00 -0.30000000000E+02  0.30000000000E+02  0.00000000000E+00 0. -1.
          5    1    1    2  501    0  0.96330256967E+01  0.20152664731E+01 -0.27947334702E+02  0.30000000000E+02  0.47000000000E+01 0. -1.
         -5    1    1    2    0  501 -0.96330256967E+01 -0.20152664731E+01  0.27947334702E+02  0.30000000000E+02  0.47000000000E+01 0.  1.
</event>
<event>
 4    1  0.7581446E-002  0.6000000E+02  0.7546771E-02  0.1259629E+00
         11   -1    0    0    0    0  0.00000000000E+00  0.00000000000E+00  0.30000000000E+02  0.30000000000E+02  0.00000000000E+00 0. -1.
        -11   -1    0    0    0    0 -0.00000000000E+00 -0.00000000000E+00 -0.30000000000E+02  0.30000000000E+02  0.00000000000E+00 0.  1.
          5    1    1    2  501    0 -0.14332767255E+02  0.22925630743E+02 -0.12120117073E+02  0.30000000000E+02  0.47000000000E+01 0.  1.
         -5    1    1    2    0  501  0.14332767255E+02 -0.22925630743E+02  0.12120117073E+02  0.30000000000E+02  0.47000000000E+01 0. -1.
</event>
<event>
 4    1  0.7581446E-002  0.6000000E+02  0.7546771E-02  0.1259629E+00
         11   -1    0    0    0    0  0.00000000000E+00  0.00000000000E+00  0.30000000000E+02  0.30000000000E+02  0.00000000000E+00 0.  1.
        -11   -1    0    0    0    0 -0.00000000000E+00 -0.00000000000E+00 -0.30000000000E+02  0.30000000000E+02  0.00000000000E+00 0. -1.
          5    1    1    2  501    0 -0.96401083125E+01  0.29435713498E+01 -0.27862406562E+02  0.30000000000E+02  0.47000000000E+01 0. -1.
         -5    1    1    2    0  501  0.96401083125E+01 -0.29435713498E+01  0.27862406562E+02  0.30000000000E+02  0.47000000000E+01 0.  1.
</event>
<event>
 4    1  0.7581446E-002  0.6000000E+02  0.7546771E-02  0.1259629E+00
         11   -1    0    0    0    0  0.00000000000E+00  0.00000000000E+00  0.30000000000E+02  0.30000000000E+02  0.00000000000E+00 0.  1.
        -11   -1    0    0    0    0 -0.00000000000E+00 -0.00000000000E+00 -0.30000000000E+02  0.30000000000E+02  0.00000000000E+00 0. -1.
          5    1    1    2  501    0 -0.16922624948E+02 -0.15529410510E+02 -0.18718231062E+02  0.30000000000E+02  0.47000000000E+01 0. -1.
         -5    1    1    2    0  501  0.16922624948E+02  0.15529410510E+02  0.18718231062E+02  0.30000000000E+02  0.47000000000E+01 0.  1.
</event>
<event>
 4    1  0.7581446E-002  0.6000000E+02  0.7546771E-02  0.1259629E+00
         11   -1    0    0    0    0  0.00000000000E+00  0.00000000000E+00  0.30000000000E+02  0.30000000000E+02  0.00000000000E+00 0.  1.
        -11   -1    0    0    0    0 -0.00000000000E+00 -0.00000000000E+00 -0.30000000000E+02  0.30000000000E+02  0.00000000000E+00 0. -1.
          5    1    1    2  501    0 -0.15479004874E+02 -0.20518117736E+02 -0.14741684188E+02  0.30000000000E+02  0.47000000000E+01 0. -1.
         -5    1    1    2    0  501  0.15479004874E+02  0.20518117736E+02  0.14741684188E+02  0.30000000000E+02  0.47000000000E+01 0.  1.
</event>
<event>
 4    1  0.7581446E-002  0.6000000E+02  0.7546771E-02  0.1259629E+00
         11   -1    0    0    0    0  0.00000000000E+00  0.00000000000E+00  0.30000000000E+02  0.30000000000E+02  0.00000000000E+00 0. -1.
        -11   -1    0    0    0    0 -0.00000000000E+00 -0.00000000000E+00 -0.30000000000E+02  0.30000000000E+02  0.00000000000E+00 0.  1.
          5    1    1    2  501    0 -0.86052051856E+01  0.21398384819E+02 -0.18600257279E+02  0.30000000000E+02  0.47000000000E+01 0.  1.
         -5    1    1    2    0  501  0.86052051856E+01 -0.21398384819E+02  0.18600257279E+02  0.30000000000E+02  0.47000000000E+01 0. -1.
</event>
<event>
 4    1  0.7581446E-002  0.6000000E+02  0.7546771E-02  0.1259629E+00
         11   -1    0    0    0    0  0.00000000000E+00  0.00000000000E+00  0.30000000000E+02  0.30000000000E+02  0.00000000000E+00 0.  1.
        -11   -1    0    0    0    0 -0.00000000000E+00 -0.00000000000E+00 -0.30000000000E+02  0.30000000000E+02  0.00000000000E+00 0. -1.
          5    1    1    2  501    0 -0.17222072871E+02 -0.23850567610E+02  0.35299618538E+01  0.30000000000E+02  0.47000000000E+01 0.  1.
         -5    1    1    2    0  501  0.17222072871E+02  0.23850567610E+02 -0.35299618538E+01  0.30000000000E+02  0.47000000000E+01 0. -1.
</event>
<event>
 4    1  0.7581446E-002  0.6000000E+02  0.7546771E-02  0.1259629E+00
         11   -1    0    0    0    0  0.00000000000E+00  0.00000000000E+00  0.30000000000E+02  0.30000000000E+02  0.00000000000E+00 0. -1.
        -11   -1    0    0    0    0 -0.00000000000E+00 -0.00000000000E+00 -0.30000000000E+02  0.30000000000E+02  0.00000000000E+00 0.  1.
          5    1    1    2  501    0  0.19168673254E+02 -0.11092079232E+02 -0.19683438318E+02  0.30000000000E+02  0.47000000000E+01 0.  1.
         -5    1    1    2    0  501 -0.19168673254E+02  0.11092079232E+02  0.19683438318E+02  0.30000000000E+02  0.47000000000E+01 0. -1.
</event>
<event>
 4    1  0.7581446E-002  0.6000000E+02  0.7546771E-02  0.1259629E+00
         11   -1    0    0    0    0  0.00000000000E+00  0.00000000000E+00  0.30000000000E+02  0.30000000000E+02  0.00000000000E+00 0. -1.
        -11   -1    0    0    0    0 -0.00000000000E+00 -0.00000000000E+00 -0.30000000000E+02  0.30000000000E+02  0.00000000000E+00 0.  1.
          5    1    1    2  501    0 -0.25408707755E+02 -0.11093745633E+02 -0.10451620835E+02  0.30000000000E+02  0.47000000000E+01 0.  1.
         -5    1    1    2    0  501  0.25408707755E+02  0.11093745633E+02  0.10451620835E+02  0.30000000000E+02  0.47000000000E+01 0. -1.
</event>
<event>
 4    1  0.7581446E-002  0.6000000E+02  0.7546771E-02  0.1259629E+00
         11   -1    0    0    0    0  0.00000000000E+00  0.00000000000E+00  0.30000000000E+02  0.30000000000E+02  0.00000000000E+00 0.  1.
        -11   -1    0    0    0    0 -0.00000000000E+00 -0.00000000000E+00 -0.30000000000E+02  0.30000000000E+02  0.00000000000E+00 0. -1.
          5    1    1    2  501    0  0.42527412934E+01 -0.14265848956E+02 -0.25618542992E+02  0.30000000000E+02  0.47000000000E+01 0. -1.
         -5    1    1    2    0  501 -0.42527412934E+01  0.14265848956E+02  0.25618542992E+02  0.30000000000E+02  0.47000000000E+01 0.  1.
</event>
<event>
 4    1  0.7581446E-002  0.6000000E+02  0.7546771E-02  0.1259629E+00
         11   -1    0    0    0    0  0.00000000000E+00  0.00000000000E+00  0.30000000000E+02  0.30000000000E+02  0.00000000000E+00 0.  1.
        -11   -1    0    0    0    0 -0.00000000000E+00 -0.00000000000E+00 -0.30000000000E+02  0.30000000000E+02  0.00000000000E+00 0. -1.
          5    1    1    2  501    0 -0.21501196383E+02  0.14665792355E+02 -0.14160617524E+02  0.30000000000E+02  0.47000000000E+01 0. -1.
         -5    1    1    2    0  501  0.21501196383E+02 -0.14665792355E+02  0.14160617524E+02  0.30000000000E+02  0.47000000000E+01 0.  1.
</event>
<event>
 4    1  0.7581446E-002  0.6000000E+02  0.7546771E-02  0.1259629E+00
         11   -1    0    0    0    0  0.00000000000E+00  0.00000000000E+00  0.30000000000E+02  0.30000000000E+02  0.00000000000E+00 0.  1.
        -11   -1    0    0    0    0 -0.00000000000E+00 -0.00000000000E+00 -0.30000000000E+02  0.30000000000E+02  0.00000000000E+00 0. -1.
          5    1    1    2  501    0 -0.40834964858E+01  0.24211302650E+02 -0.16584567539E+02  0.30000000000E+02  0.47000000000E+01 0. -1.
         -5    1    1    2    0  501  0.40834964858E+01 -0.24211302650E+02  0.16584567539E+02  0.30000000000E+02  0.47000000000E+01 0.  1.
</event>
<event>
 4    1  0.7581446E-002  0.6000000E+02  0.7546771E-02  0.1259629E+00
         11   -1    0    0    0    0  0.00000000000E+00  0.00000000000E+00  0.30000000000E+02  0.30000000000E+02  0.00000000000E+00 0.  1.
        -11   -1    0    0    0    0 -0.00000000000E+00 -0.00000000000E+00 -0.30000000000E+02  0.30000000000E+02  0.00000000000E+00 0. -1.
          5    1    1    2  501    0 -0.22918216753E+02 -0.15095337696E+01  0.18718617702E+02  0.30000000000E+02  0.47000000000E+01 0.  1.
         -5    1    1    2    0  501  0.22918216753E+02  0.15095337696E+01 -0.18718617702E+02  0.30000000000E+02  0.47000000000E+01 0. -1.
</event>
<event>
 4    1  0.7581446E-002  0.6000000E+02  0.7546771E-02  0.1259629E+00
         11   -1    0    0    0    0  0.00000000000E+00  0.00000000000E+00  0.30000000000E+02  0.30000000000E+02  0.00000000000E+00 0.  1.
        -11   -1    0    0    0    0 -0.00000000000E+00 -0.00000000000E+00 -0.30000000000E+02  0.30000000000E+02  0.00000000000E+00 0. -1.
          5    1    1    2  501    0 -0.15844148624E+02  0.24393063129E+02 -0.56437067225E+01  0.30000000000E+02  0.47000000000E+01 0. -1.
         -5    1    1    2    0  501  0.15844148624E+02 -0.24393063129E+02  0.56437067225E+01  0.30000000000E+02  0.47000000000E+01 0.  1.
</event>
<event>
 4    1  0.7581446E-002  0.6000000E+02  0.7546771E-02  0.1259629E+00
         11   -1    0    0    0    0  0.00000000000E+00  0.00000000000E+00  0.30000000000E+02  0.30000000000E+02  0.00000000000E+00 0.  1.
        -11   -1    0    0    0    0 -0.00000000000E+00 -0.00000000000E+00 -0.30000000000E+02  0.30000000000E+02  0.00000000000E+00 0. -1.
          5    1    1    2  501    0 -0.74754953466E+01  0.74018893036E+01 -0.27699079480E+02  0.30000000000E+02  0.47000000000E+01 0. -1.
         -5    1    1    2    0  501  0.74754953466E+01 -0.74018893036E+01  0.27699079480E+02  0.30000000000E+02  0.47000000000E+01 0.  1.
</event>
<event>
 4    1  0.7581446E-002  0.6000000E+02  0.7546771E-02  0.1259629E+00
         11   -1    0    0    0    0  0.00000000000E+00  0.00000000000E+00  0.30000000000E+02  0.30000000000E+02  0.00000000000E+00 0. -1.
        -11   -1    0    0    0    0 -0.00000000000E+00 -0.00000000000E+00 -0.30000000000E+02  0.30000000000E+02  0.00000000000E+00 0.  1.
          5    1    1    2  501    0 -0.31083570343E+01 -0.67096038725E+01 -0.28691973310E+02  0.30000000000E+02  0.47000000000E+01 0.  1.
         -5    1    1    2    0  501  0.31083570343E+01  0.67096038725E+01  0.28691973310E+02  0.30000000000E+02  0.47000000000E+01 0. -1.
</event>
<event>
 4    1  0.7581446E-002  0.6000000E+02  0.7546771E-02  0.1259629E+00
         11   -1    0    0    0    0  0.00000000000E+00  0.00000000000E+00  0.30000000000E+02  0.30000000000E+02  0.00000000000E+00 0.  1.
        -11   -1    0    0    0    0 -0.00000000000E+00 -0.00000000000E+00 -0.30000000000E+02  0.30000000000E+02  0.00000000000E+00 0. -1.
          5    1    1    2  501    0 -0.12673672314E+01 -0.35030999528E+01 -0.29394422447E+02  0.30000000000E+02  0.47000000000E+01 0. -1.
         -5    1    1    2    0  501  0.12673672314E+01  0.35030999528E+01  0.29394422447E+02  0.30000000000E+02  0.47000000000E+01 0.  1.
</event>
<event>
 4    1  0.7581446E-002  0.6000000E+02  0.7546771E-02  0.1259629E+00
         11   -1    0    0    0    0  0.00000000000E+00  0.00000000000E+00  0.30000000000E+02  0.30000000000E+02  0.00000000000E+00 0. -1.
        -11   -1    0    0    0    0 -0.00000000000E+00 -0.00000000000E+00 -0.30000000000E+02  0.30000000000E+02  0.00000000000E+00 0.  1.
          5    1    1    2  501    0 -0.12789586803E+02  0.18978390803E+02 -0.18819063525E+02  0.30000000000E+02  0.47000000000E+01 0.  1.
         -5    1    1    2    0  501  0.12789586803E+02 -0.18978390803E+02  0.18819063525E+02  0.30000000000E+02  0.47000000000E+01 0. -1.
</event>
<event>
 4    1  0.7581446E-002  0.6000000E+02  0.7546771E-02  0.1259629E+00
         11   -1    0    0    0    0  0.00000000000E+00  0.00000000000E+00  0.30000000000E+02  0.30000000000E+02  0.00000000000E+00 0.  1.
        -11   -1    0    0    0    0 -0.00000000000E+00 -0.00000000000E+00 -0.30000000000E+02  0.30000000000E+02  0.00000000000E+00 0. -1.
          5    1    1    2  501    0  0.95339660576E+01 -0.24019118986E+02 -0.14494668480E+02  0.30000000000E+02  0.47000000000E+01 0. -1.
         -5    1    1    2    0  501 -0.95339660576E+01  0.24019118986E+02  0.14494668480E+02  0.30000000000E+02  0.47000000000E+01 0.  1.
</event>
<event>
 4    1  0.7581446E-002  0.6000000E+02  0.7546771E-02  0.1259629E+00
         11   -1    0    0    0    0  0.00000000000E+00  0.00000000000E+00  0.30000000000E+02  0.30000000000E+02  0.00000000000E+00 0.  1.
        -11   -1    0    0    0    0 -0.00000000000E+00 -0.00000000000E+00 -0.30000000000E+02  0.30000000000E+02  0.00000000000E+00 0. -1.
          5    1    1    2  501    0 -0.21235026274E+02 -0.12722917894E+02 -0.16282230173E+02  0.30000000000E+02  0.47000000000E+01 0. -1.
         -5    1    1    2    0  501  0.21235026274E+02  0.12722917894E+02  0.16282230173E+02  0.30000000000E+02  0.47000000000E+01 0.  1.
</event>
<event>
 4    1  0.7581446E-002  0.6000000E+02  0.7546771E-02  0.1259629E+00
         11   -1    0    0    0    0  0.00000000000E+00  0.00000000000E+00  0.30000000000E+02  0.30000000000E+02  0.00000000000E+00 0. -1.
        -11   -1    0    0    0    0 -0.00000000000E+00 -0.00000000000E+00 -0.30000000000E+02  0.30000000000E+02  0.00000000000E+00 0.  1.
          5    1    1    2  501    0 -0.15050243251E+02  0.23546494979E+02 -0.98469666533E+01  0.30000000000E+02  0.47000000000E+01 0.  1.
         -5    1    1    2    0  501  0.15050243251E+02 -0.23546494979E+02  0.98469666533E+01  0.30000000000E+02  0.47000000000E+01 0. -1.
</event>
<event>
 4    1  0.7581446E-002  0.6000000E+02  0.7546771E-02  0.1259629E+00
         11   -1    0    0    0    0  0.00000000000E+00  0.00000000000E+00  0.30000000000E+02  0.30000000000E+02  0.00000000000E+00 0. -1.
        -11   -1    0    0    0    0 -0.00000000000E+00 -0.00000000000E+00 -0.30000000000E+02  0.30000000000E+02  0.00000000000E+00 0.  1.
          5    1    1    2  501    0  0.51075393198E+01 -0.27512995174E+02 -0.97395142937E+01  0.30000000000E+02  0.47000000000E+01 0.  1.
         -5    1    1    2    0  501 -0.51075393198E+01  0.27512995174E+02  0.97395142937E+01  0.30000000000E+02  0.47000000000E+01 0. -1.
</event>
<event>
 4    1  0.7581446E-002  0.6000000E+02  0.7546771E-02  0.1259629E+00
         11   -1    0    0    0    0  0.00000000000E+00  0.00000000000E+00  0.30000000000E+02  0.30000000000E+02  0.00000000000E+00 0. -1.
        -11   -1    0    0    0    0 -0.00000000000E+00 -0.00000000000E+00 -0.30000000000E+02  0.30000000000E+02  0.00000000000E+00 0.  1.
          5    1    1    2  501    0 -0.51320702941E+01  0.11015657113E+02 -0.27022715498E+02  0.30000000000E+02  0.47000000000E+01 0.  1.
         -5    1    1    2    0  501  0.51320702941E+01 -0.11015657113E+02  0.27022715498E+02  0.30000000000E+02  0.47000000000E+01 0. -1.
</event>
<event>
 4    1  0.7581446E-002  0.6000000E+02  0.7546771E-02  0.1259629E+00
         11   -1    0    0    0    0  0.00000000000E+00  0.00000000000E+00  0.30000000000E+02  0.30000000000E+02  0.00000000000E+00 0. -1.
        -11   -1    0    0    0    0 -0.00000000000E+00 -0.00000000000E+00 -0.30000000000E+02  0.30000000000E+02  0.00000000000E+00 0.  1.
          5    1    1    2  501    0  0.11831490883E+02  0.27049173021E+02  0.25036098697E+01  0.30000000000E+02  0.47000000000E+01 0.  1.
         -5    1    1    2    0  501 -0.11831490883E+02 -0.27049173021E+02 -0.25036098697E+01  0.30000000000E+02  0.47000000000E+01 0. -1.
</event>
<event>
 4    1  0.7581446E-002  0.6000000E+02  0.7546771E-02  0.1259629E+00
         11   -1    0    0    0    0  0.00000000000E+00  0.00000000000E+00  0.30000000000E+02  0.30000000000E+02  0.00000000000E+00 0. -1.
        -11   -1    0    0    0    0 -0.00000000000E+00 -0.00000000000E+00 -0.30000000000E+02  0.30000000000E+02  0.00000000000E+00 0.  1.
          5    1    1    2  501    0  0.26153352582E+02  0.10832055010E+02 -0.87509275501E+01  0.30000000000E+02  0.47000000000E+01 0.  1.
         -5    1    1    2    0  501 -0.26153352582E+02 -0.10832055010E+02  0.87509275501E+01  0.30000000000E+02  0.47000000000E+01 0. -1.
</event>
<event>
 4    1  0.7581446E-002  0.6000000E+02  0.7546771E-02  0.1259629E+00
         11   -1    0    0    0    0  0.00000000000E+00  0.00000000000E+00  0.30000000000E+02  0.30000000000E+02  0.00000000000E+00 0.  1.
        -11   -1    0    0    0    0 -0.00000000000E+00 -0.00000000000E+00 -0.30000000000E+02  0.30000000000E+02  0.00000000000E+00 0. -1.
          5    1    1    2  501    0 -0.77928838651E+01  0.28092987689E+02 -0.52881947539E+01  0.30000000000E+02  0.47000000000E+01 0. -1.
         -5    1    1    2    0  501  0.77928838651E+01 -0.28092987689E+02  0.52881947539E+01  0.30000000000E+02  0.47000000000E+01 0.  1.
</event>
<event>
 4    1  0.7581446E-002  0.6000000E+02  0.7546771E-02  0.1259629E+00
         11   -1    0    0    0    0  0.00000000000E+00  0.00000000000E+00  0.30000000000E+02  0.30000000000E+02  0.00000000000E+00 0.  1.
        -11   -1    0    0    0    0 -0.00000000000E+00 -0.00000000000E+00 -0.30000000000E+02  0.30000000000E+02  0.00000000000E+00 0. -1.
          5    1    1    2  501    0 -0.66852007035E+01 -0.13189252815E+02 -0.25676092026E+02  0.30000000000E+02  0.47000000000E+01 0. -1.
         -5    1    1    2    0  501  0.66852007035E+01  0.13189252815E+02  0.25676092026E+02  0.30000000000E+02  0.47000000000E+01 0.  1.
</event>
<event>
 4    1  0.7581446E-002  0.6000000E+02  0.7546771E-02  0.1259629E+00
         11   -1    0    0    0    0  0.00000000000E+00  0.00000000000E+00  0.30000000000E+02  0.30000000000E+02  0.00000000000E+00 0.  1.
        -11   -1    0    0    0    0 -0.00000000000E+00 -0.00000000000E+00 -0.30000000000E+02  0.30000000000E+02  0.00000000000E+00 0. -1.
          5    1    1    2  501    0 -0.82944927626E+01  0.22141971212E+02 -0.17856217423E+02  0.30000000000E+02  0.47000000000E+01 0. -1.
         -5    1    1    2    0  501  0.82944927626E+01 -0.22141971212E+02  0.17856217423E+02  0.30000000000E+02  0.47000000000E+01 0.  1.
</event>
<event>
 4    1  0.7581446E-002  0.6000000E+02  0.7546771E-02  0.1259629E+00
         11   -1    0    0    0    0  0.00000000000E+00  0.00000000000E+00  0.30000000000E+02  0.30000000000E+02  0.00000000000E+00 0.  1.
        -11   -1    0    0    0    0 -0.00000000000E+00 -0.00000000000E+00 -0.30000000000E+02  0.30000000000E+02  0.00000000000E+00 0. -1.
          5    1    1    2  501    0  0.15507973285E+02  0.11239069422E+01 -0.25222006220E+02  0.30000000000E+02  0.47000000000E+01 0. -1.
         -5    1    1    2    0  501 -0.15507973285E+02 -0.11239069422E+01  0.25222006220E+02  0.30000000000E+02  0.47000000000E+01 0.  1.
</event>
<event>
 4    1  0.7581446E-002  0.6000000E+02  0.7546771E-02  0.1259629E+00
         11   -1    0    0    0    0  0.00000000000E+00  0.00000000000E+00  0.30000000000E+02  0.30000000000E+02  0.00000000000E+00 0.  1.
        -11   -1    0    0    0    0 -0.00000000000E+00 -0.00000000000E+00 -0.30000000000E+02  0.30000000000E+02  0.00000000000E+00 0. -1.
          5    1    1    2  501    0  0.16127998932E+02 -0.24359452169E+02 -0.49411274510E+01  0.30000000000E+02  0.47000000000E+01 0. -1.
         -5    1    1    2    0  501 -0.16127998932E+02  0.24359452169E+02  0.49411274510E+01  0.30000000000E+02  0.47000000000E+01 0.  1.
</event>
<event>
 4    1  0.7581446E-002  0.6000000E+02  0.7546771E-02  0.1259629E+00
         11   -1    0    0    0    0  0.00000000000E+00  0.00000000000E+00  0.30000000000E+02  0.30000000000E+02  0.00000000000E+00 0. -1.
        -11   -1    0    0    0    0 -0.00000000000E+00 -0.00000000000E+00 -0.30000000000E+02  0.30000000000E+02  0.00000000000E+00 0.  1.
          5    1    1    2  501    0 -0.20580647044E+01 -0.29491118700E+02  0.19870298153E+01  0.30000000000E+02  0.47000000000E+01 0.  1.
         -5    1    1    2    0  501  0.20580647044E+01  0.29491118700E+02 -0.19870298153E+01  0.30000000000E+02  0.47000000000E+01 0. -1.
</event>
<event>
 4    1  0.7581446E-002  0.6000000E+02  0.7546771E-02  0.1259629E+00
         11   -1    0    0    0    0  0.00000000000E+00  0.00000000000E+00  0.30000000000E+02  0.30000000000E+02  0.00000000000E+00 0.  1.
        -11   -1    0    0    0    0 -0.00000000000E+00 -0.00000000000E+00 -0.30000000000E+02  0.30000000000E+02  0.00000000000E+00 0. -1.
          5    1    1    2  501    0 -0.17896041154E+01  0.25009900859E+02 -0.15786455464E+02  0.30000000000E+02  0.47000000000E+01 0. -1.
         -5    1    1    2    0  501  0.17896041154E+01 -0.25009900859E+02  0.15786455464E+02  0.30000000000E+02  0.47000000000E+01 0.  1.
</event>
<event>
 4    1  0.7581446E-002  0.6000000E+02  0.7546771E-02  0.1259629E+00
         11   -1    0    0    0    0  0.00000000000E+00  0.00000000000E+00  0.30000000000E+02  0.30000000000E+02  0.00000000000E+00 0.  1.
        -11   -1    0    0    0    0 -0.00000000000E+00 -0.00000000000E+00 -0.30000000000E+02  0.30000000000E+02  0.00000000000E+00 0. -1.
          5    1    1    2  501    0  0.16463209323E+02  0.79755453730E+01 -0.23308011815E+02  0.30000000000E+02  0.47000000000E+01 0. -1.
         -5    1    1    2    0  501 -0.16463209323E+02 -0.79755453730E+01  0.23308011815E+02  0.30000000000E+02  0.47000000000E+01 0.  1.
</event>
<event>
 4    1  0.7581446E-002  0.6000000E+02  0.7546771E-02  0.1259629E+00
         11   -1    0    0    0    0  0.00000000000E+00  0.00000000000E+00  0.30000000000E+02  0.30000000000E+02  0.00000000000E+00 0.  1.
        -11   -1    0    0    0    0 -0.00000000000E+00 -0.00000000000E+00 -0.30000000000E+02  0.30000000000E+02  0.00000000000E+00 0. -1.
          5    1    1    2  501    0 -0.13467645724E+02  0.23310540599E+02 -0.12375427897E+02  0.30000000000E+02  0.47000000000E+01 0. -1.
         -5    1    1    2    0  501  0.13467645724E+02 -0.23310540599E+02  0.12375427897E+02  0.30000000000E+02  0.47000000000E+01 0.  1.
</event>
<event>
 4    1  0.7581446E-002  0.6000000E+02  0.7546771E-02  0.1259629E+00
         11   -1    0    0    0    0  0.00000000000E+00  0.00000000000E+00  0.30000000000E+02  0.30000000000E+02  0.00000000000E+00 0. -1.
        -11   -1    0    0    0    0 -0.00000000000E+00 -0.00000000000E+00 -0.30000000000E+02  0.30000000000E+02  0.00000000000E+00 0.  1.
          5    1    1    2  501    0 -0.10157925932E+02  0.26895887318E+02 -0.71650391581E+01  0.30000000000E+02  0.47000000000E+01 0.  1.
         -5    1    1    2    0  501  0.10157925932E+02 -0.26895887318E+02  0.71650391581E+01  0.30000000000E+02  0.47000000000E+01 0. -1.
</event>
<event>
 4    1  0.7581446E-002  0.6000000E+02  0.7546771E-02  0.1259629E+00
         11   -1    0    0    0    0  0.00000000000E+00  0.00000000000E+00  0.30000000000E+02  0.30000000000E+02  0.00000000000E+00 0. -1.
        -11   -1    0    0    0    0 -0.00000000000E+00 -0.00000000000E+00 -0.30000000000E+02  0.30000000000E+02  0.00000000000E+00 0.  1.
          5    1    1    2  501    0 -0.30365497793E+01  0.25453091347E+02 -0.14860333318E+02  0.30000000000E+02  0.47000000000E+01 0.  1.
         -5    1    1    2    0  501  0.30365497793E+01 -0.25453091347E+02  0.14860333318E+02  0.30000000000E+02  0.47000000000E+01 0. -1.
</event>
<event>
 4    1  0.7581446E-002  0.6000000E+02  0.7546771E-02  0.1259629E+00
         11   -1    0    0    0    0  0.00000000000E+00  0.00000000000E+00  0.30000000000E+02  0.30000000000E+02  0.00000000000E+00 0.  1.
        -11   -1    0    0    0    0 -0.00000000000E+00 -0.00000000000E+00 -0.30000000000E+02  0.30000000000E+02  0.00000000000E+00 0. -1.
          5    1    1    2  501    0 -0.43890253619E+01 -0.76226876342E+01  0.28293834834E+02  0.30000000000E+02  0.47000000000E+01 0.  1.
         -5    1    1    2    0  501  0.43890253619E+01  0.76226876342E+01 -0.28293834834E+02  0.30000000000E+02  0.47000000000E+01 0. -1.
</event>
<event>
 4    1  0.7581446E-002  0.6000000E+02  0.7546771E-02  0.1259629E+00
         11   -1    0    0    0    0  0.00000000000E+00  0.00000000000E+00  0.30000000000E+02  0.30000000000E+02  0.00000000000E+00 0. -1.
        -11   -1    0    0    0    0 -0.00000000000E+00 -0.00000000000E+00 -0.30000000000E+02  0.30000000000E+02  0.00000000000E+00 0.  1.
          5    1    1    2  501    0 -0.14306085155E+02 -0.11000834028E+02 -0.23499522936E+02  0.30000000000E+02  0.47000000000E+01 0.  1.
         -5    1    1    2    0  501  0.14306085155E+02  0.11000834028E+02  0.23499522936E+02  0.30000000000E+02  0.47000000000E+01 0. -1.
</event>
<event>
 4    1  0.7581446E-002  0.6000000E+02  0.7546771E-02  0.1259629E+00
         11   -1    0    0    0    0  0.00000000000E+00  0.00000000000E+00  0.30000000000E+02  0.30000000000E+02  0.00000000000E+00 0. -1.
        -11   -1    0    0    0    0 -0.00000000000E+00 -0.00000000000E+00 -0.30000000000E+02  0.30000000000E+02  0.00000000000E+00 0.  1.
          5    1    1    2  501    0 -0.18742313521E+02  0.17725149935E+02 -0.14575827375E+02  0.30000000000E+02  0.47000000000E+01 0.  1.
         -5    1    1    2    0  501  0.18742313521E+02 -0.17725149935E+02  0.14575827375E+02  0.30000000000E+02  0.47000000000E+01 0. -1.
</event>
<event>
 4    1  0.7581446E-002  0.6000000E+02  0.7546771E-02  0.1259629E+00
         11   -1    0    0    0    0  0.00000000000E+00  0.00000000000E+00  0.30000000000E+02  0.30000000000E+02  0.00000000000E+00 0.  1.
        -11   -1    0    0    0    0 -0.00000000000E+00 -0.00000000000E+00 -0.30000000000E+02  0.30000000000E+02  0.00000000000E+00 0. -1.
          5    1    1    2  501    0 -0.23283566540E+02 -0.46746028238E+01 -0.17718171961E+02  0.30000000000E+02  0.47000000000E+01 0. -1.
         -5    1    1    2    0  501  0.23283566540E+02  0.46746028238E+01  0.17718171961E+02  0.30000000000E+02  0.47000000000E+01 0.  1.
</event>
<event>
 4    1  0.7581446E-002  0.6000000E+02  0.7546771E-02  0.1259629E+00
         11   -1    0    0    0    0  0.00000000000E+00  0.00000000000E+00  0.30000000000E+02  0.30000000000E+02  0.00000000000E+00 0.  1.
        -11   -1    0    0    0    0 -0.00000000000E+00 -0.00000000000E+00 -0.30000000000E+02  0.30000000000E+02  0.00000000000E+00 0. -1.
          5    1    1    2  501    0  0.14517827084E+02  0.21891381554E+02  0.13708030872E+02  0.30000000000E+02  0.47000000000E+01 0. -1.
         -5    1    1    2    0  501 -0.14517827084E+02 -0.21891381554E+02 -0.13708030872E+02  0.30000000000E+02  0.47000000000E+01 0.  1.
</event>
<event>
 4    1  0.7581446E-002  0.6000000E+02  0.7546771E-02  0.1259629E+00
         11   -1    0    0    0    0  0.00000000000E+00  0.00000000000E+00  0.30000000000E+02  0.30000000000E+02  0.00000000000E+00 0. -1.
        -11   -1    0    0    0    0 -0.00000000000E+00 -0.00000000000E+00 -0.30000000000E+02  0.30000000000E+02  0.00000000000E+00 0.  1.
          5    1    1    2  501    0  0.46242138273E+01  0.28495057100E+02  0.66752054142E+01  0.30000000000E+02  0.47000000000E+01 0.  1.
         -5    1    1    2    0  501 -0.46242138273E+01 -0.28495057100E+02 -0.66752054142E+01  0.30000000000E+02  0.47000000000E+01 0. -1.
</event>
<event>
 4    1  0.7581446E-002  0.6000000E+02  0.7546771E-02  0.1259629E+00
         11   -1    0    0    0    0  0.00000000000E+00  0.00000000000E+00  0.30000000000E+02  0.30000000000E+02  0.00000000000E+00 0.  1.
        -11   -1    0    0    0    0 -0.00000000000E+00 -0.00000000000E+00 -0.30000000000E+02  0.30000000000E+02  0.00000000000E+00 0. -1.
          5    1    1    2  501    0  0.13134858461E+02 -0.10798532420E+02  0.24264731418E+02  0.30000000000E+02  0.47000000000E+01 0.  1.
         -5    1    1    2    0  501 -0.13134858461E+02  0.10798532420E+02 -0.24264731418E+02  0.30000000000E+02  0.47000000000E+01 0. -1.
</event>
<event>
 4    1  0.7581446E-002  0.6000000E+02  0.7546771E-02  0.1259629E+00
         11   -1    0    0    0    0  0.00000000000E+00  0.00000000000E+00  0.30000000000E+02  0.30000000000E+02  0.00000000000E+00 0. -1.
        -11   -1    0    0    0    0 -0.00000000000E+00 -0.00000000000E+00 -0.30000000000E+02  0.30000000000E+02  0.00000000000E+00 0.  1.
          5    1    1    2  501    0  0.11134257295E+01  0.30885440854E+01 -0.29447091173E+02  0.30000000000E+02  0.47000000000E+01 0.  1.
         -5    1    1    2    0  501 -0.11134257295E+01 -0.30885440854E+01  0.29447091173E+02  0.30000000000E+02  0.47000000000E+01 0. -1.
</event>
<event>
 4    1  0.7581446E-002  0.6000000E+02  0.7546771E-02  0.1259629E+00
         11   -1    0    0    0    0  0.00000000000E+00  0.00000000000E+00  0.30000000000E+02  0.30000000000E+02  0.00000000000E+00 0.  1.
        -11   -1    0    0    0    0 -0.00000000000E+00 -0.00000000000E+00 -0.30000000000E+02  0.30000000000E+02  0.00000000000E+00 0. -1.
          5    1    1    2  501    0  0.17111804890E+02 -0.98452563249E+01 -0.22094502965E+02  0.30000000000E+02  0.47000000000E+01 0. -1.
         -5    1    1    2    0  501 -0.17111804890E+02  0.98452563249E+01  0.22094502965E+02  0.30000000000E+02  0.47000000000E+01 0.  1.
</event>
<event>
 4    1  0.7581446E-002  0.6000000E+02  0.7546771E-02  0.1259629E+00
         11   -1    0    0    0    0  0.00000000000E+00  0.00000000000E+00  0.30000000000E+02  0.30000000000E+02  0.00000000000E+00 0.  1.
        -11   -1    0    0    0    0 -0.00000000000E+00 -0.00000000000E+00 -0.30000000000E+02  0.30000000000E+02  0.00000000000E+00 0. -1.
          5    1    1    2  501    0  0.22664035133E+01  0.29208874430E+02  0.44288903418E+01  0.30000000000E+02  0.47000000000E+01 0. -1.
         -5    1    1    2    0  501 -0.22664035133E+01 -0.29208874430E+02 -0.44288903418E+01  0.30000000000E+02  0.47000000000E+01 0.  1.
</event>
<event>
 4    1  0.7581446E-002  0.6000000E+02  0.7546771E-02  0.1259629E+00
         11   -1    0    0    0    0  0.00000000000E+00  0.00000000000E+00  0.30000000000E+02  0.30000000000E+02  0.00000000000E+00 0.  1.
        -11   -1    0    0    0    0 -0.00000000000E+00 -0.00000000000E+00 -0.30000000000E+02  0.30000000000E+02  0.00000000000E+00 0. -1.
          5    1    1    2  501    0 -0.10729919067E+02  0.26646533812E+02 -0.72623049095E+01  0.30000000000E+02  0.47000000000E+01 0. -1.
         -5    1    1    2    0  501  0.10729919067E+02 -0.26646533812E+02  0.72623049095E+01  0.30000000000E+02  0.47000000000E+01 0.  1.
</event>
<event>
 4    1  0.7581446E-002  0.6000000E+02  0.7546771E-02  0.1259629E+00
         11   -1    0    0    0    0  0.00000000000E+00  0.00000000000E+00  0.30000000000E+02  0.30000000000E+02  0.00000000000E+00 0.  1.
        -11   -1    0    0    0    0 -0.00000000000E+00 -0.00000000000E+00 -0.30000000000E+02  0.30000000000E+02  0.00000000000E+00 0. -1.
          5    1    1    2  501    0  0.10159374483E+02 -0.65858202968E+01 -0.27043004292E+02  0.30000000000E+02  0.47000000000E+01 0. -1.
         -5    1    1    2    0  501 -0.10159374483E+02  0.65858202968E+01  0.27043004292E+02  0.30000000000E+02  0.47000000000E+01 0.  1.
</event>
<event>
 4    1  0.7581446E-002  0.6000000E+02  0.7546771E-02  0.1259629E+00
         11   -1    0    0    0    0  0.00000000000E+00  0.00000000000E+00  0.30000000000E+02  0.30000000000E+02  0.00000000000E+00 0.  1.
        -11   -1    0    0    0    0 -0.00000000000E+00 -0.00000000000E+00 -0.30000000000E+02  0.30000000000E+02  0.00000000000E+00 0. -1.
          5    1    1    2  501    0  0.87552870008E+01 -0.23937479433E+02 -0.15108012045E+02  0.30000000000E+02  0.47000000000E+01 0. -1.
         -5    1    1    2    0  501 -0.87552870008E+01  0.23937479433E+02  0.15108012045E+02  0.30000000000E+02  0.47000000000E+01 0.  1.
</event>
<event>
 4    1  0.7581446E-002  0.6000000E+02  0.7546771E-02  0.1259629E+00
         11   -1    0    0    0    0  0.00000000000E+00  0.00000000000E+00  0.30000000000E+02  0.30000000000E+02  0.00000000000E+00 0.  1.
        -11   -1    0    0    0    0 -0.00000000000E+00 -0.00000000000E+00 -0.30000000000E+02  0.30000000000E+02  0.00000000000E+00 0. -1.
          5    1    1    2  501    0  0.13785553593E+02  0.88423765289E+01  0.24691717021E+02  0.30000000000E+02  0.47000000000E+01 0.  1.
         -5    1    1    2    0  501 -0.13785553593E+02 -0.88423765289E+01 -0.24691717021E+02  0.30000000000E+02  0.47000000000E+01 0. -1.
</event>
<event>
 4    1  0.7581446E-002  0.6000000E+02  0.7546771E-02  0.1259629E+00
         11   -1    0    0    0    0  0.00000000000E+00  0.00000000000E+00  0.30000000000E+02  0.30000000000E+02  0.00000000000E+00 0. -1.
        -11   -1    0    0    0    0 -0.00000000000E+00 -0.00000000000E+00 -0.30000000000E+02  0.30000000000E+02  0.00000000000E+00 0.  1.
          5    1    1    2  501    0 -0.20253193325E+02  0.21625341719E+02  0.25051084070E+00  0.30000000000E+02  0.47000000000E+01 0.  1.
         -5    1    1    2    0  501  0.20253193325E+02 -0.21625341719E+02 -0.25051084070E+00  0.30000000000E+02  0.47000000000E+01 0. -1.
</event>
<event>
 4    1  0.7581446E-002  0.6000000E+02  0.7546771E-02  0.1259629E+00
         11   -1    0    0    0    0  0.00000000000E+00  0.00000000000E+00  0.30000000000E+02  0.30000000000E+02  0.00000000000E+00 0.  1.
        -11   -1    0    0    0    0 -0.00000000000E+00 -0.00000000000E+00 -0.30000000000E+02  0.30000000000E+02  0.00000000000E+00 0. -1.
          5    1    1    2  501    0  0.13858483478E+02  0.15053975271E+02 -0.21429658519E+02  0.30000000000E+02  0.47000000000E+01 0. -1.
         -5    1    1    2    0  501 -0.13858483478E+02 -0.15053975271E+02  0.21429658519E+02  0.30000000000E+02  0.47000000000E+01 0.  1.
</event>
<event>
 4    1  0.7581446E-002  0.6000000E+02  0.7546771E-02  0.1259629E+00
         11   -1    0    0    0    0  0.00000000000E+00  0.00000000000E+00  0.30000000000E+02  0.30000000000E+02  0.00000000000E+00 0.  1.
        -11   -1    0    0    0    0 -0.00000000000E+00 -0.00000000000E+00 -0.30000000000E+02  0.30000000000E+02  0.00000000000E+00 0. -1.
          5    1    1    2  501    0  0.16715504096E+02 -0.23907583703E+02 -0.51893510468E+01  0.30000000000E+02  0.47000000000E+01 0. -1.
         -5    1    1    2    0  501 -0.16715504096E+02  0.23907583703E+02  0.51893510468E+01  0.30000000000E+02  0.47000000000E+01 0.  1.
</event>
<event>
 4    1  0.7581446E-002  0.6000000E+02  0.7546771E-02  0.1259629E+00
         11   -1    0    0    0    0  0.00000000000E+00  0.00000000000E+00  0.30000000000E+02  0.30000000000E+02  0.00000000000E+00 0. -1.
        -11   -1    0    0    0    0 -0.00000000000E+00 -0.00000000000E+00 -0.30000000000E+02  0.30000000000E+02  0.00000000000E+00 0.  1.
          5    1    1    2  501    0  0.25954512882E+02  0.10255293711E+02 -0.99550093892E+01  0.30000000000E+02  0.47000000000E+01 0.  1.
         -5    1    1    2    0  501 -0.25954512882E+02 -0.10255293711E+02  0.99550093892E+01  0.30000000000E+02  0.47000000000E+01 0. -1.
</event>
<event>
 4    1  0.7581446E-002  0.6000000E+02  0.7546771E-02  0.1259629E+00
         11   -1    0    0    0    0  0.00000000000E+00  0.00000000000E+00  0.30000000000E+02  0.30000000000E+02  0.00000000000E+00 0.  1.
        -11   -1    0    0    0    0 -0.00000000000E+00 -0.00000000000E+00 -0.30000000000E+02  0.30000000000E+02  0.00000000000E+00 0. -1.
          5    1    1    2  501    0 -0.20169788432E+02  0.28622225562E+01 -0.21515048609E+02  0.30000000000E+02  0.47000000000E+01 0. -1.
         -5    1    1    2    0  501  0.20169788432E+02 -0.28622225562E+01  0.21515048609E+02  0.30000000000E+02  0.47000000000E+01 0.  1.
</event>
<event>
 4    1  0.7581446E-002  0.6000000E+02  0.7546771E-02  0.1259629E+00
         11   -1    0    0    0    0  0.00000000000E+00  0.00000000000E+00  0.30000000000E+02  0.30000000000E+02  0.00000000000E+00 0.  1.
        -11   -1    0    0    0    0 -0.00000000000E+00 -0.00000000000E+00 -0.30000000000E+02  0.30000000000E+02  0.00000000000E+00 0. -1.
          5    1    1    2  501    0  0.88562815588E+01  0.27418295984E+02 -0.69074830653E+01  0.30000000000E+02  0.47000000000E+01 0. -1.
         -5    1    1    2    0  501 -0.88562815588E+01 -0.27418295984E+02  0.69074830653E+01  0.30000000000E+02  0.47000000000E+01 0.  1.
</event>
<event>
 4    1  0.7581446E-002  0.6000000E+02  0.7546771E-02  0.1259629E+00
         11   -1    0    0    0    0  0.00000000000E+00  0.00000000000E+00  0.30000000000E+02  0.30000000000E+02  0.00000000000E+00 0.  1.
        -11   -1    0    0    0    0 -0.00000000000E+00 -0.00000000000E+00 -0.30000000000E+02  0.30000000000E+02  0.00000000000E+00 0. -1.
          5    1    1    2  501    0 -0.95440265400E+01 -0.45581289701E+01 -0.27677518272E+02  0.30000000000E+02  0.47000000000E+01 0. -1.
         -5    1    1    2    0  501  0.95440265400E+01  0.45581289701E+01  0.27677518272E+02  0.30000000000E+02  0.47000000000E+01 0.  1.
</event>
<event>
 4    1  0.7581446E-002  0.6000000E+02  0.7546771E-02  0.1259629E+00
         11   -1    0    0    0    0  0.00000000000E+00  0.00000000000E+00  0.30000000000E+02  0.30000000000E+02  0.00000000000E+00 0.  1.
        -11   -1    0    0    0    0 -0.00000000000E+00 -0.00000000000E+00 -0.30000000000E+02  0.30000000000E+02  0.00000000000E+00 0. -1.
          5    1    1    2  501    0  0.24497971437E+02  0.76981333185E+01 -0.14781682546E+02  0.30000000000E+02  0.47000000000E+01 0. -1.
         -5    1    1    2    0  501 -0.24497971437E+02 -0.76981333185E+01  0.14781682546E+02  0.30000000000E+02  0.47000000000E+01 0.  1.
</event>
<event>
 4    1  0.7581446E-002  0.6000000E+02  0.7546771E-02  0.1259629E+00
         11   -1    0    0    0    0  0.00000000000E+00  0.00000000000E+00  0.30000000000E+02  0.30000000000E+02  0.00000000000E+00 0.  1.
        -11   -1    0    0    0    0 -0.00000000000E+00 -0.00000000000E+00 -0.30000000000E+02  0.30000000000E+02  0.00000000000E+00 0. -1.
          5    1    1    2  501    0  0.84927166514E+01  0.80192538192E+01 -0.27230044658E+02  0.30000000000E+02  0.47000000000E+01 0. -1.
         -5    1    1    2    0  501 -0.84927166514E+01 -0.80192538192E+01  0.27230044658E+02  0.30000000000E+02  0.47000000000E+01 0.  1.
</event>
<event>
 4    1  0.7581446E-002  0.6000000E+02  0.7546771E-02  0.1259629E+00
         11   -1    0    0    0    0  0.00000000000E+00  0.00000000000E+00  0.30000000000E+02  0.30000000000E+02  0.00000000000E+00 0.  1.
        -11   -1    0    0    0    0 -0.00000000000E+00 -0.00000000000E+00 -0.30000000000E+02  0.30000000000E+02  0.00000000000E+00 0. -1.
          5    1    1    2  501    0  0.49620232114E+01 -0.95261696318E+01 -0.27614134384E+02  0.30000000000E+02  0.47000000000E+01 0. -1.
         -5    1    1    2    0  501 -0.49620232114E+01  0.95261696318E+01  0.27614134384E+02  0.30000000000E+02  0.47000000000E+01 0.  1.
</event>
<event>
 4    1  0.7581446E-002  0.6000000E+02  0.7546771E-02  0.1259629E+00
         11   -1    0    0    0    0  0.00000000000E+00  0.00000000000E+00  0.30000000000E+02  0.30000000000E+02  0.00000000000E+00 0. -1.
        -11   -1    0    0    0    0 -0.00000000000E+00 -0.00000000000E+00 -0.30000000000E+02  0.30000000000E+02  0.00000000000E+00 0.  1.
          5    1    1    2  501    0 -0.72925721034E+01  0.21035678232E+02 -0.19550668363E+02  0.30000000000E+02  0.47000000000E+01 0.  1.
         -5    1    1    2    0  501  0.72925721034E+01 -0.21035678232E+02  0.19550668363E+02  0.30000000000E+02  0.47000000000E+01 0. -1.
</event>
<event>
 4    1  0.7581446E-002  0.6000000E+02  0.7546771E-02  0.1259629E+00
         11   -1    0    0    0    0  0.00000000000E+00  0.00000000000E+00  0.30000000000E+02  0.30000000000E+02  0.00000000000E+00 0.  1.
        -11   -1    0    0    0    0 -0.00000000000E+00 -0.00000000000E+00 -0.30000000000E+02  0.30000000000E+02  0.00000000000E+00 0. -1.
          5    1    1    2  501    0  0.22038238757E+02 -0.13035559781E+02 -0.14909735534E+02  0.30000000000E+02  0.47000000000E+01 0. -1.
         -5    1    1    2    0  501 -0.22038238757E+02  0.13035559781E+02  0.14909735534E+02  0.30000000000E+02  0.47000000000E+01 0.  1.
</event>
<event>
 4    1  0.7581446E-002  0.6000000E+02  0.7546771E-02  0.1259629E+00
         11   -1    0    0    0    0  0.00000000000E+00  0.00000000000E+00  0.30000000000E+02  0.30000000000E+02  0.00000000000E+00 0.  1.
        -11   -1    0    0    0    0 -0.00000000000E+00 -0.00000000000E+00 -0.30000000000E+02  0.30000000000E+02  0.00000000000E+00 0. -1.
          5    1    1    2  501    0 -0.26731772211E+02  0.12776944525E+02 -0.26840834431E+00  0.30000000000E+02  0.47000000000E+01 0. -1.
         -5    1    1    2    0  501  0.26731772211E+02 -0.12776944525E+02  0.26840834431E+00  0.30000000000E+02  0.47000000000E+01 0.  1.
</event>
<event>
 4    1  0.7581446E-002  0.6000000E+02  0.7546771E-02  0.1259629E+00
         11   -1    0    0    0    0  0.00000000000E+00  0.00000000000E+00  0.30000000000E+02  0.30000000000E+02  0.00000000000E+00 0.  1.
        -11   -1    0    0    0    0 -0.00000000000E+00 -0.00000000000E+00 -0.30000000000E+02  0.30000000000E+02  0.00000000000E+00 0. -1.
          5    1    1    2  501    0  0.22425064270E+01 -0.28970988124E+02 -0.57933593071E+01  0.30000000000E+02  0.47000000000E+01 0. -1.
         -5    1    1    2    0  501 -0.22425064270E+01  0.28970988124E+02  0.57933593071E+01  0.30000000000E+02  0.47000000000E+01 0.  1.
</event>
<event>
 4    1  0.7581446E-002  0.6000000E+02  0.7546771E-02  0.1259629E+00
         11   -1    0    0    0    0  0.00000000000E+00  0.00000000000E+00  0.30000000000E+02  0.30000000000E+02  0.00000000000E+00 0.  1.
        -11   -1    0    0    0    0 -0.00000000000E+00 -0.00000000000E+00 -0.30000000000E+02  0.30000000000E+02  0.00000000000E+00 0. -1.
          5    1    1    2  501    0  0.24465889180E+02 -0.13684903951E+02 -0.95944604052E+01  0.30000000000E+02  0.47000000000E+01 0. -1.
         -5    1    1    2    0  501 -0.24465889180E+02  0.13684903951E+02  0.95944604052E+01  0.30000000000E+02  0.47000000000E+01 0.  1.
</event>
<event>
 4    1  0.7581446E-002  0.6000000E+02  0.7546771E-02  0.1259629E+00
         11   -1    0    0    0    0  0.00000000000E+00  0.00000000000E+00  0.30000000000E+02  0.30000000000E+02  0.00000000000E+00 0.  1.
        -11   -1    0    0    0    0 -0.00000000000E+00 -0.00000000000E+00 -0.30000000000E+02  0.30000000000E+02  0.00000000000E+00 0. -1.
          5    1    1    2  501    0 -0.16919134859E+02  0.11340710437E+02 -0.21518391259E+02  0.30000000000E+02  0.47000000000E+01 0. -1.
         -5    1    1    2    0  501  0.16919134859E+02 -0.11340710437E+02  0.21518391259E+02  0.30000000000E+02  0.47000000000E+01 0.  1.
</event>
<event>
 4    1  0.7581446E-002  0.6000000E+02  0.7546771E-02  0.1259629E+00
         11   -1    0    0    0    0  0.00000000000E+00  0.00000000000E+00  0.30000000000E+02  0.30000000000E+02  0.00000000000E+00 0.  1.
        -11   -1    0    0    0    0 -0.00000000000E+00 -0.00000000000E+00 -0.30000000000E+02  0.30000000000E+02  0.00000000000E+00 0. -1.
          5    1    1    2  501    0 -0.78216625840E+01  0.25547295272E+02 -0.12808875779E+02  0.30000000000E+02  0.47000000000E+01 0. -1.
         -5    1    1    2    0  501  0.78216625840E+01 -0.25547295272E+02  0.12808875779E+02  0.30000000000E+02  0.47000000000E+01 0.  1.
</event>
<event>
 4    1  0.7581446E-002  0.6000000E+02  0.7546771E-02  0.1259629E+00
         11   -1    0    0    0    0  0.00000000000E+00  0.00000000000E+00  0.30000000000E+02  0.30000000000E+02  0.00000000000E+00 0.  1.
        -11   -1    0    0    0    0 -0.00000000000E+00 -0.00000000000E+00 -0.30000000000E+02  0.30000000000E+02  0.00000000000E+00 0. -1.
          5    1    1    2  501    0 -0.18744116022E+01 -0.61939036281E+01 -0.28914220359E+02  0.30000000000E+02  0.47000000000E+01 0. -1.
         -5    1    1    2    0  501  0.18744116022E+01  0.61939036281E+01  0.28914220359E+02  0.30000000000E+02  0.47000000000E+01 0.  1.
</event>
<event>
 4    1  0.7581446E-002  0.6000000E+02  0.7546771E-02  0.1259629E+00
         11   -1    0    0    0    0  0.00000000000E+00  0.00000000000E+00  0.30000000000E+02  0.30000000000E+02  0.00000000000E+00 0.  1.
        -11   -1    0    0    0    0 -0.00000000000E+00 -0.00000000000E+00 -0.30000000000E+02  0.30000000000E+02  0.00000000000E+00 0. -1.
          5    1    1    2  501    0  0.55888700293E+01 -0.90804756962E+01  0.27644520125E+02  0.30000000000E+02  0.47000000000E+01 0.  1.
         -5    1    1    2    0  501 -0.55888700293E+01  0.90804756962E+01 -0.27644520125E+02  0.30000000000E+02  0.47000000000E+01 0. -1.
</event>
<event>
 4    1  0.7581446E-002  0.6000000E+02  0.7546771E-02  0.1259629E+00
         11   -1    0    0    0    0  0.00000000000E+00  0.00000000000E+00  0.30000000000E+02  0.30000000000E+02  0.00000000000E+00 0.  1.
        -11   -1    0    0    0    0 -0.00000000000E+00 -0.00000000000E+00 -0.30000000000E+02  0.30000000000E+02  0.00000000000E+00 0. -1.
          5    1    1    2  501    0 -0.42324512652E+01 -0.17580082813E+02 -0.23472048155E+02  0.30000000000E+02  0.47000000000E+01 0. -1.
         -5    1    1    2    0  501  0.42324512652E+01  0.17580082813E+02  0.23472048155E+02  0.30000000000E+02  0.47000000000E+01 0.  1.
</event>
<event>
 4    1  0.7581446E-002  0.6000000E+02  0.7546771E-02  0.1259629E+00
         11   -1    0    0    0    0  0.00000000000E+00  0.00000000000E+00  0.30000000000E+02  0.30000000000E+02  0.00000000000E+00 0.  1.
        -11   -1    0    0    0    0 -0.00000000000E+00 -0.00000000000E+00 -0.30000000000E+02  0.30000000000E+02  0.00000000000E+00 0. -1.
          5    1    1    2  501    0 -0.21564921665E+02 -0.16730986446E+02 -0.11529884914E+02  0.30000000000E+02  0.47000000000E+01 0. -1.
         -5    1    1    2    0  501  0.21564921665E+02  0.16730986446E+02  0.11529884914E+02  0.30000000000E+02  0.47000000000E+01 0.  1.
</event>
<event>
 4    1  0.7581446E-002  0.6000000E+02  0.7546771E-02  0.1259629E+00
         11   -1    0    0    0    0  0.00000000000E+00  0.00000000000E+00  0.30000000000E+02  0.30000000000E+02  0.00000000000E+00 0.  1.
        -11   -1    0    0    0    0 -0.00000000000E+00 -0.00000000000E+00 -0.30000000000E+02  0.30000000000E+02  0.00000000000E+00 0. -1.
          5    1    1    2  501    0  0.28499033266E+02  0.78251237670E+01 -0.21172011975E+01  0.30000000000E+02  0.47000000000E+01 0. -1.
         -5    1    1    2    0  501 -0.28499033266E+02 -0.78251237670E+01  0.21172011975E+01  0.30000000000E+02  0.47000000000E+01 0.  1.
</event>
<event>
 4    1  0.7581446E-002  0.6000000E+02  0.7546771E-02  0.1259629E+00
         11   -1    0    0    0    0  0.00000000000E+00  0.00000000000E+00  0.30000000000E+02  0.30000000000E+02  0.00000000000E+00 0. -1.
        -11   -1    0    0    0    0 -0.00000000000E+00 -0.00000000000E+00 -0.30000000000E+02  0.30000000000E+02  0.00000000000E+00 0.  1.
          5    1    1    2  501    0 -0.22053549720E+02 -0.19627392252E+02 -0.25132485201E+01  0.30000000000E+02  0.47000000000E+01 0.  1.
         -5    1    1    2    0  501  0.22053549720E+02  0.19627392252E+02  0.25132485201E+01  0.30000000000E+02  0.47000000000E+01 0. -1.
</event>
<event>
 4    1  0.7581446E-002  0.6000000E+02  0.7546771E-02  0.1259629E+00
         11   -1    0    0    0    0  0.00000000000E+00  0.00000000000E+00  0.30000000000E+02  0.30000000000E+02  0.00000000000E+00 0.  1.
        -11   -1    0    0    0    0 -0.00000000000E+00 -0.00000000000E+00 -0.30000000000E+02  0.30000000000E+02  0.00000000000E+00 0. -1.
          5    1    1    2  501    0  0.55111747159E+01 -0.24612742473E+02 -0.15548307342E+02  0.30000000000E+02  0.47000000000E+01 0. -1.
         -5    1    1    2    0  501 -0.55111747159E+01  0.24612742473E+02  0.15548307342E+02  0.30000000000E+02  0.47000000000E+01 0.  1.
</event>
<event>
 4    1  0.7581446E-002  0.6000000E+02  0.7546771E-02  0.1259629E+00
         11   -1    0    0    0    0  0.00000000000E+00  0.00000000000E+00  0.30000000000E+02  0.30000000000E+02  0.00000000000E+00 0. -1.
        -11   -1    0    0    0    0 -0.00000000000E+00 -0.00000000000E+00 -0.30000000000E+02  0.30000000000E+02  0.00000000000E+00 0.  1.
          5    1    1    2  501    0 -0.28133738439E+02 -0.82020023491E+01 -0.43737762748E+01  0.30000000000E+02  0.47000000000E+01 0.  1.
         -5    1    1    2    0  501  0.28133738439E+02  0.82020023491E+01  0.43737762748E+01  0.30000000000E+02  0.47000000000E+01 0. -1.
</event>
<event>
 4    1  0.7581446E-002  0.6000000E+02  0.7546771E-02  0.1259629E+00
         11   -1    0    0    0    0  0.00000000000E+00  0.00000000000E+00  0.30000000000E+02  0.30000000000E+02  0.00000000000E+00 0.  1.
        -11   -1    0    0    0    0 -0.00000000000E+00 -0.00000000000E+00 -0.30000000000E+02  0.30000000000E+02  0.00000000000E+00 0. -1.
          5    1    1    2  501    0 -0.76969463866E+01 -0.28602966393E+02  0.73302784152E+00  0.30000000000E+02  0.47000000000E+01 0. -1.
         -5    1    1    2    0  501  0.76969463866E+01  0.28602966393E+02 -0.73302784152E+00  0.30000000000E+02  0.47000000000E+01 0.  1.
</event>
<event>
 4    1  0.7581446E-002  0.6000000E+02  0.7546771E-02  0.1259629E+00
         11   -1    0    0    0    0  0.00000000000E+00  0.00000000000E+00  0.30000000000E+02  0.30000000000E+02  0.00000000000E+00 0.  1.
        -11   -1    0    0    0    0 -0.00000000000E+00 -0.00000000000E+00 -0.30000000000E+02  0.30000000000E+02  0.00000000000E+00 0. -1.
          5    1    1    2  501    0  0.13442420319E+02 -0.93971313814E+01 -0.24676005709E+02  0.30000000000E+02  0.47000000000E+01 0. -1.
         -5    1    1    2    0  501 -0.13442420319E+02  0.93971313814E+01  0.24676005709E+02  0.30000000000E+02  0.47000000000E+01 0.  1.
</event>
<event>
 4    1  0.7581446E-002  0.6000000E+02  0.7546771E-02  0.1259629E+00
         11   -1    0    0    0    0  0.00000000000E+00  0.00000000000E+00  0.30000000000E+02  0.30000000000E+02  0.00000000000E+00 0.  1.
        -11   -1    0    0    0    0 -0.00000000000E+00 -0.00000000000E+00 -0.30000000000E+02  0.30000000000E+02  0.00000000000E+00 0. -1.
          5    1    1    2  501    0  0.21176984732E+02  0.19983220517E+02  0.54878242890E+01  0.30000000000E+02  0.47000000000E+01 0.  1.
         -5    1    1    2    0  501 -0.21176984732E+02 -0.19983220517E+02 -0.54878242890E+01  0.30000000000E+02  0.47000000000E+01 0. -1.
</event>
<event>
 4    1  0.7581446E-002  0.6000000E+02  0.7546771E-02  0.1259629E+00
         11   -1    0    0    0    0  0.00000000000E+00  0.00000000000E+00  0.30000000000E+02  0.30000000000E+02  0.00000000000E+00 0.  1.
        -11   -1    0    0    0    0 -0.00000000000E+00 -0.00000000000E+00 -0.30000000000E+02  0.30000000000E+02  0.00000000000E+00 0. -1.
          5    1    1    2  501    0  0.20418870741E+02  0.58047798692E+01 -0.20670855046E+02  0.30000000000E+02  0.47000000000E+01 0. -1.
         -5    1    1    2    0  501 -0.20418870741E+02 -0.58047798692E+01  0.20670855046E+02  0.30000000000E+02  0.47000000000E+01 0.  1.
</event>
<event>
 4    1  0.7581446E-002  0.6000000E+02  0.7546771E-02  0.1259629E+00
         11   -1    0    0    0    0  0.00000000000E+00  0.00000000000E+00  0.30000000000E+02  0.30000000000E+02  0.00000000000E+00 0. -1.
        -11   -1    0    0    0    0 -0.00000000000E+00 -0.00000000000E+00 -0.30000000000E+02  0.30000000000E+02  0.00000000000E+00 0.  1.
          5    1    1    2  501    0 -0.20199750418E+02  0.21633305461E+02  0.13711957898E+01  0.30000000000E+02  0.47000000000E+01 0.  1.
         -5    1    1    2    0  501  0.20199750418E+02 -0.21633305461E+02 -0.13711957898E+01  0.30000000000E+02  0.47000000000E+01 0. -1.
</event>
<event>
 4    1  0.7581446E-002  0.6000000E+02  0.7546771E-02  0.1259629E+00
         11   -1    0    0    0    0  0.00000000000E+00  0.00000000000E+00  0.30000000000E+02  0.30000000000E+02  0.00000000000E+00 0. -1.
        -11   -1    0    0    0    0 -0.00000000000E+00 -0.00000000000E+00 -0.30000000000E+02  0.30000000000E+02  0.00000000000E+00 0.  1.
          5    1    1    2  501    0 -0.27930819276E+02 -0.43776052698E+01 -0.88665611541E+01  0.30000000000E+02  0.47000000000E+01 0.  1.
         -5    1    1    2    0  501  0.27930819276E+02  0.43776052698E+01  0.88665611541E+01  0.30000000000E+02  0.47000000000E+01 0. -1.
</event>
<event>
 4    1  0.7581446E-002  0.6000000E+02  0.7546771E-02  0.1259629E+00
         11   -1    0    0    0    0  0.00000000000E+00  0.00000000000E+00  0.30000000000E+02  0.30000000000E+02  0.00000000000E+00 0.  1.
        -11   -1    0    0    0    0 -0.00000000000E+00 -0.00000000000E+00 -0.30000000000E+02  0.30000000000E+02  0.00000000000E+00 0. -1.
          5    1    1    2  501    0  0.88431995055E+00  0.92659257781E+01 -0.28129532483E+02  0.30000000000E+02  0.47000000000E+01 0. -1.
         -5    1    1    2    0  501 -0.88431995055E+00 -0.92659257781E+01  0.28129532483E+02  0.30000000000E+02  0.47000000000E+01 0.  1.
</event>
<event>
 4    1  0.7581446E-002  0.6000000E+02  0.7546771E-02  0.1259629E+00
         11   -1    0    0    0    0  0.00000000000E+00  0.00000000000E+00  0.30000000000E+02  0.30000000000E+02  0.00000000000E+00 0.  1.
        -11   -1    0    0    0    0 -0.00000000000E+00 -0.00000000000E+00 -0.30000000000E+02  0.30000000000E+02  0.00000000000E+00 0. -1.
          5    1    1    2  501    0  0.55125975273E+01  0.26432894677E+02 -0.12199317502E+02  0.30000000000E+02  0.47000000000E+01 0. -1.
         -5    1    1    2    0  501 -0.55125975273E+01 -0.26432894677E+02  0.12199317502E+02  0.30000000000E+02  0.47000000000E+01 0.  1.
</event>
<event>
 4    1  0.7581446E-002  0.6000000E+02  0.7546771E-02  0.1259629E+00
         11   -1    0    0    0    0  0.00000000000E+00  0.00000000000E+00  0.30000000000E+02  0.30000000000E+02  0.00000000000E+00 0. -1.
        -11   -1    0    0    0    0 -0.00000000000E+00 -0.00000000000E+00 -0.30000000000E+02  0.30000000000E+02  0.00000000000E+00 0.  1.
          5    1    1    2  501    0  0.20076962093E+02  0.20610472942E+02 -0.70734714423E+01  0.30000000000E+02  0.47000000000E+01 0.  1.
         -5    1    1    2    0  501 -0.20076962093E+02 -0.20610472942E+02  0.70734714423E+01  0.30000000000E+02  0.47000000000E+01 0. -1.
</event>
<event>
 4    1  0.7581446E-002  0.6000000E+02  0.7546771E-02  0.1259629E+00
         11   -1    0    0    0    0  0.00000000000E+00  0.00000000000E+00  0.30000000000E+02  0.30000000000E+02  0.00000000000E+00 0.  1.
        -11   -1    0    0    0    0 -0.00000000000E+00 -0.00000000000E+00 -0.30000000000E+02  0.30000000000E+02  0.00000000000E+00 0. -1.
          5    1    1    2  501    0 -0.24545765004E+02  0.12805516268E+02 -0.10556238604E+02  0.30000000000E+02  0.47000000000E+01 0.  1.
         -5    1    1    2    0  501  0.24545765004E+02 -0.12805516268E+02  0.10556238604E+02  0.30000000000E+02  0.47000000000E+01 0. -1.
</event>
<event>
 4    1  0.7581446E-002  0.6000000E+02  0.7546771E-02  0.1259629E+00
         11   -1    0    0    0    0  0.00000000000E+00  0.00000000000E+00  0.30000000000E+02  0.30000000000E+02  0.00000000000E+00 0.  1.
        -11   -1    0    0    0    0 -0.00000000000E+00 -0.00000000000E+00 -0.30000000000E+02  0.30000000000E+02  0.00000000000E+00 0. -1.
          5    1    1    2  501    0  0.19867106391E+02 -0.12276789248E+01 -0.21947685256E+02  0.30000000000E+02  0.47000000000E+01 0. -1.
         -5    1    1    2    0  501 -0.19867106391E+02  0.12276789248E+01  0.21947685256E+02  0.30000000000E+02  0.47000000000E+01 0.  1.
</event>
<event>
 4    1  0.7581446E-002  0.6000000E+02  0.7546771E-02  0.1259629E+00
         11   -1    0    0    0    0  0.00000000000E+00  0.00000000000E+00  0.30000000000E+02  0.30000000000E+02  0.00000000000E+00 0.  1.
        -11   -1    0    0    0    0 -0.00000000000E+00 -0.00000000000E+00 -0.30000000000E+02  0.30000000000E+02  0.00000000000E+00 0. -1.
          5    1    1    2  501    0  0.12085641923E+02  0.24623257598E+02 -0.11204572485E+02  0.30000000000E+02  0.47000000000E+01 0. -1.
         -5    1    1    2    0  501 -0.12085641923E+02 -0.24623257598E+02  0.11204572485E+02  0.30000000000E+02  0.47000000000E+01 0.  1.
</event>
<event>
 4    1  0.7581446E-002  0.6000000E+02  0.7546771E-02  0.1259629E+00
         11   -1    0    0    0    0  0.00000000000E+00  0.00000000000E+00  0.30000000000E+02  0.30000000000E+02  0.00000000000E+00 0.  1.
        -11   -1    0    0    0    0 -0.00000000000E+00 -0.00000000000E+00 -0.30000000000E+02  0.30000000000E+02  0.00000000000E+00 0. -1.
          5    1    1    2  501    0 -0.50846421499E+01  0.12927253447E+02  0.26171406774E+02  0.30000000000E+02  0.47000000000E+01 0.  1.
         -5    1    1    2    0  501  0.50846421499E+01 -0.12927253447E+02 -0.26171406774E+02  0.30000000000E+02  0.47000000000E+01 0. -1.
</event>
<event>
 4    1  0.7581446E-002  0.6000000E+02  0.7546771E-02  0.1259629E+00
         11   -1    0    0    0    0  0.00000000000E+00  0.00000000000E+00  0.30000000000E+02  0.30000000000E+02  0.00000000000E+00 0.  1.
        -11   -1    0    0    0    0 -0.00000000000E+00 -0.00000000000E+00 -0.30000000000E+02  0.30000000000E+02  0.00000000000E+00 0. -1.
          5    1    1    2  501    0  0.13483887952E+02 -0.29887300536E+01 -0.26213779933E+02  0.30000000000E+02  0.47000000000E+01 0. -1.
         -5    1    1    2    0  501 -0.13483887952E+02  0.29887300536E+01  0.26213779933E+02  0.30000000000E+02  0.47000000000E+01 0.  1.
</event>
<event>
 4    1  0.7581446E-002  0.6000000E+02  0.7546771E-02  0.1259629E+00
         11   -1    0    0    0    0  0.00000000000E+00  0.00000000000E+00  0.30000000000E+02  0.30000000000E+02  0.00000000000E+00 0. -1.
        -11   -1    0    0    0    0 -0.00000000000E+00 -0.00000000000E+00 -0.30000000000E+02  0.30000000000E+02  0.00000000000E+00 0.  1.
          5    1    1    2  501    0  0.13721058391E+02  0.12296659262E+01 -0.26232241199E+02  0.30000000000E+02  0.47000000000E+01 0.  1.
         -5    1    1    2    0  501 -0.13721058391E+02 -0.12296659262E+01  0.26232241199E+02  0.30000000000E+02  0.47000000000E+01 0. -1.
</event>
<event>
 4    1  0.7581446E-002  0.6000000E+02  0.7546771E-02  0.1259629E+00
         11   -1    0    0    0    0  0.00000000000E+00  0.00000000000E+00  0.30000000000E+02  0.30000000000E+02  0.00000000000E+00 0.  1.
        -11   -1    0    0    0    0 -0.00000000000E+00 -0.00000000000E+00 -0.30000000000E+02  0.30000000000E+02  0.00000000000E+00 0. -1.
          5    1    1    2  501    0  0.17551690071E+02  0.23690468464E+02 -0.29342596413E+01  0.30000000000E+02  0.47000000000E+01 0. -1.
         -5    1    1    2    0  501 -0.17551690071E+02 -0.23690468464E+02  0.29342596413E+01  0.30000000000E+02  0.47000000000E+01 0.  1.
</event>
<event>
 4    1  0.7581446E-002  0.6000000E+02  0.7546771E-02  0.1259629E+00
         11   -1    0    0    0    0  0.00000000000E+00  0.00000000000E+00  0.30000000000E+02  0.30000000000E+02  0.00000000000E+00 0.  1.
        -11   -1    0    0    0    0 -0.00000000000E+00 -0.00000000000E+00 -0.30000000000E+02  0.30000000000E+02  0.00000000000E+00 0. -1.
          5    1    1    2  501    0  0.14828763518E+02  0.25579814984E+01 -0.25523998574E+02  0.30000000000E+02  0.47000000000E+01 0. -1.
         -5    1    1    2    0  501 -0.14828763518E+02 -0.25579814984E+01  0.25523998574E+02  0.30000000000E+02  0.47000000000E+01 0.  1.
</event>
<event>
 4    1  0.7581446E-002  0.6000000E+02  0.7546771E-02  0.1259629E+00
         11   -1    0    0    0    0  0.00000000000E+00  0.00000000000E+00  0.30000000000E+02  0.30000000000E+02  0.00000000000E+00 0.  1.
        -11   -1    0    0    0    0 -0.00000000000E+00 -0.00000000000E+00 -0.30000000000E+02  0.30000000000E+02  0.00000000000E+00 0. -1.
          5    1    1    2  501    0 -0.76429500938E+01  0.21766699765E+02 -0.18593173349E+02  0.30000000000E+02  0.47000000000E+01 0. -1.
         -5    1    1    2    0  501  0.76429500938E+01 -0.21766699765E+02  0.18593173349E+02  0.30000000000E+02  0.47000000000E+01 0.  1.
</event>
<event>
 4    1  0.7581446E-002  0.6000000E+02  0.7546771E-02  0.1259629E+00
         11   -1    0    0    0    0  0.00000000000E+00  0.00000000000E+00  0.30000000000E+02  0.30000000000E+02  0.00000000000E+00 0.  1.
        -11   -1    0    0    0    0 -0.00000000000E+00 -0.00000000000E+00 -0.30000000000E+02  0.30000000000E+02  0.00000000000E+00 0. -1.
          5    1    1    2  501    0  0.79394537772E+00  0.10964993760E+02 -0.27514515489E+02  0.30000000000E+02  0.47000000000E+01 0. -1.
         -5    1    1    2    0  501 -0.79394537772E+00 -0.10964993760E+02  0.27514515489E+02  0.30000000000E+02  0.47000000000E+01 0.  1.
</event>
<event>
 4    1  0.7581446E-002  0.6000000E+02  0.7546771E-02  0.1259629E+00
         11   -1    0    0    0    0  0.00000000000E+00  0.00000000000E+00  0.30000000000E+02  0.30000000000E+02  0.00000000000E+00 0.  1.
        -11   -1    0    0    0    0 -0.00000000000E+00 -0.00000000000E+00 -0.30000000000E+02  0.30000000000E+02  0.00000000000E+00 0. -1.
          5    1    1    2  501    0  0.26832453722E+02 -0.12304250164E+02 -0.25563362738E+01  0.30000000000E+02  0.47000000000E+01 0. -1.
         -5    1    1    2    0  501 -0.26832453722E+02  0.12304250164E+02  0.25563362738E+01  0.30000000000E+02  0.47000000000E+01 0.  1.
</event>
<event>
 4    1  0.7581446E-002  0.6000000E+02  0.7546771E-02  0.1259629E+00
         11   -1    0    0    0    0  0.00000000000E+00  0.00000000000E+00  0.30000000000E+02  0.30000000000E+02  0.00000000000E+00 0. -1.
        -11   -1    0    0    0    0 -0.00000000000E+00 -0.00000000000E+00 -0.30000000000E+02  0.30000000000E+02  0.00000000000E+00 0.  1.
          5    1    1    2  501    0  0.10753904601E+01  0.23932206474E+02  0.17435682626E+02  0.30000000000E+02  0.47000000000E+01 0. -1.
         -5    1    1    2    0  501 -0.10753904601E+01 -0.23932206474E+02 -0.17435682626E+02  0.30000000000E+02  0.47000000000E+01 0.  1.
</event>
<event>
 4    1  0.7581446E-002  0.6000000E+02  0.7546771E-02  0.1259629E+00
         11   -1    0    0    0    0  0.00000000000E+00  0.00000000000E+00  0.30000000000E+02  0.30000000000E+02  0.00000000000E+00 0. -1.
        -11   -1    0    0    0    0 -0.00000000000E+00 -0.00000000000E+00 -0.30000000000E+02  0.30000000000E+02  0.00000000000E+00 0.  1.
          5    1    1    2  501    0 -0.15119106068E+02 -0.24002224547E+02  0.85566259990E+01  0.30000000000E+02  0.47000000000E+01 0.  1.
         -5    1    1    2    0  501  0.15119106068E+02  0.24002224547E+02 -0.85566259990E+01  0.30000000000E+02  0.47000000000E+01 0. -1.
</event>
<event>
 4    1  0.7581446E-002  0.6000000E+02  0.7546771E-02  0.1259629E+00
         11   -1    0    0    0    0  0.00000000000E+00  0.00000000000E+00  0.30000000000E+02  0.30000000000E+02  0.00000000000E+00 0.  1.
        -11   -1    0    0    0    0 -0.00000000000E+00 -0.00000000000E+00 -0.30000000000E+02  0.30000000000E+02  0.00000000000E+00 0. -1.
          5    1    1    2  501    0  0.27391287022E+02 -0.11297227976E+02  0.59454619079E-02  0.30000000000E+02  0.47000000000E+01 0. -1.
         -5    1    1    2    0  501 -0.27391287022E+02  0.11297227976E+02 -0.59454619079E-02  0.30000000000E+02  0.47000000000E+01 0.  1.
</event>
<event>
 4    1  0.7581446E-002  0.6000000E+02  0.7546771E-02  0.1259629E+00
         11   -1    0    0    0    0  0.00000000000E+00  0.00000000000E+00  0.30000000000E+02  0.30000000000E+02  0.00000000000E+00 0.  1.
        -11   -1    0    0    0    0 -0.00000000000E+00 -0.00000000000E+00 -0.30000000000E+02  0.30000000000E+02  0.00000000000E+00 0. -1.
          5    1    1    2  501    0  0.18279107834E+02 -0.22332404708E+02 -0.67117744845E+01  0.30000000000E+02  0.47000000000E+01 0. -1.
         -5    1    1    2    0  501 -0.18279107834E+02  0.22332404708E+02  0.67117744845E+01  0.30000000000E+02  0.47000000000E+01 0.  1.
</event>
<event>
 4    1  0.7581446E-002  0.6000000E+02  0.7546771E-02  0.1259629E+00
         11   -1    0    0    0    0  0.00000000000E+00  0.00000000000E+00  0.30000000000E+02  0.30000000000E+02  0.00000000000E+00 0.  1.
        -11   -1    0    0    0    0 -0.00000000000E+00 -0.00000000000E+00 -0.30000000000E+02  0.30000000000E+02  0.00000000000E+00 0. -1.
          5    1    1    2  501    0  0.75935845012E+01 -0.11222368849E+02 -0.26349685232E+02  0.30000000000E+02  0.47000000000E+01 0. -1.
         -5    1    1    2    0  501 -0.75935845012E+01  0.11222368849E+02  0.26349685232E+02  0.30000000000E+02  0.47000000000E+01 0.  1.
</event>
<event>
 4    1  0.7581446E-002  0.6000000E+02  0.7546771E-02  0.1259629E+00
         11   -1    0    0    0    0  0.00000000000E+00  0.00000000000E+00  0.30000000000E+02  0.30000000000E+02  0.00000000000E+00 0.  1.
        -11   -1    0    0    0    0 -0.00000000000E+00 -0.00000000000E+00 -0.30000000000E+02  0.30000000000E+02  0.00000000000E+00 0. -1.
          5    1    1    2  501    0  0.12911190691E+02  0.26173135383E+02 -0.51164576746E+01  0.30000000000E+02  0.47000000000E+01 0. -1.
         -5    1    1    2    0  501 -0.12911190691E+02 -0.26173135383E+02  0.51164576746E+01  0.30000000000E+02  0.47000000000E+01 0.  1.
</event>
<event>
 4    1  0.7581446E-002  0.6000000E+02  0.7546771E-02  0.1259629E+00
         11   -1    0    0    0    0  0.00000000000E+00  0.00000000000E+00  0.30000000000E+02  0.30000000000E+02  0.00000000000E+00 0.  1.
        -11   -1    0    0    0    0 -0.00000000000E+00 -0.00000000000E+00 -0.30000000000E+02  0.30000000000E+02  0.00000000000E+00 0. -1.
          5    1    1    2  501    0 -0.28598754841E+02  0.49323673013E+01 -0.59743597456E+01  0.30000000000E+02  0.47000000000E+01 0. -1.
         -5    1    1    2    0  501  0.28598754841E+02 -0.49323673013E+01  0.59743597456E+01  0.30000000000E+02  0.47000000000E+01 0.  1.
</event>
<event>
 4    1  0.7581446E-002  0.6000000E+02  0.7546771E-02  0.1259629E+00
         11   -1    0    0    0    0  0.00000000000E+00  0.00000000000E+00  0.30000000000E+02  0.30000000000E+02  0.00000000000E+00 0.  1.
        -11   -1    0    0    0    0 -0.00000000000E+00 -0.00000000000E+00 -0.30000000000E+02  0.30000000000E+02  0.00000000000E+00 0. -1.
          5    1    1    2  501    0  0.23450998843E+02 -0.65052456324E+01 -0.16900959516E+02  0.30000000000E+02  0.47000000000E+01 0. -1.
         -5    1    1    2    0  501 -0.23450998843E+02  0.65052456324E+01  0.16900959516E+02  0.30000000000E+02  0.47000000000E+01 0.  1.
</event>
<event>
 4    1  0.7581446E-002  0.6000000E+02  0.7546771E-02  0.1259629E+00
         11   -1    0    0    0    0  0.00000000000E+00  0.00000000000E+00  0.30000000000E+02  0.30000000000E+02  0.00000000000E+00 0. -1.
        -11   -1    0    0    0    0 -0.00000000000E+00 -0.00000000000E+00 -0.30000000000E+02  0.30000000000E+02  0.00000000000E+00 0.  1.
          5    1    1    2  501    0 -0.21142920666E+02 -0.17059815164E+02 -0.11825802817E+02  0.30000000000E+02  0.47000000000E+01 0.  1.
         -5    1    1    2    0  501  0.21142920666E+02  0.17059815164E+02  0.11825802817E+02  0.30000000000E+02  0.47000000000E+01 0. -1.
</event>
<event>
 4    1  0.7581446E-002  0.6000000E+02  0.7546771E-02  0.1259629E+00
         11   -1    0    0    0    0  0.00000000000E+00  0.00000000000E+00  0.30000000000E+02  0.30000000000E+02  0.00000000000E+00 0.  1.
        -11   -1    0    0    0    0 -0.00000000000E+00 -0.00000000000E+00 -0.30000000000E+02  0.30000000000E+02  0.00000000000E+00 0. -1.
          5    1    1    2  501    0  0.77963847964E+01 -0.25090016187E+02 -0.13697352731E+02  0.30000000000E+02  0.47000000000E+01 0. -1.
         -5    1    1    2    0  501 -0.77963847964E+01  0.25090016187E+02  0.13697352731E+02  0.30000000000E+02  0.47000000000E+01 0.  1.
</event>
<event>
 4    1  0.7581446E-002  0.6000000E+02  0.7546771E-02  0.1259629E+00
         11   -1    0    0    0    0  0.00000000000E+00  0.00000000000E+00  0.30000000000E+02  0.30000000000E+02  0.00000000000E+00 0.  1.
        -11   -1    0    0    0    0 -0.00000000000E+00 -0.00000000000E+00 -0.30000000000E+02  0.30000000000E+02  0.00000000000E+00 0. -1.
          5    1    1    2  501    0 -0.14950813076E+02 -0.24629303741E+02 -0.69123502222E+01  0.30000000000E+02  0.47000000000E+01 0. -1.
         -5    1    1    2    0  501  0.14950813076E+02  0.24629303741E+02  0.69123502222E+01  0.30000000000E+02  0.47000000000E+01 0.  1.
</event>
<event>
 4    1  0.7581446E-002  0.6000000E+02  0.7546771E-02  0.1259629E+00
         11   -1    0    0    0    0  0.00000000000E+00  0.00000000000E+00  0.30000000000E+02  0.30000000000E+02  0.00000000000E+00 0.  1.
        -11   -1    0    0    0    0 -0.00000000000E+00 -0.00000000000E+00 -0.30000000000E+02  0.30000000000E+02  0.00000000000E+00 0. -1.
          5    1    1    2  501    0  0.26297021693E+02 -0.27049911900E+01 -0.13381318049E+02  0.30000000000E+02  0.47000000000E+01 0. -1.
         -5    1    1    2    0  501 -0.26297021693E+02  0.27049911900E+01  0.13381318049E+02  0.30000000000E+02  0.47000000000E+01 0.  1.
</event>
<event>
 4    1  0.7581446E-002  0.6000000E+02  0.7546771E-02  0.1259629E+00
         11   -1    0    0    0    0  0.00000000000E+00  0.00000000000E+00  0.30000000000E+02  0.30000000000E+02  0.00000000000E+00 0.  1.
        -11   -1    0    0    0    0 -0.00000000000E+00 -0.00000000000E+00 -0.30000000000E+02  0.30000000000E+02  0.00000000000E+00 0. -1.
          5    1    1    2  501    0  0.17891343841E+02 -0.22661590955E+02 -0.66529776005E+01  0.30000000000E+02  0.47000000000E+01 0. -1.
         -5    1    1    2    0  501 -0.17891343841E+02  0.22661590955E+02  0.66529776005E+01  0.30000000000E+02  0.47000000000E+01 0. -1.
</event>
<event>
 4    1  0.7581446E-002  0.6000000E+02  0.7546771E-02  0.1259629E+00
         11   -1    0    0    0    0  0.00000000000E+00  0.00000000000E+00  0.30000000000E+02  0.30000000000E+02  0.00000000000E+00 0.  1.
        -11   -1    0    0    0    0 -0.00000000000E+00 -0.00000000000E+00 -0.30000000000E+02  0.30000000000E+02  0.00000000000E+00 0. -1.
          5    1    1    2  501    0  0.24121609663E+02 -0.14085978100E+02  0.98814557740E+01  0.30000000000E+02  0.47000000000E+01 0.  1.
         -5    1    1    2    0  501 -0.24121609663E+02  0.14085978100E+02 -0.98814557740E+01  0.30000000000E+02  0.47000000000E+01 0. -1.
</event>
<event>
 4    1  0.7581446E-002  0.6000000E+02  0.7546771E-02  0.1259629E+00
         11   -1    0    0    0    0  0.00000000000E+00  0.00000000000E+00  0.30000000000E+02  0.30000000000E+02  0.00000000000E+00 0.  1.
        -11   -1    0    0    0    0 -0.00000000000E+00 -0.00000000000E+00 -0.30000000000E+02  0.30000000000E+02  0.00000000000E+00 0. -1.
          5    1    1    2  501    0 -0.79313462240E+01  0.48691606073E+01 -0.28129966620E+02  0.30000000000E+02  0.47000000000E+01 0. -1.
         -5    1    1    2    0  501  0.79313462240E+01 -0.48691606073E+01  0.28129966620E+02  0.30000000000E+02  0.47000000000E+01 0.  1.
</event>
<event>
 4    1  0.7581446E-002  0.6000000E+02  0.7546771E-02  0.1259629E+00
         11   -1    0    0    0    0  0.00000000000E+00  0.00000000000E+00  0.30000000000E+02  0.30000000000E+02  0.00000000000E+00 0.  1.
        -11   -1    0    0    0    0 -0.00000000000E+00 -0.00000000000E+00 -0.30000000000E+02  0.30000000000E+02  0.00000000000E+00 0. -1.
          5    1    1    2  501    0 -0.26632610800E+02  0.49960454036E+01 -0.11985556820E+02  0.30000000000E+02  0.47000000000E+01 0. -1.
         -5    1    1    2    0  501  0.26632610800E+02 -0.49960454036E+01  0.11985556820E+02  0.30000000000E+02  0.47000000000E+01 0.  1.
</event>
<event>
 4    1  0.7581446E-002  0.6000000E+02  0.7546771E-02  0.1259629E+00
         11   -1    0    0    0    0  0.00000000000E+00  0.00000000000E+00  0.30000000000E+02  0.30000000000E+02  0.00000000000E+00 0.  1.
        -11   -1    0    0    0    0 -0.00000000000E+00 -0.00000000000E+00 -0.30000000000E+02  0.30000000000E+02  0.00000000000E+00 0. -1.
          5    1    1    2  501    0 -0.29441840549E+02  0.27694588554E+01  0.18488165847E+01  0.30000000000E+02  0.47000000000E+01 0. -1.
         -5    1    1    2    0  501  0.29441840549E+02 -0.27694588554E+01 -0.18488165847E+01  0.30000000000E+02  0.47000000000E+01 0.  1.
</event>
<event>
 4    1  0.7581446E-002  0.6000000E+02  0.7546771E-02  0.1259629E+00
         11   -1    0    0    0    0  0.00000000000E+00  0.00000000000E+00  0.30000000000E+02  0.30000000000E+02  0.00000000000E+00 0.  1.
        -11   -1    0    0    0    0 -0.00000000000E+00 -0.00000000000E+00 -0.30000000000E+02  0.30000000000E+02  0.00000000000E+00 0. -1.
          5    1    1    2  501    0  0.98237154705E+01 -0.24068773464E+02 -0.14216144283E+02  0.30000000000E+02  0.47000000000E+01 0. -1.
         -5    1    1    2    0  501 -0.98237154705E+01  0.24068773464E+02  0.14216144283E+02  0.30000000000E+02  0.47000000000E+01 0.  1.
</event>
<event>
 4    1  0.7581446E-002  0.6000000E+02  0.7546771E-02  0.1259629E+00
         11   -1    0    0    0    0  0.00000000000E+00  0.00000000000E+00  0.30000000000E+02  0.30000000000E+02  0.00000000000E+00 0. -1.
        -11   -1    0    0    0    0 -0.00000000000E+00 -0.00000000000E+00 -0.30000000000E+02  0.30000000000E+02  0.00000000000E+00 0.  1.
          5    1    1    2  501    0 -0.12988040779E+02 -0.94730558338E+01 -0.24889395531E+02  0.30000000000E+02  0.47000000000E+01 0.  1.
         -5    1    1    2    0  501  0.12988040779E+02  0.94730558338E+01  0.24889395531E+02  0.30000000000E+02  0.47000000000E+01 0. -1.
</event>
<event>
 4    1  0.7581446E-002  0.6000000E+02  0.7546771E-02  0.1259629E+00
         11   -1    0    0    0    0  0.00000000000E+00  0.00000000000E+00  0.30000000000E+02  0.30000000000E+02  0.00000000000E+00 0.  1.
        -11   -1    0    0    0    0 -0.00000000000E+00 -0.00000000000E+00 -0.30000000000E+02  0.30000000000E+02  0.00000000000E+00 0. -1.
          5    1    1    2  501    0 -0.25942382249E+02 -0.10688566524E+02  0.95214152802E+01  0.30000000000E+02  0.47000000000E+01 0.  1.
         -5    1    1    2    0  501  0.25942382249E+02  0.10688566524E+02 -0.95214152802E+01  0.30000000000E+02  0.47000000000E+01 0. -1.
</event>
<event>
 4    1  0.7581446E-002  0.6000000E+02  0.7546771E-02  0.1259629E+00
         11   -1    0    0    0    0  0.00000000000E+00  0.00000000000E+00  0.30000000000E+02  0.30000000000E+02  0.00000000000E+00 0.  1.
        -11   -1    0    0    0    0 -0.00000000000E+00 -0.00000000000E+00 -0.30000000000E+02  0.30000000000E+02  0.00000000000E+00 0. -1.
          5    1    1    2  501    0  0.28752834471E+01 -0.16137143706E+02 -0.24682693089E+02  0.30000000000E+02  0.47000000000E+01 0. -1.
         -5    1    1    2    0  501 -0.28752834471E+01  0.16137143706E+02  0.24682693089E+02  0.30000000000E+02  0.47000000000E+01 0.  1.
</event>
<event>
 4    1  0.7581446E-002  0.6000000E+02  0.7546771E-02  0.1259629E+00
         11   -1    0    0    0    0  0.00000000000E+00  0.00000000000E+00  0.30000000000E+02  0.30000000000E+02  0.00000000000E+00 0.  1.
        -11   -1    0    0    0    0 -0.00000000000E+00 -0.00000000000E+00 -0.30000000000E+02  0.30000000000E+02  0.00000000000E+00 0. -1.
          5    1    1    2  501    0  0.24668066412E+00  0.24579925457E+02 -0.16543168172E+02  0.30000000000E+02  0.47000000000E+01 0. -1.
         -5    1    1    2    0  501 -0.24668066412E+00 -0.24579925457E+02  0.16543168172E+02  0.30000000000E+02  0.47000000000E+01 0.  1.
</event>
<event>
 4    1  0.7581446E-002  0.6000000E+02  0.7546771E-02  0.1259629E+00
         11   -1    0    0    0    0  0.00000000000E+00  0.00000000000E+00  0.30000000000E+02  0.30000000000E+02  0.00000000000E+00 0.  1.
        -11   -1    0    0    0    0 -0.00000000000E+00 -0.00000000000E+00 -0.30000000000E+02  0.30000000000E+02  0.00000000000E+00 0. -1.
          5    1    1    2  501    0  0.14109802186E+02 -0.13957227721E+02 -0.22000438101E+02  0.30000000000E+02  0.47000000000E+01 0. -1.
         -5    1    1    2    0  501 -0.14109802186E+02  0.13957227721E+02  0.22000438101E+02  0.30000000000E+02  0.47000000000E+01 0.  1.
</event>
<event>
 4    1  0.7581446E-002  0.6000000E+02  0.7546771E-02  0.1259629E+00
         11   -1    0    0    0    0  0.00000000000E+00  0.00000000000E+00  0.30000000000E+02  0.30000000000E+02  0.00000000000E+00 0.  1.
        -11   -1    0    0    0    0 -0.00000000000E+00 -0.00000000000E+00 -0.30000000000E+02  0.30000000000E+02  0.00000000000E+00 0. -1.
          5    1    1    2  501    0  0.19738615137E+02  0.78046903026E+01 -0.20673264903E+02  0.30000000000E+02  0.47000000000E+01 0. -1.
         -5    1    1    2    0  501 -0.19738615137E+02 -0.78046903026E+01  0.20673264903E+02  0.30000000000E+02  0.47000000000E+01 0.  1.
</event>
<event>
 4    1  0.7581446E-002  0.6000000E+02  0.7546771E-02  0.1259629E+00
         11   -1    0    0    0    0  0.00000000000E+00  0.00000000000E+00  0.30000000000E+02  0.30000000000E+02  0.00000000000E+00 0. -1.
        -11   -1    0    0    0    0 -0.00000000000E+00 -0.00000000000E+00 -0.30000000000E+02  0.30000000000E+02  0.00000000000E+00 0.  1.
          5    1    1    2  501    0 -0.25412181621E+02  0.15235551216E+02  0.94891442896E-01  0.30000000000E+02  0.47000000000E+01 0.  1.
         -5    1    1    2    0  501  0.25412181621E+02 -0.15235551216E+02 -0.94891442896E-01  0.30000000000E+02  0.47000000000E+01 0. -1.
</event>
<event>
 4    1  0.7581446E-002  0.6000000E+02  0.7546771E-02  0.1259629E+00
         11   -1    0    0    0    0  0.00000000000E+00  0.00000000000E+00  0.30000000000E+02  0.30000000000E+02  0.00000000000E+00 0.  1.
        -11   -1    0    0    0    0 -0.00000000000E+00 -0.00000000000E+00 -0.30000000000E+02  0.30000000000E+02  0.00000000000E+00 0. -1.
          5    1    1    2  501    0  0.47754451820E+01 -0.23980661162E+02 -0.16734186970E+02  0.30000000000E+02  0.47000000000E+01 0. -1.
         -5    1    1    2    0  501 -0.47754451820E+01  0.23980661162E+02  0.16734186970E+02  0.30000000000E+02  0.47000000000E+01 0.  1.
</event>
<event>
 4    1  0.7581446E-002  0.6000000E+02  0.7546771E-02  0.1259629E+00
         11   -1    0    0    0    0  0.00000000000E+00  0.00000000000E+00  0.30000000000E+02  0.30000000000E+02  0.00000000000E+00 0. -1.
        -11   -1    0    0    0    0 -0.00000000000E+00 -0.00000000000E+00 -0.30000000000E+02  0.30000000000E+02  0.00000000000E+00 0.  1.
          5    1    1    2  501    0  0.90955376547E+01 -0.25980087114E+02 -0.10964317961E+02  0.30000000000E+02  0.47000000000E+01 0.  1.
         -5    1    1    2    0  501 -0.90955376547E+01  0.25980087114E+02  0.10964317961E+02  0.30000000000E+02  0.47000000000E+01 0. -1.
</event>
<event>
 4    1  0.7581446E-002  0.6000000E+02  0.7546771E-02  0.1259629E+00
         11   -1    0    0    0    0  0.00000000000E+00  0.00000000000E+00  0.30000000000E+02  0.30000000000E+02  0.00000000000E+00 0.  1.
        -11   -1    0    0    0    0 -0.00000000000E+00 -0.00000000000E+00 -0.30000000000E+02  0.30000000000E+02  0.00000000000E+00 0. -1.
          5    1    1    2  501    0  0.14358904496E+02  0.25849616414E+02  0.18786146272E+01  0.30000000000E+02  0.47000000000E+01 0. -1.
         -5    1    1    2    0  501 -0.14358904496E+02 -0.25849616414E+02 -0.18786146272E+01  0.30000000000E+02  0.47000000000E+01 0.  1.
</event>
<event>
 4    1  0.7581446E-002  0.6000000E+02  0.7546771E-02  0.1259629E+00
         11   -1    0    0    0    0  0.00000000000E+00  0.00000000000E+00  0.30000000000E+02  0.30000000000E+02  0.00000000000E+00 0. -1.
        -11   -1    0    0    0    0 -0.00000000000E+00 -0.00000000000E+00 -0.30000000000E+02  0.30000000000E+02  0.00000000000E+00 0.  1.
          5    1    1    2  501    0  0.20011783949E+02 -0.19960145182E+02 -0.88899441782E+01  0.30000000000E+02  0.47000000000E+01 0.  1.
         -5    1    1    2    0  501 -0.20011783949E+02  0.19960145182E+02  0.88899441782E+01  0.30000000000E+02  0.47000000000E+01 0. -1.
</event>
<event>
 4    1  0.7581446E-002  0.6000000E+02  0.7546771E-02  0.1259629E+00
         11   -1    0    0    0    0  0.00000000000E+00  0.00000000000E+00  0.30000000000E+02  0.30000000000E+02  0.00000000000E+00 0.  1.
        -11   -1    0    0    0    0 -0.00000000000E+00 -0.00000000000E+00 -0.30000000000E+02  0.30000000000E+02  0.00000000000E+00 0. -1.
          5    1    1    2  501    0  0.15951955749E+02 -0.24704986012E+02  0.36206040872E+01  0.30000000000E+02  0.47000000000E+01 0. -1.
         -5    1    1    2    0  501 -0.15951955749E+02  0.24704986012E+02 -0.36206040872E+01  0.30000000000E+02  0.47000000000E+01 0.  1.
</event>
<event>
 4    1  0.7581446E-002  0.6000000E+02  0.7546771E-02  0.1259629E+00
         11   -1    0    0    0    0  0.00000000000E+00  0.00000000000E+00  0.30000000000E+02  0.30000000000E+02  0.00000000000E+00 0.  1.
        -11   -1    0    0    0    0 -0.00000000000E+00 -0.00000000000E+00 -0.30000000000E+02  0.30000000000E+02  0.00000000000E+00 0. -1.
          5    1    1    2  501    0  0.24962894772E+02  0.86039271100E+01 -0.13443820993E+02  0.30000000000E+02  0.47000000000E+01 0. -1.
         -5    1    1    2    0  501 -0.24962894772E+02 -0.86039271100E+01  0.13443820993E+02  0.30000000000E+02  0.47000000000E+01 0.  1.
</event>
<event>
 4    1  0.7581446E-002  0.6000000E+02  0.7546771E-02  0.1259629E+00
         11   -1    0    0    0    0  0.00000000000E+00  0.00000000000E+00  0.30000000000E+02  0.30000000000E+02  0.00000000000E+00 0.  1.
        -11   -1    0    0    0    0 -0.00000000000E+00 -0.00000000000E+00 -0.30000000000E+02  0.30000000000E+02  0.00000000000E+00 0. -1.
          5    1    1    2  501    0 -0.26899221967E+01  0.28966954939E+02 -0.56204839786E+01  0.30000000000E+02  0.47000000000E+01 0. -1.
         -5    1    1    2    0  501  0.26899221967E+01 -0.28966954939E+02  0.56204839786E+01  0.30000000000E+02  0.47000000000E+01 0.  1.
</event>
<event>
 4    1  0.7581446E-002  0.6000000E+02  0.7546771E-02  0.1259629E+00
         11   -1    0    0    0    0  0.00000000000E+00  0.00000000000E+00  0.30000000000E+02  0.30000000000E+02  0.00000000000E+00 0.  1.
        -11   -1    0    0    0    0 -0.00000000000E+00 -0.00000000000E+00 -0.30000000000E+02  0.30000000000E+02  0.00000000000E+00 0. -1.
          5    1    1    2  501    0  0.24090089795E+02  0.27779505205E+01 -0.17025291908E+02  0.30000000000E+02  0.47000000000E+01 0. -1.
         -5    1    1    2    0  501 -0.24090089795E+02 -0.27779505205E+01  0.17025291908E+02  0.30000000000E+02  0.47000000000E+01 0.  1.
</event>
<event>
 4    1  0.7581446E-002  0.6000000E+02  0.7546771E-02  0.1259629E+00
         11   -1    0    0    0    0  0.00000000000E+00  0.00000000000E+00  0.30000000000E+02  0.30000000000E+02  0.00000000000E+00 0.  1.
        -11   -1    0    0    0    0 -0.00000000000E+00 -0.00000000000E+00 -0.30000000000E+02  0.30000000000E+02  0.00000000000E+00 0. -1.
          5    1    1    2  501    0  0.14515767557E+02  0.24702141496E+02 -0.75502779900E+01  0.30000000000E+02  0.47000000000E+01 0. -1.
         -5    1    1    2    0  501 -0.14515767557E+02 -0.24702141496E+02  0.75502779900E+01  0.30000000000E+02  0.47000000000E+01 0.  1.
</event>
<event>
 4    1  0.7581446E-002  0.6000000E+02  0.7546771E-02  0.1259629E+00
         11   -1    0    0    0    0  0.00000000000E+00  0.00000000000E+00  0.30000000000E+02  0.30000000000E+02  0.00000000000E+00 0. -1.
        -11   -1    0    0    0    0 -0.00000000000E+00 -0.00000000000E+00 -0.30000000000E+02  0.30000000000E+02  0.00000000000E+00 0.  1.
          5    1    1    2  501    0  0.47935657426E+01 -0.23366363057E+02 -0.17576825793E+02  0.30000000000E+02  0.47000000000E+01 0.  1.
         -5    1    1    2    0  501 -0.47935657426E+01  0.23366363057E+02  0.17576825793E+02  0.30000000000E+02  0.47000000000E+01 0. -1.
</event>
<event>
 4    1  0.7581446E-002  0.6000000E+02  0.7546771E-02  0.1259629E+00
         11   -1    0    0    0    0  0.00000000000E+00  0.00000000000E+00  0.30000000000E+02  0.30000000000E+02  0.00000000000E+00 0. -1.
        -11   -1    0    0    0    0 -0.00000000000E+00 -0.00000000000E+00 -0.30000000000E+02  0.30000000000E+02  0.00000000000E+00 0.  1.
          5    1    1    2  501    0 -0.20683672129E+02 -0.36633129602E+01 -0.20896790314E+02  0.30000000000E+02  0.47000000000E+01 0.  1.
         -5    1    1    2    0  501  0.20683672129E+02  0.36633129602E+01  0.20896790314E+02  0.30000000000E+02  0.47000000000E+01 0. -1.
</event>
<event>
 4    1  0.7581446E-002  0.6000000E+02  0.7546771E-02  0.1259629E+00
         11   -1    0    0    0    0  0.00000000000E+00  0.00000000000E+00  0.30000000000E+02  0.30000000000E+02  0.00000000000E+00 0. -1.
        -11   -1    0    0    0    0 -0.00000000000E+00 -0.00000000000E+00 -0.30000000000E+02  0.30000000000E+02  0.00000000000E+00 0.  1.
          5    1    1    2  501    0  0.11999948172E+01 -0.15329576611E+02 -0.25327338853E+02  0.30000000000E+02  0.47000000000E+01 0.  1.
         -5    1    1    2    0  501 -0.11999948172E+01  0.15329576611E+02  0.25327338853E+02  0.30000000000E+02  0.47000000000E+01 0. -1.
</event>
<event>
 4    1  0.7581446E-002  0.6000000E+02  0.7546771E-02  0.1259629E+00
         11   -1    0    0    0    0  0.00000000000E+00  0.00000000000E+00  0.30000000000E+02  0.30000000000E+02  0.00000000000E+00 0. -1.
        -11   -1    0    0    0    0 -0.00000000000E+00 -0.00000000000E+00 -0.30000000000E+02  0.30000000000E+02  0.00000000000E+00 0.  1.
          5    1    1    2  501    0 -0.23363531644E+02  0.17467651431E+00 -0.18221549804E+02  0.30000000000E+02  0.47000000000E+01 0.  1.
         -5    1    1    2    0  501  0.23363531644E+02 -0.17467651431E+00  0.18221549804E+02  0.30000000000E+02  0.47000000000E+01 0. -1.
</event>
<event>
 4    1  0.7581446E-002  0.6000000E+02  0.7546771E-02  0.1259629E+00
         11   -1    0    0    0    0  0.00000000000E+00  0.00000000000E+00  0.30000000000E+02  0.30000000000E+02  0.00000000000E+00 0. -1.
        -11   -1    0    0    0    0 -0.00000000000E+00 -0.00000000000E+00 -0.30000000000E+02  0.30000000000E+02  0.00000000000E+00 0.  1.
          5    1    1    2  501    0 -0.20718754659E+02 -0.47507808080E-01 -0.21181146060E+02  0.30000000000E+02  0.47000000000E+01 0.  1.
         -5    1    1    2    0  501  0.20718754659E+02  0.47507808080E-01  0.21181146060E+02  0.30000000000E+02  0.47000000000E+01 0. -1.
</event>
<event>
 4    1  0.7581446E-002  0.6000000E+02  0.7546771E-02  0.1259629E+00
         11   -1    0    0    0    0  0.00000000000E+00  0.00000000000E+00  0.30000000000E+02  0.30000000000E+02  0.00000000000E+00 0.  1.
        -11   -1    0    0    0    0 -0.00000000000E+00 -0.00000000000E+00 -0.30000000000E+02  0.30000000000E+02  0.00000000000E+00 0. -1.
          5    1    1    2  501    0  0.25367505447E+02 -0.13376794880E+02 -0.74472159975E+01  0.30000000000E+02  0.47000000000E+01 0.  1.
         -5    1    1    2    0  501 -0.25367505447E+02  0.13376794880E+02  0.74472159975E+01  0.30000000000E+02  0.47000000000E+01 0. -1.
</event>
<event>
 4    1  0.7581446E-002  0.6000000E+02  0.7546771E-02  0.1259629E+00
         11   -1    0    0    0    0  0.00000000000E+00  0.00000000000E+00  0.30000000000E+02  0.30000000000E+02  0.00000000000E+00 0.  1.
        -11   -1    0    0    0    0 -0.00000000000E+00 -0.00000000000E+00 -0.30000000000E+02  0.30000000000E+02  0.00000000000E+00 0. -1.
          5    1    1    2  501    0  0.87430460686E+01 -0.73682690015E+00 -0.28300640126E+02  0.30000000000E+02  0.47000000000E+01 0. -1.
         -5    1    1    2    0  501 -0.87430460686E+01  0.73682690015E+00  0.28300640126E+02  0.30000000000E+02  0.47000000000E+01 0.  1.
</event>
<event>
 4    1  0.7581446E-002  0.6000000E+02  0.7546771E-02  0.1259629E+00
         11   -1    0    0    0    0  0.00000000000E+00  0.00000000000E+00  0.30000000000E+02  0.30000000000E+02  0.00000000000E+00 0.  1.
        -11   -1    0    0    0    0 -0.00000000000E+00 -0.00000000000E+00 -0.30000000000E+02  0.30000000000E+02  0.00000000000E+00 0. -1.
          5    1    1    2  501    0 -0.16097145723E+02 -0.24714787687E+02  0.28233259089E+01  0.30000000000E+02  0.47000000000E+01 0. -1.
         -5    1    1    2    0  501  0.16097145723E+02  0.24714787687E+02 -0.28233259089E+01  0.30000000000E+02  0.47000000000E+01 0.  1.
</event>
<event>
 4    1  0.7581446E-002  0.6000000E+02  0.7546771E-02  0.1259629E+00
         11   -1    0    0    0    0  0.00000000000E+00  0.00000000000E+00  0.30000000000E+02  0.30000000000E+02  0.00000000000E+00 0.  1.
        -11   -1    0    0    0    0 -0.00000000000E+00 -0.00000000000E+00 -0.30000000000E+02  0.30000000000E+02  0.00000000000E+00 0. -1.
          5    1    1    2  501    0  0.27431611969E+02 -0.11192655945E+02  0.37565635901E+00  0.30000000000E+02  0.47000000000E+01 0. -1.
         -5    1    1    2    0  501 -0.27431611969E+02  0.11192655945E+02 -0.37565635901E+00  0.30000000000E+02  0.47000000000E+01 0.  1.
</event>
<event>
 4    1  0.7581446E-002  0.6000000E+02  0.7546771E-02  0.1259629E+00
         11   -1    0    0    0    0  0.00000000000E+00  0.00000000000E+00  0.30000000000E+02  0.30000000000E+02  0.00000000000E+00 0. -1.
        -11   -1    0    0    0    0 -0.00000000000E+00 -0.00000000000E+00 -0.30000000000E+02  0.30000000000E+02  0.00000000000E+00 0.  1.
          5    1    1    2  501    0 -0.17481250317E+02  0.18095813958E+02 -0.15647920136E+02  0.30000000000E+02  0.47000000000E+01 0.  1.
         -5    1    1    2    0  501  0.17481250317E+02 -0.18095813958E+02  0.15647920136E+02  0.30000000000E+02  0.47000000000E+01 0. -1.
</event>
<event>
 4    1  0.7581446E-002  0.6000000E+02  0.7546771E-02  0.1259629E+00
         11   -1    0    0    0    0  0.00000000000E+00  0.00000000000E+00  0.30000000000E+02  0.30000000000E+02  0.00000000000E+00 0.  1.
        -11   -1    0    0    0    0 -0.00000000000E+00 -0.00000000000E+00 -0.30000000000E+02  0.30000000000E+02  0.00000000000E+00 0. -1.
          5    1    1    2  501    0 -0.12517327920E+02  0.26117893068E+01 -0.26728356821E+02  0.30000000000E+02  0.47000000000E+01 0. -1.
         -5    1    1    2    0  501  0.12517327920E+02 -0.26117893068E+01  0.26728356821E+02  0.30000000000E+02  0.47000000000E+01 0.  1.
</event>
<event>
 4    1  0.7581446E-002  0.6000000E+02  0.7546771E-02  0.1259629E+00
         11   -1    0    0    0    0  0.00000000000E+00  0.00000000000E+00  0.30000000000E+02  0.30000000000E+02  0.00000000000E+00 0.  1.
        -11   -1    0    0    0    0 -0.00000000000E+00 -0.00000000000E+00 -0.30000000000E+02  0.30000000000E+02  0.00000000000E+00 0. -1.
          5    1    1    2  501    0  0.15285449860E+01 -0.15226254502E+02 -0.25371927874E+02  0.30000000000E+02  0.47000000000E+01 0. -1.
         -5    1    1    2    0  501 -0.15285449860E+01  0.15226254502E+02  0.25371927874E+02  0.30000000000E+02  0.47000000000E+01 0.  1.
</event>
<event>
 4    1  0.7581446E-002  0.6000000E+02  0.7546771E-02  0.1259629E+00
         11   -1    0    0    0    0  0.00000000000E+00  0.00000000000E+00  0.30000000000E+02  0.30000000000E+02  0.00000000000E+00 0.  1.
        -11   -1    0    0    0    0 -0.00000000000E+00 -0.00000000000E+00 -0.30000000000E+02  0.30000000000E+02  0.00000000000E+00 0. -1.
          5    1    1    2  501    0 -0.16351103850E+02  0.74299103998E+01 -0.23565819195E+02  0.30000000000E+02  0.47000000000E+01 0. -1.
         -5    1    1    2    0  501  0.16351103850E+02 -0.74299103998E+01  0.23565819195E+02  0.30000000000E+02  0.47000000000E+01 0.  1.
</event>
<event>
 4    1  0.7581446E-002  0.6000000E+02  0.7546771E-02  0.1259629E+00
         11   -1    0    0    0    0  0.00000000000E+00  0.00000000000E+00  0.30000000000E+02  0.30000000000E+02  0.00000000000E+00 0.  1.
        -11   -1    0    0    0    0 -0.00000000000E+00 -0.00000000000E+00 -0.30000000000E+02  0.30000000000E+02  0.00000000000E+00 0. -1.
          5    1    1    2  501    0 -0.61277561244E+01 -0.15582154872E+02 -0.24444980148E+02  0.30000000000E+02  0.47000000000E+01 0. -1.
         -5    1    1    2    0  501  0.61277561244E+01  0.15582154872E+02  0.24444980148E+02  0.30000000000E+02  0.47000000000E+01 0.  1.
</event>
<event>
 4    1  0.7581446E-002  0.6000000E+02  0.7546771E-02  0.1259629E+00
         11   -1    0    0    0    0  0.00000000000E+00  0.00000000000E+00  0.30000000000E+02  0.30000000000E+02  0.00000000000E+00 0.  1.
        -11   -1    0    0    0    0 -0.00000000000E+00 -0.00000000000E+00 -0.30000000000E+02  0.30000000000E+02  0.00000000000E+00 0. -1.
          5    1    1    2  501    0  0.87299083794E+01 -0.67875353878E+01  0.27488689730E+02  0.30000000000E+02  0.47000000000E+01 0.  1.
         -5    1    1    2    0  501 -0.87299083794E+01  0.67875353878E+01 -0.27488689730E+02  0.30000000000E+02  0.47000000000E+01 0. -1.
</event>
<event>
 4    1  0.7581446E-002  0.6000000E+02  0.7546771E-02  0.1259629E+00
         11   -1    0    0    0    0  0.00000000000E+00  0.00000000000E+00  0.30000000000E+02  0.30000000000E+02  0.00000000000E+00 0.  1.
        -11   -1    0    0    0    0 -0.00000000000E+00 -0.00000000000E+00 -0.30000000000E+02  0.30000000000E+02  0.00000000000E+00 0. -1.
          5    1    1    2  501    0  0.37956815996E+00  0.23935723450E+02 -0.17459870301E+02  0.30000000000E+02  0.47000000000E+01 0. -1.
         -5    1    1    2    0  501 -0.37956815996E+00 -0.23935723450E+02  0.17459870301E+02  0.30000000000E+02  0.47000000000E+01 0.  1.
</event>
<event>
 4    1  0.7581446E-002  0.6000000E+02  0.7546771E-02  0.1259629E+00
         11   -1    0    0    0    0  0.00000000000E+00  0.00000000000E+00  0.30000000000E+02  0.30000000000E+02  0.00000000000E+00 0.  1.
        -11   -1    0    0    0    0 -0.00000000000E+00 -0.00000000000E+00 -0.30000000000E+02  0.30000000000E+02  0.00000000000E+00 0. -1.
          5    1    1    2  501    0 -0.25075671412E+02  0.11122805240E+02 -0.11198388583E+02  0.30000000000E+02  0.47000000000E+01 0. -1.
         -5    1    1    2    0  501  0.25075671412E+02 -0.11122805240E+02  0.11198388583E+02  0.30000000000E+02  0.47000000000E+01 0.  1.
</event>
<event>
 4    1  0.7581446E-002  0.6000000E+02  0.7546771E-02  0.1259629E+00
         11   -1    0    0    0    0  0.00000000000E+00  0.00000000000E+00  0.30000000000E+02  0.30000000000E+02  0.00000000000E+00 0.  1.
        -11   -1    0    0    0    0 -0.00000000000E+00 -0.00000000000E+00 -0.30000000000E+02  0.30000000000E+02  0.00000000000E+00 0. -1.
          5    1    1    2  501    0  0.18128741548E+02 -0.10249989142E+02  0.21075968601E+02  0.30000000000E+02  0.47000000000E+01 0.  1.
         -5    1    1    2    0  501 -0.18128741548E+02  0.10249989142E+02 -0.21075968601E+02  0.30000000000E+02  0.47000000000E+01 0. -1.
</event>
<event>
 4    1  0.7581446E-002  0.6000000E+02  0.7546771E-02  0.1259629E+00
         11   -1    0    0    0    0  0.00000000000E+00  0.00000000000E+00  0.30000000000E+02  0.30000000000E+02  0.00000000000E+00 0. -1.
        -11   -1    0    0    0    0 -0.00000000000E+00 -0.00000000000E+00 -0.30000000000E+02  0.30000000000E+02  0.00000000000E+00 0.  1.
          5    1    1    2  501    0 -0.16763021227E+02 -0.22263416237E+02 -0.10062376300E+02  0.30000000000E+02  0.47000000000E+01 0.  1.
         -5    1    1    2    0  501  0.16763021227E+02  0.22263416237E+02  0.10062376300E+02  0.30000000000E+02  0.47000000000E+01 0. -1.
</event>
<event>
 4    1  0.7581446E-002  0.6000000E+02  0.7546771E-02  0.1259629E+00
         11   -1    0    0    0    0  0.00000000000E+00  0.00000000000E+00  0.30000000000E+02  0.30000000000E+02  0.00000000000E+00 0.  1.
        -11   -1    0    0    0    0 -0.00000000000E+00 -0.00000000000E+00 -0.30000000000E+02  0.30000000000E+02  0.00000000000E+00 0. -1.
          5    1    1    2  501    0  0.97236509175E+01 -0.11311791411E+02 -0.25600859124E+02  0.30000000000E+02  0.47000000000E+01 0. -1.
         -5    1    1    2    0  501 -0.97236509175E+01  0.11311791411E+02  0.25600859124E+02  0.30000000000E+02  0.47000000000E+01 0.  1.
</event>
<event>
 4    1  0.7581446E-002  0.6000000E+02  0.7546771E-02  0.1259629E+00
         11   -1    0    0    0    0  0.00000000000E+00  0.00000000000E+00  0.30000000000E+02  0.30000000000E+02  0.00000000000E+00 0.  1.
        -11   -1    0    0    0    0 -0.00000000000E+00 -0.00000000000E+00 -0.30000000000E+02  0.30000000000E+02  0.00000000000E+00 0. -1.
          5    1    1    2  501    0  0.53272643473E+01  0.15559600258E+02 -0.24646076653E+02  0.30000000000E+02  0.47000000000E+01 0. -1.
         -5    1    1    2    0  501 -0.53272643473E+01 -0.15559600258E+02  0.24646076653E+02  0.30000000000E+02  0.47000000000E+01 0.  1.
</event>
<event>
 4    1  0.7581446E-002  0.6000000E+02  0.7546771E-02  0.1259629E+00
         11   -1    0    0    0    0  0.00000000000E+00  0.00000000000E+00  0.30000000000E+02  0.30000000000E+02  0.00000000000E+00 0.  1.
        -11   -1    0    0    0    0 -0.00000000000E+00 -0.00000000000E+00 -0.30000000000E+02  0.30000000000E+02  0.00000000000E+00 0. -1.
          5    1    1    2  501    0 -0.11178578534E+02  0.20226227932E+02 -0.18543168165E+02  0.30000000000E+02  0.47000000000E+01 0. -1.
         -5    1    1    2    0  501  0.11178578534E+02 -0.20226227932E+02  0.18543168165E+02  0.30000000000E+02  0.47000000000E+01 0.  1.
</event>
<event>
 4    1  0.7581446E-002  0.6000000E+02  0.7546771E-02  0.1259629E+00
         11   -1    0    0    0    0  0.00000000000E+00  0.00000000000E+00  0.30000000000E+02  0.30000000000E+02  0.00000000000E+00 0.  1.
        -11   -1    0    0    0    0 -0.00000000000E+00 -0.00000000000E+00 -0.30000000000E+02  0.30000000000E+02  0.00000000000E+00 0. -1.
          5    1    1    2  501    0  0.21361053869E+02 -0.18476788556E+02 -0.89567662856E+01  0.30000000000E+02  0.47000000000E+01 0. -1.
         -5    1    1    2    0  501 -0.21361053869E+02  0.18476788556E+02  0.89567662856E+01  0.30000000000E+02  0.47000000000E+01 0.  1.
</event>
<event>
 4    1  0.7581446E-002  0.6000000E+02  0.7546771E-02  0.1259629E+00
         11   -1    0    0    0    0  0.00000000000E+00  0.00000000000E+00  0.30000000000E+02  0.30000000000E+02  0.00000000000E+00 0. -1.
        -11   -1    0    0    0    0 -0.00000000000E+00 -0.00000000000E+00 -0.30000000000E+02  0.30000000000E+02  0.00000000000E+00 0.  1.
          5    1    1    2  501    0 -0.85717406795E+01 -0.12970318454E+02 -0.25223126311E+02  0.30000000000E+02  0.47000000000E+01 0.  1.
         -5    1    1    2    0  501  0.85717406795E+01  0.12970318454E+02  0.25223126311E+02  0.30000000000E+02  0.47000000000E+01 0. -1.
</event>
<event>
 4    1  0.7581446E-002  0.6000000E+02  0.7546771E-02  0.1259629E+00
         11   -1    0    0    0    0  0.00000000000E+00  0.00000000000E+00  0.30000000000E+02  0.30000000000E+02  0.00000000000E+00 0. -1.
        -11   -1    0    0    0    0 -0.00000000000E+00 -0.00000000000E+00 -0.30000000000E+02  0.30000000000E+02  0.00000000000E+00 0.  1.
          5    1    1    2  501    0  0.16102352025E+02  0.23655244216E+02 -0.76846392471E+01  0.30000000000E+02  0.47000000000E+01 0.  1.
         -5    1    1    2    0  501 -0.16102352025E+02 -0.23655244216E+02  0.76846392471E+01  0.30000000000E+02  0.47000000000E+01 0. -1.
</event>
<event>
 4    1  0.7581446E-002  0.6000000E+02  0.7546771E-02  0.1259629E+00
         11   -1    0    0    0    0  0.00000000000E+00  0.00000000000E+00  0.30000000000E+02  0.30000000000E+02  0.00000000000E+00 0. -1.
        -11   -1    0    0    0    0 -0.00000000000E+00 -0.00000000000E+00 -0.30000000000E+02  0.30000000000E+02  0.00000000000E+00 0.  1.
          5    1    1    2  501    0  0.15584953457E+02 -0.27515993914E+01 -0.25048910686E+02  0.30000000000E+02  0.47000000000E+01 0.  1.
         -5    1    1    2    0  501 -0.15584953457E+02  0.27515993914E+01  0.25048910686E+02  0.30000000000E+02  0.47000000000E+01 0. -1.
</event>
<event>
 4    1  0.7581446E-002  0.6000000E+02  0.7546771E-02  0.1259629E+00
         11   -1    0    0    0    0  0.00000000000E+00  0.00000000000E+00  0.30000000000E+02  0.30000000000E+02  0.00000000000E+00 0.  1.
        -11   -1    0    0    0    0 -0.00000000000E+00 -0.00000000000E+00 -0.30000000000E+02  0.30000000000E+02  0.00000000000E+00 0. -1.
          5    1    1    2  501    0  0.11679649204E+01  0.23144052820E+02 -0.18463441635E+02  0.30000000000E+02  0.47000000000E+01 0. -1.
         -5    1    1    2    0  501 -0.11679649204E+01 -0.23144052820E+02  0.18463441635E+02  0.30000000000E+02  0.47000000000E+01 0.  1.
</event>
<event>
 4    1  0.7581446E-002  0.6000000E+02  0.7546771E-02  0.1259629E+00
         11   -1    0    0    0    0  0.00000000000E+00  0.00000000000E+00  0.30000000000E+02  0.30000000000E+02  0.00000000000E+00 0. -1.
        -11   -1    0    0    0    0 -0.00000000000E+00 -0.00000000000E+00 -0.30000000000E+02  0.30000000000E+02  0.00000000000E+00 0.  1.
          5    1    1    2  501    0 -0.11642899470E+02  0.14371624692E+01  0.27208224050E+02  0.30000000000E+02  0.47000000000E+01 0. -1.
         -5    1    1    2    0  501  0.11642899470E+02 -0.14371624692E+01 -0.27208224050E+02  0.30000000000E+02  0.47000000000E+01 0.  1.
</event>
<event>
 4    1  0.7581446E-002  0.6000000E+02  0.7546771E-02  0.1259629E+00
         11   -1    0    0    0    0  0.00000000000E+00  0.00000000000E+00  0.30000000000E+02  0.30000000000E+02  0.00000000000E+00 0.  1.
        -11   -1    0    0    0    0 -0.00000000000E+00 -0.00000000000E+00 -0.30000000000E+02  0.30000000000E+02  0.00000000000E+00 0. -1.
          5    1    1    2  501    0 -0.23605613392E+02  0.59001699992E+01 -0.16907779581E+02  0.30000000000E+02  0.47000000000E+01 0. -1.
         -5    1    1    2    0  501  0.23605613392E+02 -0.59001699992E+01  0.16907779581E+02  0.30000000000E+02  0.47000000000E+01 0.  1.
</event>
<event>
 4    1  0.7581446E-002  0.6000000E+02  0.7546771E-02  0.1259629E+00
         11   -1    0    0    0    0  0.00000000000E+00  0.00000000000E+00  0.30000000000E+02  0.30000000000E+02  0.00000000000E+00 0.  1.
        -11   -1    0    0    0    0 -0.00000000000E+00 -0.00000000000E+00 -0.30000000000E+02  0.30000000000E+02  0.00000000000E+00 0. -1.
          5    1    1    2  501    0 -0.25286540843E+02 -0.13076598149E+02 -0.82160472875E+01  0.30000000000E+02  0.47000000000E+01 0. -1.
         -5    1    1    2    0  501  0.25286540843E+02  0.13076598149E+02  0.82160472875E+01  0.30000000000E+02  0.47000000000E+01 0.  1.
</event>
<event>
 4    1  0.7581446E-002  0.6000000E+02  0.7546771E-02  0.1259629E+00
         11   -1    0    0    0    0  0.00000000000E+00  0.00000000000E+00  0.30000000000E+02  0.30000000000E+02  0.00000000000E+00 0.  1.
        -11   -1    0    0    0    0 -0.00000000000E+00 -0.00000000000E+00 -0.30000000000E+02  0.30000000000E+02  0.00000000000E+00 0. -1.
          5    1    1    2  501    0  0.20952260393E+02  0.15723506062E+02  0.13845004209E+02  0.30000000000E+02  0.47000000000E+01 0.  1.
         -5    1    1    2    0  501 -0.20952260393E+02 -0.15723506062E+02 -0.13845004209E+02  0.30000000000E+02  0.47000000000E+01 0. -1.
</event>
<event>
 4    1  0.7581446E-002  0.6000000E+02  0.7546771E-02  0.1259629E+00
         11   -1    0    0    0    0  0.00000000000E+00  0.00000000000E+00  0.30000000000E+02  0.30000000000E+02  0.00000000000E+00 0.  1.
        -11   -1    0    0    0    0 -0.00000000000E+00 -0.00000000000E+00 -0.30000000000E+02  0.30000000000E+02  0.00000000000E+00 0. -1.
          5    1    1    2  501    0 -0.44281551360E+01  0.27545209622E+02 -0.99781195117E+01  0.30000000000E+02  0.47000000000E+01 0. -1.
         -5    1    1    2    0  501  0.44281551360E+01 -0.27545209622E+02  0.99781195117E+01  0.30000000000E+02  0.47000000000E+01 0.  1.
</event>
<event>
 4    1  0.7581446E-002  0.6000000E+02  0.7546771E-02  0.1259629E+00
         11   -1    0    0    0    0  0.00000000000E+00  0.00000000000E+00  0.30000000000E+02  0.30000000000E+02  0.00000000000E+00 0.  1.
        -11   -1    0    0    0    0 -0.00000000000E+00 -0.00000000000E+00 -0.30000000000E+02  0.30000000000E+02  0.00000000000E+00 0. -1.
          5    1    1    2  501    0  0.10225308905E+01 -0.61215129626E+01 -0.28972254134E+02  0.30000000000E+02  0.47000000000E+01 0. -1.
         -5    1    1    2    0  501 -0.10225308905E+01  0.61215129626E+01  0.28972254134E+02  0.30000000000E+02  0.47000000000E+01 0.  1.
</event>
<event>
 4    1  0.7581446E-002  0.6000000E+02  0.7546771E-02  0.1259629E+00
         11   -1    0    0    0    0  0.00000000000E+00  0.00000000000E+00  0.30000000000E+02  0.30000000000E+02  0.00000000000E+00 0.  1.
        -11   -1    0    0    0    0 -0.00000000000E+00 -0.00000000000E+00 -0.30000000000E+02  0.30000000000E+02  0.00000000000E+00 0. -1.
          5    1    1    2  501    0  0.82088327789E+01  0.14816555236E+02 -0.24310383694E+02  0.30000000000E+02  0.47000000000E+01 0. -1.
         -5    1    1    2    0  501 -0.82088327789E+01 -0.14816555236E+02  0.24310383694E+02  0.30000000000E+02  0.47000000000E+01 0.  1.
</event>
<event>
 4    1  0.7581446E-002  0.6000000E+02  0.7546771E-02  0.1259629E+00
         11   -1    0    0    0    0  0.00000000000E+00  0.00000000000E+00  0.30000000000E+02  0.30000000000E+02  0.00000000000E+00 0.  1.
        -11   -1    0    0    0    0 -0.00000000000E+00 -0.00000000000E+00 -0.30000000000E+02  0.30000000000E+02  0.00000000000E+00 0. -1.
          5    1    1    2  501    0 -0.26713269207E+02 -0.18599214335E+00 -0.12817045493E+02  0.30000000000E+02  0.47000000000E+01 0. -1.
         -5    1    1    2    0  501  0.26713269207E+02  0.18599214335E+00  0.12817045493E+02  0.30000000000E+02  0.47000000000E+01 0.  1.
</event>
<event>
 4    1  0.7581446E-002  0.6000000E+02  0.7546771E-02  0.1259629E+00
         11   -1    0    0    0    0  0.00000000000E+00  0.00000000000E+00  0.30000000000E+02  0.30000000000E+02  0.00000000000E+00 0. -1.
        -11   -1    0    0    0    0 -0.00000000000E+00 -0.00000000000E+00 -0.30000000000E+02  0.30000000000E+02  0.00000000000E+00 0.  1.
          5    1    1    2  501    0  0.96037305001E+01 -0.12162682514E+02  0.25253663389E+02  0.30000000000E+02  0.47000000000E+01 0. -1.
         -5    1    1    2    0  501 -0.96037305001E+01  0.12162682514E+02 -0.25253663389E+02  0.30000000000E+02  0.47000000000E+01 0.  1.
</event>
<event>
 4    1  0.7581446E-002  0.6000000E+02  0.7546771E-02  0.1259629E+00
         11   -1    0    0    0    0  0.00000000000E+00  0.00000000000E+00  0.30000000000E+02  0.30000000000E+02  0.00000000000E+00 0. -1.
        -11   -1    0    0    0    0 -0.00000000000E+00 -0.00000000000E+00 -0.30000000000E+02  0.30000000000E+02  0.00000000000E+00 0.  1.
          5    1    1    2  501    0  0.12734465995E+02 -0.12906587506E+02 -0.23434235101E+02  0.30000000000E+02  0.47000000000E+01 0.  1.
         -5    1    1    2    0  501 -0.12734465995E+02  0.12906587506E+02  0.23434235101E+02  0.30000000000E+02  0.47000000000E+01 0. -1.
</event>
<event>
 4    1  0.7581446E-002  0.6000000E+02  0.7546771E-02  0.1259629E+00
         11   -1    0    0    0    0  0.00000000000E+00  0.00000000000E+00  0.30000000000E+02  0.30000000000E+02  0.00000000000E+00 0.  1.
        -11   -1    0    0    0    0 -0.00000000000E+00 -0.00000000000E+00 -0.30000000000E+02  0.30000000000E+02  0.00000000000E+00 0. -1.
          5    1    1    2  501    0  0.11668805769E+02 -0.27235044399E+02 -0.36449056504E-01  0.30000000000E+02  0.47000000000E+01 0. -1.
         -5    1    1    2    0  501 -0.11668805769E+02  0.27235044399E+02  0.36449056504E-01  0.30000000000E+02  0.47000000000E+01 0.  1.
</event>
<event>
 4    1  0.7581446E-002  0.6000000E+02  0.7546771E-02  0.1259629E+00
         11   -1    0    0    0    0  0.00000000000E+00  0.00000000000E+00  0.30000000000E+02  0.30000000000E+02  0.00000000000E+00 0. -1.
        -11   -1    0    0    0    0 -0.00000000000E+00 -0.00000000000E+00 -0.30000000000E+02  0.30000000000E+02  0.00000000000E+00 0.  1.
          5    1    1    2  501    0  0.56479502407E+01 -0.16950045330E+02 -0.23636975724E+02  0.30000000000E+02  0.47000000000E+01 0.  1.
         -5    1    1    2    0  501 -0.56479502407E+01  0.16950045330E+02  0.23636975724E+02  0.30000000000E+02  0.47000000000E+01 0. -1.
</event>
<event>
 4    1  0.7581446E-002  0.6000000E+02  0.7546771E-02  0.1259629E+00
         11   -1    0    0    0    0  0.00000000000E+00  0.00000000000E+00  0.30000000000E+02  0.30000000000E+02  0.00000000000E+00 0.  1.
        -11   -1    0    0    0    0 -0.00000000000E+00 -0.00000000000E+00 -0.30000000000E+02  0.30000000000E+02  0.00000000000E+00 0. -1.
          5    1    1    2  501    0 -0.16520592518E+02  0.23936240583E+02 -0.56600715194E+01  0.30000000000E+02  0.47000000000E+01 0. -1.
         -5    1    1    2    0  501  0.16520592518E+02 -0.23936240583E+02  0.56600715194E+01  0.30000000000E+02  0.47000000000E+01 0.  1.
</event>
<event>
 4    1  0.7581446E-002  0.6000000E+02  0.7546771E-02  0.1259629E+00
         11   -1    0    0    0    0  0.00000000000E+00  0.00000000000E+00  0.30000000000E+02  0.30000000000E+02  0.00000000000E+00 0.  1.
        -11   -1    0    0    0    0 -0.00000000000E+00 -0.00000000000E+00 -0.30000000000E+02  0.30000000000E+02  0.00000000000E+00 0. -1.
          5    1    1    2  501    0 -0.22198755872E+02  0.18763029175E+02  0.57509976456E+01  0.30000000000E+02  0.47000000000E+01 0. -1.
         -5    1    1    2    0  501  0.22198755872E+02 -0.18763029175E+02 -0.57509976456E+01  0.30000000000E+02  0.47000000000E+01 0.  1.
</event>
<event>
 4    1  0.7581446E-002  0.6000000E+02  0.7546771E-02  0.1259629E+00
         11   -1    0    0    0    0  0.00000000000E+00  0.00000000000E+00  0.30000000000E+02  0.30000000000E+02  0.00000000000E+00 0.  1.
        -11   -1    0    0    0    0 -0.00000000000E+00 -0.00000000000E+00 -0.30000000000E+02  0.30000000000E+02  0.00000000000E+00 0. -1.
          5    1    1    2  501    0  0.29521887957E+01  0.19917168137E+02 -0.21737088000E+02  0.30000000000E+02  0.47000000000E+01 0. -1.
         -5    1    1    2    0  501 -0.29521887957E+01 -0.19917168137E+02  0.21737088000E+02  0.30000000000E+02  0.47000000000E+01 0.  1.
</event>
<event>
 4    1  0.7581446E-002  0.6000000E+02  0.7546771E-02  0.1259629E+00
         11   -1    0    0    0    0  0.00000000000E+00  0.00000000000E+00  0.30000000000E+02  0.30000000000E+02  0.00000000000E+00 0.  1.
        -11   -1    0    0    0    0 -0.00000000000E+00 -0.00000000000E+00 -0.30000000000E+02  0.30000000000E+02  0.00000000000E+00 0. -1.
          5    1    1    2  501    0 -0.46407116474E+01 -0.28217143939E+02 -0.77567121480E+01  0.30000000000E+02  0.47000000000E+01 0. -1.
         -5    1    1    2    0  501  0.46407116474E+01  0.28217143939E+02  0.77567121480E+01  0.30000000000E+02  0.47000000000E+01 0.  1.
</event>
<event>
 4    1  0.7581446E-002  0.6000000E+02  0.7546771E-02  0.1259629E+00
         11   -1    0    0    0    0  0.00000000000E+00  0.00000000000E+00  0.30000000000E+02  0.30000000000E+02  0.00000000000E+00 0.  1.
        -11   -1    0    0    0    0 -0.00000000000E+00 -0.00000000000E+00 -0.30000000000E+02  0.30000000000E+02  0.00000000000E+00 0. -1.
          5    1    1    2  501    0  0.61380655634E+01  0.27327455325E+02 -0.96666610889E+01  0.30000000000E+02  0.47000000000E+01 0. -1.
         -5    1    1    2    0  501 -0.61380655634E+01 -0.27327455325E+02  0.96666610889E+01  0.30000000000E+02  0.47000000000E+01 0.  1.
</event>
<event>
 4    1  0.7581446E-002  0.6000000E+02  0.7546771E-02  0.1259629E+00
         11   -1    0    0    0    0  0.00000000000E+00  0.00000000000E+00  0.30000000000E+02  0.30000000000E+02  0.00000000000E+00 0. -1.
        -11   -1    0    0    0    0 -0.00000000000E+00 -0.00000000000E+00 -0.30000000000E+02  0.30000000000E+02  0.00000000000E+00 0.  1.
          5    1    1    2  501    0  0.18359169527E+02  0.73530840533E+01 -0.22063160453E+02  0.30000000000E+02  0.47000000000E+01 0.  1.
         -5    1    1    2    0  501 -0.18359169527E+02 -0.73530840533E+01  0.22063160453E+02  0.30000000000E+02  0.47000000000E+01 0. -1.
</event>
<event>
 4    1  0.7581446E-002  0.6000000E+02  0.7546771E-02  0.1259629E+00
         11   -1    0    0    0    0  0.00000000000E+00  0.00000000000E+00  0.30000000000E+02  0.30000000000E+02  0.00000000000E+00 0.  1.
        -11   -1    0    0    0    0 -0.00000000000E+00 -0.00000000000E+00 -0.30000000000E+02  0.30000000000E+02  0.00000000000E+00 0. -1.
          5    1    1    2  501    0  0.90721249879E+01  0.14540871941E+02 -0.24169600563E+02  0.30000000000E+02  0.47000000000E+01 0. -1.
         -5    1    1    2    0  501 -0.90721249879E+01 -0.14540871941E+02  0.24169600563E+02  0.30000000000E+02  0.47000000000E+01 0.  1.
</event>
<event>
 4    1  0.7581446E-002  0.6000000E+02  0.7546771E-02  0.1259629E+00
         11   -1    0    0    0    0  0.00000000000E+00  0.00000000000E+00  0.30000000000E+02  0.30000000000E+02  0.00000000000E+00 0.  1.
        -11   -1    0    0    0    0 -0.00000000000E+00 -0.00000000000E+00 -0.30000000000E+02  0.30000000000E+02  0.00000000000E+00 0. -1.
          5    1    1    2  501    0 -0.12108119258E+02  0.19066593927E+02 -0.19177289799E+02  0.30000000000E+02  0.47000000000E+01 0. -1.
         -5    1    1    2    0  501  0.12108119258E+02 -0.19066593927E+02  0.19177289799E+02  0.30000000000E+02  0.47000000000E+01 0.  1.
</event>
<event>
 4    1  0.7581446E-002  0.6000000E+02  0.7546771E-02  0.1259629E+00
         11   -1    0    0    0    0  0.00000000000E+00  0.00000000000E+00  0.30000000000E+02  0.30000000000E+02  0.00000000000E+00 0.  1.
        -11   -1    0    0    0    0 -0.00000000000E+00 -0.00000000000E+00 -0.30000000000E+02  0.30000000000E+02  0.00000000000E+00 0. -1.
          5    1    1    2  501    0 -0.17590835002E+01 -0.23633844950E+02  0.17783616003E+02  0.30000000000E+02  0.47000000000E+01 0. -1.
         -5    1    1    2    0  501  0.17590835002E+01  0.23633844950E+02 -0.17783616003E+02  0.30000000000E+02  0.47000000000E+01 0.  1.
</event>
<event>
 4    1  0.7581446E-002  0.6000000E+02  0.7546771E-02  0.1259629E+00
         11   -1    0    0    0    0  0.00000000000E+00  0.00000000000E+00  0.30000000000E+02  0.30000000000E+02  0.00000000000E+00 0.  1.
        -11   -1    0    0    0    0 -0.00000000000E+00 -0.00000000000E+00 -0.30000000000E+02  0.30000000000E+02  0.00000000000E+00 0. -1.
          5    1    1    2  501    0 -0.12017949160E+02  0.95241199143E+01 -0.25352909850E+02  0.30000000000E+02  0.47000000000E+01 0. -1.
         -5    1    1    2    0  501  0.12017949160E+02 -0.95241199143E+01  0.25352909850E+02  0.30000000000E+02  0.47000000000E+01 0.  1.
</event>
<event>
 4    1  0.7581446E-002  0.6000000E+02  0.7546771E-02  0.1259629E+00
         11   -1    0    0    0    0  0.00000000000E+00  0.00000000000E+00  0.30000000000E+02  0.30000000000E+02  0.00000000000E+00 0.  1.
        -11   -1    0    0    0    0 -0.00000000000E+00 -0.00000000000E+00 -0.30000000000E+02  0.30000000000E+02  0.00000000000E+00 0. -1.
          5    1    1    2  501    0  0.52957103283E+01  0.27499549978E+02 -0.96767868182E+01  0.30000000000E+02  0.47000000000E+01 0. -1.
         -5    1    1    2    0  501 -0.52957103283E+01 -0.27499549978E+02  0.96767868182E+01  0.30000000000E+02  0.47000000000E+01 0.  1.
</event>
<event>
 4    1  0.7581446E-002  0.6000000E+02  0.7546771E-02  0.1259629E+00
         11   -1    0    0    0    0  0.00000000000E+00  0.00000000000E+00  0.30000000000E+02  0.30000000000E+02  0.00000000000E+00 0.  1.
        -11   -1    0    0    0    0 -0.00000000000E+00 -0.00000000000E+00 -0.30000000000E+02  0.30000000000E+02  0.00000000000E+00 0. -1.
          5    1    1    2  501    0  0.23073734158E+02  0.85719738196E+01 -0.16493454969E+02  0.30000000000E+02  0.47000000000E+01 0. -1.
         -5    1    1    2    0  501 -0.23073734158E+02 -0.85719738196E+01  0.16493454969E+02  0.30000000000E+02  0.47000000000E+01 0.  1.
</event>
<event>
 4    1  0.7581446E-002  0.6000000E+02  0.7546771E-02  0.1259629E+00
         11   -1    0    0    0    0  0.00000000000E+00  0.00000000000E+00  0.30000000000E+02  0.30000000000E+02  0.00000000000E+00 0. -1.
        -11   -1    0    0    0    0 -0.00000000000E+00 -0.00000000000E+00 -0.30000000000E+02  0.30000000000E+02  0.00000000000E+00 0.  1.
          5    1    1    2  501    0  0.46309356655E+00  0.14628734278E+02 -0.25762291781E+02  0.30000000000E+02  0.47000000000E+01 0.  1.
         -5    1    1    2    0  501 -0.46309356655E+00 -0.14628734278E+02  0.25762291781E+02  0.30000000000E+02  0.47000000000E+01 0. -1.
</event>
<event>
 4    1  0.7581446E-002  0.6000000E+02  0.7546771E-02  0.1259629E+00
         11   -1    0    0    0    0  0.00000000000E+00  0.00000000000E+00  0.30000000000E+02  0.30000000000E+02  0.00000000000E+00 0.  1.
        -11   -1    0    0    0    0 -0.00000000000E+00 -0.00000000000E+00 -0.30000000000E+02  0.30000000000E+02  0.00000000000E+00 0. -1.
          5    1    1    2  501    0  0.10279999431E+02 -0.19129248570E+02 -0.20156970527E+02  0.30000000000E+02  0.47000000000E+01 0. -1.
         -5    1    1    2    0  501 -0.10279999431E+02  0.19129248570E+02  0.20156970527E+02  0.30000000000E+02  0.47000000000E+01 0.  1.
</event>
<event>
 4    1  0.7581446E-002  0.6000000E+02  0.7546771E-02  0.1259629E+00
         11   -1    0    0    0    0  0.00000000000E+00  0.00000000000E+00  0.30000000000E+02  0.30000000000E+02  0.00000000000E+00 0.  1.
        -11   -1    0    0    0    0 -0.00000000000E+00 -0.00000000000E+00 -0.30000000000E+02  0.30000000000E+02  0.00000000000E+00 0. -1.
          5    1    1    2  501    0 -0.50422644648E+01  0.27924647626E+02 -0.85264074503E+01  0.30000000000E+02  0.47000000000E+01 0. -1.
         -5    1    1    2    0  501  0.50422644648E+01 -0.27924647626E+02  0.85264074503E+01  0.30000000000E+02  0.47000000000E+01 0.  1.
</event>
<event>
 4    1  0.7581446E-002  0.6000000E+02  0.7546771E-02  0.1259629E+00
         11   -1    0    0    0    0  0.00000000000E+00  0.00000000000E+00  0.30000000000E+02  0.30000000000E+02  0.00000000000E+00 0.  1.
        -11   -1    0    0    0    0 -0.00000000000E+00 -0.00000000000E+00 -0.30000000000E+02  0.30000000000E+02  0.00000000000E+00 0. -1.
          5    1    1    2  501    0 -0.18170088063E+02  0.22659133309E+02  0.58584620421E+01  0.30000000000E+02  0.47000000000E+01 0. -1.
         -5    1    1    2    0  501  0.18170088063E+02 -0.22659133309E+02 -0.58584620421E+01  0.30000000000E+02  0.47000000000E+01 0.  1.
</event>
<event>
 4    1  0.7581446E-002  0.6000000E+02  0.7546771E-02  0.1259629E+00
         11   -1    0    0    0    0  0.00000000000E+00  0.00000000000E+00  0.30000000000E+02  0.30000000000E+02  0.00000000000E+00 0. -1.
        -11   -1    0    0    0    0 -0.00000000000E+00 -0.00000000000E+00 -0.30000000000E+02  0.30000000000E+02  0.00000000000E+00 0.  1.
          5    1    1    2  501    0  0.11896110113E+02 -0.71464850179E+00 -0.27127142159E+02  0.30000000000E+02  0.47000000000E+01 0.  1.
         -5    1    1    2    0  501 -0.11896110113E+02  0.71464850179E+00  0.27127142159E+02  0.30000000000E+02  0.47000000000E+01 0. -1.
</event>
<event>
 4    1  0.7581446E-002  0.6000000E+02  0.7546771E-02  0.1259629E+00
         11   -1    0    0    0    0  0.00000000000E+00  0.00000000000E+00  0.30000000000E+02  0.30000000000E+02  0.00000000000E+00 0.  1.
        -11   -1    0    0    0    0 -0.00000000000E+00 -0.00000000000E+00 -0.30000000000E+02  0.30000000000E+02  0.00000000000E+00 0. -1.
          5    1    1    2  501    0 -0.23986453140E+02  0.16411715232E+02 -0.57633036452E+01  0.30000000000E+02  0.47000000000E+01 0. -1.
         -5    1    1    2    0  501  0.23986453140E+02 -0.16411715232E+02  0.57633036452E+01  0.30000000000E+02  0.47000000000E+01 0.  1.
</event>
<event>
 4    1  0.7581446E-002  0.6000000E+02  0.7546771E-02  0.1259629E+00
         11   -1    0    0    0    0  0.00000000000E+00  0.00000000000E+00  0.30000000000E+02  0.30000000000E+02  0.00000000000E+00 0. -1.
        -11   -1    0    0    0    0 -0.00000000000E+00 -0.00000000000E+00 -0.30000000000E+02  0.30000000000E+02  0.00000000000E+00 0.  1.
          5    1    1    2  501    0  0.30351616088E+01  0.14399918245E+01 -0.29438481917E+02  0.30000000000E+02  0.47000000000E+01 0.  1.
         -5    1    1    2    0  501 -0.30351616088E+01 -0.14399918245E+01  0.29438481917E+02  0.30000000000E+02  0.47000000000E+01 0. -1.
</event>
<event>
 4    1  0.7581446E-002  0.6000000E+02  0.7546771E-02  0.1259629E+00
         11   -1    0    0    0    0  0.00000000000E+00  0.00000000000E+00  0.30000000000E+02  0.30000000000E+02  0.00000000000E+00 0.  1.
        -11   -1    0    0    0    0 -0.00000000000E+00 -0.00000000000E+00 -0.30000000000E+02  0.30000000000E+02  0.00000000000E+00 0. -1.
          5    1    1    2  501    0 -0.15943761675E+02  0.24515835285E+02 -0.47623821702E+01  0.30000000000E+02  0.47000000000E+01 0. -1.
         -5    1    1    2    0  501  0.15943761675E+02 -0.24515835285E+02  0.47623821702E+01  0.30000000000E+02  0.47000000000E+01 0.  1.
</event>
<event>
 4    1  0.7581446E-002  0.6000000E+02  0.7546771E-02  0.1259629E+00
         11   -1    0    0    0    0  0.00000000000E+00  0.00000000000E+00  0.30000000000E+02  0.30000000000E+02  0.00000000000E+00 0.  1.
        -11   -1    0    0    0    0 -0.00000000000E+00 -0.00000000000E+00 -0.30000000000E+02  0.30000000000E+02  0.00000000000E+00 0. -1.
          5    1    1    2  501    0 -0.21644824872E+02 -0.85001419238E+01 -0.18361893789E+02  0.30000000000E+02  0.47000000000E+01 0. -1.
         -5    1    1    2    0  501  0.21644824872E+02  0.85001419238E+01  0.18361893789E+02  0.30000000000E+02  0.47000000000E+01 0.  1.
</event>
<event>
 4    1  0.7581446E-002  0.6000000E+02  0.7546771E-02  0.1259629E+00
         11   -1    0    0    0    0  0.00000000000E+00  0.00000000000E+00  0.30000000000E+02  0.30000000000E+02  0.00000000000E+00 0.  1.
        -11   -1    0    0    0    0 -0.00000000000E+00 -0.00000000000E+00 -0.30000000000E+02  0.30000000000E+02  0.00000000000E+00 0. -1.
          5    1    1    2  501    0  0.14972991854E+01 -0.25423524882E+02 -0.15143066985E+02  0.30000000000E+02  0.47000000000E+01 0. -1.
         -5    1    1    2    0  501 -0.14972991854E+01  0.25423524882E+02  0.15143066985E+02  0.30000000000E+02  0.47000000000E+01 0.  1.
</event>
<event>
 4    1  0.7581446E-002  0.6000000E+02  0.7546771E-02  0.1259629E+00
         11   -1    0    0    0    0  0.00000000000E+00  0.00000000000E+00  0.30000000000E+02  0.30000000000E+02  0.00000000000E+00 0. -1.
        -11   -1    0    0    0    0 -0.00000000000E+00 -0.00000000000E+00 -0.30000000000E+02  0.30000000000E+02  0.00000000000E+00 0.  1.
          5    1    1    2  501    0  0.21593180333E+02  0.14173352951E+02 -0.14517597227E+02  0.30000000000E+02  0.47000000000E+01 0.  1.
         -5    1    1    2    0  501 -0.21593180333E+02 -0.14173352951E+02  0.14517597227E+02  0.30000000000E+02  0.47000000000E+01 0. -1.
</event>
<event>
 4    1  0.7581446E-002  0.6000000E+02  0.7546771E-02  0.1259629E+00
         11   -1    0    0    0    0  0.00000000000E+00  0.00000000000E+00  0.30000000000E+02  0.30000000000E+02  0.00000000000E+00 0.  1.
        -11   -1    0    0    0    0 -0.00000000000E+00 -0.00000000000E+00 -0.30000000000E+02  0.30000000000E+02  0.00000000000E+00 0. -1.
          5    1    1    2  501    0  0.19530674772E+02  0.14284041056E+02  0.17100553034E+02  0.30000000000E+02  0.47000000000E+01 0.  1.
         -5    1    1    2    0  501 -0.19530674772E+02 -0.14284041056E+02 -0.17100553034E+02  0.30000000000E+02  0.47000000000E+01 0. -1.
</event>
<event>
 4    1  0.7581446E-002  0.6000000E+02  0.7546771E-02  0.1259629E+00
         11   -1    0    0    0    0  0.00000000000E+00  0.00000000000E+00  0.30000000000E+02  0.30000000000E+02  0.00000000000E+00 0.  1.
        -11   -1    0    0    0    0 -0.00000000000E+00 -0.00000000000E+00 -0.30000000000E+02  0.30000000000E+02  0.00000000000E+00 0. -1.
          5    1    1    2  501    0 -0.10070111745E+01 -0.16903820823E+02 -0.24313715678E+02  0.30000000000E+02  0.47000000000E+01 0. -1.
         -5    1    1    2    0  501  0.10070111745E+01  0.16903820823E+02  0.24313715678E+02  0.30000000000E+02  0.47000000000E+01 0.  1.
</event>
<event>
 4    1  0.7581446E-002  0.6000000E+02  0.7546771E-02  0.1259629E+00
         11   -1    0    0    0    0  0.00000000000E+00  0.00000000000E+00  0.30000000000E+02  0.30000000000E+02  0.00000000000E+00 0.  1.
        -11   -1    0    0    0    0 -0.00000000000E+00 -0.00000000000E+00 -0.30000000000E+02  0.30000000000E+02  0.00000000000E+00 0. -1.
          5    1    1    2  501    0  0.19532810579E+02  0.94126483310E+00 -0.22259679499E+02  0.30000000000E+02  0.47000000000E+01 0. -1.
         -5    1    1    2    0  501 -0.19532810579E+02 -0.94126483310E+00  0.22259679499E+02  0.30000000000E+02  0.47000000000E+01 0.  1.
</event>
<event>
 4    1  0.7581446E-002  0.6000000E+02  0.7546771E-02  0.1259629E+00
         11   -1    0    0    0    0  0.00000000000E+00  0.00000000000E+00  0.30000000000E+02  0.30000000000E+02  0.00000000000E+00 0.  1.
        -11   -1    0    0    0    0 -0.00000000000E+00 -0.00000000000E+00 -0.30000000000E+02  0.30000000000E+02  0.00000000000E+00 0. -1.
          5    1    1    2  501    0  0.16545773556E+02 -0.23952874823E+02 -0.55142692299E+01  0.30000000000E+02  0.47000000000E+01 0. -1.
         -5    1    1    2    0  501 -0.16545773556E+02  0.23952874823E+02  0.55142692299E+01  0.30000000000E+02  0.47000000000E+01 0.  1.
</event>
<event>
 4    1  0.7581446E-002  0.6000000E+02  0.7546771E-02  0.1259629E+00
         11   -1    0    0    0    0  0.00000000000E+00  0.00000000000E+00  0.30000000000E+02  0.30000000000E+02  0.00000000000E+00 0.  1.
        -11   -1    0    0    0    0 -0.00000000000E+00 -0.00000000000E+00 -0.30000000000E+02  0.30000000000E+02  0.00000000000E+00 0. -1.
          5    1    1    2  501    0 -0.21567666041E+02  0.19696840168E+02  0.49779783984E+01  0.30000000000E+02  0.47000000000E+01 0.  1.
         -5    1    1    2    0  501  0.21567666041E+02 -0.19696840168E+02 -0.49779783984E+01  0.30000000000E+02  0.47000000000E+01 0. -1.
</event>
<event>
 4    1  0.7581446E-002  0.6000000E+02  0.7546771E-02  0.1259629E+00
         11   -1    0    0    0    0  0.00000000000E+00  0.00000000000E+00  0.30000000000E+02  0.30000000000E+02  0.00000000000E+00 0. -1.
        -11   -1    0    0    0    0 -0.00000000000E+00 -0.00000000000E+00 -0.30000000000E+02  0.30000000000E+02  0.00000000000E+00 0.  1.
          5    1    1    2  501    0  0.80441963853E+01 -0.17698503235E+02 -0.22359872266E+02  0.30000000000E+02  0.47000000000E+01 0.  1.
         -5    1    1    2    0  501 -0.80441963853E+01  0.17698503235E+02  0.22359872266E+02  0.30000000000E+02  0.47000000000E+01 0. -1.
</event>
<event>
 4    1  0.7581446E-002  0.6000000E+02  0.7546771E-02  0.1259629E+00
         11   -1    0    0    0    0  0.00000000000E+00  0.00000000000E+00  0.30000000000E+02  0.30000000000E+02  0.00000000000E+00 0.  1.
        -11   -1    0    0    0    0 -0.00000000000E+00 -0.00000000000E+00 -0.30000000000E+02  0.30000000000E+02  0.00000000000E+00 0. -1.
          5    1    1    2  501    0 -0.11878462388E+02 -0.12601022954E+02 -0.24042178599E+02  0.30000000000E+02  0.47000000000E+01 0. -1.
         -5    1    1    2    0  501  0.11878462388E+02  0.12601022954E+02  0.24042178599E+02  0.30000000000E+02  0.47000000000E+01 0.  1.
</event>
<event>
 4    1  0.7581446E-002  0.6000000E+02  0.7546771E-02  0.1259629E+00
         11   -1    0    0    0    0  0.00000000000E+00  0.00000000000E+00  0.30000000000E+02  0.30000000000E+02  0.00000000000E+00 0.  1.
        -11   -1    0    0    0    0 -0.00000000000E+00 -0.00000000000E+00 -0.30000000000E+02  0.30000000000E+02  0.00000000000E+00 0. -1.
          5    1    1    2  501    0 -0.61934248405E+01  0.37531135428E+00 -0.28972584112E+02  0.30000000000E+02  0.47000000000E+01 0. -1.
         -5    1    1    2    0  501  0.61934248405E+01 -0.37531135428E+00  0.28972584112E+02  0.30000000000E+02  0.47000000000E+01 0.  1.
</event>
<event>
 4    1  0.7581446E-002  0.6000000E+02  0.7546771E-02  0.1259629E+00
         11   -1    0    0    0    0  0.00000000000E+00  0.00000000000E+00  0.30000000000E+02  0.30000000000E+02  0.00000000000E+00 0. -1.
        -11   -1    0    0    0    0 -0.00000000000E+00 -0.00000000000E+00 -0.30000000000E+02  0.30000000000E+02  0.00000000000E+00 0.  1.
          5    1    1    2  501    0 -0.11563601740E+01  0.14111480155E+02 -0.26027657578E+02  0.30000000000E+02  0.47000000000E+01 0.  1.
         -5    1    1    2    0  501  0.11563601740E+01 -0.14111480155E+02  0.26027657578E+02  0.30000000000E+02  0.47000000000E+01 0. -1.
</event>
<event>
 4    1  0.7581446E-002  0.6000000E+02  0.7546771E-02  0.1259629E+00
         11   -1    0    0    0    0  0.00000000000E+00  0.00000000000E+00  0.30000000000E+02  0.30000000000E+02  0.00000000000E+00 0. -1.
        -11   -1    0    0    0    0 -0.00000000000E+00 -0.00000000000E+00 -0.30000000000E+02  0.30000000000E+02  0.00000000000E+00 0.  1.
          5    1    1    2  501    0 -0.15068849391E+02  0.97787076928E+01  0.23563035753E+02  0.30000000000E+02  0.47000000000E+01 0. -1.
         -5    1    1    2    0  501  0.15068849391E+02 -0.97787076928E+01 -0.23563035753E+02  0.30000000000E+02  0.47000000000E+01 0.  1.
</event>
<event>
 4    1  0.7581446E-002  0.6000000E+02  0.7546771E-02  0.1259629E+00
         11   -1    0    0    0    0  0.00000000000E+00  0.00000000000E+00  0.30000000000E+02  0.30000000000E+02  0.00000000000E+00 0.  1.
        -11   -1    0    0    0    0 -0.00000000000E+00 -0.00000000000E+00 -0.30000000000E+02  0.30000000000E+02  0.00000000000E+00 0. -1.
          5    1    1    2  501    0 -0.15940009647E+02  0.47587894957E+01 -0.24518972552E+02  0.30000000000E+02  0.47000000000E+01 0. -1.
         -5    1    1    2    0  501  0.15940009647E+02 -0.47587894957E+01  0.24518972552E+02  0.30000000000E+02  0.47000000000E+01 0.  1.
</event>
<event>
 4    1  0.7581446E-002  0.6000000E+02  0.7546771E-02  0.1259629E+00
         11   -1    0    0    0    0  0.00000000000E+00  0.00000000000E+00  0.30000000000E+02  0.30000000000E+02  0.00000000000E+00 0.  1.
        -11   -1    0    0    0    0 -0.00000000000E+00 -0.00000000000E+00 -0.30000000000E+02  0.30000000000E+02  0.00000000000E+00 0. -1.
          5    1    1    2  501    0  0.10522777887E+02 -0.23867184598E+02 -0.14054844179E+02  0.30000000000E+02  0.47000000000E+01 0. -1.
         -5    1    1    2    0  501 -0.10522777887E+02  0.23867184598E+02  0.14054844179E+02  0.30000000000E+02  0.47000000000E+01 0.  1.
</event>
<event>
 4    1  0.7581446E-002  0.6000000E+02  0.7546771E-02  0.1259629E+00
         11   -1    0    0    0    0  0.00000000000E+00  0.00000000000E+00  0.30000000000E+02  0.30000000000E+02  0.00000000000E+00 0.  1.
        -11   -1    0    0    0    0 -0.00000000000E+00 -0.00000000000E+00 -0.30000000000E+02  0.30000000000E+02  0.00000000000E+00 0. -1.
          5    1    1    2  501    0  0.20454442652E+02  0.19797209437E+02 -0.82216953414E+01  0.30000000000E+02  0.47000000000E+01 0. -1.
         -5    1    1    2    0  501 -0.20454442652E+02 -0.19797209437E+02  0.82216953414E+01  0.30000000000E+02  0.47000000000E+01 0.  1.
</event>
<event>
 4    1  0.7581446E-002  0.6000000E+02  0.7546771E-02  0.1259629E+00
         11   -1    0    0    0    0  0.00000000000E+00  0.00000000000E+00  0.30000000000E+02  0.30000000000E+02  0.00000000000E+00 0. -1.
        -11   -1    0    0    0    0 -0.00000000000E+00 -0.00000000000E+00 -0.30000000000E+02  0.30000000000E+02  0.00000000000E+00 0.  1.
          5    1    1    2  501    0 -0.29149150798E+02  0.47867224711E+01 -0.23074435477E+01  0.30000000000E+02  0.47000000000E+01 0.  1.
         -5    1    1    2    0  501  0.29149150798E+02 -0.47867224711E+01  0.23074435477E+01  0.30000000000E+02  0.47000000000E+01 0. -1.
</event>
<event>
 4    1  0.7581446E-002  0.6000000E+02  0.7546771E-02  0.1259629E+00
         11   -1    0    0    0    0  0.00000000000E+00  0.00000000000E+00  0.30000000000E+02  0.30000000000E+02  0.00000000000E+00 0.  1.
        -11   -1    0    0    0    0 -0.00000000000E+00 -0.00000000000E+00 -0.30000000000E+02  0.30000000000E+02  0.00000000000E+00 0. -1.
          5    1    1    2  501    0  0.21285858937E+02 -0.74700444029E+01 -0.19209910097E+02  0.30000000000E+02  0.47000000000E+01 0. -1.
         -5    1    1    2    0  501 -0.21285858937E+02  0.74700444029E+01  0.19209910097E+02  0.30000000000E+02  0.47000000000E+01 0.  1.
</event>
<event>
 4    1  0.7581446E-002  0.6000000E+02  0.7546771E-02  0.1259629E+00
         11   -1    0    0    0    0  0.00000000000E+00  0.00000000000E+00  0.30000000000E+02  0.30000000000E+02  0.00000000000E+00 0.  1.
        -11   -1    0    0    0    0 -0.00000000000E+00 -0.00000000000E+00 -0.30000000000E+02  0.30000000000E+02  0.00000000000E+00 0. -1.
          5    1    1    2  501    0 -0.44066231486E+01  0.26101021885E+02 -0.13312713060E+02  0.30000000000E+02  0.47000000000E+01 0. -1.
         -5    1    1    2    0  501  0.44066231486E+01 -0.26101021885E+02  0.13312713060E+02  0.30000000000E+02  0.47000000000E+01 0.  1.
</event>
<event>
 4    1  0.7581446E-002  0.6000000E+02  0.7546771E-02  0.1259629E+00
         11   -1    0    0    0    0  0.00000000000E+00  0.00000000000E+00  0.30000000000E+02  0.30000000000E+02  0.00000000000E+00 0. -1.
        -11   -1    0    0    0    0 -0.00000000000E+00 -0.00000000000E+00 -0.30000000000E+02  0.30000000000E+02  0.00000000000E+00 0.  1.
          5    1    1    2  501    0  0.25863237097E+02  0.35008033457E+01  0.14026665420E+02  0.30000000000E+02  0.47000000000E+01 0.  1.
         -5    1    1    2    0  501 -0.25863237097E+02 -0.35008033457E+01 -0.14026665420E+02  0.30000000000E+02  0.47000000000E+01 0. -1.
</event>
<event>
 4    1  0.7581446E-002  0.6000000E+02  0.7546771E-02  0.1259629E+00
         11   -1    0    0    0    0  0.00000000000E+00  0.00000000000E+00  0.30000000000E+02  0.30000000000E+02  0.00000000000E+00 0.  1.
        -11   -1    0    0    0    0 -0.00000000000E+00 -0.00000000000E+00 -0.30000000000E+02  0.30000000000E+02  0.00000000000E+00 0. -1.
          5    1    1    2  501    0  0.18712259657E+02 -0.15859726698E+02 -0.16620180732E+02  0.30000000000E+02  0.47000000000E+01 0. -1.
         -5    1    1    2    0  501 -0.18712259657E+02  0.15859726698E+02  0.16620180732E+02  0.30000000000E+02  0.47000000000E+01 0.  1.
</event>
<event>
 4    1  0.7581446E-002  0.6000000E+02  0.7546771E-02  0.1259629E+00
         11   -1    0    0    0    0  0.00000000000E+00  0.00000000000E+00  0.30000000000E+02  0.30000000000E+02  0.00000000000E+00 0.  1.
        -11   -1    0    0    0    0 -0.00000000000E+00 -0.00000000000E+00 -0.30000000000E+02  0.30000000000E+02  0.00000000000E+00 0. -1.
          5    1    1    2  501    0  0.23332415675E+02  0.15110074765E+02 -0.10256413572E+02  0.30000000000E+02  0.47000000000E+01 0. -1.
         -5    1    1    2    0  501 -0.23332415675E+02 -0.15110074765E+02  0.10256413572E+02  0.30000000000E+02  0.47000000000E+01 0.  1.
</event>
<event>
 4    1  0.7581446E-002  0.6000000E+02  0.7546771E-02  0.1259629E+00
         11   -1    0    0    0    0  0.00000000000E+00  0.00000000000E+00  0.30000000000E+02  0.30000000000E+02  0.00000000000E+00 0. -1.
        -11   -1    0    0    0    0 -0.00000000000E+00 -0.00000000000E+00 -0.30000000000E+02  0.30000000000E+02  0.00000000000E+00 0.  1.
          5    1    1    2  501    0 -0.17125630727E+02  0.17645386773E+02 -0.16530671427E+02  0.30000000000E+02  0.47000000000E+01 0.  1.
         -5    1    1    2    0  501  0.17125630727E+02 -0.17645386773E+02  0.16530671427E+02  0.30000000000E+02  0.47000000000E+01 0. -1.
</event>
<event>
 4    1  0.7581446E-002  0.6000000E+02  0.7546771E-02  0.1259629E+00
         11   -1    0    0    0    0  0.00000000000E+00  0.00000000000E+00  0.30000000000E+02  0.30000000000E+02  0.00000000000E+00 0.  1.
        -11   -1    0    0    0    0 -0.00000000000E+00 -0.00000000000E+00 -0.30000000000E+02  0.30000000000E+02  0.00000000000E+00 0. -1.
          5    1    1    2  501    0  0.46422881961E+01 -0.22824415301E+02  0.18314071815E+02  0.30000000000E+02  0.47000000000E+01 0.  1.
         -5    1    1    2    0  501 -0.46422881961E+01  0.22824415301E+02 -0.18314071815E+02  0.30000000000E+02  0.47000000000E+01 0. -1.
</event>
<event>
 4    1  0.7581446E-002  0.6000000E+02  0.7546771E-02  0.1259629E+00
         11   -1    0    0    0    0  0.00000000000E+00  0.00000000000E+00  0.30000000000E+02  0.30000000000E+02  0.00000000000E+00 0.  1.
        -11   -1    0    0    0    0 -0.00000000000E+00 -0.00000000000E+00 -0.30000000000E+02  0.30000000000E+02  0.00000000000E+00 0. -1.
          5    1    1    2  501    0 -0.13236213753E+02  0.22111325511E+02 -0.14621967366E+02  0.30000000000E+02  0.47000000000E+01 0. -1.
         -5    1    1    2    0  501  0.13236213753E+02 -0.22111325511E+02  0.14621967366E+02  0.30000000000E+02  0.47000000000E+01 0.  1.
</event>
<event>
 4    1  0.7581446E-002  0.6000000E+02  0.7546771E-02  0.1259629E+00
         11   -1    0    0    0    0  0.00000000000E+00  0.00000000000E+00  0.30000000000E+02  0.30000000000E+02  0.00000000000E+00 0. -1.
        -11   -1    0    0    0    0 -0.00000000000E+00 -0.00000000000E+00 -0.30000000000E+02  0.30000000000E+02  0.00000000000E+00 0.  1.
          5    1    1    2  501    0 -0.89587490966E+01  0.22425248909E+02 -0.17168547579E+02  0.30000000000E+02  0.47000000000E+01 0.  1.
         -5    1    1    2    0  501  0.89587490966E+01 -0.22425248909E+02  0.17168547579E+02  0.30000000000E+02  0.47000000000E+01 0. -1.
</event>
<event>
 4    1  0.7581446E-002  0.6000000E+02  0.7546771E-02  0.1259629E+00
         11   -1    0    0    0    0  0.00000000000E+00  0.00000000000E+00  0.30000000000E+02  0.30000000000E+02  0.00000000000E+00 0.  1.
        -11   -1    0    0    0    0 -0.00000000000E+00 -0.00000000000E+00 -0.30000000000E+02  0.30000000000E+02  0.00000000000E+00 0. -1.
          5    1    1    2  501    0 -0.66740061519E+01  0.25721032069E+02 -0.13107103081E+02  0.30000000000E+02  0.47000000000E+01 0. -1.
         -5    1    1    2    0  501  0.66740061519E+01 -0.25721032069E+02  0.13107103081E+02  0.30000000000E+02  0.47000000000E+01 0.  1.
</event>
<event>
 4    1  0.7581446E-002  0.6000000E+02  0.7546771E-02  0.1259629E+00
         11   -1    0    0    0    0  0.00000000000E+00  0.00000000000E+00  0.30000000000E+02  0.30000000000E+02  0.00000000000E+00 0.  1.
        -11   -1    0    0    0    0 -0.00000000000E+00 -0.00000000000E+00 -0.30000000000E+02  0.30000000000E+02  0.00000000000E+00 0. -1.
          5    1    1    2  501    0  0.14665459176E+02  0.90853955922E+01 -0.24089207004E+02  0.30000000000E+02  0.47000000000E+01 0. -1.
         -5    1    1    2    0  501 -0.14665459176E+02 -0.90853955922E+01  0.24089207004E+02  0.30000000000E+02  0.47000000000E+01 0.  1.
</event>
<event>
 4    1  0.7581446E-002  0.6000000E+02  0.7546771E-02  0.1259629E+00
         11   -1    0    0    0    0  0.00000000000E+00  0.00000000000E+00  0.30000000000E+02  0.30000000000E+02  0.00000000000E+00 0.  1.
        -11   -1    0    0    0    0 -0.00000000000E+00 -0.00000000000E+00 -0.30000000000E+02  0.30000000000E+02  0.00000000000E+00 0. -1.
          5    1    1    2  501    0 -0.13625175632E+02  0.26301977640E+02  0.68597465691E+00  0.30000000000E+02  0.47000000000E+01 0. -1.
         -5    1    1    2    0  501  0.13625175632E+02 -0.26301977640E+02 -0.68597465691E+00  0.30000000000E+02  0.47000000000E+01 0.  1.
</event>
<event>
 4    1  0.7581446E-002  0.6000000E+02  0.7546771E-02  0.1259629E+00
         11   -1    0    0    0    0  0.00000000000E+00  0.00000000000E+00  0.30000000000E+02  0.30000000000E+02  0.00000000000E+00 0. -1.
        -11   -1    0    0    0    0 -0.00000000000E+00 -0.00000000000E+00 -0.30000000000E+02  0.30000000000E+02  0.00000000000E+00 0.  1.
          5    1    1    2  501    0  0.24990797427E+02  0.91370492187E+01 -0.13033970060E+02  0.30000000000E+02  0.47000000000E+01 0.  1.
         -5    1    1    2    0  501 -0.24990797427E+02 -0.91370492187E+01  0.13033970060E+02  0.30000000000E+02  0.47000000000E+01 0. -1.
</event>
<event>
 4    1  0.7581446E-002  0.6000000E+02  0.7546771E-02  0.1259629E+00
         11   -1    0    0    0    0  0.00000000000E+00  0.00000000000E+00  0.30000000000E+02  0.30000000000E+02  0.00000000000E+00 0.  1.
        -11   -1    0    0    0    0 -0.00000000000E+00 -0.00000000000E+00 -0.30000000000E+02  0.30000000000E+02  0.00000000000E+00 0. -1.
          5    1    1    2  501    0 -0.86524303228E+01 -0.87401814348E+01 -0.26956533123E+02  0.30000000000E+02  0.47000000000E+01 0. -1.
         -5    1    1    2    0  501  0.86524303228E+01  0.87401814348E+01  0.26956533123E+02  0.30000000000E+02  0.47000000000E+01 0.  1.
</event>
<event>
 4    1  0.7581446E-002  0.6000000E+02  0.7546771E-02  0.1259629E+00
         11   -1    0    0    0    0  0.00000000000E+00  0.00000000000E+00  0.30000000000E+02  0.30000000000E+02  0.00000000000E+00 0.  1.
        -11   -1    0    0    0    0 -0.00000000000E+00 -0.00000000000E+00 -0.30000000000E+02  0.30000000000E+02  0.00000000000E+00 0. -1.
          5    1    1    2  501    0 -0.26593438255E+01  0.14391695545E+02 -0.25762705404E+02  0.30000000000E+02  0.47000000000E+01 0. -1.
         -5    1    1    2    0  501  0.26593438255E+01 -0.14391695545E+02  0.25762705404E+02  0.30000000000E+02  0.47000000000E+01 0.  1.
</event>
<event>
 4    1  0.7581446E-002  0.6000000E+02  0.7546771E-02  0.1259629E+00
         11   -1    0    0    0    0  0.00000000000E+00  0.00000000000E+00  0.30000000000E+02  0.30000000000E+02  0.00000000000E+00 0.  1.
        -11   -1    0    0    0    0 -0.00000000000E+00 -0.00000000000E+00 -0.30000000000E+02  0.30000000000E+02  0.00000000000E+00 0. -1.
          5    1    1    2  501    0 -0.40826136771E+01 -0.29304961429E+02  0.15689172055E+01  0.30000000000E+02  0.47000000000E+01 0. -1.
         -5    1    1    2    0  501  0.40826136771E+01  0.29304961429E+02 -0.15689172055E+01  0.30000000000E+02  0.47000000000E+01 0.  1.
</event>
<event>
 4    1  0.7581446E-002  0.6000000E+02  0.7546771E-02  0.1259629E+00
         11   -1    0    0    0    0  0.00000000000E+00  0.00000000000E+00  0.30000000000E+02  0.30000000000E+02  0.00000000000E+00 0. -1.
        -11   -1    0    0    0    0 -0.00000000000E+00 -0.00000000000E+00 -0.30000000000E+02  0.30000000000E+02  0.00000000000E+00 0.  1.
          5    1    1    2  501    0 -0.88109608238E+01 -0.32361626293E+01 -0.28103455674E+02  0.30000000000E+02  0.47000000000E+01 0.  1.
         -5    1    1    2    0  501  0.88109608238E+01  0.32361626293E+01  0.28103455674E+02  0.30000000000E+02  0.47000000000E+01 0. -1.
</event>
<event>
 4    1  0.7581446E-002  0.6000000E+02  0.7546771E-02  0.1259629E+00
         11   -1    0    0    0    0  0.00000000000E+00  0.00000000000E+00  0.30000000000E+02  0.30000000000E+02  0.00000000000E+00 0.  1.
        -11   -1    0    0    0    0 -0.00000000000E+00 -0.00000000000E+00 -0.30000000000E+02  0.30000000000E+02  0.00000000000E+00 0. -1.
          5    1    1    2  501    0  0.46135964918E+01 -0.17260391592E+02 -0.23636912013E+02  0.30000000000E+02  0.47000000000E+01 0. -1.
         -5    1    1    2    0  501 -0.46135964918E+01  0.17260391592E+02  0.23636912013E+02  0.30000000000E+02  0.47000000000E+01 0.  1.
</event>
<event>
 4    1  0.7581446E-002  0.6000000E+02  0.7546771E-02  0.1259629E+00
         11   -1    0    0    0    0  0.00000000000E+00  0.00000000000E+00  0.30000000000E+02  0.30000000000E+02  0.00000000000E+00 0. -1.
        -11   -1    0    0    0    0 -0.00000000000E+00 -0.00000000000E+00 -0.30000000000E+02  0.30000000000E+02  0.00000000000E+00 0.  1.
          5    1    1    2  501    0  0.22510853757E+02 -0.11325061986E+02  0.15585712501E+02  0.30000000000E+02  0.47000000000E+01 0. -1.
         -5    1    1    2    0  501 -0.22510853757E+02  0.11325061986E+02 -0.15585712501E+02  0.30000000000E+02  0.47000000000E+01 0.  1.
</event>
<event>
 4    1  0.7581446E-002  0.6000000E+02  0.7546771E-02  0.1259629E+00
         11   -1    0    0    0    0  0.00000000000E+00  0.00000000000E+00  0.30000000000E+02  0.30000000000E+02  0.00000000000E+00 0.  1.
        -11   -1    0    0    0    0 -0.00000000000E+00 -0.00000000000E+00 -0.30000000000E+02  0.30000000000E+02  0.00000000000E+00 0. -1.
          5    1    1    2  501    0  0.65746609428E-01  0.16074695658E+02 -0.24889954538E+02  0.30000000000E+02  0.47000000000E+01 0. -1.
         -5    1    1    2    0  501 -0.65746609428E-01 -0.16074695658E+02  0.24889954538E+02  0.30000000000E+02  0.47000000000E+01 0.  1.
</event>
<event>
 4    1  0.7581446E-002  0.6000000E+02  0.7546771E-02  0.1259629E+00
         11   -1    0    0    0    0  0.00000000000E+00  0.00000000000E+00  0.30000000000E+02  0.30000000000E+02  0.00000000000E+00 0.  1.
        -11   -1    0    0    0    0 -0.00000000000E+00 -0.00000000000E+00 -0.30000000000E+02  0.30000000000E+02  0.00000000000E+00 0. -1.
          5    1    1    2  501    0  0.12572671362E+02  0.20909350256E+02 -0.16811811523E+02  0.30000000000E+02  0.47000000000E+01 0. -1.
         -5    1    1    2    0  501 -0.12572671362E+02 -0.20909350256E+02  0.16811811523E+02  0.30000000000E+02  0.47000000000E+01 0.  1.
</event>
<event>
 4    1  0.7581446E-002  0.6000000E+02  0.7546771E-02  0.1259629E+00
         11   -1    0    0    0    0  0.00000000000E+00  0.00000000000E+00  0.30000000000E+02  0.30000000000E+02  0.00000000000E+00 0. -1.
        -11   -1    0    0    0    0 -0.00000000000E+00 -0.00000000000E+00 -0.30000000000E+02  0.30000000000E+02  0.00000000000E+00 0.  1.
          5    1    1    2  501    0  0.32050455198E-01  0.63837611368E+01 -0.28933658022E+02  0.30000000000E+02  0.47000000000E+01 0.  1.
         -5    1    1    2    0  501 -0.32050455198E-01 -0.63837611368E+01  0.28933658022E+02  0.30000000000E+02  0.47000000000E+01 0. -1.
</event>
<event>
 4    1  0.7581446E-002  0.6000000E+02  0.7546771E-02  0.1259629E+00
         11   -1    0    0    0    0  0.00000000000E+00  0.00000000000E+00  0.30000000000E+02  0.30000000000E+02  0.00000000000E+00 0.  1.
        -11   -1    0    0    0    0 -0.00000000000E+00 -0.00000000000E+00 -0.30000000000E+02  0.30000000000E+02  0.00000000000E+00 0. -1.
          5    1    1    2  501    0  0.89848240774E+01 -0.61542900255E+01 -0.27555537567E+02  0.30000000000E+02  0.47000000000E+01 0.  1.
         -5    1    1    2    0  501 -0.89848240774E+01  0.61542900255E+01  0.27555537567E+02  0.30000000000E+02  0.47000000000E+01 0.  1.
</event>
<event>
 4    1  0.7581446E-002  0.6000000E+02  0.7546771E-02  0.1259629E+00
         11   -1    0    0    0    0  0.00000000000E+00  0.00000000000E+00  0.30000000000E+02  0.30000000000E+02  0.00000000000E+00 0.  1.
        -11   -1    0    0    0    0 -0.00000000000E+00 -0.00000000000E+00 -0.30000000000E+02  0.30000000000E+02  0.00000000000E+00 0. -1.
          5    1    1    2  501    0  0.82729947937E+01 -0.10306326882E+02 -0.26518808105E+02  0.30000000000E+02  0.47000000000E+01 0. -1.
         -5    1    1    2    0  501 -0.82729947937E+01  0.10306326882E+02  0.26518808105E+02  0.30000000000E+02  0.47000000000E+01 0.  1.
</event>
<event>
 4    1  0.7581446E-002  0.6000000E+02  0.7546771E-02  0.1259629E+00
         11   -1    0    0    0    0  0.00000000000E+00  0.00000000000E+00  0.30000000000E+02  0.30000000000E+02  0.00000000000E+00 0.  1.
        -11   -1    0    0    0    0 -0.00000000000E+00 -0.00000000000E+00 -0.30000000000E+02  0.30000000000E+02  0.00000000000E+00 0. -1.
          5    1    1    2  501    0  0.83847725419E+01 -0.18068359656E+01 -0.28360905014E+02  0.30000000000E+02  0.47000000000E+01 0. -1.
         -5    1    1    2    0  501 -0.83847725419E+01  0.18068359656E+01  0.28360905014E+02  0.30000000000E+02  0.47000000000E+01 0.  1.
</event>
<event>
 4    1  0.7581446E-002  0.6000000E+02  0.7546771E-02  0.1259629E+00
         11   -1    0    0    0    0  0.00000000000E+00  0.00000000000E+00  0.30000000000E+02  0.30000000000E+02  0.00000000000E+00 0. -1.
        -11   -1    0    0    0    0 -0.00000000000E+00 -0.00000000000E+00 -0.30000000000E+02  0.30000000000E+02  0.00000000000E+00 0.  1.
          5    1    1    2  501    0  0.50711421934E+01 -0.90613418238E+01 -0.27750416235E+02  0.30000000000E+02  0.47000000000E+01 0.  1.
         -5    1    1    2    0  501 -0.50711421934E+01  0.90613418238E+01  0.27750416235E+02  0.30000000000E+02  0.47000000000E+01 0. -1.
</event>
<event>
 4    1  0.7581446E-002  0.6000000E+02  0.7546771E-02  0.1259629E+00
         11   -1    0    0    0    0  0.00000000000E+00  0.00000000000E+00  0.30000000000E+02  0.30000000000E+02  0.00000000000E+00 0.  1.
        -11   -1    0    0    0    0 -0.00000000000E+00 -0.00000000000E+00 -0.30000000000E+02  0.30000000000E+02  0.00000000000E+00 0. -1.
          5    1    1    2  501    0 -0.20833152891E+01  0.84055200219E+01 -0.28335790629E+02  0.30000000000E+02  0.47000000000E+01 0. -1.
         -5    1    1    2    0  501  0.20833152891E+01 -0.84055200219E+01  0.28335790629E+02  0.30000000000E+02  0.47000000000E+01 0.  1.
</event>
<event>
 4    1  0.7581446E-002  0.6000000E+02  0.7546771E-02  0.1259629E+00
         11   -1    0    0    0    0  0.00000000000E+00  0.00000000000E+00  0.30000000000E+02  0.30000000000E+02  0.00000000000E+00 0.  1.
        -11   -1    0    0    0    0 -0.00000000000E+00 -0.00000000000E+00 -0.30000000000E+02  0.30000000000E+02  0.00000000000E+00 0. -1.
          5    1    1    2  501    0 -0.29595079385E+02  0.74900510949E+00 -0.12166624485E+01  0.30000000000E+02  0.47000000000E+01 0. -1.
         -5    1    1    2    0  501  0.29595079385E+02 -0.74900510949E+00  0.12166624485E+01  0.30000000000E+02  0.47000000000E+01 0.  1.
</event>
<event>
 4    1  0.7581446E-002  0.6000000E+02  0.7546771E-02  0.1259629E+00
         11   -1    0    0    0    0  0.00000000000E+00  0.00000000000E+00  0.30000000000E+02  0.30000000000E+02  0.00000000000E+00 0. -1.
        -11   -1    0    0    0    0 -0.00000000000E+00 -0.00000000000E+00 -0.30000000000E+02  0.30000000000E+02  0.00000000000E+00 0.  1.
          5    1    1    2  501    0  0.83881149020E+01  0.27492410983E+02 -0.71914439932E+01  0.30000000000E+02  0.47000000000E+01 0.  1.
         -5    1    1    2    0  501 -0.83881149020E+01 -0.27492410983E+02  0.71914439932E+01  0.30000000000E+02  0.47000000000E+01 0. -1.
</event>
<event>
 4    1  0.7581446E-002  0.6000000E+02  0.7546771E-02  0.1259629E+00
         11   -1    0    0    0    0  0.00000000000E+00  0.00000000000E+00  0.30000000000E+02  0.30000000000E+02  0.00000000000E+00 0.  1.
        -11   -1    0    0    0    0 -0.00000000000E+00 -0.00000000000E+00 -0.30000000000E+02  0.30000000000E+02  0.00000000000E+00 0. -1.
          5    1    1    2  501    0  0.21101459861E+02  0.19647259576E+02 -0.68281463721E+01  0.30000000000E+02  0.47000000000E+01 0. -1.
         -5    1    1    2    0  501 -0.21101459861E+02 -0.19647259576E+02  0.68281463721E+01  0.30000000000E+02  0.47000000000E+01 0.  1.
</event>
<event>
 4    1  0.7581446E-002  0.6000000E+02  0.7546771E-02  0.1259629E+00
         11   -1    0    0    0    0  0.00000000000E+00  0.00000000000E+00  0.30000000000E+02  0.30000000000E+02  0.00000000000E+00 0.  1.
        -11   -1    0    0    0    0 -0.00000000000E+00 -0.00000000000E+00 -0.30000000000E+02  0.30000000000E+02  0.00000000000E+00 0. -1.
          5    1    1    2  501    0  0.14212588592E+02  0.91192146416E+01 -0.24346503853E+02  0.30000000000E+02  0.47000000000E+01 0. -1.
         -5    1    1    2    0  501 -0.14212588592E+02 -0.91192146416E+01  0.24346503853E+02  0.30000000000E+02  0.47000000000E+01 0.  1.
</event>
<event>
 4    1  0.7581446E-002  0.6000000E+02  0.7546771E-02  0.1259629E+00
         11   -1    0    0    0    0  0.00000000000E+00  0.00000000000E+00  0.30000000000E+02  0.30000000000E+02  0.00000000000E+00 0.  1.
        -11   -1    0    0    0    0 -0.00000000000E+00 -0.00000000000E+00 -0.30000000000E+02  0.30000000000E+02  0.00000000000E+00 0. -1.
          5    1    1    2  501    0 -0.21834799220E+02  0.19242172681E+02 -0.55579072978E+01  0.30000000000E+02  0.47000000000E+01 0. -1.
         -5    1    1    2    0  501  0.21834799220E+02 -0.19242172681E+02  0.55579072978E+01  0.30000000000E+02  0.47000000000E+01 0.  1.
</event>
<event>
 4    1  0.7581446E-002  0.6000000E+02  0.7546771E-02  0.1259629E+00
         11   -1    0    0    0    0  0.00000000000E+00  0.00000000000E+00  0.30000000000E+02  0.30000000000E+02  0.00000000000E+00 0.  1.
        -11   -1    0    0    0    0 -0.00000000000E+00 -0.00000000000E+00 -0.30000000000E+02  0.30000000000E+02  0.00000000000E+00 0. -1.
          5    1    1    2  501    0  0.13184379172E+02 -0.23831740375E+02  0.11667488871E+02  0.30000000000E+02  0.47000000000E+01 0. -1.
         -5    1    1    2    0  501 -0.13184379172E+02  0.23831740375E+02 -0.11667488871E+02  0.30000000000E+02  0.47000000000E+01 0.  1.
</event>
<event>
 4    1  0.7581446E-002  0.6000000E+02  0.7546771E-02  0.1259629E+00
         11   -1    0    0    0    0  0.00000000000E+00  0.00000000000E+00  0.30000000000E+02  0.30000000000E+02  0.00000000000E+00 0.  1.
        -11   -1    0    0    0    0 -0.00000000000E+00 -0.00000000000E+00 -0.30000000000E+02  0.30000000000E+02  0.00000000000E+00 0. -1.
          5    1    1    2  501    0 -0.42512431450E+01  0.24133767116E+02 -0.16655275936E+02  0.30000000000E+02  0.47000000000E+01 0. -1.
         -5    1    1    2    0  501  0.42512431450E+01 -0.24133767116E+02  0.16655275936E+02  0.30000000000E+02  0.47000000000E+01 0.  1.
</event>
<event>
 4    1  0.7581446E-002  0.6000000E+02  0.7546771E-02  0.1259629E+00
         11   -1    0    0    0    0  0.00000000000E+00  0.00000000000E+00  0.30000000000E+02  0.30000000000E+02  0.00000000000E+00 0.  1.
        -11   -1    0    0    0    0 -0.00000000000E+00 -0.00000000000E+00 -0.30000000000E+02  0.30000000000E+02  0.00000000000E+00 0. -1.
          5    1    1    2  501    0  0.36739625915E+01 -0.28959693439E+02 -0.50742639658E+01  0.30000000000E+02  0.47000000000E+01 0. -1.
         -5    1    1    2    0  501 -0.36739625915E+01  0.28959693439E+02  0.50742639658E+01  0.30000000000E+02  0.47000000000E+01 0. -1.
</event>
<event>
 4    1  0.7581446E-002  0.6000000E+02  0.7546771E-02  0.1259629E+00
         11   -1    0    0    0    0  0.00000000000E+00  0.00000000000E+00  0.30000000000E+02  0.30000000000E+02  0.00000000000E+00 0.  1.
        -11   -1    0    0    0    0 -0.00000000000E+00 -0.00000000000E+00 -0.30000000000E+02  0.30000000000E+02  0.00000000000E+00 0. -1.
          5    1    1    2  501    0  0.21669440970E+01  0.23620563744E+02 -0.17756219240E+02  0.30000000000E+02  0.47000000000E+01 0. -1.
         -5    1    1    2    0  501 -0.21669440970E+01 -0.23620563744E+02  0.17756219240E+02  0.30000000000E+02  0.47000000000E+01 0.  1.
</event>
<event>
 4    1  0.7581446E-002  0.6000000E+02  0.7546771E-02  0.1259629E+00
         11   -1    0    0    0    0  0.00000000000E+00  0.00000000000E+00  0.30000000000E+02  0.30000000000E+02  0.00000000000E+00 0. -1.
        -11   -1    0    0    0    0 -0.00000000000E+00 -0.00000000000E+00 -0.30000000000E+02  0.30000000000E+02  0.00000000000E+00 0.  1.
          5    1    1    2  501    0 -0.20880077970E+01  0.10002069712E+02 -0.27812026624E+02  0.30000000000E+02  0.47000000000E+01 0.  1.
         -5    1    1    2    0  501  0.20880077970E+01 -0.10002069712E+02  0.27812026624E+02  0.30000000000E+02  0.47000000000E+01 0. -1.
</event>
<event>
 4    1  0.7581446E-002  0.6000000E+02  0.7546771E-02  0.1259629E+00
         11   -1    0    0    0    0  0.00000000000E+00  0.00000000000E+00  0.30000000000E+02  0.30000000000E+02  0.00000000000E+00 0. -1.
        -11   -1    0    0    0    0 -0.00000000000E+00 -0.00000000000E+00 -0.30000000000E+02  0.30000000000E+02  0.00000000000E+00 0.  1.
          5    1    1    2  501    0  0.25351784230E+02 -0.13808986446E+02 -0.66715013071E+01  0.30000000000E+02  0.47000000000E+01 0. -1.
         -5    1    1    2    0  501 -0.25351784230E+02  0.13808986446E+02  0.66715013071E+01  0.30000000000E+02  0.47000000000E+01 0.  1.
</event>
<event>
 4    1  0.7581446E-002  0.6000000E+02  0.7546771E-02  0.1259629E+00
         11   -1    0    0    0    0  0.00000000000E+00  0.00000000000E+00  0.30000000000E+02  0.30000000000E+02  0.00000000000E+00 0.  1.
        -11   -1    0    0    0    0 -0.00000000000E+00 -0.00000000000E+00 -0.30000000000E+02  0.30000000000E+02  0.00000000000E+00 0. -1.
          5    1    1    2  501    0  0.11479920592E+02  0.11684201776E+02 -0.24690096234E+02  0.30000000000E+02  0.47000000000E+01 0. -1.
         -5    1    1    2    0  501 -0.11479920592E+02 -0.11684201776E+02  0.24690096234E+02  0.30000000000E+02  0.47000000000E+01 0.  1.
</event>
<event>
 4    1  0.7581446E-002  0.6000000E+02  0.7546771E-02  0.1259629E+00
         11   -1    0    0    0    0  0.00000000000E+00  0.00000000000E+00  0.30000000000E+02  0.30000000000E+02  0.00000000000E+00 0.  1.
        -11   -1    0    0    0    0 -0.00000000000E+00 -0.00000000000E+00 -0.30000000000E+02  0.30000000000E+02  0.00000000000E+00 0. -1.
          5    1    1    2  501    0  0.11111290821E+02 -0.17777148977E+02 -0.20938533630E+02  0.30000000000E+02  0.47000000000E+01 0. -1.
         -5    1    1    2    0  501 -0.11111290821E+02  0.17777148977E+02  0.20938533630E+02  0.30000000000E+02  0.47000000000E+01 0.  1.
</event>
<event>
 4    1  0.7581446E-002  0.6000000E+02  0.7546771E-02  0.1259629E+00
         11   -1    0    0    0    0  0.00000000000E+00  0.00000000000E+00  0.30000000000E+02  0.30000000000E+02  0.00000000000E+00 0.  1.
        -11   -1    0    0    0    0 -0.00000000000E+00 -0.00000000000E+00 -0.30000000000E+02  0.30000000000E+02  0.00000000000E+00 0. -1.
          5    1    1    2  501    0  0.78700216048E+00 -0.17382929105E+02 -0.23981751465E+02  0.30000000000E+02  0.47000000000E+01 0. -1.
         -5    1    1    2    0  501 -0.78700216048E+00  0.17382929105E+02  0.23981751465E+02  0.30000000000E+02  0.47000000000E+01 0.  1.
</event>
<event>
 4    1  0.7581446E-002  0.6000000E+02  0.7546771E-02  0.1259629E+00
         11   -1    0    0    0    0  0.00000000000E+00  0.00000000000E+00  0.30000000000E+02  0.30000000000E+02  0.00000000000E+00 0.  1.
        -11   -1    0    0    0    0 -0.00000000000E+00 -0.00000000000E+00 -0.30000000000E+02  0.30000000000E+02  0.00000000000E+00 0. -1.
          5    1    1    2  501    0 -0.18019088067E+02 -0.20591053036E+02 -0.11367981356E+02  0.30000000000E+02  0.47000000000E+01 0. -1.
         -5    1    1    2    0  501  0.18019088067E+02  0.20591053036E+02  0.11367981356E+02  0.30000000000E+02  0.47000000000E+01 0.  1.
</event>
<event>
 4    1  0.7581446E-002  0.6000000E+02  0.7546771E-02  0.1259629E+00
         11   -1    0    0    0    0  0.00000000000E+00  0.00000000000E+00  0.30000000000E+02  0.30000000000E+02  0.00000000000E+00 0.  1.
        -11   -1    0    0    0    0 -0.00000000000E+00 -0.00000000000E+00 -0.30000000000E+02  0.30000000000E+02  0.00000000000E+00 0. -1.
          5    1    1    2  501    0  0.11608443090E+02 -0.12323491572E+02 -0.24316364953E+02  0.30000000000E+02  0.47000000000E+01 0. -1.
         -5    1    1    2    0  501 -0.11608443090E+02  0.12323491572E+02  0.24316364953E+02  0.30000000000E+02  0.47000000000E+01 0.  1.
</event>
<event>
 4    1  0.7581446E-002  0.6000000E+02  0.7546771E-02  0.1259629E+00
         11   -1    0    0    0    0  0.00000000000E+00  0.00000000000E+00  0.30000000000E+02  0.30000000000E+02  0.00000000000E+00 0. -1.
        -11   -1    0    0    0    0 -0.00000000000E+00 -0.00000000000E+00 -0.30000000000E+02  0.30000000000E+02  0.00000000000E+00 0.  1.
          5    1    1    2  501    0 -0.14346518618E+02  0.17436597043E+02 -0.19184694084E+02  0.30000000000E+02  0.47000000000E+01 0.  1.
         -5    1    1    2    0  501  0.14346518618E+02 -0.17436597043E+02  0.19184694084E+02  0.30000000000E+02  0.47000000000E+01 0. -1.
</event>
<event>
 4    1  0.7581446E-002  0.6000000E+02  0.7546771E-02  0.1259629E+00
         11   -1    0    0    0    0  0.00000000000E+00  0.00000000000E+00  0.30000000000E+02  0.30000000000E+02  0.00000000000E+00 0. -1.
        -11   -1    0    0    0    0 -0.00000000000E+00 -0.00000000000E+00 -0.30000000000E+02  0.30000000000E+02  0.00000000000E+00 0.  1.
          5    1    1    2  501    0  0.15062508516E+02  0.15295245500E+02 -0.20422690868E+02  0.30000000000E+02  0.47000000000E+01 0.  1.
         -5    1    1    2    0  501 -0.15062508516E+02 -0.15295245500E+02  0.20422690868E+02  0.30000000000E+02  0.47000000000E+01 0. -1.
</event>
<event>
 4    1  0.7581446E-002  0.6000000E+02  0.7546771E-02  0.1259629E+00
         11   -1    0    0    0    0  0.00000000000E+00  0.00000000000E+00  0.30000000000E+02  0.30000000000E+02  0.00000000000E+00 0.  1.
        -11   -1    0    0    0    0 -0.00000000000E+00 -0.00000000000E+00 -0.30000000000E+02  0.30000000000E+02  0.00000000000E+00 0. -1.
          5    1    1    2  501    0  0.12384592586E+02  0.25082060771E+02 -0.97684233091E+01  0.30000000000E+02  0.47000000000E+01 0. -1.
         -5    1    1    2    0  501 -0.12384592586E+02 -0.25082060771E+02  0.97684233091E+01  0.30000000000E+02  0.47000000000E+01 0.  1.
</event>
<event>
 4    1  0.7581446E-002  0.6000000E+02  0.7546771E-02  0.1259629E+00
         11   -1    0    0    0    0  0.00000000000E+00  0.00000000000E+00  0.30000000000E+02  0.30000000000E+02  0.00000000000E+00 0. -1.
        -11   -1    0    0    0    0 -0.00000000000E+00 -0.00000000000E+00 -0.30000000000E+02  0.30000000000E+02  0.00000000000E+00 0.  1.
          5    1    1    2  501    0  0.14576201834E+02 -0.61215759657E+01 -0.25059342525E+02  0.30000000000E+02  0.47000000000E+01 0.  1.
         -5    1    1    2    0  501 -0.14576201834E+02  0.61215759657E+01  0.25059342525E+02  0.30000000000E+02  0.47000000000E+01 0. -1.
</event>
<event>
 4    1  0.7581446E-002  0.6000000E+02  0.7546771E-02  0.1259629E+00
         11   -1    0    0    0    0  0.00000000000E+00  0.00000000000E+00  0.30000000000E+02  0.30000000000E+02  0.00000000000E+00 0. -1.
        -11   -1    0    0    0    0 -0.00000000000E+00 -0.00000000000E+00 -0.30000000000E+02  0.30000000000E+02  0.00000000000E+00 0.  1.
          5    1    1    2  501    0  0.16189242307E+02  0.23747967939E+02 -0.72008646909E+01  0.30000000000E+02  0.47000000000E+01 0.  1.
         -5    1    1    2    0  501 -0.16189242307E+02 -0.23747967939E+02  0.72008646909E+01  0.30000000000E+02  0.47000000000E+01 0. -1.
</event>
<event>
 4    1  0.7581446E-002  0.6000000E+02  0.7546771E-02  0.1259629E+00
         11   -1    0    0    0    0  0.00000000000E+00  0.00000000000E+00  0.30000000000E+02  0.30000000000E+02  0.00000000000E+00 0. -1.
        -11   -1    0    0    0    0 -0.00000000000E+00 -0.00000000000E+00 -0.30000000000E+02  0.30000000000E+02  0.00000000000E+00 0.  1.
          5    1    1    2  501    0  0.15393476219E+02 -0.20369483889E+02 -0.15034460948E+02  0.30000000000E+02  0.47000000000E+01 0.  1.
         -5    1    1    2    0  501 -0.15393476219E+02  0.20369483889E+02  0.15034460948E+02  0.30000000000E+02  0.47000000000E+01 0. -1.
</event>
<event>
 4    1  0.7581446E-002  0.6000000E+02  0.7546771E-02  0.1259629E+00
         11   -1    0    0    0    0  0.00000000000E+00  0.00000000000E+00  0.30000000000E+02  0.30000000000E+02  0.00000000000E+00 0.  1.
        -11   -1    0    0    0    0 -0.00000000000E+00 -0.00000000000E+00 -0.30000000000E+02  0.30000000000E+02  0.00000000000E+00 0. -1.
          5    1    1    2  501    0  0.12289070942E+02 -0.12871128053E+02 -0.23690141368E+02  0.30000000000E+02  0.47000000000E+01 0. -1.
         -5    1    1    2    0  501 -0.12289070942E+02  0.12871128053E+02  0.23690141368E+02  0.30000000000E+02  0.47000000000E+01 0.  1.
</event>
<event>
 4    1  0.7581446E-002  0.6000000E+02  0.7546771E-02  0.1259629E+00
         11   -1    0    0    0    0  0.00000000000E+00  0.00000000000E+00  0.30000000000E+02  0.30000000000E+02  0.00000000000E+00 0. -1.
        -11   -1    0    0    0    0 -0.00000000000E+00 -0.00000000000E+00 -0.30000000000E+02  0.30000000000E+02  0.00000000000E+00 0.  1.
          5    1    1    2  501    0  0.14434669946E+02  0.20270615441E+02  0.16082675560E+02  0.30000000000E+02  0.47000000000E+01 0. -1.
         -5    1    1    2    0  501 -0.14434669946E+02 -0.20270615441E+02 -0.16082675560E+02  0.30000000000E+02  0.47000000000E+01 0.  1.
</event>
<event>
 4    1  0.7581446E-002  0.6000000E+02  0.7546771E-02  0.1259629E+00
         11   -1    0    0    0    0  0.00000000000E+00  0.00000000000E+00  0.30000000000E+02  0.30000000000E+02  0.00000000000E+00 0.  1.
        -11   -1    0    0    0    0 -0.00000000000E+00 -0.00000000000E+00 -0.30000000000E+02  0.30000000000E+02  0.00000000000E+00 0. -1.
          5    1    1    2  501    0 -0.11652892376E+02 -0.24585618809E+02 -0.11733177194E+02  0.30000000000E+02  0.47000000000E+01 0. -1.
         -5    1    1    2    0  501  0.11652892376E+02  0.24585618809E+02  0.11733177194E+02  0.30000000000E+02  0.47000000000E+01 0.  1.
</event>
<event>
 4    1  0.7581446E-002  0.6000000E+02  0.7546771E-02  0.1259629E+00
         11   -1    0    0    0    0  0.00000000000E+00  0.00000000000E+00  0.30000000000E+02  0.30000000000E+02  0.00000000000E+00 0.  1.
        -11   -1    0    0    0    0 -0.00000000000E+00 -0.00000000000E+00 -0.30000000000E+02  0.30000000000E+02  0.00000000000E+00 0. -1.
          5    1    1    2  501    0 -0.25103312621E+02  0.15732230005E+02  0.48024424328E+00  0.30000000000E+02  0.47000000000E+01 0.  1.
         -5    1    1    2    0  501  0.25103312621E+02 -0.15732230005E+02 -0.48024424328E+00  0.30000000000E+02  0.47000000000E+01 0. -1.
</event>
<event>
 4    1  0.7581446E-002  0.6000000E+02  0.7546771E-02  0.1259629E+00
         11   -1    0    0    0    0  0.00000000000E+00  0.00000000000E+00  0.30000000000E+02  0.30000000000E+02  0.00000000000E+00 0.  1.
        -11   -1    0    0    0    0 -0.00000000000E+00 -0.00000000000E+00 -0.30000000000E+02  0.30000000000E+02  0.00000000000E+00 0. -1.
          5    1    1    2  501    0  0.19680342823E+02  0.17567358189E+01  0.22079583004E+02  0.30000000000E+02  0.47000000000E+01 0.  1.
         -5    1    1    2    0  501 -0.19680342823E+02 -0.17567358189E+01 -0.22079583004E+02  0.30000000000E+02  0.47000000000E+01 0. -1.
</event>
<event>
 4    1  0.7581446E-002  0.6000000E+02  0.7546771E-02  0.1259629E+00
         11   -1    0    0    0    0  0.00000000000E+00  0.00000000000E+00  0.30000000000E+02  0.30000000000E+02  0.00000000000E+00 0.  1.
        -11   -1    0    0    0    0 -0.00000000000E+00 -0.00000000000E+00 -0.30000000000E+02  0.30000000000E+02  0.00000000000E+00 0. -1.
          5    1    1    2  501    0 -0.46555951898E+01  0.13143493398E+02 -0.26143527205E+02  0.30000000000E+02  0.47000000000E+01 0. -1.
         -5    1    1    2    0  501  0.46555951898E+01 -0.13143493398E+02  0.26143527205E+02  0.30000000000E+02  0.47000000000E+01 0.  1.
</event>
<event>
 4    1  0.7581446E-002  0.6000000E+02  0.7546771E-02  0.1259629E+00
         11   -1    0    0    0    0  0.00000000000E+00  0.00000000000E+00  0.30000000000E+02  0.30000000000E+02  0.00000000000E+00 0.  1.
        -11   -1    0    0    0    0 -0.00000000000E+00 -0.00000000000E+00 -0.30000000000E+02  0.30000000000E+02  0.00000000000E+00 0. -1.
          5    1    1    2  501    0 -0.21843923276E+02 -0.11148429116E+00  0.20018506117E+02  0.30000000000E+02  0.47000000000E+01 0.  1.
         -5    1    1    2    0  501  0.21843923276E+02  0.11148429116E+00 -0.20018506117E+02  0.30000000000E+02  0.47000000000E+01 0. -1.
</event>
<event>
 4    1  0.7581446E-002  0.6000000E+02  0.7546771E-02  0.1259629E+00
         11   -1    0    0    0    0  0.00000000000E+00  0.00000000000E+00  0.30000000000E+02  0.30000000000E+02  0.00000000000E+00 0.  1.
        -11   -1    0    0    0    0 -0.00000000000E+00 -0.00000000000E+00 -0.30000000000E+02  0.30000000000E+02  0.00000000000E+00 0. -1.
          5    1    1    2  501    0  0.20092616049E+02  0.20925377992E+02  0.60270503727E+01  0.30000000000E+02  0.47000000000E+01 0. -1.
         -5    1    1    2    0  501 -0.20092616049E+02 -0.20925377992E+02 -0.60270503727E+01  0.30000000000E+02  0.47000000000E+01 0.  1.
</event>
<event>
 4    1  0.7581446E-002  0.6000000E+02  0.7546771E-02  0.1259629E+00
         11   -1    0    0    0    0  0.00000000000E+00  0.00000000000E+00  0.30000000000E+02  0.30000000000E+02  0.00000000000E+00 0. -1.
        -11   -1    0    0    0    0 -0.00000000000E+00 -0.00000000000E+00 -0.30000000000E+02  0.30000000000E+02  0.00000000000E+00 0.  1.
          5    1    1    2  501    0  0.28654204353E+02 -0.17645045249E+01 -0.73302862610E+01  0.30000000000E+02  0.47000000000E+01 0.  1.
         -5    1    1    2    0  501 -0.28654204353E+02  0.17645045249E+01  0.73302862610E+01  0.30000000000E+02  0.47000000000E+01 0. -1.
</event>
<event>
 4    1  0.7581446E-002  0.6000000E+02  0.7546771E-02  0.1259629E+00
         11   -1    0    0    0    0  0.00000000000E+00  0.00000000000E+00  0.30000000000E+02  0.30000000000E+02  0.00000000000E+00 0.  1.
        -11   -1    0    0    0    0 -0.00000000000E+00 -0.00000000000E+00 -0.30000000000E+02  0.30000000000E+02  0.00000000000E+00 0. -1.
          5    1    1    2  501    0  0.17803309635E+02  0.21282138186E+02 -0.10393399843E+02  0.30000000000E+02  0.47000000000E+01 0. -1.
         -5    1    1    2    0  501 -0.17803309635E+02 -0.21282138186E+02  0.10393399843E+02  0.30000000000E+02  0.47000000000E+01 0.  1.
</event>
<event>
 4    1  0.7581446E-002  0.6000000E+02  0.7546771E-02  0.1259629E+00
         11   -1    0    0    0    0  0.00000000000E+00  0.00000000000E+00  0.30000000000E+02  0.30000000000E+02  0.00000000000E+00 0.  1.
        -11   -1    0    0    0    0 -0.00000000000E+00 -0.00000000000E+00 -0.30000000000E+02  0.30000000000E+02  0.00000000000E+00 0. -1.
          5    1    1    2  501    0  0.46434403735E+01  0.10033218382E+02  0.27489688801E+02  0.30000000000E+02  0.47000000000E+01 0.  1.
         -5    1    1    2    0  501 -0.46434403735E+01 -0.10033218382E+02 -0.27489688801E+02  0.30000000000E+02  0.47000000000E+01 0. -1.
</event>
<event>
 4    1  0.7581446E-002  0.6000000E+02  0.7546771E-02  0.1259629E+00
         11   -1    0    0    0    0  0.00000000000E+00  0.00000000000E+00  0.30000000000E+02  0.30000000000E+02  0.00000000000E+00 0.  1.
        -11   -1    0    0    0    0 -0.00000000000E+00 -0.00000000000E+00 -0.30000000000E+02  0.30000000000E+02  0.00000000000E+00 0. -1.
          5    1    1    2  501    0  0.25894501435E+02  0.10373616327E+02 -0.99886375305E+01  0.30000000000E+02  0.47000000000E+01 0. -1.
         -5    1    1    2    0  501 -0.25894501435E+02 -0.10373616327E+02  0.99886375305E+01  0.30000000000E+02  0.47000000000E+01 0.  1.
</event>
<event>
 4    1  0.7581446E-002  0.6000000E+02  0.7546771E-02  0.1259629E+00
         11   -1    0    0    0    0  0.00000000000E+00  0.00000000000E+00  0.30000000000E+02  0.30000000000E+02  0.00000000000E+00 0.  1.
        -11   -1    0    0    0    0 -0.00000000000E+00 -0.00000000000E+00 -0.30000000000E+02  0.30000000000E+02  0.00000000000E+00 0. -1.
          5    1    1    2  501    0 -0.22174421370E+02  0.20856214191E+01 -0.19541116145E+02  0.30000000000E+02  0.47000000000E+01 0. -1.
         -5    1    1    2    0  501  0.22174421370E+02 -0.20856214191E+01  0.19541116145E+02  0.30000000000E+02  0.47000000000E+01 0.  1.
</event>
<event>
 4    1  0.7581446E-002  0.6000000E+02  0.7546771E-02  0.1259629E+00
         11   -1    0    0    0    0  0.00000000000E+00  0.00000000000E+00  0.30000000000E+02  0.30000000000E+02  0.00000000000E+00 0.  1.
        -11   -1    0    0    0    0 -0.00000000000E+00 -0.00000000000E+00 -0.30000000000E+02  0.30000000000E+02  0.00000000000E+00 0. -1.
          5    1    1    2  501    0 -0.12305270720E+02 -0.23552485835E+02 -0.13106133050E+02  0.30000000000E+02  0.47000000000E+01 0. -1.
         -5    1    1    2    0  501  0.12305270720E+02  0.23552485835E+02  0.13106133050E+02  0.30000000000E+02  0.47000000000E+01 0.  1.
</event>
<event>
 4    1  0.7581446E-002  0.6000000E+02  0.7546771E-02  0.1259629E+00
         11   -1    0    0    0    0  0.00000000000E+00  0.00000000000E+00  0.30000000000E+02  0.30000000000E+02  0.00000000000E+00 0.  1.
        -11   -1    0    0    0    0 -0.00000000000E+00 -0.00000000000E+00 -0.30000000000E+02  0.30000000000E+02  0.00000000000E+00 0. -1.
          5    1    1    2  501    0  0.90514477004E+01 -0.25767949088E+02 -0.11488868279E+02  0.30000000000E+02  0.47000000000E+01 0. -1.
         -5    1    1    2    0  501 -0.90514477004E+01  0.25767949088E+02  0.11488868279E+02  0.30000000000E+02  0.47000000000E+01 0.  1.
</event>
<event>
 4    1  0.7581446E-002  0.6000000E+02  0.7546771E-02  0.1259629E+00
         11   -1    0    0    0    0  0.00000000000E+00  0.00000000000E+00  0.30000000000E+02  0.30000000000E+02  0.00000000000E+00 0.  1.
        -11   -1    0    0    0    0 -0.00000000000E+00 -0.00000000000E+00 -0.30000000000E+02  0.30000000000E+02  0.00000000000E+00 0. -1.
          5    1    1    2  501    0 -0.62074380640E+01  0.29509298174E+01 -0.28821341501E+02  0.30000000000E+02  0.47000000000E+01 0. -1.
         -5    1    1    2    0  501  0.62074380640E+01 -0.29509298174E+01  0.28821341501E+02  0.30000000000E+02  0.47000000000E+01 0.  1.
</event>
<event>
 4    1  0.7581446E-002  0.6000000E+02  0.7546771E-02  0.1259629E+00
         11   -1    0    0    0    0  0.00000000000E+00  0.00000000000E+00  0.30000000000E+02  0.30000000000E+02  0.00000000000E+00 0.  1.
        -11   -1    0    0    0    0 -0.00000000000E+00 -0.00000000000E+00 -0.30000000000E+02  0.30000000000E+02  0.00000000000E+00 0. -1.
          5    1    1    2  501    0 -0.15225679643E+02  0.19457743964E+02 -0.16354964973E+02  0.30000000000E+02  0.47000000000E+01 0. -1.
         -5    1    1    2    0  501  0.15225679643E+02 -0.19457743964E+02  0.16354964973E+02  0.30000000000E+02  0.47000000000E+01 0.  1.
</event>
<event>
 4    1  0.7581446E-002  0.6000000E+02  0.7546771E-02  0.1259629E+00
         11   -1    0    0    0    0  0.00000000000E+00  0.00000000000E+00  0.30000000000E+02  0.30000000000E+02  0.00000000000E+00 0.  1.
        -11   -1    0    0    0    0 -0.00000000000E+00 -0.00000000000E+00 -0.30000000000E+02  0.30000000000E+02  0.00000000000E+00 0. -1.
          5    1    1    2  501    0 -0.11011676156E+02  0.18723221039E+02 -0.20151773673E+02  0.30000000000E+02  0.47000000000E+01 0. -1.
         -5    1    1    2    0  501  0.11011676156E+02 -0.18723221039E+02  0.20151773673E+02  0.30000000000E+02  0.47000000000E+01 0.  1.
</event>
<event>
 4    1  0.7581446E-002  0.6000000E+02  0.7546771E-02  0.1259629E+00
         11   -1    0    0    0    0  0.00000000000E+00  0.00000000000E+00  0.30000000000E+02  0.30000000000E+02  0.00000000000E+00 0. -1.
        -11   -1    0    0    0    0 -0.00000000000E+00 -0.00000000000E+00 -0.30000000000E+02  0.30000000000E+02  0.00000000000E+00 0.  1.
          5    1    1    2  501    0  0.23534584185E+02 -0.13810919215E+02  0.11545209295E+02  0.30000000000E+02  0.47000000000E+01 0.  1.
         -5    1    1    2    0  501 -0.23534584185E+02  0.13810919215E+02 -0.11545209295E+02  0.30000000000E+02  0.47000000000E+01 0. -1.
</event>
<event>
 4    1  0.7581446E-002  0.6000000E+02  0.7546771E-02  0.1259629E+00
         11   -1    0    0    0    0  0.00000000000E+00  0.00000000000E+00  0.30000000000E+02  0.30000000000E+02  0.00000000000E+00 0.  1.
        -11   -1    0    0    0    0 -0.00000000000E+00 -0.00000000000E+00 -0.30000000000E+02  0.30000000000E+02  0.00000000000E+00 0. -1.
          5    1    1    2  501    0 -0.27779529630E+02  0.33628635730E+00 -0.10300225484E+02  0.30000000000E+02  0.47000000000E+01 0.  1.
         -5    1    1    2    0  501  0.27779529630E+02 -0.33628635730E+00  0.10300225484E+02  0.30000000000E+02  0.47000000000E+01 0. -1.
</event>
<event>
 4    1  0.7581446E-002  0.6000000E+02  0.7546771E-02  0.1259629E+00
         11   -1    0    0    0    0  0.00000000000E+00  0.00000000000E+00  0.30000000000E+02  0.30000000000E+02  0.00000000000E+00 0. -1.
        -11   -1    0    0    0    0 -0.00000000000E+00 -0.00000000000E+00 -0.30000000000E+02  0.30000000000E+02  0.00000000000E+00 0.  1.
          5    1    1    2  501    0  0.16924970071E+01  0.18456438907E+02  0.23117208239E+02  0.30000000000E+02  0.47000000000E+01 0. -1.
         -5    1    1    2    0  501 -0.16924970071E+01 -0.18456438907E+02 -0.23117208239E+02  0.30000000000E+02  0.47000000000E+01 0.  1.
</event>
<event>
 4    1  0.7581446E-002  0.6000000E+02  0.7546771E-02  0.1259629E+00
         11   -1    0    0    0    0  0.00000000000E+00  0.00000000000E+00  0.30000000000E+02  0.30000000000E+02  0.00000000000E+00 0.  1.
        -11   -1    0    0    0    0 -0.00000000000E+00 -0.00000000000E+00 -0.30000000000E+02  0.30000000000E+02  0.00000000000E+00 0. -1.
          5    1    1    2  501    0 -0.11750836615E+02 -0.19648827848E+02 -0.18808280173E+02  0.30000000000E+02  0.47000000000E+01 0. -1.
         -5    1    1    2    0  501  0.11750836615E+02  0.19648827848E+02  0.18808280173E+02  0.30000000000E+02  0.47000000000E+01 0.  1.
</event>
<event>
 4    1  0.7581446E-002  0.6000000E+02  0.7546771E-02  0.1259629E+00
         11   -1    0    0    0    0  0.00000000000E+00  0.00000000000E+00  0.30000000000E+02  0.30000000000E+02  0.00000000000E+00 0.  1.
        -11   -1    0    0    0    0 -0.00000000000E+00 -0.00000000000E+00 -0.30000000000E+02  0.30000000000E+02  0.00000000000E+00 0. -1.
          5    1    1    2  501    0 -0.10881891726E+02 -0.24340866245E+02 -0.12923492675E+02  0.30000000000E+02  0.47000000000E+01 0. -1.
         -5    1    1    2    0  501  0.10881891726E+02  0.24340866245E+02  0.12923492675E+02  0.30000000000E+02  0.47000000000E+01 0.  1.
</event>
<event>
 4    1  0.7581446E-002  0.6000000E+02  0.7546771E-02  0.1259629E+00
         11   -1    0    0    0    0  0.00000000000E+00  0.00000000000E+00  0.30000000000E+02  0.30000000000E+02  0.00000000000E+00 0.  1.
        -11   -1    0    0    0    0 -0.00000000000E+00 -0.00000000000E+00 -0.30000000000E+02  0.30000000000E+02  0.00000000000E+00 0. -1.
          5    1    1    2  501    0  0.22570993016E+02 -0.19088553496E+02 -0.20217318528E+01  0.30000000000E+02  0.47000000000E+01 0. -1.
         -5    1    1    2    0  501 -0.22570993016E+02  0.19088553496E+02  0.20217318528E+01  0.30000000000E+02  0.47000000000E+01 0.  1.
</event>
<event>
 4    1  0.7581446E-002  0.6000000E+02  0.7546771E-02  0.1259629E+00
         11   -1    0    0    0    0  0.00000000000E+00  0.00000000000E+00  0.30000000000E+02  0.30000000000E+02  0.00000000000E+00 0. -1.
        -11   -1    0    0    0    0 -0.00000000000E+00 -0.00000000000E+00 -0.30000000000E+02  0.30000000000E+02  0.00000000000E+00 0.  1.
          5    1    1    2  501    0 -0.19467714778E+02  0.11397909789E+02 -0.19209521956E+02  0.30000000000E+02  0.47000000000E+01 0.  1.
         -5    1    1    2    0  501  0.19467714778E+02 -0.11397909789E+02  0.19209521956E+02  0.30000000000E+02  0.47000000000E+01 0. -1.
</event>
<event>
 4    1  0.7581446E-002  0.6000000E+02  0.7546771E-02  0.1259629E+00
         11   -1    0    0    0    0  0.00000000000E+00  0.00000000000E+00  0.30000000000E+02  0.30000000000E+02  0.00000000000E+00 0.  1.
        -11   -1    0    0    0    0 -0.00000000000E+00 -0.00000000000E+00 -0.30000000000E+02  0.30000000000E+02  0.00000000000E+00 0. -1.
          5    1    1    2  501    0  0.86904015392E+01  0.50262993517E+01 -0.27876930174E+02  0.30000000000E+02  0.47000000000E+01 0. -1.
         -5    1    1    2    0  501 -0.86904015392E+01 -0.50262993517E+01  0.27876930174E+02  0.30000000000E+02  0.47000000000E+01 0.  1.
</event>
<event>
 4    1  0.7581446E-002  0.6000000E+02  0.7546771E-02  0.1259629E+00
         11   -1    0    0    0    0  0.00000000000E+00  0.00000000000E+00  0.30000000000E+02  0.30000000000E+02  0.00000000000E+00 0.  1.
        -11   -1    0    0    0    0 -0.00000000000E+00 -0.00000000000E+00 -0.30000000000E+02  0.30000000000E+02  0.00000000000E+00 0. -1.
          5    1    1    2  501    0  0.12900344884E+02  0.14373724364E+02 -0.22469694030E+02  0.30000000000E+02  0.47000000000E+01 0. -1.
         -5    1    1    2    0  501 -0.12900344884E+02 -0.14373724364E+02  0.22469694030E+02  0.30000000000E+02  0.47000000000E+01 0.  1.
</event>
<event>
 4    1  0.7581446E-002  0.6000000E+02  0.7546771E-02  0.1259629E+00
         11   -1    0    0    0    0  0.00000000000E+00  0.00000000000E+00  0.30000000000E+02  0.30000000000E+02  0.00000000000E+00 0. -1.
        -11   -1    0    0    0    0 -0.00000000000E+00 -0.00000000000E+00 -0.30000000000E+02  0.30000000000E+02  0.00000000000E+00 0.  1.
          5    1    1    2  501    0  0.49807235442E+01  0.27423387507E+02  0.10052870764E+02  0.30000000000E+02  0.47000000000E+01 0.  1.
         -5    1    1    2    0  501 -0.49807235442E+01 -0.27423387507E+02 -0.10052870764E+02  0.30000000000E+02  0.47000000000E+01 0. -1.
</event>
<event>
 4    1  0.7581446E-002  0.6000000E+02  0.7546771E-02  0.1259629E+00
         11   -1    0    0    0    0  0.00000000000E+00  0.00000000000E+00  0.30000000000E+02  0.30000000000E+02  0.00000000000E+00 0.  1.
        -11   -1    0    0    0    0 -0.00000000000E+00 -0.00000000000E+00 -0.30000000000E+02  0.30000000000E+02  0.00000000000E+00 0. -1.
          5    1    1    2  501    0 -0.13327821294E+02 -0.22574588255E+01 -0.26366324340E+02  0.30000000000E+02  0.47000000000E+01 0. -1.
         -5    1    1    2    0  501  0.13327821294E+02  0.22574588255E+01  0.26366324340E+02  0.30000000000E+02  0.47000000000E+01 0.  1.
</event>
<event>
 4    1  0.7581446E-002  0.6000000E+02  0.7546771E-02  0.1259629E+00
         11   -1    0    0    0    0  0.00000000000E+00  0.00000000000E+00  0.30000000000E+02  0.30000000000E+02  0.00000000000E+00 0.  1.
        -11   -1    0    0    0    0 -0.00000000000E+00 -0.00000000000E+00 -0.30000000000E+02  0.30000000000E+02  0.00000000000E+00 0. -1.
          5    1    1    2  501    0  0.21552754565E+01 -0.38600310358E+01 -0.29297865931E+02  0.30000000000E+02  0.47000000000E+01 0. -1.
         -5    1    1    2    0  501 -0.21552754565E+01  0.38600310358E+01  0.29297865931E+02  0.30000000000E+02  0.47000000000E+01 0.  1.
</event>
<event>
 4    1  0.7581446E-002  0.6000000E+02  0.7546771E-02  0.1259629E+00
         11   -1    0    0    0    0  0.00000000000E+00  0.00000000000E+00  0.30000000000E+02  0.30000000000E+02  0.00000000000E+00 0.  1.
        -11   -1    0    0    0    0 -0.00000000000E+00 -0.00000000000E+00 -0.30000000000E+02  0.30000000000E+02  0.00000000000E+00 0. -1.
          5    1    1    2  501    0  0.24458076119E+02  0.15752270287E+02 -0.56194744754E+01  0.30000000000E+02  0.47000000000E+01 0. -1.
         -5    1    1    2    0  501 -0.24458076119E+02 -0.15752270287E+02  0.56194744754E+01  0.30000000000E+02  0.47000000000E+01 0.  1.
</event>
<event>
 4    1  0.7581446E-002  0.6000000E+02  0.7546771E-02  0.1259629E+00
         11   -1    0    0    0    0  0.00000000000E+00  0.00000000000E+00  0.30000000000E+02  0.30000000000E+02  0.00000000000E+00 0.  1.
        -11   -1    0    0    0    0 -0.00000000000E+00 -0.00000000000E+00 -0.30000000000E+02  0.30000000000E+02  0.00000000000E+00 0. -1.
          5    1    1    2  501    0 -0.17930194323E+02  0.18561934127E+02 -0.14555848756E+02  0.30000000000E+02  0.47000000000E+01 0. -1.
         -5    1    1    2    0  501  0.17930194323E+02 -0.18561934127E+02  0.14555848756E+02  0.30000000000E+02  0.47000000000E+01 0.  1.
</event>
<event>
 4    1  0.7581446E-002  0.6000000E+02  0.7546771E-02  0.1259629E+00
         11   -1    0    0    0    0  0.00000000000E+00  0.00000000000E+00  0.30000000000E+02  0.30000000000E+02  0.00000000000E+00 0. -1.
        -11   -1    0    0    0    0 -0.00000000000E+00 -0.00000000000E+00 -0.30000000000E+02  0.30000000000E+02  0.00000000000E+00 0.  1.
          5    1    1    2  501    0  0.11484787804E+02 -0.98991068335E+01 -0.25456184573E+02  0.30000000000E+02  0.47000000000E+01 0.  1.
         -5    1    1    2    0  501 -0.11484787804E+02  0.98991068335E+01  0.25456184573E+02  0.30000000000E+02  0.47000000000E+01 0. -1.
</event>
<event>
 4    1  0.7581446E-002  0.6000000E+02  0.7546771E-02  0.1259629E+00
         11   -1    0    0    0    0  0.00000000000E+00  0.00000000000E+00  0.30000000000E+02  0.30000000000E+02  0.00000000000E+00 0. -1.
        -11   -1    0    0    0    0 -0.00000000000E+00 -0.00000000000E+00 -0.30000000000E+02  0.30000000000E+02  0.00000000000E+00 0.  1.
          5    1    1    2  501    0  0.15111900331E+02  0.73284573799E+01 -0.24409714886E+02  0.30000000000E+02  0.47000000000E+01 0.  1.
         -5    1    1    2    0  501 -0.15111900331E+02 -0.73284573799E+01  0.24409714886E+02  0.30000000000E+02  0.47000000000E+01 0. -1.
</event>
<event>
 4    1  0.7581446E-002  0.6000000E+02  0.7546771E-02  0.1259629E+00
         11   -1    0    0    0    0  0.00000000000E+00  0.00000000000E+00  0.30000000000E+02  0.30000000000E+02  0.00000000000E+00 0.  1.
        -11   -1    0    0    0    0 -0.00000000000E+00 -0.00000000000E+00 -0.30000000000E+02  0.30000000000E+02  0.00000000000E+00 0. -1.
          5    1    1    2  501    0 -0.11488737899E+02 -0.15304548685E+01 -0.27268601163E+02  0.30000000000E+02  0.47000000000E+01 0. -1.
         -5    1    1    2    0  501  0.11488737899E+02  0.15304548685E+01  0.27268601163E+02  0.30000000000E+02  0.47000000000E+01 0.  1.
</event>
<event>
 4    1  0.7581446E-002  0.6000000E+02  0.7546771E-02  0.1259629E+00
         11   -1    0    0    0    0  0.00000000000E+00  0.00000000000E+00  0.30000000000E+02  0.30000000000E+02  0.00000000000E+00 0.  1.
        -11   -1    0    0    0    0 -0.00000000000E+00 -0.00000000000E+00 -0.30000000000E+02  0.30000000000E+02  0.00000000000E+00 0. -1.
          5    1    1    2  501    0  0.14592058125E+02  0.86871818192E+01  0.24279924047E+02  0.30000000000E+02  0.47000000000E+01 0.  1.
         -5    1    1    2    0  501 -0.14592058125E+02 -0.86871818192E+01 -0.24279924047E+02  0.30000000000E+02  0.47000000000E+01 0. -1.
</event>
<event>
 4    1  0.7581446E-002  0.6000000E+02  0.7546771E-02  0.1259629E+00
         11   -1    0    0    0    0  0.00000000000E+00  0.00000000000E+00  0.30000000000E+02  0.30000000000E+02  0.00000000000E+00 0.  1.
        -11   -1    0    0    0    0 -0.00000000000E+00 -0.00000000000E+00 -0.30000000000E+02  0.30000000000E+02  0.00000000000E+00 0. -1.
          5    1    1    2  501    0 -0.60628183874E+01  0.15978529745E+01 -0.28958575571E+02  0.30000000000E+02  0.47000000000E+01 0. -1.
         -5    1    1    2    0  501  0.60628183874E+01 -0.15978529745E+01  0.28958575571E+02  0.30000000000E+02  0.47000000000E+01 0.  1.
</event>
<event>
 4    1  0.7581446E-002  0.6000000E+02  0.7546771E-02  0.1259629E+00
         11   -1    0    0    0    0  0.00000000000E+00  0.00000000000E+00  0.30000000000E+02  0.30000000000E+02  0.00000000000E+00 0.  1.
        -11   -1    0    0    0    0 -0.00000000000E+00 -0.00000000000E+00 -0.30000000000E+02  0.30000000000E+02  0.00000000000E+00 0. -1.
          5    1    1    2  501    0 -0.63367267951E+01  0.15208566983E+02  0.24626314865E+02  0.30000000000E+02  0.47000000000E+01 0.  1.
         -5    1    1    2    0  501  0.63367267951E+01 -0.15208566983E+02 -0.24626314865E+02  0.30000000000E+02  0.47000000000E+01 0. -1.
</event>
<event>
 4    1  0.7581446E-002  0.6000000E+02  0.7546771E-02  0.1259629E+00
         11   -1    0    0    0    0  0.00000000000E+00  0.00000000000E+00  0.30000000000E+02  0.30000000000E+02  0.00000000000E+00 0. -1.
        -11   -1    0    0    0    0 -0.00000000000E+00 -0.00000000000E+00 -0.30000000000E+02  0.30000000000E+02  0.00000000000E+00 0.  1.
          5    1    1    2  501    0  0.81620485279E+01  0.28369848104E+02 -0.25382439610E+01  0.30000000000E+02  0.47000000000E+01 0.  1.
         -5    1    1    2    0  501 -0.81620485279E+01 -0.28369848104E+02  0.25382439610E+01  0.30000000000E+02  0.47000000000E+01 0. -1.
</event>
<event>
 4    1  0.7581446E-002  0.6000000E+02  0.7546771E-02  0.1259629E+00
         11   -1    0    0    0    0  0.00000000000E+00  0.00000000000E+00  0.30000000000E+02  0.30000000000E+02  0.00000000000E+00 0. -1.
        -11   -1    0    0    0    0 -0.00000000000E+00 -0.00000000000E+00 -0.30000000000E+02  0.30000000000E+02  0.00000000000E+00 0.  1.
          5    1    1    2  501    0  0.14087308485E+01  0.21737966689E+02  0.20084478624E+02  0.30000000000E+02  0.47000000000E+01 0. -1.
         -5    1    1    2    0  501 -0.14087308485E+01 -0.21737966689E+02 -0.20084478624E+02  0.30000000000E+02  0.47000000000E+01 0.  1.
</event>
<event>
 4    1  0.7581446E-002  0.6000000E+02  0.7546771E-02  0.1259629E+00
         11   -1    0    0    0    0  0.00000000000E+00  0.00000000000E+00  0.30000000000E+02  0.30000000000E+02  0.00000000000E+00 0.  1.
        -11   -1    0    0    0    0 -0.00000000000E+00 -0.00000000000E+00 -0.30000000000E+02  0.30000000000E+02  0.00000000000E+00 0. -1.
          5    1    1    2  501    0  0.98513404166E+01 -0.20215317603E+02 -0.19292538097E+02  0.30000000000E+02  0.47000000000E+01 0. -1.
         -5    1    1    2    0  501 -0.98513404166E+01  0.20215317603E+02  0.19292538097E+02  0.30000000000E+02  0.47000000000E+01 0.  1.
</event>
<event>
 4    1  0.7581446E-002  0.6000000E+02  0.7546771E-02  0.1259629E+00
         11   -1    0    0    0    0  0.00000000000E+00  0.00000000000E+00  0.30000000000E+02  0.30000000000E+02  0.00000000000E+00 0.  1.
        -11   -1    0    0    0    0 -0.00000000000E+00 -0.00000000000E+00 -0.30000000000E+02  0.30000000000E+02  0.00000000000E+00 0. -1.
          5    1    1    2  501    0  0.14320367098E+02  0.19948334480E+01 -0.25862283845E+02  0.30000000000E+02  0.47000000000E+01 0. -1.
         -5    1    1    2    0  501 -0.14320367098E+02 -0.19948334480E+01  0.25862283845E+02  0.30000000000E+02  0.47000000000E+01 0.  1.
</event>
<event>
 4    1  0.7581446E-002  0.6000000E+02  0.7546771E-02  0.1259629E+00
         11   -1    0    0    0    0  0.00000000000E+00  0.00000000000E+00  0.30000000000E+02  0.30000000000E+02  0.00000000000E+00 0.  1.
        -11   -1    0    0    0    0 -0.00000000000E+00 -0.00000000000E+00 -0.30000000000E+02  0.30000000000E+02  0.00000000000E+00 0. -1.
          5    1    1    2  501    0 -0.10065858915E+02  0.22048065507E+01 -0.27779980425E+02  0.30000000000E+02  0.47000000000E+01 0. -1.
         -5    1    1    2    0  501  0.10065858915E+02 -0.22048065507E+01  0.27779980425E+02  0.30000000000E+02  0.47000000000E+01 0.  1.
</event>
<event>
 4    1  0.7581446E-002  0.6000000E+02  0.7546771E-02  0.1259629E+00
         11   -1    0    0    0    0  0.00000000000E+00  0.00000000000E+00  0.30000000000E+02  0.30000000000E+02  0.00000000000E+00 0.  1.
        -11   -1    0    0    0    0 -0.00000000000E+00 -0.00000000000E+00 -0.30000000000E+02  0.30000000000E+02  0.00000000000E+00 0. -1.
          5    1    1    2  501    0 -0.10738819138E+01  0.23556545139E+02 -0.17940065740E+02  0.30000000000E+02  0.47000000000E+01 0. -1.
         -5    1    1    2    0  501  0.10738819138E+01 -0.23556545139E+02  0.17940065740E+02  0.30000000000E+02  0.47000000000E+01 0.  1.
</event>
<event>
 4    1  0.7581446E-002  0.6000000E+02  0.7546771E-02  0.1259629E+00
         11   -1    0    0    0    0  0.00000000000E+00  0.00000000000E+00  0.30000000000E+02  0.30000000000E+02  0.00000000000E+00 0. -1.
        -11   -1    0    0    0    0 -0.00000000000E+00 -0.00000000000E+00 -0.30000000000E+02  0.30000000000E+02  0.00000000000E+00 0.  1.
          5    1    1    2  501    0 -0.18926462701E+02  0.12448887925E+02 -0.19097753771E+02  0.30000000000E+02  0.47000000000E+01 0.  1.
         -5    1    1    2    0  501  0.18926462701E+02 -0.12448887925E+02  0.19097753771E+02  0.30000000000E+02  0.47000000000E+01 0. -1.
</event>
<event>
 4    1  0.7581446E-002  0.6000000E+02  0.7546771E-02  0.1259629E+00
         11   -1    0    0    0    0  0.00000000000E+00  0.00000000000E+00  0.30000000000E+02  0.30000000000E+02  0.00000000000E+00 0.  1.
        -11   -1    0    0    0    0 -0.00000000000E+00 -0.00000000000E+00 -0.30000000000E+02  0.30000000000E+02  0.00000000000E+00 0. -1.
          5    1    1    2  501    0 -0.17716504085E+02  0.22078252217E+02 -0.87513577263E+01  0.30000000000E+02  0.47000000000E+01 0. -1.
         -5    1    1    2    0  501  0.17716504085E+02 -0.22078252217E+02  0.87513577263E+01  0.30000000000E+02  0.47000000000E+01 0.  1.
</event>
<event>
 4    1  0.7581446E-002  0.6000000E+02  0.7546771E-02  0.1259629E+00
         11   -1    0    0    0    0  0.00000000000E+00  0.00000000000E+00  0.30000000000E+02  0.30000000000E+02  0.00000000000E+00 0.  1.
        -11   -1    0    0    0    0 -0.00000000000E+00 -0.00000000000E+00 -0.30000000000E+02  0.30000000000E+02  0.00000000000E+00 0. -1.
          5    1    1    2  501    0  0.99490557343E+01 -0.26214263578E+02 -0.95780308559E+01  0.30000000000E+02  0.47000000000E+01 0. -1.
         -5    1    1    2    0  501 -0.99490557343E+01  0.26214263578E+02  0.95780308559E+01  0.30000000000E+02  0.47000000000E+01 0.  1.
</event>
<event>
 4    1  0.7581446E-002  0.6000000E+02  0.7546771E-02  0.1259629E+00
         11   -1    0    0    0    0  0.00000000000E+00  0.00000000000E+00  0.30000000000E+02  0.30000000000E+02  0.00000000000E+00 0.  1.
        -11   -1    0    0    0    0 -0.00000000000E+00 -0.00000000000E+00 -0.30000000000E+02  0.30000000000E+02  0.00000000000E+00 0. -1.
          5    1    1    2  501    0  0.56901370869E+01  0.93121303872E+01 -0.27546625339E+02  0.30000000000E+02  0.47000000000E+01 0. -1.
         -5    1    1    2    0  501 -0.56901370869E+01 -0.93121303872E+01  0.27546625339E+02  0.30000000000E+02  0.47000000000E+01 0.  1.
</event>
<event>
 4    1  0.7581446E-002  0.6000000E+02  0.7546771E-02  0.1259629E+00
         11   -1    0    0    0    0  0.00000000000E+00  0.00000000000E+00  0.30000000000E+02  0.30000000000E+02  0.00000000000E+00 0. -1.
        -11   -1    0    0    0    0 -0.00000000000E+00 -0.00000000000E+00 -0.30000000000E+02  0.30000000000E+02  0.00000000000E+00 0.  1.
          5    1    1    2  501    0 -0.16812881732E+02 -0.13168839447E+02  0.20538224741E+02  0.30000000000E+02  0.47000000000E+01 0. -1.
         -5    1    1    2    0  501  0.16812881732E+02  0.13168839447E+02 -0.20538224741E+02  0.30000000000E+02  0.47000000000E+01 0.  1.
</event>
<event>
 4    1  0.7581446E-002  0.6000000E+02  0.7546771E-02  0.1259629E+00
         11   -1    0    0    0    0  0.00000000000E+00  0.00000000000E+00  0.30000000000E+02  0.30000000000E+02  0.00000000000E+00 0. -1.
        -11   -1    0    0    0    0 -0.00000000000E+00 -0.00000000000E+00 -0.30000000000E+02  0.30000000000E+02  0.00000000000E+00 0.  1.
          5    1    1    2  501    0  0.13602404956E+02  0.26322097446E+02  0.17822870529E+00  0.30000000000E+02  0.47000000000E+01 0.  1.
         -5    1    1    2    0  501 -0.13602404956E+02 -0.26322097446E+02 -0.17822870529E+00  0.30000000000E+02  0.47000000000E+01 0. -1.
</event>
<event>
 4    1  0.7581446E-002  0.6000000E+02  0.7546771E-02  0.1259629E+00
         11   -1    0    0    0    0  0.00000000000E+00  0.00000000000E+00  0.30000000000E+02  0.30000000000E+02  0.00000000000E+00 0.  1.
        -11   -1    0    0    0    0 -0.00000000000E+00 -0.00000000000E+00 -0.30000000000E+02  0.30000000000E+02  0.00000000000E+00 0. -1.
          5    1    1    2  501    0  0.10629144924E+02  0.13159955481E+02 -0.24325847363E+02  0.30000000000E+02  0.47000000000E+01 0. -1.
         -5    1    1    2    0  501 -0.10629144924E+02 -0.13159955481E+02  0.24325847363E+02  0.30000000000E+02  0.47000000000E+01 0.  1.
</event>
<event>
 4    1  0.7581446E-002  0.6000000E+02  0.7546771E-02  0.1259629E+00
         11   -1    0    0    0    0  0.00000000000E+00  0.00000000000E+00  0.30000000000E+02  0.30000000000E+02  0.00000000000E+00 0.  1.
        -11   -1    0    0    0    0 -0.00000000000E+00 -0.00000000000E+00 -0.30000000000E+02  0.30000000000E+02  0.00000000000E+00 0. -1.
          5    1    1    2  501    0  0.15862248879E+02 -0.34545708777E+01 -0.24786387404E+02  0.30000000000E+02  0.47000000000E+01 0. -1.
         -5    1    1    2    0  501 -0.15862248879E+02  0.34545708777E+01  0.24786387404E+02  0.30000000000E+02  0.47000000000E+01 0.  1.
</event>
<event>
 4    1  0.7581446E-002  0.6000000E+02  0.7546771E-02  0.1259629E+00
         11   -1    0    0    0    0  0.00000000000E+00  0.00000000000E+00  0.30000000000E+02  0.30000000000E+02  0.00000000000E+00 0. -1.
        -11   -1    0    0    0    0 -0.00000000000E+00 -0.00000000000E+00 -0.30000000000E+02  0.30000000000E+02  0.00000000000E+00 0.  1.
          5    1    1    2  501    0 -0.28852078957E+02  0.47248939138E+01 -0.48107086118E+01  0.30000000000E+02  0.47000000000E+01 0.  1.
         -5    1    1    2    0  501  0.28852078957E+02 -0.47248939138E+01  0.48107086118E+01  0.30000000000E+02  0.47000000000E+01 0. -1.
</event>
<event>
 4    1  0.7581446E-002  0.6000000E+02  0.7546771E-02  0.1259629E+00
         11   -1    0    0    0    0  0.00000000000E+00  0.00000000000E+00  0.30000000000E+02  0.30000000000E+02  0.00000000000E+00 0. -1.
        -11   -1    0    0    0    0 -0.00000000000E+00 -0.00000000000E+00 -0.30000000000E+02  0.30000000000E+02  0.00000000000E+00 0.  1.
          5    1    1    2  501    0 -0.99214643589E+01  0.94340607072E+01 -0.26276853760E+02  0.30000000000E+02  0.47000000000E+01 0.  1.
         -5    1    1    2    0  501  0.99214643589E+01 -0.94340607072E+01  0.26276853760E+02  0.30000000000E+02  0.47000000000E+01 0. -1.
</event>
<event>
 4    1  0.7581446E-002  0.6000000E+02  0.7546771E-02  0.1259629E+00
         11   -1    0    0    0    0  0.00000000000E+00  0.00000000000E+00  0.30000000000E+02  0.30000000000E+02  0.00000000000E+00 0.  1.
        -11   -1    0    0    0    0 -0.00000000000E+00 -0.00000000000E+00 -0.30000000000E+02  0.30000000000E+02  0.00000000000E+00 0. -1.
          5    1    1    2  501    0 -0.13359384716E+02 -0.14873540726E+02 -0.21868118947E+02  0.30000000000E+02  0.47000000000E+01 0. -1.
         -5    1    1    2    0  501  0.13359384716E+02  0.14873540726E+02  0.21868118947E+02  0.30000000000E+02  0.47000000000E+01 0.  1.
</event>
<event>
 4    1  0.7581446E-002  0.6000000E+02  0.7546771E-02  0.1259629E+00
         11   -1    0    0    0    0  0.00000000000E+00  0.00000000000E+00  0.30000000000E+02  0.30000000000E+02  0.00000000000E+00 0.  1.
        -11   -1    0    0    0    0 -0.00000000000E+00 -0.00000000000E+00 -0.30000000000E+02  0.30000000000E+02  0.00000000000E+00 0. -1.
          5    1    1    2  501    0  0.17812871697E+02  0.16428125886E+01 -0.23620177152E+02  0.30000000000E+02  0.47000000000E+01 0. -1.
         -5    1    1    2    0  501 -0.17812871697E+02 -0.16428125886E+01  0.23620177152E+02  0.30000000000E+02  0.47000000000E+01 0.  1.
</event>
<event>
 4    1  0.7581446E-002  0.6000000E+02  0.7546771E-02  0.1259629E+00
         11   -1    0    0    0    0  0.00000000000E+00  0.00000000000E+00  0.30000000000E+02  0.30000000000E+02  0.00000000000E+00 0. -1.
        -11   -1    0    0    0    0 -0.00000000000E+00 -0.00000000000E+00 -0.30000000000E+02  0.30000000000E+02  0.00000000000E+00 0.  1.
          5    1    1    2  501    0  0.22356547866E+02 -0.17097697174E+02 -0.92608595087E+01  0.30000000000E+02  0.47000000000E+01 0.  1.
         -5    1    1    2    0  501 -0.22356547866E+02  0.17097697174E+02  0.92608595087E+01  0.30000000000E+02  0.47000000000E+01 0. -1.
</event>
<event>
 4    1  0.7581446E-002  0.6000000E+02  0.7546771E-02  0.1259629E+00
         11   -1    0    0    0    0  0.00000000000E+00  0.00000000000E+00  0.30000000000E+02  0.30000000000E+02  0.00000000000E+00 0. -1.
        -11   -1    0    0    0    0 -0.00000000000E+00 -0.00000000000E+00 -0.30000000000E+02  0.30000000000E+02  0.00000000000E+00 0.  1.
          5    1    1    2  501    0 -0.38843318886E+01 -0.16940950951E+02 -0.23996377782E+02  0.30000000000E+02  0.47000000000E+01 0.  1.
         -5    1    1    2    0  501  0.38843318886E+01  0.16940950951E+02  0.23996377782E+02  0.30000000000E+02  0.47000000000E+01 0. -1.
</event>
<event>
 4    1  0.7581446E-002  0.6000000E+02  0.7546771E-02  0.1259629E+00
         11   -1    0    0    0    0  0.00000000000E+00  0.00000000000E+00  0.30000000000E+02  0.30000000000E+02  0.00000000000E+00 0.  1.
        -11   -1    0    0    0    0 -0.00000000000E+00 -0.00000000000E+00 -0.30000000000E+02  0.30000000000E+02  0.00000000000E+00 0. -1.
          5    1    1    2  501    0 -0.28476546341E+02 -0.68104739505E+01  0.45402371142E+01  0.30000000000E+02  0.47000000000E+01 0. -1.
         -5    1    1    2    0  501  0.28476546341E+02  0.68104739505E+01 -0.45402371142E+01  0.30000000000E+02  0.47000000000E+01 0.  1.
</event>
<event>
 4    1  0.7581446E-002  0.6000000E+02  0.7546771E-02  0.1259629E+00
         11   -1    0    0    0    0  0.00000000000E+00  0.00000000000E+00  0.30000000000E+02  0.30000000000E+02  0.00000000000E+00 0.  1.
        -11   -1    0    0    0    0 -0.00000000000E+00 -0.00000000000E+00 -0.30000000000E+02  0.30000000000E+02  0.00000000000E+00 0. -1.
          5    1    1    2  501    0 -0.18159965637E+01 -0.29495677184E+02 -0.21487633484E+01  0.30000000000E+02  0.47000000000E+01 0. -1.
         -5    1    1    2    0  501  0.18159965637E+01  0.29495677184E+02  0.21487633484E+01  0.30000000000E+02  0.47000000000E+01 0.  1.
</event>
<event>
 4    1  0.7581446E-002  0.6000000E+02  0.7546771E-02  0.1259629E+00
         11   -1    0    0    0    0  0.00000000000E+00  0.00000000000E+00  0.30000000000E+02  0.30000000000E+02  0.00000000000E+00 0.  1.
        -11   -1    0    0    0    0 -0.00000000000E+00 -0.00000000000E+00 -0.30000000000E+02  0.30000000000E+02  0.00000000000E+00 0. -1.
          5    1    1    2  501    0 -0.11680172056E+02  0.26299416875E+02 -0.70586296686E+01  0.30000000000E+02  0.47000000000E+01 0. -1.
         -5    1    1    2    0  501  0.11680172056E+02 -0.26299416875E+02  0.70586296686E+01  0.30000000000E+02  0.47000000000E+01 0.  1.
</event>
<event>
 4    1  0.7581446E-002  0.6000000E+02  0.7546771E-02  0.1259629E+00
         11   -1    0    0    0    0  0.00000000000E+00  0.00000000000E+00  0.30000000000E+02  0.30000000000E+02  0.00000000000E+00 0.  1.
        -11   -1    0    0    0    0 -0.00000000000E+00 -0.00000000000E+00 -0.30000000000E+02  0.30000000000E+02  0.00000000000E+00 0. -1.
          5    1    1    2  501    0 -0.21231072346E+01 -0.28446404580E+02 -0.80127699405E+01  0.30000000000E+02  0.47000000000E+01 0. -1.
         -5    1    1    2    0  501  0.21231072346E+01  0.28446404580E+02  0.80127699405E+01  0.30000000000E+02  0.47000000000E+01 0.  1.
</event>
<event>
 4    1  0.7581446E-002  0.6000000E+02  0.7546771E-02  0.1259629E+00
         11   -1    0    0    0    0  0.00000000000E+00  0.00000000000E+00  0.30000000000E+02  0.30000000000E+02  0.00000000000E+00 0.  1.
        -11   -1    0    0    0    0 -0.00000000000E+00 -0.00000000000E+00 -0.30000000000E+02  0.30000000000E+02  0.00000000000E+00 0. -1.
          5    1    1    2  501    0  0.47415704365E+01 -0.22165230135E+01 -0.29163582351E+02  0.30000000000E+02  0.47000000000E+01 0. -1.
         -5    1    1    2    0  501 -0.47415704365E+01  0.22165230135E+01  0.29163582351E+02  0.30000000000E+02  0.47000000000E+01 0.  1.
</event>
<event>
 4    1  0.7581446E-002  0.6000000E+02  0.7546771E-02  0.1259629E+00
         11   -1    0    0    0    0  0.00000000000E+00  0.00000000000E+00  0.30000000000E+02  0.30000000000E+02  0.00000000000E+00 0.  1.
        -11   -1    0    0    0    0 -0.00000000000E+00 -0.00000000000E+00 -0.30000000000E+02  0.30000000000E+02  0.00000000000E+00 0. -1.
          5    1    1    2  501    0  0.14888801342E+02 -0.73041815286E-01 -0.25616952580E+02  0.30000000000E+02  0.47000000000E+01 0. -1.
         -5    1    1    2    0  501 -0.14888801342E+02  0.73041815286E-01  0.25616952580E+02  0.30000000000E+02  0.47000000000E+01 0.  1.
</event>
<event>
 4    1  0.7581446E-002  0.6000000E+02  0.7546771E-02  0.1259629E+00
         11   -1    0    0    0    0  0.00000000000E+00  0.00000000000E+00  0.30000000000E+02  0.30000000000E+02  0.00000000000E+00 0.  1.
        -11   -1    0    0    0    0 -0.00000000000E+00 -0.00000000000E+00 -0.30000000000E+02  0.30000000000E+02  0.00000000000E+00 0. -1.
          5    1    1    2  501    0  0.23580468147E+02 -0.10626295921E+02 -0.14455219021E+02  0.30000000000E+02  0.47000000000E+01 0. -1.
         -5    1    1    2    0  501 -0.23580468147E+02  0.10626295921E+02  0.14455219021E+02  0.30000000000E+02  0.47000000000E+01 0.  1.
</event>
<event>
 4    1  0.7581446E-002  0.6000000E+02  0.7546771E-02  0.1259629E+00
         11   -1    0    0    0    0  0.00000000000E+00  0.00000000000E+00  0.30000000000E+02  0.30000000000E+02  0.00000000000E+00 0.  1.
        -11   -1    0    0    0    0 -0.00000000000E+00 -0.00000000000E+00 -0.30000000000E+02  0.30000000000E+02  0.00000000000E+00 0. -1.
          5    1    1    2  501    0 -0.21774828056E+02 -0.45817419363E+00 -0.20088726678E+02  0.30000000000E+02  0.47000000000E+01 0. -1.
         -5    1    1    2    0  501  0.21774828056E+02  0.45817419363E+00  0.20088726678E+02  0.30000000000E+02  0.47000000000E+01 0.  1.
</event>
<event>
 4    1  0.7581446E-002  0.6000000E+02  0.7546771E-02  0.1259629E+00
         11   -1    0    0    0    0  0.00000000000E+00  0.00000000000E+00  0.30000000000E+02  0.30000000000E+02  0.00000000000E+00 0. -1.
        -11   -1    0    0    0    0 -0.00000000000E+00 -0.00000000000E+00 -0.30000000000E+02  0.30000000000E+02  0.00000000000E+00 0.  1.
          5    1    1    2  501    0  0.90505348239E+01 -0.28176707510E+01 -0.28072380571E+02  0.30000000000E+02  0.47000000000E+01 0.  1.
         -5    1    1    2    0  501 -0.90505348239E+01  0.28176707510E+01  0.28072380571E+02  0.30000000000E+02  0.47000000000E+01 0. -1.
</event>
<event>
 4    1  0.7581446E-002  0.6000000E+02  0.7546771E-02  0.1259629E+00
         11   -1    0    0    0    0  0.00000000000E+00  0.00000000000E+00  0.30000000000E+02  0.30000000000E+02  0.00000000000E+00 0.  1.
        -11   -1    0    0    0    0 -0.00000000000E+00 -0.00000000000E+00 -0.30000000000E+02  0.30000000000E+02  0.00000000000E+00 0. -1.
          5    1    1    2  501    0  0.94764790741E+00  0.17937823629E+00 -0.29613844514E+02  0.30000000000E+02  0.47000000000E+01 0. -1.
         -5    1    1    2    0  501 -0.94764790741E+00 -0.17937823629E+00  0.29613844514E+02  0.30000000000E+02  0.47000000000E+01 0.  1.
</event>
<event>
 4    1  0.7581446E-002  0.6000000E+02  0.7546771E-02  0.1259629E+00
         11   -1    0    0    0    0  0.00000000000E+00  0.00000000000E+00  0.30000000000E+02  0.30000000000E+02  0.00000000000E+00 0. -1.
        -11   -1    0    0    0    0 -0.00000000000E+00 -0.00000000000E+00 -0.30000000000E+02  0.30000000000E+02  0.00000000000E+00 0.  1.
          5    1    1    2  501    0  0.30895677712E+01 -0.27418380574E+02 -0.10798008043E+02  0.30000000000E+02  0.47000000000E+01 0.  1.
         -5    1    1    2    0  501 -0.30895677712E+01  0.27418380574E+02  0.10798008043E+02  0.30000000000E+02  0.47000000000E+01 0. -1.
</event>
<event>
 4    1  0.7581446E-002  0.6000000E+02  0.7546771E-02  0.1259629E+00
         11   -1    0    0    0    0  0.00000000000E+00  0.00000000000E+00  0.30000000000E+02  0.30000000000E+02  0.00000000000E+00 0. -1.
        -11   -1    0    0    0    0 -0.00000000000E+00 -0.00000000000E+00 -0.30000000000E+02  0.30000000000E+02  0.00000000000E+00 0.  1.
          5    1    1    2  501    0  0.15634934413E+02  0.78967166938E+01 -0.23897713099E+02  0.30000000000E+02  0.47000000000E+01 0.  1.
         -5    1    1    2    0  501 -0.15634934413E+02 -0.78967166938E+01  0.23897713099E+02  0.30000000000E+02  0.47000000000E+01 0. -1.
</event>
<event>
 4    1  0.7581446E-002  0.6000000E+02  0.7546771E-02  0.1259629E+00
         11   -1    0    0    0    0  0.00000000000E+00  0.00000000000E+00  0.30000000000E+02  0.30000000000E+02  0.00000000000E+00 0.  1.
        -11   -1    0    0    0    0 -0.00000000000E+00 -0.00000000000E+00 -0.30000000000E+02  0.30000000000E+02  0.00000000000E+00 0. -1.
          5    1    1    2  501    0  0.15235522765E+01  0.21514872988E+02 -0.20314995171E+02  0.30000000000E+02  0.47000000000E+01 0. -1.
         -5    1    1    2    0  501 -0.15235522765E+01 -0.21514872988E+02  0.20314995171E+02  0.30000000000E+02  0.47000000000E+01 0.  1.
</event>
<event>
 4    1  0.7581446E-002  0.6000000E+02  0.7546771E-02  0.1259629E+00
         11   -1    0    0    0    0  0.00000000000E+00  0.00000000000E+00  0.30000000000E+02  0.30000000000E+02  0.00000000000E+00 0.  1.
        -11   -1    0    0    0    0 -0.00000000000E+00 -0.00000000000E+00 -0.30000000000E+02  0.30000000000E+02  0.00000000000E+00 0. -1.
          5    1    1    2  501    0  0.17324028381E+00  0.20454238473E+02  0.21436047124E+02  0.30000000000E+02  0.47000000000E+01 0.  1.
         -5    1    1    2    0  501 -0.17324028381E+00 -0.20454238473E+02 -0.21436047124E+02  0.30000000000E+02  0.47000000000E+01 0. -1.
</event>
<event>
 4    1  0.7581446E-002  0.6000000E+02  0.7546771E-02  0.1259629E+00
         11   -1    0    0    0    0  0.00000000000E+00  0.00000000000E+00  0.30000000000E+02  0.30000000000E+02  0.00000000000E+00 0. -1.
        -11   -1    0    0    0    0 -0.00000000000E+00 -0.00000000000E+00 -0.30000000000E+02  0.30000000000E+02  0.00000000000E+00 0.  1.
          5    1    1    2  501    0 -0.14580792432E+02  0.11863590396E+02 -0.22903399638E+02  0.30000000000E+02  0.47000000000E+01 0.  1.
         -5    1    1    2    0  501  0.14580792432E+02 -0.11863590396E+02  0.22903399638E+02  0.30000000000E+02  0.47000000000E+01 0. -1.
</event>
<event>
 4    1  0.7581446E-002  0.6000000E+02  0.7546771E-02  0.1259629E+00
         11   -1    0    0    0    0  0.00000000000E+00  0.00000000000E+00  0.30000000000E+02  0.30000000000E+02  0.00000000000E+00 0.  1.
        -11   -1    0    0    0    0 -0.00000000000E+00 -0.00000000000E+00 -0.30000000000E+02  0.30000000000E+02  0.00000000000E+00 0. -1.
          5    1    1    2  501    0 -0.81092268623E+01 -0.28237820177E+02  0.38439499698E+01  0.30000000000E+02  0.47000000000E+01 0. -1.
         -5    1    1    2    0  501  0.81092268623E+01  0.28237820177E+02 -0.38439499698E+01  0.30000000000E+02  0.47000000000E+01 0.  1.
</event>
<event>
 4    1  0.7581446E-002  0.6000000E+02  0.7546771E-02  0.1259629E+00
         11   -1    0    0    0    0  0.00000000000E+00  0.00000000000E+00  0.30000000000E+02  0.30000000000E+02  0.00000000000E+00 0.  1.
        -11   -1    0    0    0    0 -0.00000000000E+00 -0.00000000000E+00 -0.30000000000E+02  0.30000000000E+02  0.00000000000E+00 0. -1.
          5    1    1    2  501    0  0.63315448892E+00 -0.22107673972E+02  0.19716994369E+02  0.30000000000E+02  0.47000000000E+01 0.  1.
         -5    1    1    2    0  501 -0.63315448892E+00  0.22107673972E+02 -0.19716994369E+02  0.30000000000E+02  0.47000000000E+01 0. -1.
</event>
<event>
 4    1  0.7581446E-002  0.6000000E+02  0.7546771E-02  0.1259629E+00
         11   -1    0    0    0    0  0.00000000000E+00  0.00000000000E+00  0.30000000000E+02  0.30000000000E+02  0.00000000000E+00 0.  1.
        -11   -1    0    0    0    0 -0.00000000000E+00 -0.00000000000E+00 -0.30000000000E+02  0.30000000000E+02  0.00000000000E+00 0. -1.
          5    1    1    2  501    0  0.19813920982E+02 -0.21165873912E+02  0.61093630503E+01  0.30000000000E+02  0.47000000000E+01 0. -1.
         -5    1    1    2    0  501 -0.19813920982E+02  0.21165873912E+02 -0.61093630503E+01  0.30000000000E+02  0.47000000000E+01 0.  1.
</event>
<event>
 4    1  0.7581446E-002  0.6000000E+02  0.7546771E-02  0.1259629E+00
         11   -1    0    0    0    0  0.00000000000E+00  0.00000000000E+00  0.30000000000E+02  0.30000000000E+02  0.00000000000E+00 0. -1.
        -11   -1    0    0    0    0 -0.00000000000E+00 -0.00000000000E+00 -0.30000000000E+02  0.30000000000E+02  0.00000000000E+00 0.  1.
          5    1    1    2  501    0 -0.22505650158E+02 -0.32698948769E+01 -0.18992458989E+02  0.30000000000E+02  0.47000000000E+01 0.  1.
         -5    1    1    2    0  501  0.22505650158E+02  0.32698948769E+01  0.18992458989E+02  0.30000000000E+02  0.47000000000E+01 0. -1.
</event>
<event>
 4    1  0.7581446E-002  0.6000000E+02  0.7546771E-02  0.1259629E+00
         11   -1    0    0    0    0  0.00000000000E+00  0.00000000000E+00  0.30000000000E+02  0.30000000000E+02  0.00000000000E+00 0. -1.
        -11   -1    0    0    0    0 -0.00000000000E+00 -0.00000000000E+00 -0.30000000000E+02  0.30000000000E+02  0.00000000000E+00 0.  1.
          5    1    1    2  501    0 -0.11845096335E+02  0.16937860506E+02 -0.21229992329E+02  0.30000000000E+02  0.47000000000E+01 0.  1.
         -5    1    1    2    0  501  0.11845096335E+02 -0.16937860506E+02  0.21229992329E+02  0.30000000000E+02  0.47000000000E+01 0. -1.
</event>
<event>
 4    1  0.7581446E-002  0.6000000E+02  0.7546771E-02  0.1259629E+00
         11   -1    0    0    0    0  0.00000000000E+00  0.00000000000E+00  0.30000000000E+02  0.30000000000E+02  0.00000000000E+00 0.  1.
        -11   -1    0    0    0    0 -0.00000000000E+00 -0.00000000000E+00 -0.30000000000E+02  0.30000000000E+02  0.00000000000E+00 0. -1.
          5    1    1    2  501    0  0.73815636338E+01 -0.25170972562E+02  0.13778412775E+02  0.30000000000E+02  0.47000000000E+01 0. -1.
         -5    1    1    2    0  501 -0.73815636338E+01  0.25170972562E+02 -0.13778412775E+02  0.30000000000E+02  0.47000000000E+01 0.  1.
</event>
<event>
 4    1  0.7581446E-002  0.6000000E+02  0.7546771E-02  0.1259629E+00
         11   -1    0    0    0    0  0.00000000000E+00  0.00000000000E+00  0.30000000000E+02  0.30000000000E+02  0.00000000000E+00 0. -1.
        -11   -1    0    0    0    0 -0.00000000000E+00 -0.00000000000E+00 -0.30000000000E+02  0.30000000000E+02  0.00000000000E+00 0.  1.
          5    1    1    2  501    0 -0.89753139148E+00  0.19210826466E+02 -0.22539933095E+02  0.30000000000E+02  0.47000000000E+01 0.  1.
         -5    1    1    2    0  501  0.89753139148E+00 -0.19210826466E+02  0.22539933095E+02  0.30000000000E+02  0.47000000000E+01 0. -1.
</event>
<event>
 4    1  0.7581446E-002  0.6000000E+02  0.7546771E-02  0.1259629E+00
         11   -1    0    0    0    0  0.00000000000E+00  0.00000000000E+00  0.30000000000E+02  0.30000000000E+02  0.00000000000E+00 0.  1.
        -11   -1    0    0    0    0 -0.00000000000E+00 -0.00000000000E+00 -0.30000000000E+02  0.30000000000E+02  0.00000000000E+00 0. -1.
          5    1    1    2  501    0  0.27888401385E+02  0.10007110078E+02 -0.69398023914E-01  0.30000000000E+02  0.47000000000E+01 0. -1.
         -5    1    1    2    0  501 -0.27888401385E+02 -0.10007110078E+02  0.69398023914E-01  0.30000000000E+02  0.47000000000E+01 0. -1.
</event>
<event>
 4    1  0.7581446E-002  0.6000000E+02  0.7546771E-02  0.1259629E+00
         11   -1    0    0    0    0  0.00000000000E+00  0.00000000000E+00  0.30000000000E+02  0.30000000000E+02  0.00000000000E+00 0.  1.
        -11   -1    0    0    0    0 -0.00000000000E+00 -0.00000000000E+00 -0.30000000000E+02  0.30000000000E+02  0.00000000000E+00 0. -1.
          5    1    1    2  501    0 -0.20412925549E+02  0.20017663887E+02 -0.77791775275E+01  0.30000000000E+02  0.47000000000E+01 0. -1.
         -5    1    1    2    0  501  0.20412925549E+02 -0.20017663887E+02  0.77791775275E+01  0.30000000000E+02  0.47000000000E+01 0.  1.
</event>
<event>
 4    1  0.7581446E-002  0.6000000E+02  0.7546771E-02  0.1259629E+00
         11   -1    0    0    0    0  0.00000000000E+00  0.00000000000E+00  0.30000000000E+02  0.30000000000E+02  0.00000000000E+00 0.  1.
        -11   -1    0    0    0    0 -0.00000000000E+00 -0.00000000000E+00 -0.30000000000E+02  0.30000000000E+02  0.00000000000E+00 0. -1.
          5    1    1    2  501    0  0.27132141513E+02  0.84270073444E+01  0.84108527592E+01  0.30000000000E+02  0.47000000000E+01 0.  1.
         -5    1    1    2    0  501 -0.27132141513E+02 -0.84270073444E+01 -0.84108527592E+01  0.30000000000E+02  0.47000000000E+01 0. -1.
</event>
<event>
 4    1  0.7581446E-002  0.6000000E+02  0.7546771E-02  0.1259629E+00
         11   -1    0    0    0    0  0.00000000000E+00  0.00000000000E+00  0.30000000000E+02  0.30000000000E+02  0.00000000000E+00 0. -1.
        -11   -1    0    0    0    0 -0.00000000000E+00 -0.00000000000E+00 -0.30000000000E+02  0.30000000000E+02  0.00000000000E+00 0.  1.
          5    1    1    2  501    0 -0.47203425551E+00 -0.17816640292E+02 -0.23669696077E+02  0.30000000000E+02  0.47000000000E+01 0.  1.
         -5    1    1    2    0  501  0.47203425551E+00  0.17816640292E+02  0.23669696077E+02  0.30000000000E+02  0.47000000000E+01 0. -1.
</event>
<event>
 4    1  0.7581446E-002  0.6000000E+02  0.7546771E-02  0.1259629E+00
         11   -1    0    0    0    0  0.00000000000E+00  0.00000000000E+00  0.30000000000E+02  0.30000000000E+02  0.00000000000E+00 0.  1.
        -11   -1    0    0    0    0 -0.00000000000E+00 -0.00000000000E+00 -0.30000000000E+02  0.30000000000E+02  0.00000000000E+00 0. -1.
          5    1    1    2  501    0  0.15591202319E+02  0.23345391321E+02 -0.94771891566E+01  0.30000000000E+02  0.47000000000E+01 0. -1.
         -5    1    1    2    0  501 -0.15591202319E+02 -0.23345391321E+02  0.94771891566E+01  0.30000000000E+02  0.47000000000E+01 0.  1.
</event>
<event>
 4    1  0.7581446E-002  0.6000000E+02  0.7546771E-02  0.1259629E+00
         11   -1    0    0    0    0  0.00000000000E+00  0.00000000000E+00  0.30000000000E+02  0.30000000000E+02  0.00000000000E+00 0. -1.
        -11   -1    0    0    0    0 -0.00000000000E+00 -0.00000000000E+00 -0.30000000000E+02  0.30000000000E+02  0.00000000000E+00 0.  1.
          5    1    1    2  501    0  0.47711451405E+01  0.20423223430E+02  0.20929360209E+02  0.30000000000E+02  0.47000000000E+01 0. -1.
         -5    1    1    2    0  501 -0.47711451405E+01 -0.20423223430E+02 -0.20929360209E+02  0.30000000000E+02  0.47000000000E+01 0.  1.
</event>
<event>
 4    1  0.7581446E-002  0.6000000E+02  0.7546771E-02  0.1259629E+00
         11   -1    0    0    0    0  0.00000000000E+00  0.00000000000E+00  0.30000000000E+02  0.30000000000E+02  0.00000000000E+00 0. -1.
        -11   -1    0    0    0    0 -0.00000000000E+00 -0.00000000000E+00 -0.30000000000E+02  0.30000000000E+02  0.00000000000E+00 0.  1.
          5    1    1    2  501    0 -0.23535426894E+02 -0.17982323898E+02 -0.79354151146E+00  0.30000000000E+02  0.47000000000E+01 0.  1.
         -5    1    1    2    0  501  0.23535426894E+02  0.17982323898E+02  0.79354151146E+00  0.30000000000E+02  0.47000000000E+01 0. -1.
</event>
<event>
 4    1  0.7581446E-002  0.6000000E+02  0.7546771E-02  0.1259629E+00
         11   -1    0    0    0    0  0.00000000000E+00  0.00000000000E+00  0.30000000000E+02  0.30000000000E+02  0.00000000000E+00 0. -1.
        -11   -1    0    0    0    0 -0.00000000000E+00 -0.00000000000E+00 -0.30000000000E+02  0.30000000000E+02  0.00000000000E+00 0.  1.
          5    1    1    2  501    0 -0.42888472455E+00 -0.17115594801E+02 -0.24182275999E+02  0.30000000000E+02  0.47000000000E+01 0.  1.
         -5    1    1    2    0  501  0.42888472455E+00  0.17115594801E+02  0.24182275999E+02  0.30000000000E+02  0.47000000000E+01 0. -1.
</event>
<event>
 4    1  0.7581446E-002  0.6000000E+02  0.7546771E-02  0.1259629E+00
         11   -1    0    0    0    0  0.00000000000E+00  0.00000000000E+00  0.30000000000E+02  0.30000000000E+02  0.00000000000E+00 0. -1.
        -11   -1    0    0    0    0 -0.00000000000E+00 -0.00000000000E+00 -0.30000000000E+02  0.30000000000E+02  0.00000000000E+00 0.  1.
          5    1    1    2  501    0 -0.92477839884E+01  0.10289614990E+02 -0.26201380014E+02  0.30000000000E+02  0.47000000000E+01 0.  1.
         -5    1    1    2    0  501  0.92477839884E+01 -0.10289614990E+02  0.26201380014E+02  0.30000000000E+02  0.47000000000E+01 0. -1.
</event>
<event>
 4    1  0.7581446E-002  0.6000000E+02  0.7546771E-02  0.1259629E+00
         11   -1    0    0    0    0  0.00000000000E+00  0.00000000000E+00  0.30000000000E+02  0.30000000000E+02  0.00000000000E+00 0.  1.
        -11   -1    0    0    0    0 -0.00000000000E+00 -0.00000000000E+00 -0.30000000000E+02  0.30000000000E+02  0.00000000000E+00 0. -1.
          5    1    1    2  501    0  0.17184690327E+02  0.22179343634E+02 -0.95222441854E+01  0.30000000000E+02  0.47000000000E+01 0.  1.
         -5    1    1    2    0  501 -0.17184690327E+02 -0.22179343634E+02  0.95222441854E+01  0.30000000000E+02  0.47000000000E+01 0. -1.
</event>
<event>
 4    1  0.7581446E-002  0.6000000E+02  0.7546771E-02  0.1259629E+00
         11   -1    0    0    0    0  0.00000000000E+00  0.00000000000E+00  0.30000000000E+02  0.30000000000E+02  0.00000000000E+00 0.  1.
        -11   -1    0    0    0    0 -0.00000000000E+00 -0.00000000000E+00 -0.30000000000E+02  0.30000000000E+02  0.00000000000E+00 0. -1.
          5    1    1    2  501    0 -0.20732709987E+00  0.29584529410E+02  0.16194551656E+01  0.30000000000E+02  0.47000000000E+01 0.  1.
         -5    1    1    2    0  501  0.20732709987E+00 -0.29584529410E+02 -0.16194551656E+01  0.30000000000E+02  0.47000000000E+01 0. -1.
</event>
<event>
 4    1  0.7581446E-002  0.6000000E+02  0.7546771E-02  0.1259629E+00
         11   -1    0    0    0    0  0.00000000000E+00  0.00000000000E+00  0.30000000000E+02  0.30000000000E+02  0.00000000000E+00 0.  1.
        -11   -1    0    0    0    0 -0.00000000000E+00 -0.00000000000E+00 -0.30000000000E+02  0.30000000000E+02  0.00000000000E+00 0. -1.
          5    1    1    2  501    0  0.23213161910E+02 -0.47459376771E+01 -0.17791435853E+02  0.30000000000E+02  0.47000000000E+01 0. -1.
         -5    1    1    2    0  501 -0.23213161910E+02  0.47459376771E+01  0.17791435853E+02  0.30000000000E+02  0.47000000000E+01 0.  1.
</event>
<event>
 4    1  0.7581446E-002  0.6000000E+02  0.7546771E-02  0.1259629E+00
         11   -1    0    0    0    0  0.00000000000E+00  0.00000000000E+00  0.30000000000E+02  0.30000000000E+02  0.00000000000E+00 0.  1.
        -11   -1    0    0    0    0 -0.00000000000E+00 -0.00000000000E+00 -0.30000000000E+02  0.30000000000E+02  0.00000000000E+00 0. -1.
          5    1    1    2  501    0  0.78195687252E+01  0.28096354515E+02 -0.52306030164E+01  0.30000000000E+02  0.47000000000E+01 0. -1.
         -5    1    1    2    0  501 -0.78195687252E+01 -0.28096354515E+02  0.52306030164E+01  0.30000000000E+02  0.47000000000E+01 0.  1.
</event>
<event>
 4    1  0.7581446E-002  0.6000000E+02  0.7546771E-02  0.1259629E+00
         11   -1    0    0    0    0  0.00000000000E+00  0.00000000000E+00  0.30000000000E+02  0.30000000000E+02  0.00000000000E+00 0.  1.
        -11   -1    0    0    0    0 -0.00000000000E+00 -0.00000000000E+00 -0.30000000000E+02  0.30000000000E+02  0.00000000000E+00 0. -1.
          5    1    1    2  501    0 -0.17452904829E+02 -0.55096720699E+01  0.23301279508E+02  0.30000000000E+02  0.47000000000E+01 0.  1.
         -5    1    1    2    0  501  0.17452904829E+02  0.55096720699E+01 -0.23301279508E+02  0.30000000000E+02  0.47000000000E+01 0. -1.
</event>
<event>
 4    1  0.7581446E-002  0.6000000E+02  0.7546771E-02  0.1259629E+00
         11   -1    0    0    0    0  0.00000000000E+00  0.00000000000E+00  0.30000000000E+02  0.30000000000E+02  0.00000000000E+00 0.  1.
        -11   -1    0    0    0    0 -0.00000000000E+00 -0.00000000000E+00 -0.30000000000E+02  0.30000000000E+02  0.00000000000E+00 0. -1.
          5    1    1    2  501    0 -0.27772857294E+02  0.76376523706E+01 -0.69458378905E+01  0.30000000000E+02  0.47000000000E+01 0. -1.
         -5    1    1    2    0  501  0.27772857294E+02 -0.76376523706E+01  0.69458378905E+01  0.30000000000E+02  0.47000000000E+01 0.  1.
</event>
<event>
 4    1  0.7581446E-002  0.6000000E+02  0.7546771E-02  0.1259629E+00
         11   -1    0    0    0    0  0.00000000000E+00  0.00000000000E+00  0.30000000000E+02  0.30000000000E+02  0.00000000000E+00 0.  1.
        -11   -1    0    0    0    0 -0.00000000000E+00 -0.00000000000E+00 -0.30000000000E+02  0.30000000000E+02  0.00000000000E+00 0. -1.
          5    1    1    2  501    0  0.22845244533E+02 -0.18274911477E+02 -0.46938696971E+01  0.30000000000E+02  0.47000000000E+01 0. -1.
         -5    1    1    2    0  501 -0.22845244533E+02  0.18274911477E+02  0.46938696971E+01  0.30000000000E+02  0.47000000000E+01 0.  1.
</event>
<event>
 4    1  0.7581446E-002  0.6000000E+02  0.7546771E-02  0.1259629E+00
         11   -1    0    0    0    0  0.00000000000E+00  0.00000000000E+00  0.30000000000E+02  0.30000000000E+02  0.00000000000E+00 0. -1.
        -11   -1    0    0    0    0 -0.00000000000E+00 -0.00000000000E+00 -0.30000000000E+02  0.30000000000E+02  0.00000000000E+00 0.  1.
          5    1    1    2  501    0  0.21931146398E+02  0.14816213733E+02 -0.13319708265E+02  0.30000000000E+02  0.47000000000E+01 0.  1.
         -5    1    1    2    0  501 -0.21931146398E+02 -0.14816213733E+02  0.13319708265E+02  0.30000000000E+02  0.47000000000E+01 0. -1.
</event>
<event>
 4    1  0.7581446E-002  0.6000000E+02  0.7546771E-02  0.1259629E+00
         11   -1    0    0    0    0  0.00000000000E+00  0.00000000000E+00  0.30000000000E+02  0.30000000000E+02  0.00000000000E+00 0. -1.
        -11   -1    0    0    0    0 -0.00000000000E+00 -0.00000000000E+00 -0.30000000000E+02  0.30000000000E+02  0.00000000000E+00 0.  1.
          5    1    1    2  501    0  0.18569896497E+02 -0.16364275740E+02 -0.16287400762E+02  0.30000000000E+02  0.47000000000E+01 0.  1.
         -5    1    1    2    0  501 -0.18569896497E+02  0.16364275740E+02  0.16287400762E+02  0.30000000000E+02  0.47000000000E+01 0. -1.
</event>
<event>
 4    1  0.7581446E-002  0.6000000E+02  0.7546771E-02  0.1259629E+00
         11   -1    0    0    0    0  0.00000000000E+00  0.00000000000E+00  0.30000000000E+02  0.30000000000E+02  0.00000000000E+00 0.  1.
        -11   -1    0    0    0    0 -0.00000000000E+00 -0.00000000000E+00 -0.30000000000E+02  0.30000000000E+02  0.00000000000E+00 0. -1.
          5    1    1    2  501    0 -0.66143351748E+01  0.86827516838E+01 -0.27545787217E+02  0.30000000000E+02  0.47000000000E+01 0. -1.
         -5    1    1    2    0  501  0.66143351748E+01 -0.86827516838E+01  0.27545787217E+02  0.30000000000E+02  0.47000000000E+01 0.  1.
</event>
<event>
 4    1  0.7581446E-002  0.6000000E+02  0.7546771E-02  0.1259629E+00
         11   -1    0    0    0    0  0.00000000000E+00  0.00000000000E+00  0.30000000000E+02  0.30000000000E+02  0.00000000000E+00 0.  1.
        -11   -1    0    0    0    0 -0.00000000000E+00 -0.00000000000E+00 -0.30000000000E+02  0.30000000000E+02  0.00000000000E+00 0. -1.
          5    1    1    2  501    0 -0.10733104700E+02  0.66610912743E+01 -0.26801871698E+02  0.30000000000E+02  0.47000000000E+01 0. -1.
         -5    1    1    2    0  501  0.10733104700E+02 -0.66610912743E+01  0.26801871698E+02  0.30000000000E+02  0.47000000000E+01 0.  1.
</event>
<event>
 4    1  0.7581446E-002  0.6000000E+02  0.7546771E-02  0.1259629E+00
         11   -1    0    0    0    0  0.00000000000E+00  0.00000000000E+00  0.30000000000E+02  0.30000000000E+02  0.00000000000E+00 0.  1.
        -11   -1    0    0    0    0 -0.00000000000E+00 -0.00000000000E+00 -0.30000000000E+02  0.30000000000E+02  0.00000000000E+00 0. -1.
          5    1    1    2  501    0  0.98223461969E+01  0.16253499339E+02 -0.22743246787E+02  0.30000000000E+02  0.47000000000E+01 0. -1.
         -5    1    1    2    0  501 -0.98223461969E+01 -0.16253499339E+02  0.22743246787E+02  0.30000000000E+02  0.47000000000E+01 0.  1.
</event>
<event>
 4    1  0.7581446E-002  0.6000000E+02  0.7546771E-02  0.1259629E+00
         11   -1    0    0    0    0  0.00000000000E+00  0.00000000000E+00  0.30000000000E+02  0.30000000000E+02  0.00000000000E+00 0. -1.
        -11   -1    0    0    0    0 -0.00000000000E+00 -0.00000000000E+00 -0.30000000000E+02  0.30000000000E+02  0.00000000000E+00 0.  1.
          5    1    1    2  501    0 -0.12408041410E+02  0.25002172612E+02  0.99419250166E+01  0.30000000000E+02  0.47000000000E+01 0. -1.
         -5    1    1    2    0  501  0.12408041410E+02 -0.25002172612E+02 -0.99419250166E+01  0.30000000000E+02  0.47000000000E+01 0.  1.
</event>
<event>
 4    1  0.7581446E-002  0.6000000E+02  0.7546771E-02  0.1259629E+00
         11   -1    0    0    0    0  0.00000000000E+00  0.00000000000E+00  0.30000000000E+02  0.30000000000E+02  0.00000000000E+00 0.  1.
        -11   -1    0    0    0    0 -0.00000000000E+00 -0.00000000000E+00 -0.30000000000E+02  0.30000000000E+02  0.00000000000E+00 0. -1.
          5    1    1    2  501    0  0.13961079544E+02  0.20543519365E+02 -0.16154320477E+02  0.30000000000E+02  0.47000000000E+01 0. -1.
         -5    1    1    2    0  501 -0.13961079544E+02 -0.20543519365E+02  0.16154320477E+02  0.30000000000E+02  0.47000000000E+01 0.  1.
</event>
<event>
 4    1  0.7581446E-002  0.6000000E+02  0.7546771E-02  0.1259629E+00
         11   -1    0    0    0    0  0.00000000000E+00  0.00000000000E+00  0.30000000000E+02  0.30000000000E+02  0.00000000000E+00 0.  1.
        -11   -1    0    0    0    0 -0.00000000000E+00 -0.00000000000E+00 -0.30000000000E+02  0.30000000000E+02  0.00000000000E+00 0. -1.
          5    1    1    2  501    0  0.18463533000E+02  0.15175651767E+02 -0.17513067767E+02  0.30000000000E+02  0.47000000000E+01 0. -1.
         -5    1    1    2    0  501 -0.18463533000E+02 -0.15175651767E+02  0.17513067767E+02  0.30000000000E+02  0.47000000000E+01 0.  1.
</event>
<event>
 4    1  0.7581446E-002  0.6000000E+02  0.7546771E-02  0.1259629E+00
         11   -1    0    0    0    0  0.00000000000E+00  0.00000000000E+00  0.30000000000E+02  0.30000000000E+02  0.00000000000E+00 0.  1.
        -11   -1    0    0    0    0 -0.00000000000E+00 -0.00000000000E+00 -0.30000000000E+02  0.30000000000E+02  0.00000000000E+00 0. -1.
          5    1    1    2  501    0  0.18347362298E+02 -0.15802748881E+02  0.17075052695E+02  0.30000000000E+02  0.47000000000E+01 0.  1.
         -5    1    1    2    0  501 -0.18347362298E+02  0.15802748881E+02 -0.17075052695E+02  0.30000000000E+02  0.47000000000E+01 0. -1.
</event>
<event>
 4    1  0.7581446E-002  0.6000000E+02  0.7546771E-02  0.1259629E+00
         11   -1    0    0    0    0  0.00000000000E+00  0.00000000000E+00  0.30000000000E+02  0.30000000000E+02  0.00000000000E+00 0.  1.
        -11   -1    0    0    0    0 -0.00000000000E+00 -0.00000000000E+00 -0.30000000000E+02  0.30000000000E+02  0.00000000000E+00 0. -1.
          5    1    1    2  501    0  0.23048342115E+02  0.25527662288E+01 -0.18443625195E+02  0.30000000000E+02  0.47000000000E+01 0. -1.
         -5    1    1    2    0  501 -0.23048342115E+02 -0.25527662288E+01  0.18443625195E+02  0.30000000000E+02  0.47000000000E+01 0.  1.
</event>
<event>
 4    1  0.7581446E-002  0.6000000E+02  0.7546771E-02  0.1259629E+00
         11   -1    0    0    0    0  0.00000000000E+00  0.00000000000E+00  0.30000000000E+02  0.30000000000E+02  0.00000000000E+00 0.  1.
        -11   -1    0    0    0    0 -0.00000000000E+00 -0.00000000000E+00 -0.30000000000E+02  0.30000000000E+02  0.00000000000E+00 0. -1.
          5    1    1    2  501    0  0.27401933218E+02  0.90944671148E+01  0.66584325350E+01  0.30000000000E+02  0.47000000000E+01 0. -1.
         -5    1    1    2    0  501 -0.27401933218E+02 -0.90944671148E+01 -0.66584325350E+01  0.30000000000E+02  0.47000000000E+01 0.  1.
</event>
<event>
 4    1  0.7581446E-002  0.6000000E+02  0.7546771E-02  0.1259629E+00
         11   -1    0    0    0    0  0.00000000000E+00  0.00000000000E+00  0.30000000000E+02  0.30000000000E+02  0.00000000000E+00 0.  1.
        -11   -1    0    0    0    0 -0.00000000000E+00 -0.00000000000E+00 -0.30000000000E+02  0.30000000000E+02  0.00000000000E+00 0. -1.
          5    1    1    2  501    0 -0.12648760590E+02  0.26588921222E+02  0.33087949119E+01  0.30000000000E+02  0.47000000000E+01 0. -1.
         -5    1    1    2    0  501  0.12648760590E+02 -0.26588921222E+02 -0.33087949119E+01  0.30000000000E+02  0.47000000000E+01 0.  1.
</event>
<event>
 4    1  0.7581446E-002  0.6000000E+02  0.7546771E-02  0.1259629E+00
         11   -1    0    0    0    0  0.00000000000E+00  0.00000000000E+00  0.30000000000E+02  0.30000000000E+02  0.00000000000E+00 0.  1.
        -11   -1    0    0    0    0 -0.00000000000E+00 -0.00000000000E+00 -0.30000000000E+02  0.30000000000E+02  0.00000000000E+00 0. -1.
          5    1    1    2  501    0 -0.48229773356E+00  0.27427585724E+02 -0.11198434276E+02  0.30000000000E+02  0.47000000000E+01 0. -1.
         -5    1    1    2    0  501  0.48229773356E+00 -0.27427585724E+02  0.11198434276E+02  0.30000000000E+02  0.47000000000E+01 0.  1.
</event>
<event>
 4    1  0.7581446E-002  0.6000000E+02  0.7546771E-02  0.1259629E+00
         11   -1    0    0    0    0  0.00000000000E+00  0.00000000000E+00  0.30000000000E+02  0.30000000000E+02  0.00000000000E+00 0.  1.
        -11   -1    0    0    0    0 -0.00000000000E+00 -0.00000000000E+00 -0.30000000000E+02  0.30000000000E+02  0.00000000000E+00 0. -1.
          5    1    1    2  501    0 -0.12874205290E+02  0.78845184860E+01 -0.25495082004E+02  0.30000000000E+02  0.47000000000E+01 0. -1.
         -5    1    1    2    0  501  0.12874205290E+02 -0.78845184860E+01  0.25495082004E+02  0.30000000000E+02  0.47000000000E+01 0.  1.
</event>
<event>
 4    1  0.7581446E-002  0.6000000E+02  0.7546771E-02  0.1259629E+00
         11   -1    0    0    0    0  0.00000000000E+00  0.00000000000E+00  0.30000000000E+02  0.30000000000E+02  0.00000000000E+00 0.  1.
        -11   -1    0    0    0    0 -0.00000000000E+00 -0.00000000000E+00 -0.30000000000E+02  0.30000000000E+02  0.00000000000E+00 0. -1.
          5    1    1    2  501    0 -0.23050662263E+02 -0.10458510238E+02  0.15401186086E+02  0.30000000000E+02  0.47000000000E+01 0.  1.
         -5    1    1    2    0  501  0.23050662263E+02  0.10458510238E+02 -0.15401186086E+02  0.30000000000E+02  0.47000000000E+01 0. -1.
</event>
<event>
 4    1  0.7581446E-002  0.6000000E+02  0.7546771E-02  0.1259629E+00
         11   -1    0    0    0    0  0.00000000000E+00  0.00000000000E+00  0.30000000000E+02  0.30000000000E+02  0.00000000000E+00 0.  1.
        -11   -1    0    0    0    0 -0.00000000000E+00 -0.00000000000E+00 -0.30000000000E+02  0.30000000000E+02  0.00000000000E+00 0. -1.
          5    1    1    2  501    0 -0.27001827511E+02  0.62961322882E+00 -0.12182565339E+02  0.30000000000E+02  0.47000000000E+01 0. -1.
         -5    1    1    2    0  501  0.27001827511E+02 -0.62961322882E+00  0.12182565339E+02  0.30000000000E+02  0.47000000000E+01 0.  1.
</event>
<event>
 4    1  0.7581446E-002  0.6000000E+02  0.7546771E-02  0.1259629E+00
         11   -1    0    0    0    0  0.00000000000E+00  0.00000000000E+00  0.30000000000E+02  0.30000000000E+02  0.00000000000E+00 0. -1.
        -11   -1    0    0    0    0 -0.00000000000E+00 -0.00000000000E+00 -0.30000000000E+02  0.30000000000E+02  0.00000000000E+00 0.  1.
          5    1    1    2  501    0  0.12412807619E+02 -0.63025423778E+01 -0.26155499739E+02  0.30000000000E+02  0.47000000000E+01 0.  1.
         -5    1    1    2    0  501 -0.12412807619E+02  0.63025423778E+01  0.26155499739E+02  0.30000000000E+02  0.47000000000E+01 0. -1.
</event>
<event>
 4    1  0.7581446E-002  0.6000000E+02  0.7546771E-02  0.1259629E+00
         11   -1    0    0    0    0  0.00000000000E+00  0.00000000000E+00  0.30000000000E+02  0.30000000000E+02  0.00000000000E+00 0.  1.
        -11   -1    0    0    0    0 -0.00000000000E+00 -0.00000000000E+00 -0.30000000000E+02  0.30000000000E+02  0.00000000000E+00 0. -1.
          5    1    1    2  501    0 -0.28380971049E+02 -0.45560316733E+01 -0.71883974381E+01  0.30000000000E+02  0.47000000000E+01 0. -1.
         -5    1    1    2    0  501  0.28380971049E+02  0.45560316733E+01  0.71883974381E+01  0.30000000000E+02  0.47000000000E+01 0.  1.
</event>
<event>
 4    1  0.7581446E-002  0.6000000E+02  0.7546771E-02  0.1259629E+00
         11   -1    0    0    0    0  0.00000000000E+00  0.00000000000E+00  0.30000000000E+02  0.30000000000E+02  0.00000000000E+00 0. -1.
        -11   -1    0    0    0    0 -0.00000000000E+00 -0.00000000000E+00 -0.30000000000E+02  0.30000000000E+02  0.00000000000E+00 0.  1.
          5    1    1    2  501    0  0.14730825908E+02  0.26118854418E+01 -0.25575199364E+02  0.30000000000E+02  0.47000000000E+01 0.  1.
         -5    1    1    2    0  501 -0.14730825908E+02 -0.26118854418E+01  0.25575199364E+02  0.30000000000E+02  0.47000000000E+01 0. -1.
</event>
<event>
 4    1  0.7581446E-002  0.6000000E+02  0.7546771E-02  0.1259629E+00
         11   -1    0    0    0    0  0.00000000000E+00  0.00000000000E+00  0.30000000000E+02  0.30000000000E+02  0.00000000000E+00 0.  1.
        -11   -1    0    0    0    0 -0.00000000000E+00 -0.00000000000E+00 -0.30000000000E+02  0.30000000000E+02  0.00000000000E+00 0. -1.
          5    1    1    2  501    0 -0.15795926436E+02 -0.13832134105E+02 -0.20906237685E+02  0.30000000000E+02  0.47000000000E+01 0. -1.
         -5    1    1    2    0  501  0.15795926436E+02  0.13832134105E+02  0.20906237685E+02  0.30000000000E+02  0.47000000000E+01 0.  1.
</event>
<event>
 4    1  0.7581446E-002  0.6000000E+02  0.7546771E-02  0.1259629E+00
         11   -1    0    0    0    0  0.00000000000E+00  0.00000000000E+00  0.30000000000E+02  0.30000000000E+02  0.00000000000E+00 0.  1.
        -11   -1    0    0    0    0 -0.00000000000E+00 -0.00000000000E+00 -0.30000000000E+02  0.30000000000E+02  0.00000000000E+00 0. -1.
          5    1    1    2  501    0  0.15563861331E+02  0.21740801155E+02 -0.12767685210E+02  0.30000000000E+02  0.47000000000E+01 0. -1.
         -5    1    1    2    0  501 -0.15563861331E+02 -0.21740801155E+02  0.12767685210E+02  0.30000000000E+02  0.47000000000E+01 0.  1.
</event>
<event>
 4    1  0.7581446E-002  0.6000000E+02  0.7546771E-02  0.1259629E+00
         11   -1    0    0    0    0  0.00000000000E+00  0.00000000000E+00  0.30000000000E+02  0.30000000000E+02  0.00000000000E+00 0.  1.
        -11   -1    0    0    0    0 -0.00000000000E+00 -0.00000000000E+00 -0.30000000000E+02  0.30000000000E+02  0.00000000000E+00 0. -1.
          5    1    1    2  501    0  0.68107391361E+00 -0.10011179485E+02  0.27878709146E+02  0.30000000000E+02  0.47000000000E+01 0.  1.
         -5    1    1    2    0  501 -0.68107391361E+00  0.10011179485E+02 -0.27878709146E+02  0.30000000000E+02  0.47000000000E+01 0. -1.
</event>
<event>
 4    1  0.7581446E-002  0.6000000E+02  0.7546771E-02  0.1259629E+00
         11   -1    0    0    0    0  0.00000000000E+00  0.00000000000E+00  0.30000000000E+02  0.30000000000E+02  0.00000000000E+00 0.  1.
        -11   -1    0    0    0    0 -0.00000000000E+00 -0.00000000000E+00 -0.30000000000E+02  0.30000000000E+02  0.00000000000E+00 0. -1.
          5    1    1    2  501    0 -0.93626646009E+01 -0.91802276436E+00 -0.28096400940E+02  0.30000000000E+02  0.47000000000E+01 0. -1.
         -5    1    1    2    0  501  0.93626646009E+01  0.91802276436E+00  0.28096400940E+02  0.30000000000E+02  0.47000000000E+01 0.  1.
</event>
<event>
 4    1  0.7581446E-002  0.6000000E+02  0.7546771E-02  0.1259629E+00
         11   -1    0    0    0    0  0.00000000000E+00  0.00000000000E+00  0.30000000000E+02  0.30000000000E+02  0.00000000000E+00 0. -1.
        -11   -1    0    0    0    0 -0.00000000000E+00 -0.00000000000E+00 -0.30000000000E+02  0.30000000000E+02  0.00000000000E+00 0.  1.
          5    1    1    2  501    0 -0.15049519841E+02 -0.14290061075E+02 -0.21147484650E+02  0.30000000000E+02  0.47000000000E+01 0.  1.
         -5    1    1    2    0  501  0.15049519841E+02  0.14290061075E+02  0.21147484650E+02  0.30000000000E+02  0.47000000000E+01 0. -1.
</event>
<event>
 4    1  0.7581446E-002  0.6000000E+02  0.7546771E-02  0.1259629E+00
         11   -1    0    0    0    0  0.00000000000E+00  0.00000000000E+00  0.30000000000E+02  0.30000000000E+02  0.00000000000E+00 0.  1.
        -11   -1    0    0    0    0 -0.00000000000E+00 -0.00000000000E+00 -0.30000000000E+02  0.30000000000E+02  0.00000000000E+00 0. -1.
          5    1    1    2  501    0 -0.15318578510E+02 -0.21956306979E+01  0.25267179468E+02  0.30000000000E+02  0.47000000000E+01 0.  1.
         -5    1    1    2    0  501  0.15318578510E+02  0.21956306979E+01 -0.25267179468E+02  0.30000000000E+02  0.47000000000E+01 0. -1.
</event>
<event>
 4    1  0.7581446E-002  0.6000000E+02  0.7546771E-02  0.1259629E+00
         11   -1    0    0    0    0  0.00000000000E+00  0.00000000000E+00  0.30000000000E+02  0.30000000000E+02  0.00000000000E+00 0. -1.
        -11   -1    0    0    0    0 -0.00000000000E+00 -0.00000000000E+00 -0.30000000000E+02  0.30000000000E+02  0.00000000000E+00 0.  1.
          5    1    1    2  501    0  0.13262226125E+01 -0.23679573385E+02  0.17760319194E+02  0.30000000000E+02  0.47000000000E+01 0. -1.
         -5    1    1    2    0  501 -0.13262226125E+01  0.23679573385E+02 -0.17760319194E+02  0.30000000000E+02  0.47000000000E+01 0.  1.
</event>
<event>
 4    1  0.7581446E-002  0.6000000E+02  0.7546771E-02  0.1259629E+00
         11   -1    0    0    0    0  0.00000000000E+00  0.00000000000E+00  0.30000000000E+02  0.30000000000E+02  0.00000000000E+00 0.  1.
        -11   -1    0    0    0    0 -0.00000000000E+00 -0.00000000000E+00 -0.30000000000E+02  0.30000000000E+02  0.00000000000E+00 0. -1.
          5    1    1    2  501    0  0.63610161291E+01 -0.18300316501E+02  0.22417535319E+02  0.30000000000E+02  0.47000000000E+01 0.  1.
         -5    1    1    2    0  501 -0.63610161291E+01  0.18300316501E+02 -0.22417535319E+02  0.30000000000E+02  0.47000000000E+01 0. -1.
</event>
<event>
 4    1  0.7581446E-002  0.6000000E+02  0.7546771E-02  0.1259629E+00
         11   -1    0    0    0    0  0.00000000000E+00  0.00000000000E+00  0.30000000000E+02  0.30000000000E+02  0.00000000000E+00 0. -1.
        -11   -1    0    0    0    0 -0.00000000000E+00 -0.00000000000E+00 -0.30000000000E+02  0.30000000000E+02  0.00000000000E+00 0.  1.
          5    1    1    2  501    0  0.20162852106E+01 -0.69907901418E+01 -0.28722351003E+02  0.30000000000E+02  0.47000000000E+01 0.  1.
         -5    1    1    2    0  501 -0.20162852106E+01  0.69907901418E+01  0.28722351003E+02  0.30000000000E+02  0.47000000000E+01 0. -1.
</event>
<event>
 4    1  0.7581446E-002  0.6000000E+02  0.7546771E-02  0.1259629E+00
         11   -1    0    0    0    0  0.00000000000E+00  0.00000000000E+00  0.30000000000E+02  0.30000000000E+02  0.00000000000E+00 0. -1.
        -11   -1    0    0    0    0 -0.00000000000E+00 -0.00000000000E+00 -0.30000000000E+02  0.30000000000E+02  0.00000000000E+00 0.  1.
          5    1    1    2  501    0 -0.15008380942E+01 -0.21414883168E+02  0.20422053371E+02  0.30000000000E+02  0.47000000000E+01 0. -1.
         -5    1    1    2    0  501  0.15008380942E+01  0.21414883168E+02 -0.20422053371E+02  0.30000000000E+02  0.47000000000E+01 0.  1.
</event>
<event>
 4    1  0.7581446E-002  0.6000000E+02  0.7546771E-02  0.1259629E+00
         11   -1    0    0    0    0  0.00000000000E+00  0.00000000000E+00  0.30000000000E+02  0.30000000000E+02  0.00000000000E+00 0.  1.
        -11   -1    0    0    0    0 -0.00000000000E+00 -0.00000000000E+00 -0.30000000000E+02  0.30000000000E+02  0.00000000000E+00 0. -1.
          5    1    1    2  501    0 -0.15211953384E+02  0.21066558212E+02 -0.14237506781E+02  0.30000000000E+02  0.47000000000E+01 0. -1.
         -5    1    1    2    0  501  0.15211953384E+02 -0.21066558212E+02  0.14237506781E+02  0.30000000000E+02  0.47000000000E+01 0.  1.
</event>
<event>
 4    1  0.7581446E-002  0.6000000E+02  0.7546771E-02  0.1259629E+00
         11   -1    0    0    0    0  0.00000000000E+00  0.00000000000E+00  0.30000000000E+02  0.30000000000E+02  0.00000000000E+00 0.  1.
        -11   -1    0    0    0    0 -0.00000000000E+00 -0.00000000000E+00 -0.30000000000E+02  0.30000000000E+02  0.00000000000E+00 0. -1.
          5    1    1    2  501    0 -0.23916237206E+02  0.11217519340E+02 -0.13419793507E+02  0.30000000000E+02  0.47000000000E+01 0. -1.
         -5    1    1    2    0  501  0.23916237206E+02 -0.11217519340E+02  0.13419793507E+02  0.30000000000E+02  0.47000000000E+01 0.  1.
</event>
<event>
 4    1  0.7581446E-002  0.6000000E+02  0.7546771E-02  0.1259629E+00
         11   -1    0    0    0    0  0.00000000000E+00  0.00000000000E+00  0.30000000000E+02  0.30000000000E+02  0.00000000000E+00 0. -1.
        -11   -1    0    0    0    0 -0.00000000000E+00 -0.00000000000E+00 -0.30000000000E+02  0.30000000000E+02  0.00000000000E+00 0.  1.
          5    1    1    2  501    0  0.20247956497E+01  0.22682191943E+02 -0.18955958726E+02  0.30000000000E+02  0.47000000000E+01 0.  1.
         -5    1    1    2    0  501 -0.20247956497E+01 -0.22682191943E+02  0.18955958726E+02  0.30000000000E+02  0.47000000000E+01 0. -1.
</event>
<event>
 4    1  0.7581446E-002  0.6000000E+02  0.7546771E-02  0.1259629E+00
         11   -1    0    0    0    0  0.00000000000E+00  0.00000000000E+00  0.30000000000E+02  0.30000000000E+02  0.00000000000E+00 0.  1.
        -11   -1    0    0    0    0 -0.00000000000E+00 -0.00000000000E+00 -0.30000000000E+02  0.30000000000E+02  0.00000000000E+00 0. -1.
          5    1    1    2  501    0  0.12840585570E+02  0.23185822222E+01 -0.26601758188E+02  0.30000000000E+02  0.47000000000E+01 0. -1.
         -5    1    1    2    0  501 -0.12840585570E+02 -0.23185822222E+01  0.26601758188E+02  0.30000000000E+02  0.47000000000E+01 0.  1.
</event>
<event>
 4    1  0.7581446E-002  0.6000000E+02  0.7546771E-02  0.1259629E+00
         11   -1    0    0    0    0  0.00000000000E+00  0.00000000000E+00  0.30000000000E+02  0.30000000000E+02  0.00000000000E+00 0.  1.
        -11   -1    0    0    0    0 -0.00000000000E+00 -0.00000000000E+00 -0.30000000000E+02  0.30000000000E+02  0.00000000000E+00 0. -1.
          5    1    1    2  501    0  0.10795351154E+01 -0.26632101846E+02 -0.12941242413E+02  0.30000000000E+02  0.47000000000E+01 0. -1.
         -5    1    1    2    0  501 -0.10795351154E+01  0.26632101846E+02  0.12941242413E+02  0.30000000000E+02  0.47000000000E+01 0.  1.
</event>
<event>
 4    1  0.7581446E-002  0.6000000E+02  0.7546771E-02  0.1259629E+00
         11   -1    0    0    0    0  0.00000000000E+00  0.00000000000E+00  0.30000000000E+02  0.30000000000E+02  0.00000000000E+00 0.  1.
        -11   -1    0    0    0    0 -0.00000000000E+00 -0.00000000000E+00 -0.30000000000E+02  0.30000000000E+02  0.00000000000E+00 0. -1.
          5    1    1    2  501    0 -0.25113842011E+02 -0.13830212295E+02  0.74786474258E+01  0.30000000000E+02  0.47000000000E+01 0. -1.
         -5    1    1    2    0  501  0.25113842011E+02  0.13830212295E+02 -0.74786474258E+01  0.30000000000E+02  0.47000000000E+01 0.  1.
</event>
<event>
 4    1  0.7581446E-002  0.6000000E+02  0.7546771E-02  0.1259629E+00
         11   -1    0    0    0    0  0.00000000000E+00  0.00000000000E+00  0.30000000000E+02  0.30000000000E+02  0.00000000000E+00 0.  1.
        -11   -1    0    0    0    0 -0.00000000000E+00 -0.00000000000E+00 -0.30000000000E+02  0.30000000000E+02  0.00000000000E+00 0. -1.
          5    1    1    2  501    0 -0.63395704732E+01 -0.15587565946E+02 -0.24387448290E+02  0.30000000000E+02  0.47000000000E+01 0. -1.
         -5    1    1    2    0  501  0.63395704732E+01  0.15587565946E+02  0.24387448290E+02  0.30000000000E+02  0.47000000000E+01 0.  1.
</event>
<event>
 4    1  0.7581446E-002  0.6000000E+02  0.7546771E-02  0.1259629E+00
         11   -1    0    0    0    0  0.00000000000E+00  0.00000000000E+00  0.30000000000E+02  0.30000000000E+02  0.00000000000E+00 0.  1.
        -11   -1    0    0    0    0 -0.00000000000E+00 -0.00000000000E+00 -0.30000000000E+02  0.30000000000E+02  0.00000000000E+00 0. -1.
          5    1    1    2  501    0  0.25999071820E+02  0.13251432391E+02 -0.51339852024E+01  0.30000000000E+02  0.47000000000E+01 0. -1.
         -5    1    1    2    0  501 -0.25999071820E+02 -0.13251432391E+02  0.51339852024E+01  0.30000000000E+02  0.47000000000E+01 0.  1.
</event>
<event>
 4    1  0.7581446E-002  0.6000000E+02  0.7546771E-02  0.1259629E+00
         11   -1    0    0    0    0  0.00000000000E+00  0.00000000000E+00  0.30000000000E+02  0.30000000000E+02  0.00000000000E+00 0.  1.
        -11   -1    0    0    0    0 -0.00000000000E+00 -0.00000000000E+00 -0.30000000000E+02  0.30000000000E+02  0.00000000000E+00 0. -1.
          5    1    1    2  501    0  0.56054206390E+01  0.26683714414E+02 -0.11596061596E+02  0.30000000000E+02  0.47000000000E+01 0. -1.
         -5    1    1    2    0  501 -0.56054206390E+01 -0.26683714414E+02  0.11596061596E+02  0.30000000000E+02  0.47000000000E+01 0.  1.
</event>
<event>
 4    1  0.7581446E-002  0.6000000E+02  0.7546771E-02  0.1259629E+00
         11   -1    0    0    0    0  0.00000000000E+00  0.00000000000E+00  0.30000000000E+02  0.30000000000E+02  0.00000000000E+00 0.  1.
        -11   -1    0    0    0    0 -0.00000000000E+00 -0.00000000000E+00 -0.30000000000E+02  0.30000000000E+02  0.00000000000E+00 0. -1.
          5    1    1    2  501    0  0.14714919009E+02 -0.57514225432E+01  0.25065958934E+02  0.30000000000E+02  0.47000000000E+01 0.  1.
         -5    1    1    2    0  501 -0.14714919009E+02  0.57514225432E+01 -0.25065958934E+02  0.30000000000E+02  0.47000000000E+01 0. -1.
</event>
<event>
 4    1  0.7581446E-002  0.6000000E+02  0.7546771E-02  0.1259629E+00
         11   -1    0    0    0    0  0.00000000000E+00  0.00000000000E+00  0.30000000000E+02  0.30000000000E+02  0.00000000000E+00 0.  1.
        -11   -1    0    0    0    0 -0.00000000000E+00 -0.00000000000E+00 -0.30000000000E+02  0.30000000000E+02  0.00000000000E+00 0. -1.
          5    1    1    2  501    0  0.76378714462E+01 -0.28522295657E+02 -0.24599939440E+01  0.30000000000E+02  0.47000000000E+01 0. -1.
         -5    1    1    2    0  501 -0.76378714462E+01  0.28522295657E+02  0.24599939440E+01  0.30000000000E+02  0.47000000000E+01 0.  1.
</event>
<event>
 4    1  0.7581446E-002  0.6000000E+02  0.7546771E-02  0.1259629E+00
         11   -1    0    0    0    0  0.00000000000E+00  0.00000000000E+00  0.30000000000E+02  0.30000000000E+02  0.00000000000E+00 0. -1.
        -11   -1    0    0    0    0 -0.00000000000E+00 -0.00000000000E+00 -0.30000000000E+02  0.30000000000E+02  0.00000000000E+00 0.  1.
          5    1    1    2  501    0 -0.26520567417E+02  0.67926476639E+01 -0.11332671423E+02  0.30000000000E+02  0.47000000000E+01 0.  1.
         -5    1    1    2    0  501  0.26520567417E+02 -0.67926476639E+01  0.11332671423E+02  0.30000000000E+02  0.47000000000E+01 0. -1.
</event>
<event>
 4    1  0.7581446E-002  0.6000000E+02  0.7546771E-02  0.1259629E+00
         11   -1    0    0    0    0  0.00000000000E+00  0.00000000000E+00  0.30000000000E+02  0.30000000000E+02  0.00000000000E+00 0. -1.
        -11   -1    0    0    0    0 -0.00000000000E+00 -0.00000000000E+00 -0.30000000000E+02  0.30000000000E+02  0.00000000000E+00 0.  1.
          5    1    1    2  501    0 -0.28588249749E+02 -0.68546354694E+01  0.36926885704E+01  0.30000000000E+02  0.47000000000E+01 0.  1.
         -5    1    1    2    0  501  0.28588249749E+02  0.68546354694E+01 -0.36926885704E+01  0.30000000000E+02  0.47000000000E+01 0. -1.
</event>
<event>
 4    1  0.7581446E-002  0.6000000E+02  0.7546771E-02  0.1259629E+00
         11   -1    0    0    0    0  0.00000000000E+00  0.00000000000E+00  0.30000000000E+02  0.30000000000E+02  0.00000000000E+00 0.  1.
        -11   -1    0    0    0    0 -0.00000000000E+00 -0.00000000000E+00 -0.30000000000E+02  0.30000000000E+02  0.00000000000E+00 0. -1.
          5    1    1    2  501    0  0.10331079961E+02 -0.23651890225E+02 -0.14552212053E+02  0.30000000000E+02  0.47000000000E+01 0. -1.
         -5    1    1    2    0  501 -0.10331079961E+02  0.23651890225E+02  0.14552212053E+02  0.30000000000E+02  0.47000000000E+01 0.  1.
</event>
<event>
 4    1  0.7581446E-002  0.6000000E+02  0.7546771E-02  0.1259629E+00
         11   -1    0    0    0    0  0.00000000000E+00  0.00000000000E+00  0.30000000000E+02  0.30000000000E+02  0.00000000000E+00 0.  1.
        -11   -1    0    0    0    0 -0.00000000000E+00 -0.00000000000E+00 -0.30000000000E+02  0.30000000000E+02  0.00000000000E+00 0. -1.
          5    1    1    2  501    0  0.17618962665E+02  0.54559354751E+01  0.23188680918E+02  0.30000000000E+02  0.47000000000E+01 0.  1.
         -5    1    1    2    0  501 -0.17618962665E+02 -0.54559354751E+01 -0.23188680918E+02  0.30000000000E+02  0.47000000000E+01 0.  1.
</event>
<event>
 4    1  0.7581446E-002  0.6000000E+02  0.7546771E-02  0.1259629E+00
         11   -1    0    0    0    0  0.00000000000E+00  0.00000000000E+00  0.30000000000E+02  0.30000000000E+02  0.00000000000E+00 0.  1.
        -11   -1    0    0    0    0 -0.00000000000E+00 -0.00000000000E+00 -0.30000000000E+02  0.30000000000E+02  0.00000000000E+00 0. -1.
          5    1    1    2  501    0 -0.24294345733E+01 -0.50467424190E+01 -0.29095330186E+02  0.30000000000E+02  0.47000000000E+01 0. -1.
         -5    1    1    2    0  501  0.24294345733E+01  0.50467424190E+01  0.29095330186E+02  0.30000000000E+02  0.47000000000E+01 0.  1.
</event>
<event>
 4    1  0.7581446E-002  0.6000000E+02  0.7546771E-02  0.1259629E+00
         11   -1    0    0    0    0  0.00000000000E+00  0.00000000000E+00  0.30000000000E+02  0.30000000000E+02  0.00000000000E+00 0.  1.
        -11   -1    0    0    0    0 -0.00000000000E+00 -0.00000000000E+00 -0.30000000000E+02  0.30000000000E+02  0.00000000000E+00 0. -1.
          5    1    1    2  501    0  0.29041626090E+02  0.47054415822E+00  0.58542755501E+01  0.30000000000E+02  0.47000000000E+01 0.  1.
         -5    1    1    2    0  501 -0.29041626090E+02 -0.47054415822E+00 -0.58542755501E+01  0.30000000000E+02  0.47000000000E+01 0. -1.
</event>
<event>
 4    1  0.7581446E-002  0.6000000E+02  0.7546771E-02  0.1259629E+00
         11   -1    0    0    0    0  0.00000000000E+00  0.00000000000E+00  0.30000000000E+02  0.30000000000E+02  0.00000000000E+00 0.  1.
        -11   -1    0    0    0    0 -0.00000000000E+00 -0.00000000000E+00 -0.30000000000E+02  0.30000000000E+02  0.00000000000E+00 0. -1.
          5    1    1    2  501    0  0.16630862388E+02 -0.17585209729E+00 -0.24521286514E+02  0.30000000000E+02  0.47000000000E+01 0. -1.
         -5    1    1    2    0  501 -0.16630862388E+02  0.17585209729E+00  0.24521286514E+02  0.30000000000E+02  0.47000000000E+01 0.  1.
</event>
<event>
 4    1  0.7581446E-002  0.6000000E+02  0.7546771E-02  0.1259629E+00
         11   -1    0    0    0    0  0.00000000000E+00  0.00000000000E+00  0.30000000000E+02  0.30000000000E+02  0.00000000000E+00 0.  1.
        -11   -1    0    0    0    0 -0.00000000000E+00 -0.00000000000E+00 -0.30000000000E+02  0.30000000000E+02  0.00000000000E+00 0. -1.
          5    1    1    2  501    0 -0.22499085317E+02  0.62159969396E+01  0.18250001149E+02  0.30000000000E+02  0.47000000000E+01 0.  1.
         -5    1    1    2    0  501  0.22499085317E+02 -0.62159969396E+01 -0.18250001149E+02  0.30000000000E+02  0.47000000000E+01 0. -1.
</event>
<event>
 4    1  0.7581446E-002  0.6000000E+02  0.7546771E-02  0.1259629E+00
         11   -1    0    0    0    0  0.00000000000E+00  0.00000000000E+00  0.30000000000E+02  0.30000000000E+02  0.00000000000E+00 0.  1.
        -11   -1    0    0    0    0 -0.00000000000E+00 -0.00000000000E+00 -0.30000000000E+02  0.30000000000E+02  0.00000000000E+00 0. -1.
          5    1    1    2  501    0  0.18067889113E+02  0.63050731898E+01  0.22620951242E+02  0.30000000000E+02  0.47000000000E+01 0.  1.
         -5    1    1    2    0  501 -0.18067889113E+02 -0.63050731898E+01 -0.22620951242E+02  0.30000000000E+02  0.47000000000E+01 0. -1.
</event>
<event>
 4    1  0.7581446E-002  0.6000000E+02  0.7546771E-02  0.1259629E+00
         11   -1    0    0    0    0  0.00000000000E+00  0.00000000000E+00  0.30000000000E+02  0.30000000000E+02  0.00000000000E+00 0.  1.
        -11   -1    0    0    0    0 -0.00000000000E+00 -0.00000000000E+00 -0.30000000000E+02  0.30000000000E+02  0.00000000000E+00 0. -1.
          5    1    1    2  501    0  0.28627025729E+02 -0.58526982830E+01 -0.49141958361E+01  0.30000000000E+02  0.47000000000E+01 0. -1.
         -5    1    1    2    0  501 -0.28627025729E+02  0.58526982830E+01  0.49141958361E+01  0.30000000000E+02  0.47000000000E+01 0.  1.
</event>
<event>
 4    1  0.7581446E-002  0.6000000E+02  0.7546771E-02  0.1259629E+00
         11   -1    0    0    0    0  0.00000000000E+00  0.00000000000E+00  0.30000000000E+02  0.30000000000E+02  0.00000000000E+00 0.  1.
        -11   -1    0    0    0    0 -0.00000000000E+00 -0.00000000000E+00 -0.30000000000E+02  0.30000000000E+02  0.00000000000E+00 0. -1.
          5    1    1    2  501    0  0.13518550429E+02  0.23438729437E+02 -0.12074135857E+02  0.30000000000E+02  0.47000000000E+01 0. -1.
         -5    1    1    2    0  501 -0.13518550429E+02 -0.23438729437E+02  0.12074135857E+02  0.30000000000E+02  0.47000000000E+01 0.  1.
</event>
<event>
 4    1  0.7581446E-002  0.6000000E+02  0.7546771E-02  0.1259629E+00
         11   -1    0    0    0    0  0.00000000000E+00  0.00000000000E+00  0.30000000000E+02  0.30000000000E+02  0.00000000000E+00 0. -1.
        -11   -1    0    0    0    0 -0.00000000000E+00 -0.00000000000E+00 -0.30000000000E+02  0.30000000000E+02  0.00000000000E+00 0.  1.
          5    1    1    2  501    0 -0.11232769514E+02 -0.13950973529E+02  0.23603076635E+02  0.30000000000E+02  0.47000000000E+01 0. -1.
         -5    1    1    2    0  501  0.11232769514E+02  0.13950973529E+02 -0.23603076635E+02  0.30000000000E+02  0.47000000000E+01 0.  1.
</event>
<event>
 4    1  0.7581446E-002  0.6000000E+02  0.7546771E-02  0.1259629E+00
         11   -1    0    0    0    0  0.00000000000E+00  0.00000000000E+00  0.30000000000E+02  0.30000000000E+02  0.00000000000E+00 0.  1.
        -11   -1    0    0    0    0 -0.00000000000E+00 -0.00000000000E+00 -0.30000000000E+02  0.30000000000E+02  0.00000000000E+00 0. -1.
          5    1    1    2  501    0  0.12566267993E+02 -0.21447508586E+02  0.16124617334E+02  0.30000000000E+02  0.47000000000E+01 0.  1.
         -5    1    1    2    0  501 -0.12566267993E+02  0.21447508586E+02 -0.16124617334E+02  0.30000000000E+02  0.47000000000E+01 0. -1.
</event>
<event>
 4    1  0.7581446E-002  0.6000000E+02  0.7546771E-02  0.1259629E+00
         11   -1    0    0    0    0  0.00000000000E+00  0.00000000000E+00  0.30000000000E+02  0.30000000000E+02  0.00000000000E+00 0.  1.
        -11   -1    0    0    0    0 -0.00000000000E+00 -0.00000000000E+00 -0.30000000000E+02  0.30000000000E+02  0.00000000000E+00 0. -1.
          5    1    1    2  501    0  0.45401471971E+01  0.28736143639E+02 -0.56152570883E+01  0.30000000000E+02  0.47000000000E+01 0. -1.
         -5    1    1    2    0  501 -0.45401471971E+01 -0.28736143639E+02  0.56152570883E+01  0.30000000000E+02  0.47000000000E+01 0.  1.
</event>
<event>
 4    1  0.7581446E-002  0.6000000E+02  0.7546771E-02  0.1259629E+00
         11   -1    0    0    0    0  0.00000000000E+00  0.00000000000E+00  0.30000000000E+02  0.30000000000E+02  0.00000000000E+00 0.  1.
        -11   -1    0    0    0    0 -0.00000000000E+00 -0.00000000000E+00 -0.30000000000E+02  0.30000000000E+02  0.00000000000E+00 0. -1.
          5    1    1    2  501    0  0.15158255434E+02 -0.15522717119E+02 -0.20178764715E+02  0.30000000000E+02  0.47000000000E+01 0. -1.
         -5    1    1    2    0  501 -0.15158255434E+02  0.15522717119E+02  0.20178764715E+02  0.30000000000E+02  0.47000000000E+01 0.  1.
</event>
<event>
 4    1  0.7581446E-002  0.6000000E+02  0.7546771E-02  0.1259629E+00
         11   -1    0    0    0    0  0.00000000000E+00  0.00000000000E+00  0.30000000000E+02  0.30000000000E+02  0.00000000000E+00 0.  1.
        -11   -1    0    0    0    0 -0.00000000000E+00 -0.00000000000E+00 -0.30000000000E+02  0.30000000000E+02  0.00000000000E+00 0. -1.
          5    1    1    2  501    0 -0.71310680467E+00  0.30228594230E+01 -0.29466316356E+02  0.30000000000E+02  0.47000000000E+01 0. -1.
         -5    1    1    2    0  501  0.71310680467E+00 -0.30228594230E+01  0.29466316356E+02  0.30000000000E+02  0.47000000000E+01 0.  1.
</event>
<event>
 4    1  0.7581446E-002  0.6000000E+02  0.7546771E-02  0.1259629E+00
         11   -1    0    0    0    0  0.00000000000E+00  0.00000000000E+00  0.30000000000E+02  0.30000000000E+02  0.00000000000E+00 0.  1.
        -11   -1    0    0    0    0 -0.00000000000E+00 -0.00000000000E+00 -0.30000000000E+02  0.30000000000E+02  0.00000000000E+00 0. -1.
          5    1    1    2  501    0 -0.26531351818E+02  0.11440705708E+02 -0.65656396195E+01  0.30000000000E+02  0.47000000000E+01 0. -1.
         -5    1    1    2    0  501  0.26531351818E+02 -0.11440705708E+02  0.65656396195E+01  0.30000000000E+02  0.47000000000E+01 0.  1.
</event>
<event>
 4    1  0.7581446E-002  0.6000000E+02  0.7546771E-02  0.1259629E+00
         11   -1    0    0    0    0  0.00000000000E+00  0.00000000000E+00  0.30000000000E+02  0.30000000000E+02  0.00000000000E+00 0.  1.
        -11   -1    0    0    0    0 -0.00000000000E+00 -0.00000000000E+00 -0.30000000000E+02  0.30000000000E+02  0.00000000000E+00 0. -1.
          5    1    1    2  501    0 -0.22850634196E+02 -0.13840695452E+02  0.12813807640E+02  0.30000000000E+02  0.47000000000E+01 0.  1.
         -5    1    1    2    0  501  0.22850634196E+02  0.13840695452E+02 -0.12813807640E+02  0.30000000000E+02  0.47000000000E+01 0. -1.
</event>
<event>
 4    1  0.7581446E-002  0.6000000E+02  0.7546771E-02  0.1259629E+00
         11   -1    0    0    0    0  0.00000000000E+00  0.00000000000E+00  0.30000000000E+02  0.30000000000E+02  0.00000000000E+00 0.  1.
        -11   -1    0    0    0    0 -0.00000000000E+00 -0.00000000000E+00 -0.30000000000E+02  0.30000000000E+02  0.00000000000E+00 0. -1.
          5    1    1    2  501    0  0.12551504169E+02  0.90741859507E+01 -0.25259233805E+02  0.30000000000E+02  0.47000000000E+01 0. -1.
         -5    1    1    2    0  501 -0.12551504169E+02 -0.90741859507E+01  0.25259233805E+02  0.30000000000E+02  0.47000000000E+01 0.  1.
</event>
<event>
 4    1  0.7581446E-002  0.6000000E+02  0.7546771E-02  0.1259629E+00
         11   -1    0    0    0    0  0.00000000000E+00  0.00000000000E+00  0.30000000000E+02  0.30000000000E+02  0.00000000000E+00 0.  1.
        -11   -1    0    0    0    0 -0.00000000000E+00 -0.00000000000E+00 -0.30000000000E+02  0.30000000000E+02  0.00000000000E+00 0. -1.
          5    1    1    2  501    0 -0.22234103564E+00  0.25290688739E+02 -0.15435077829E+02  0.30000000000E+02  0.47000000000E+01 0. -1.
         -5    1    1    2    0  501  0.22234103564E+00 -0.25290688739E+02  0.15435077829E+02  0.30000000000E+02  0.47000000000E+01 0.  1.
</event>
<event>
 4    1  0.7581446E-002  0.6000000E+02  0.7546771E-02  0.1259629E+00
         11   -1    0    0    0    0  0.00000000000E+00  0.00000000000E+00  0.30000000000E+02  0.30000000000E+02  0.00000000000E+00 0.  1.
        -11   -1    0    0    0    0 -0.00000000000E+00 -0.00000000000E+00 -0.30000000000E+02  0.30000000000E+02  0.00000000000E+00 0. -1.
          5    1    1    2  501    0 -0.76991383787E+00 -0.17204982139E+02  0.24110284575E+02  0.30000000000E+02  0.47000000000E+01 0.  1.
         -5    1    1    2    0  501  0.76991383787E+00  0.17204982139E+02 -0.24110284575E+02  0.30000000000E+02  0.47000000000E+01 0. -1.
</event>
<event>
 4    1  0.7581446E-002  0.6000000E+02  0.7546771E-02  0.1259629E+00
         11   -1    0    0    0    0  0.00000000000E+00  0.00000000000E+00  0.30000000000E+02  0.30000000000E+02  0.00000000000E+00 0.  1.
        -11   -1    0    0    0    0 -0.00000000000E+00 -0.00000000000E+00 -0.30000000000E+02  0.30000000000E+02  0.00000000000E+00 0. -1.
          5    1    1    2  501    0  0.19824289910E+01 -0.10090027277E+02  0.27787970866E+02  0.30000000000E+02  0.47000000000E+01 0.  1.
         -5    1    1    2    0  501 -0.19824289910E+01  0.10090027277E+02 -0.27787970866E+02  0.30000000000E+02  0.47000000000E+01 0. -1.
</event>
<event>
 4    1  0.7581446E-002  0.6000000E+02  0.7546771E-02  0.1259629E+00
         11   -1    0    0    0    0  0.00000000000E+00  0.00000000000E+00  0.30000000000E+02  0.30000000000E+02  0.00000000000E+00 0. -1.
        -11   -1    0    0    0    0 -0.00000000000E+00 -0.00000000000E+00 -0.30000000000E+02  0.30000000000E+02  0.00000000000E+00 0.  1.
          5    1    1    2  501    0 -0.10245774694E+01 -0.61258676945E+01 -0.28971261381E+02  0.30000000000E+02  0.47000000000E+01 0.  1.
         -5    1    1    2    0  501  0.10245774694E+01  0.61258676945E+01  0.28971261381E+02  0.30000000000E+02  0.47000000000E+01 0. -1.
</event>
<event>
 4    1  0.7581446E-002  0.6000000E+02  0.7546771E-02  0.1259629E+00
         11   -1    0    0    0    0  0.00000000000E+00  0.00000000000E+00  0.30000000000E+02  0.30000000000E+02  0.00000000000E+00 0.  1.
        -11   -1    0    0    0    0 -0.00000000000E+00 -0.00000000000E+00 -0.30000000000E+02  0.30000000000E+02  0.00000000000E+00 0. -1.
          5    1    1    2  501    0 -0.25024082260E+02  0.14232047472E+02 -0.70110007713E+01  0.30000000000E+02  0.47000000000E+01 0. -1.
         -5    1    1    2    0  501  0.25024082260E+02 -0.14232047472E+02  0.70110007713E+01  0.30000000000E+02  0.47000000000E+01 0.  1.
</event>
<event>
 4    1  0.7581446E-002  0.6000000E+02  0.7546771E-02  0.1259629E+00
         11   -1    0    0    0    0  0.00000000000E+00  0.00000000000E+00  0.30000000000E+02  0.30000000000E+02  0.00000000000E+00 0.  1.
        -11   -1    0    0    0    0 -0.00000000000E+00 -0.00000000000E+00 -0.30000000000E+02  0.30000000000E+02  0.00000000000E+00 0. -1.
          5    1    1    2  501    0  0.19259177564E+02 -0.22074381665E+02 -0.44402425232E+01  0.30000000000E+02  0.47000000000E+01 0. -1.
         -5    1    1    2    0  501 -0.19259177564E+02  0.22074381665E+02  0.44402425232E+01  0.30000000000E+02  0.47000000000E+01 0.  1.
</event>
<event>
 4    1  0.7581446E-002  0.6000000E+02  0.7546771E-02  0.1259629E+00
         11   -1    0    0    0    0  0.00000000000E+00  0.00000000000E+00  0.30000000000E+02  0.30000000000E+02  0.00000000000E+00 0.  1.
        -11   -1    0    0    0    0 -0.00000000000E+00 -0.00000000000E+00 -0.30000000000E+02  0.30000000000E+02  0.00000000000E+00 0. -1.
          5    1    1    2  501    0  0.14237682320E+02  0.12098271323E+02 -0.22996309120E+02  0.30000000000E+02  0.47000000000E+01 0. -1.
         -5    1    1    2    0  501 -0.14237682320E+02 -0.12098271323E+02  0.22996309120E+02  0.30000000000E+02  0.47000000000E+01 0.  1.
</event>
<event>
 4    1  0.7581446E-002  0.6000000E+02  0.7546771E-02  0.1259629E+00
         11   -1    0    0    0    0  0.00000000000E+00  0.00000000000E+00  0.30000000000E+02  0.30000000000E+02  0.00000000000E+00 0.  1.
        -11   -1    0    0    0    0 -0.00000000000E+00 -0.00000000000E+00 -0.30000000000E+02  0.30000000000E+02  0.00000000000E+00 0. -1.
          5    1    1    2  501    0 -0.16088717446E+02 -0.32999363630E+01  0.24661175782E+02  0.30000000000E+02  0.47000000000E+01 0.  1.
         -5    1    1    2    0  501  0.16088717446E+02  0.32999363630E+01 -0.24661175782E+02  0.30000000000E+02  0.47000000000E+01 0. -1.
</event>
<event>
 4    1  0.7581446E-002  0.6000000E+02  0.7546771E-02  0.1259629E+00
         11   -1    0    0    0    0  0.00000000000E+00  0.00000000000E+00  0.30000000000E+02  0.30000000000E+02  0.00000000000E+00 0. -1.
        -11   -1    0    0    0    0 -0.00000000000E+00 -0.00000000000E+00 -0.30000000000E+02  0.30000000000E+02  0.00000000000E+00 0.  1.
          5    1    1    2  501    0 -0.23005249817E+01 -0.17958070099E+02 -0.23454750118E+02  0.30000000000E+02  0.47000000000E+01 0.  1.
         -5    1    1    2    0  501  0.23005249817E+01  0.17958070099E+02  0.23454750118E+02  0.30000000000E+02  0.47000000000E+01 0. -1.
</event>
<event>
 4    1  0.7581446E-002  0.6000000E+02  0.7546771E-02  0.1259629E+00
         11   -1    0    0    0    0  0.00000000000E+00  0.00000000000E+00  0.30000000000E+02  0.30000000000E+02  0.00000000000E+00 0.  1.
        -11   -1    0    0    0    0 -0.00000000000E+00 -0.00000000000E+00 -0.30000000000E+02  0.30000000000E+02  0.00000000000E+00 0. -1.
          5    1    1    2  501    0 -0.29511667502E+02  0.22167140238E+01 -0.14344546621E+01  0.30000000000E+02  0.47000000000E+01 0. -1.
         -5    1    1    2    0  501  0.29511667502E+02 -0.22167140238E+01  0.14344546621E+01  0.30000000000E+02  0.47000000000E+01 0.  1.
</event>
<event>
 4    1  0.7581446E-002  0.6000000E+02  0.7546771E-02  0.1259629E+00
         11   -1    0    0    0    0  0.00000000000E+00  0.00000000000E+00  0.30000000000E+02  0.30000000000E+02  0.00000000000E+00 0.  1.
        -11   -1    0    0    0    0 -0.00000000000E+00 -0.00000000000E+00 -0.30000000000E+02  0.30000000000E+02  0.00000000000E+00 0. -1.
          5    1    1    2  501    0 -0.77345962658E+00  0.18330550989E+02 -0.23265911988E+02  0.30000000000E+02  0.47000000000E+01 0. -1.
         -5    1    1    2    0  501  0.77345962658E+00 -0.18330550989E+02  0.23265911988E+02  0.30000000000E+02  0.47000000000E+01 0.  1.
</event>
<event>
 4    1  0.7581446E-002  0.6000000E+02  0.7546771E-02  0.1259629E+00
         11   -1    0    0    0    0  0.00000000000E+00  0.00000000000E+00  0.30000000000E+02  0.30000000000E+02  0.00000000000E+00 0.  1.
        -11   -1    0    0    0    0 -0.00000000000E+00 -0.00000000000E+00 -0.30000000000E+02  0.30000000000E+02  0.00000000000E+00 0. -1.
          5    1    1    2  501    0  0.94499216631E+01 -0.27794368215E+02  0.40102463879E+01  0.30000000000E+02  0.47000000000E+01 0. -1.
         -5    1    1    2    0  501 -0.94499216631E+01  0.27794368215E+02 -0.40102463879E+01  0.30000000000E+02  0.47000000000E+01 0.  1.
</event>
<event>
 4    1  0.7581446E-002  0.6000000E+02  0.7546771E-02  0.1259629E+00
         11   -1    0    0    0    0  0.00000000000E+00  0.00000000000E+00  0.30000000000E+02  0.30000000000E+02  0.00000000000E+00 0.  1.
        -11   -1    0    0    0    0 -0.00000000000E+00 -0.00000000000E+00 -0.30000000000E+02  0.30000000000E+02  0.00000000000E+00 0. -1.
          5    1    1    2  501    0 -0.11206431554E+02 -0.18923303899E+02 -0.19855338360E+02  0.30000000000E+02  0.47000000000E+01 0. -1.
         -5    1    1    2    0  501  0.11206431554E+02  0.18923303899E+02  0.19855338360E+02  0.30000000000E+02  0.47000000000E+01 0.  1.
</event>
<event>
 4    1  0.7581446E-002  0.6000000E+02  0.7546771E-02  0.1259629E+00
         11   -1    0    0    0    0  0.00000000000E+00  0.00000000000E+00  0.30000000000E+02  0.30000000000E+02  0.00000000000E+00 0. -1.
        -11   -1    0    0    0    0 -0.00000000000E+00 -0.00000000000E+00 -0.30000000000E+02  0.30000000000E+02  0.00000000000E+00 0.  1.
          5    1    1    2  501    0  0.15351861682E+02 -0.24362978340E+02 -0.69767921935E+01  0.30000000000E+02  0.47000000000E+01 0.  1.
         -5    1    1    2    0  501 -0.15351861682E+02  0.24362978340E+02  0.69767921935E+01  0.30000000000E+02  0.47000000000E+01 0. -1.
</event>
<event>
 4    1  0.7581446E-002  0.6000000E+02  0.7546771E-02  0.1259629E+00
         11   -1    0    0    0    0  0.00000000000E+00  0.00000000000E+00  0.30000000000E+02  0.30000000000E+02  0.00000000000E+00 0.  1.
        -11   -1    0    0    0    0 -0.00000000000E+00 -0.00000000000E+00 -0.30000000000E+02  0.30000000000E+02  0.00000000000E+00 0. -1.
          5    1    1    2  501    0 -0.68082603099E+01  0.23406194365E+02 -0.16843623627E+02  0.30000000000E+02  0.47000000000E+01 0. -1.
         -5    1    1    2    0  501  0.68082603099E+01 -0.23406194365E+02  0.16843623627E+02  0.30000000000E+02  0.47000000000E+01 0.  1.
</event>
<event>
 4    1  0.7581446E-002  0.6000000E+02  0.7546771E-02  0.1259629E+00
         11   -1    0    0    0    0  0.00000000000E+00  0.00000000000E+00  0.30000000000E+02  0.30000000000E+02  0.00000000000E+00 0.  1.
        -11   -1    0    0    0    0 -0.00000000000E+00 -0.00000000000E+00 -0.30000000000E+02  0.30000000000E+02  0.00000000000E+00 0. -1.
          5    1    1    2  501    0 -0.27381207048E+02 -0.67944822572E+01 -0.90561863632E+01  0.30000000000E+02  0.47000000000E+01 0. -1.
         -5    1    1    2    0  501  0.27381207048E+02  0.67944822572E+01  0.90561863632E+01  0.30000000000E+02  0.47000000000E+01 0.  1.
</event>
<event>
 4    1  0.7581446E-002  0.6000000E+02  0.7546771E-02  0.1259629E+00
         11   -1    0    0    0    0  0.00000000000E+00  0.00000000000E+00  0.30000000000E+02  0.30000000000E+02  0.00000000000E+00 0.  1.
        -11   -1    0    0    0    0 -0.00000000000E+00 -0.00000000000E+00 -0.30000000000E+02  0.30000000000E+02  0.00000000000E+00 0. -1.
          5    1    1    2  501    0  0.16196203885E+02  0.18190594099E+01 -0.24744373150E+02  0.30000000000E+02  0.47000000000E+01 0. -1.
         -5    1    1    2    0  501 -0.16196203885E+02 -0.18190594099E+01  0.24744373150E+02  0.30000000000E+02  0.47000000000E+01 0.  1.
</event>
<event>
 4    1  0.7581446E-002  0.6000000E+02  0.7546771E-02  0.1259629E+00
         11   -1    0    0    0    0  0.00000000000E+00  0.00000000000E+00  0.30000000000E+02  0.30000000000E+02  0.00000000000E+00 0.  1.
        -11   -1    0    0    0    0 -0.00000000000E+00 -0.00000000000E+00 -0.30000000000E+02  0.30000000000E+02  0.00000000000E+00 0. -1.
          5    1    1    2  501    0 -0.22162888691E+00 -0.83881875918E+01 -0.28416530217E+02  0.30000000000E+02  0.47000000000E+01 0. -1.
         -5    1    1    2    0  501  0.22162888691E+00  0.83881875918E+01  0.28416530217E+02  0.30000000000E+02  0.47000000000E+01 0.  1.
</event>
<event>
 4    1  0.7581446E-002  0.6000000E+02  0.7546771E-02  0.1259629E+00
         11   -1    0    0    0    0  0.00000000000E+00  0.00000000000E+00  0.30000000000E+02  0.30000000000E+02  0.00000000000E+00 0.  1.
        -11   -1    0    0    0    0 -0.00000000000E+00 -0.00000000000E+00 -0.30000000000E+02  0.30000000000E+02  0.00000000000E+00 0. -1.
          5    1    1    2  501    0 -0.86864419117E+01  0.21173958131E+02 -0.18818055797E+02  0.30000000000E+02  0.47000000000E+01 0. -1.
         -5    1    1    2    0  501  0.86864419117E+01 -0.21173958131E+02  0.18818055797E+02  0.30000000000E+02  0.47000000000E+01 0.  1.
</event>
<event>
 4    1  0.7581446E-002  0.6000000E+02  0.7546771E-02  0.1259629E+00
         11   -1    0    0    0    0  0.00000000000E+00  0.00000000000E+00  0.30000000000E+02  0.30000000000E+02  0.00000000000E+00 0.  1.
        -11   -1    0    0    0    0 -0.00000000000E+00 -0.00000000000E+00 -0.30000000000E+02  0.30000000000E+02  0.00000000000E+00 0. -1.
          5    1    1    2  501    0 -0.21102855974E+02  0.20682794085E+02  0.21912322074E+01  0.30000000000E+02  0.47000000000E+01 0. -1.
         -5    1    1    2    0  501  0.21102855974E+02 -0.20682794085E+02 -0.21912322074E+01  0.30000000000E+02  0.47000000000E+01 0.  1.
</event>
<event>
 4    1  0.7581446E-002  0.6000000E+02  0.7546771E-02  0.1259629E+00
         11   -1    0    0    0    0  0.00000000000E+00  0.00000000000E+00  0.30000000000E+02  0.30000000000E+02  0.00000000000E+00 0.  1.
        -11   -1    0    0    0    0 -0.00000000000E+00 -0.00000000000E+00 -0.30000000000E+02  0.30000000000E+02  0.00000000000E+00 0. -1.
          5    1    1    2  501    0 -0.18380003639E+02 -0.22029283094E+02 -0.74024423392E+01  0.30000000000E+02  0.47000000000E+01 0. -1.
         -5    1    1    2    0  501  0.18380003639E+02  0.22029283094E+02  0.74024423392E+01  0.30000000000E+02  0.47000000000E+01 0.  1.
</event>
<event>
 4    1  0.7581446E-002  0.6000000E+02  0.7546771E-02  0.1259629E+00
         11   -1    0    0    0    0  0.00000000000E+00  0.00000000000E+00  0.30000000000E+02  0.30000000000E+02  0.00000000000E+00 0.  1.
        -11   -1    0    0    0    0 -0.00000000000E+00 -0.00000000000E+00 -0.30000000000E+02  0.30000000000E+02  0.00000000000E+00 0. -1.
          5    1    1    2  501    0 -0.21019472635E+01  0.29437415230E+02  0.26325657173E+01  0.30000000000E+02  0.47000000000E+01 0. -1.
         -5    1    1    2    0  501  0.21019472635E+01 -0.29437415230E+02 -0.26325657173E+01  0.30000000000E+02  0.47000000000E+01 0.  1.
</event>
<event>
 4    1  0.7581446E-002  0.6000000E+02  0.7546771E-02  0.1259629E+00
         11   -1    0    0    0    0  0.00000000000E+00  0.00000000000E+00  0.30000000000E+02  0.30000000000E+02  0.00000000000E+00 0.  1.
        -11   -1    0    0    0    0 -0.00000000000E+00 -0.00000000000E+00 -0.30000000000E+02  0.30000000000E+02  0.00000000000E+00 0. -1.
          5    1    1    2  501    0 -0.13134191013E+02  0.19951587353E+02 -0.17531035010E+02  0.30000000000E+02  0.47000000000E+01 0. -1.
         -5    1    1    2    0  501  0.13134191013E+02 -0.19951587353E+02  0.17531035010E+02  0.30000000000E+02  0.47000000000E+01 0.  1.
</event>
<event>
 4    1  0.7581446E-002  0.6000000E+02  0.7546771E-02  0.1259629E+00
         11   -1    0    0    0    0  0.00000000000E+00  0.00000000000E+00  0.30000000000E+02  0.30000000000E+02  0.00000000000E+00 0.  1.
        -11   -1    0    0    0    0 -0.00000000000E+00 -0.00000000000E+00 -0.30000000000E+02  0.30000000000E+02  0.00000000000E+00 0. -1.
          5    1    1    2  501    0  0.12045482237E+02  0.20888215174E+02 -0.17219141225E+02  0.30000000000E+02  0.47000000000E+01 0. -1.
         -5    1    1    2    0  501 -0.12045482237E+02 -0.20888215174E+02  0.17219141225E+02  0.30000000000E+02  0.47000000000E+01 0.  1.
</event>
<event>
 4    1  0.7581446E-002  0.6000000E+02  0.7546771E-02  0.1259629E+00
         11   -1    0    0    0    0  0.00000000000E+00  0.00000000000E+00  0.30000000000E+02  0.30000000000E+02  0.00000000000E+00 0.  1.
        -11   -1    0    0    0    0 -0.00000000000E+00 -0.00000000000E+00 -0.30000000000E+02  0.30000000000E+02  0.00000000000E+00 0. -1.
          5    1    1    2  501    0 -0.14199990887E+02  0.19348503632E+02  0.17375432830E+02  0.30000000000E+02  0.47000000000E+01 0. -1.
         -5    1    1    2    0  501  0.14199990887E+02 -0.19348503632E+02 -0.17375432830E+02  0.30000000000E+02  0.47000000000E+01 0.  1.
</event>
<event>
 4    1  0.7581446E-002  0.6000000E+02  0.7546771E-02  0.1259629E+00
         11   -1    0    0    0    0  0.00000000000E+00  0.00000000000E+00  0.30000000000E+02  0.30000000000E+02  0.00000000000E+00 0.  1.
        -11   -1    0    0    0    0 -0.00000000000E+00 -0.00000000000E+00 -0.30000000000E+02  0.30000000000E+02  0.00000000000E+00 0. -1.
          5    1    1    2  501    0 -0.26223853353E+02 -0.32023228394E+01  0.13415090150E+02  0.30000000000E+02  0.47000000000E+01 0.  1.
         -5    1    1    2    0  501  0.26223853353E+02  0.32023228394E+01 -0.13415090150E+02  0.30000000000E+02  0.47000000000E+01 0.  1.
</event>
<event>
 4    1  0.7581446E-002  0.6000000E+02  0.7546771E-02  0.1259629E+00
         11   -1    0    0    0    0  0.00000000000E+00  0.00000000000E+00  0.30000000000E+02  0.30000000000E+02  0.00000000000E+00 0.  1.
        -11   -1    0    0    0    0 -0.00000000000E+00 -0.00000000000E+00 -0.30000000000E+02  0.30000000000E+02  0.00000000000E+00 0. -1.
          5    1    1    2  501    0 -0.22520221183E+01  0.17820154573E+02 -0.23564390240E+02  0.30000000000E+02  0.47000000000E+01 0. -1.
         -5    1    1    2    0  501  0.22520221183E+01 -0.17820154573E+02  0.23564390240E+02  0.30000000000E+02  0.47000000000E+01 0.  1.
</event>
<event>
 4    1  0.7581446E-002  0.6000000E+02  0.7546771E-02  0.1259629E+00
         11   -1    0    0    0    0  0.00000000000E+00  0.00000000000E+00  0.30000000000E+02  0.30000000000E+02  0.00000000000E+00 0.  1.
        -11   -1    0    0    0    0 -0.00000000000E+00 -0.00000000000E+00 -0.30000000000E+02  0.30000000000E+02  0.00000000000E+00 0. -1.
          5    1    1    2  501    0  0.20116681139E+02  0.11689754716E+02  0.18346083359E+02  0.30000000000E+02  0.47000000000E+01 0.  1.
         -5    1    1    2    0  501 -0.20116681139E+02 -0.11689754716E+02 -0.18346083359E+02  0.30000000000E+02  0.47000000000E+01 0. -1.
</event>
<event>
 4    1  0.7581446E-002  0.6000000E+02  0.7546771E-02  0.1259629E+00
         11   -1    0    0    0    0  0.00000000000E+00  0.00000000000E+00  0.30000000000E+02  0.30000000000E+02  0.00000000000E+00 0. -1.
        -11   -1    0    0    0    0 -0.00000000000E+00 -0.00000000000E+00 -0.30000000000E+02  0.30000000000E+02  0.00000000000E+00 0.  1.
          5    1    1    2  501    0  0.11505947307E+02 -0.22662241087E+02  0.15229773652E+02  0.30000000000E+02  0.47000000000E+01 0.  1.
         -5    1    1    2    0  501 -0.11505947307E+02  0.22662241087E+02 -0.15229773652E+02  0.30000000000E+02  0.47000000000E+01 0. -1.
</event>
<event>
 4    1  0.7581446E-002  0.6000000E+02  0.7546771E-02  0.1259629E+00
         11   -1    0    0    0    0  0.00000000000E+00  0.00000000000E+00  0.30000000000E+02  0.30000000000E+02  0.00000000000E+00 0. -1.
        -11   -1    0    0    0    0 -0.00000000000E+00 -0.00000000000E+00 -0.30000000000E+02  0.30000000000E+02  0.00000000000E+00 0.  1.
          5    1    1    2  501    0  0.27238655381E+01 -0.62684551033E+01 -0.28830487806E+02  0.30000000000E+02  0.47000000000E+01 0.  1.
         -5    1    1    2    0  501 -0.27238655381E+01  0.62684551033E+01  0.28830487806E+02  0.30000000000E+02  0.47000000000E+01 0. -1.
</event>
<event>
 4    1  0.7581446E-002  0.6000000E+02  0.7546771E-02  0.1259629E+00
         11   -1    0    0    0    0  0.00000000000E+00  0.00000000000E+00  0.30000000000E+02  0.30000000000E+02  0.00000000000E+00 0.  1.
        -11   -1    0    0    0    0 -0.00000000000E+00 -0.00000000000E+00 -0.30000000000E+02  0.30000000000E+02  0.00000000000E+00 0. -1.
          5    1    1    2  501    0  0.19072415279E+02  0.20063018409E+02 -0.10565427950E+02  0.30000000000E+02  0.47000000000E+01 0. -1.
         -5    1    1    2    0  501 -0.19072415279E+02 -0.20063018409E+02  0.10565427950E+02  0.30000000000E+02  0.47000000000E+01 0.  1.
</event>
<event>
 4    1  0.7581446E-002  0.6000000E+02  0.7546771E-02  0.1259629E+00
         11   -1    0    0    0    0  0.00000000000E+00  0.00000000000E+00  0.30000000000E+02  0.30000000000E+02  0.00000000000E+00 0.  1.
        -11   -1    0    0    0    0 -0.00000000000E+00 -0.00000000000E+00 -0.30000000000E+02  0.30000000000E+02  0.00000000000E+00 0. -1.
          5    1    1    2  501    0  0.14926206848E+02  0.24344817862E+02 -0.79024168708E+01  0.30000000000E+02  0.47000000000E+01 0. -1.
         -5    1    1    2    0  501 -0.14926206848E+02 -0.24344817862E+02  0.79024168708E+01  0.30000000000E+02  0.47000000000E+01 0.  1.
</event>
<event>
 4    1  0.7581446E-002  0.6000000E+02  0.7546771E-02  0.1259629E+00
         11   -1    0    0    0    0  0.00000000000E+00  0.00000000000E+00  0.30000000000E+02  0.30000000000E+02  0.00000000000E+00 0.  1.
        -11   -1    0    0    0    0 -0.00000000000E+00 -0.00000000000E+00 -0.30000000000E+02  0.30000000000E+02  0.00000000000E+00 0. -1.
          5    1    1    2  501    0 -0.22381207855E+02 -0.19206394782E+02  0.28470922749E+01  0.30000000000E+02  0.47000000000E+01 0. -1.
         -5    1    1    2    0  501  0.22381207855E+02  0.19206394782E+02 -0.28470922749E+01  0.30000000000E+02  0.47000000000E+01 0.  1.
</event>
<event>
 4    1  0.7581446E-002  0.6000000E+02  0.7546771E-02  0.1259629E+00
         11   -1    0    0    0    0  0.00000000000E+00  0.00000000000E+00  0.30000000000E+02  0.30000000000E+02  0.00000000000E+00 0.  1.
        -11   -1    0    0    0    0 -0.00000000000E+00 -0.00000000000E+00 -0.30000000000E+02  0.30000000000E+02  0.00000000000E+00 0. -1.
          5    1    1    2  501    0  0.24054753637E+02 -0.68362884161E+01 -0.15891632647E+02  0.30000000000E+02  0.47000000000E+01 0. -1.
         -5    1    1    2    0  501 -0.24054753637E+02  0.68362884161E+01  0.15891632647E+02  0.30000000000E+02  0.47000000000E+01 0.  1.
</event>
<event>
 4    1  0.7581446E-002  0.6000000E+02  0.7546771E-02  0.1259629E+00
         11   -1    0    0    0    0  0.00000000000E+00  0.00000000000E+00  0.30000000000E+02  0.30000000000E+02  0.00000000000E+00 0.  1.
        -11   -1    0    0    0    0 -0.00000000000E+00 -0.00000000000E+00 -0.30000000000E+02  0.30000000000E+02  0.00000000000E+00 0. -1.
          5    1    1    2  501    0 -0.11661144950E+02 -0.37257719093E+01 -0.26982333519E+02  0.30000000000E+02  0.47000000000E+01 0. -1.
         -5    1    1    2    0  501  0.11661144950E+02  0.37257719093E+01  0.26982333519E+02  0.30000000000E+02  0.47000000000E+01 0.  1.
</event>
<event>
 4    1  0.7581446E-002  0.6000000E+02  0.7546771E-02  0.1259629E+00
         11   -1    0    0    0    0  0.00000000000E+00  0.00000000000E+00  0.30000000000E+02  0.30000000000E+02  0.00000000000E+00 0. -1.
        -11   -1    0    0    0    0 -0.00000000000E+00 -0.00000000000E+00 -0.30000000000E+02  0.30000000000E+02  0.00000000000E+00 0.  1.
          5    1    1    2  501    0 -0.28054481998E+02  0.60836703760E+01 -0.73379148675E+01  0.30000000000E+02  0.47000000000E+01 0.  1.
         -5    1    1    2    0  501  0.28054481998E+02 -0.60836703760E+01  0.73379148675E+01  0.30000000000E+02  0.47000000000E+01 0. -1.
</event>
<event>
 4    1  0.7581446E-002  0.6000000E+02  0.7546771E-02  0.1259629E+00
         11   -1    0    0    0    0  0.00000000000E+00  0.00000000000E+00  0.30000000000E+02  0.30000000000E+02  0.00000000000E+00 0.  1.
        -11   -1    0    0    0    0 -0.00000000000E+00 -0.00000000000E+00 -0.30000000000E+02  0.30000000000E+02  0.00000000000E+00 0. -1.
          5    1    1    2  501    0  0.58251434310E+01 -0.30022754727E+01 -0.28895744427E+02  0.30000000000E+02  0.47000000000E+01 0. -1.
         -5    1    1    2    0  501 -0.58251434310E+01  0.30022754727E+01  0.28895744427E+02  0.30000000000E+02  0.47000000000E+01 0.  1.
</event>
<event>
 4    1  0.7581446E-002  0.6000000E+02  0.7546771E-02  0.1259629E+00
         11   -1    0    0    0    0  0.00000000000E+00  0.00000000000E+00  0.30000000000E+02  0.30000000000E+02  0.00000000000E+00 0. -1.
        -11   -1    0    0    0    0 -0.00000000000E+00 -0.00000000000E+00 -0.30000000000E+02  0.30000000000E+02  0.00000000000E+00 0.  1.
          5    1    1    2  501    0 -0.17214427552E+02  0.10553701103E+02  0.21683931311E+02  0.30000000000E+02  0.47000000000E+01 0. -1.
         -5    1    1    2    0  501  0.17214427552E+02 -0.10553701103E+02 -0.21683931311E+02  0.30000000000E+02  0.47000000000E+01 0.  1.
</event>
<event>
 4    1  0.7581446E-002  0.6000000E+02  0.7546771E-02  0.1259629E+00
         11   -1    0    0    0    0  0.00000000000E+00  0.00000000000E+00  0.30000000000E+02  0.30000000000E+02  0.00000000000E+00 0. -1.
        -11   -1    0    0    0    0 -0.00000000000E+00 -0.00000000000E+00 -0.30000000000E+02  0.30000000000E+02  0.00000000000E+00 0.  1.
          5    1    1    2  501    0 -0.28173267714E+02  0.91746034883E+01 -0.60308653594E-01  0.30000000000E+02  0.47000000000E+01 0.  1.
         -5    1    1    2    0  501  0.28173267714E+02 -0.91746034883E+01  0.60308653594E-01  0.30000000000E+02  0.47000000000E+01 0. -1.
</event>
<event>
 4    1  0.7581446E-002  0.6000000E+02  0.7546771E-02  0.1259629E+00
         11   -1    0    0    0    0  0.00000000000E+00  0.00000000000E+00  0.30000000000E+02  0.30000000000E+02  0.00000000000E+00 0. -1.
        -11   -1    0    0    0    0 -0.00000000000E+00 -0.00000000000E+00 -0.30000000000E+02  0.30000000000E+02  0.00000000000E+00 0.  1.
          5    1    1    2  501    0  0.16024679896E+02 -0.46070807851E+01 -0.24492742616E+02  0.30000000000E+02  0.47000000000E+01 0.  1.
         -5    1    1    2    0  501 -0.16024679896E+02  0.46070807851E+01  0.24492742616E+02  0.30000000000E+02  0.47000000000E+01 0. -1.
</event>
<event>
 4    1  0.7581446E-002  0.6000000E+02  0.7546771E-02  0.1259629E+00
         11   -1    0    0    0    0  0.00000000000E+00  0.00000000000E+00  0.30000000000E+02  0.30000000000E+02  0.00000000000E+00 0.  1.
        -11   -1    0    0    0    0 -0.00000000000E+00 -0.00000000000E+00 -0.30000000000E+02  0.30000000000E+02  0.00000000000E+00 0. -1.
          5    1    1    2  501    0  0.11627593910E+02 -0.95337868875E+01 -0.25530686780E+02  0.30000000000E+02  0.47000000000E+01 0. -1.
         -5    1    1    2    0  501 -0.11627593910E+02  0.95337868875E+01  0.25530686780E+02  0.30000000000E+02  0.47000000000E+01 0.  1.
</event>
<event>
 4    1  0.7581446E-002  0.6000000E+02  0.7546771E-02  0.1259629E+00
         11   -1    0    0    0    0  0.00000000000E+00  0.00000000000E+00  0.30000000000E+02  0.30000000000E+02  0.00000000000E+00 0.  1.
        -11   -1    0    0    0    0 -0.00000000000E+00 -0.00000000000E+00 -0.30000000000E+02  0.30000000000E+02  0.00000000000E+00 0. -1.
          5    1    1    2  501    0 -0.18826198362E+02  0.20599234094E+02 -0.99577010387E+01  0.30000000000E+02  0.47000000000E+01 0. -1.
         -5    1    1    2    0  501  0.18826198362E+02 -0.20599234094E+02  0.99577010387E+01  0.30000000000E+02  0.47000000000E+01 0.  1.
</event>
<event>
 4    1  0.7581446E-002  0.6000000E+02  0.7546771E-02  0.1259629E+00
         11   -1    0    0    0    0  0.00000000000E+00  0.00000000000E+00  0.30000000000E+02  0.30000000000E+02  0.00000000000E+00 0.  1.
        -11   -1    0    0    0    0 -0.00000000000E+00 -0.00000000000E+00 -0.30000000000E+02  0.30000000000E+02  0.00000000000E+00 0. -1.
          5    1    1    2  501    0 -0.19407371769E+02 -0.81646976371E+01 -0.20847101321E+02  0.30000000000E+02  0.47000000000E+01 0. -1.
         -5    1    1    2    0  501  0.19407371769E+02  0.81646976371E+01  0.20847101321E+02  0.30000000000E+02  0.47000000000E+01 0.  1.
</event>
<event>
 4    1  0.7581446E-002  0.6000000E+02  0.7546771E-02  0.1259629E+00
         11   -1    0    0    0    0  0.00000000000E+00  0.00000000000E+00  0.30000000000E+02  0.30000000000E+02  0.00000000000E+00 0. -1.
        -11   -1    0    0    0    0 -0.00000000000E+00 -0.00000000000E+00 -0.30000000000E+02  0.30000000000E+02  0.00000000000E+00 0.  1.
          5    1    1    2  501    0  0.53860844401E+01  0.30751876596E+01 -0.28973148177E+02  0.30000000000E+02  0.47000000000E+01 0.  1.
         -5    1    1    2    0  501 -0.53860844401E+01 -0.30751876596E+01  0.28973148177E+02  0.30000000000E+02  0.47000000000E+01 0. -1.
</event>
<event>
 4    1  0.7581446E-002  0.6000000E+02  0.7546771E-02  0.1259629E+00
         11   -1    0    0    0    0  0.00000000000E+00  0.00000000000E+00  0.30000000000E+02  0.30000000000E+02  0.00000000000E+00 0.  1.
        -11   -1    0    0    0    0 -0.00000000000E+00 -0.00000000000E+00 -0.30000000000E+02  0.30000000000E+02  0.00000000000E+00 0. -1.
          5    1    1    2  501    0  0.61512857543E+00 -0.15596415494E+02 -0.25184984427E+02  0.30000000000E+02  0.47000000000E+01 0. -1.
         -5    1    1    2    0  501 -0.61512857543E+00  0.15596415494E+02  0.25184984427E+02  0.30000000000E+02  0.47000000000E+01 0.  1.
</event>
<event>
 4    1  0.7581446E-002  0.6000000E+02  0.7546771E-02  0.1259629E+00
         11   -1    0    0    0    0  0.00000000000E+00  0.00000000000E+00  0.30000000000E+02  0.30000000000E+02  0.00000000000E+00 0.  1.
        -11   -1    0    0    0    0 -0.00000000000E+00 -0.00000000000E+00 -0.30000000000E+02  0.30000000000E+02  0.00000000000E+00 0. -1.
          5    1    1    2  501    0 -0.22234408687E+02  0.57716842241E+01 -0.18714399044E+02  0.30000000000E+02  0.47000000000E+01 0. -1.
         -5    1    1    2    0  501  0.22234408687E+02 -0.57716842241E+01  0.18714399044E+02  0.30000000000E+02  0.47000000000E+01 0.  1.
</event>
<event>
 4    1  0.7581446E-002  0.6000000E+02  0.7546771E-02  0.1259629E+00
         11   -1    0    0    0    0  0.00000000000E+00  0.00000000000E+00  0.30000000000E+02  0.30000000000E+02  0.00000000000E+00 0. -1.
        -11   -1    0    0    0    0 -0.00000000000E+00 -0.00000000000E+00 -0.30000000000E+02  0.30000000000E+02  0.00000000000E+00 0.  1.
          5    1    1    2  501    0  0.34052879772E+01  0.33752187031E+01 -0.29239047736E+02  0.30000000000E+02  0.47000000000E+01 0.  1.
         -5    1    1    2    0  501 -0.34052879772E+01 -0.33752187031E+01  0.29239047736E+02  0.30000000000E+02  0.47000000000E+01 0. -1.
</event>
<event>
 4    1  0.7581446E-002  0.6000000E+02  0.7546771E-02  0.1259629E+00
         11   -1    0    0    0    0  0.00000000000E+00  0.00000000000E+00  0.30000000000E+02  0.30000000000E+02  0.00000000000E+00 0.  1.
        -11   -1    0    0    0    0 -0.00000000000E+00 -0.00000000000E+00 -0.30000000000E+02  0.30000000000E+02  0.00000000000E+00 0. -1.
          5    1    1    2  501    0  0.40634509187E+01 -0.24516901912E+02 -0.16134431730E+02  0.30000000000E+02  0.47000000000E+01 0. -1.
         -5    1    1    2    0  501 -0.40634509187E+01  0.24516901912E+02  0.16134431730E+02  0.30000000000E+02  0.47000000000E+01 0.  1.
</event>
<event>
 4    1  0.7581446E-002  0.6000000E+02  0.7546771E-02  0.1259629E+00
         11   -1    0    0    0    0  0.00000000000E+00  0.00000000000E+00  0.30000000000E+02  0.30000000000E+02  0.00000000000E+00 0.  1.
        -11   -1    0    0    0    0 -0.00000000000E+00 -0.00000000000E+00 -0.30000000000E+02  0.30000000000E+02  0.00000000000E+00 0. -1.
          5    1    1    2  501    0  0.10549573366E+02 -0.12713053464E+02 -0.24596641507E+02  0.30000000000E+02  0.47000000000E+01 0. -1.
         -5    1    1    2    0  501 -0.10549573366E+02  0.12713053464E+02  0.24596641507E+02  0.30000000000E+02  0.47000000000E+01 0.  1.
</event>
<event>
 4    1  0.7581446E-002  0.6000000E+02  0.7546771E-02  0.1259629E+00
         11   -1    0    0    0    0  0.00000000000E+00  0.00000000000E+00  0.30000000000E+02  0.30000000000E+02  0.00000000000E+00 0.  1.
        -11   -1    0    0    0    0 -0.00000000000E+00 -0.00000000000E+00 -0.30000000000E+02  0.30000000000E+02  0.00000000000E+00 0. -1.
          5    1    1    2  501    0  0.10577503918E+02  0.26543291262E+02  0.78409246818E+01  0.30000000000E+02  0.47000000000E+01 0. -1.
         -5    1    1    2    0  501 -0.10577503918E+02 -0.26543291262E+02 -0.78409246818E+01  0.30000000000E+02  0.47000000000E+01 0.  1.
</event>
<event>
 4    1  0.7581446E-002  0.6000000E+02  0.7546771E-02  0.1259629E+00
         11   -1    0    0    0    0  0.00000000000E+00  0.00000000000E+00  0.30000000000E+02  0.30000000000E+02  0.00000000000E+00 0.  1.
        -11   -1    0    0    0    0 -0.00000000000E+00 -0.00000000000E+00 -0.30000000000E+02  0.30000000000E+02  0.00000000000E+00 0. -1.
          5    1    1    2  501    0  0.29415915393E+02  0.32990519985E+01 -0.13153621218E+01  0.30000000000E+02  0.47000000000E+01 0. -1.
         -5    1    1    2    0  501 -0.29415915393E+02 -0.32990519985E+01  0.13153621218E+01  0.30000000000E+02  0.47000000000E+01 0.  1.
</event>
<event>
 4    1  0.7581446E-002  0.6000000E+02  0.7546771E-02  0.1259629E+00
         11   -1    0    0    0    0  0.00000000000E+00  0.00000000000E+00  0.30000000000E+02  0.30000000000E+02  0.00000000000E+00 0.  1.
        -11   -1    0    0    0    0 -0.00000000000E+00 -0.00000000000E+00 -0.30000000000E+02  0.30000000000E+02  0.00000000000E+00 0. -1.
          5    1    1    2  501    0 -0.20254584872E+02  0.20995729953E+02 -0.51808411856E+01  0.30000000000E+02  0.47000000000E+01 0. -1.
         -5    1    1    2    0  501  0.20254584872E+02 -0.20995729953E+02  0.51808411856E+01  0.30000000000E+02  0.47000000000E+01 0.  1.
</event>
<event>
 4    1  0.7581446E-002  0.6000000E+02  0.7546771E-02  0.1259629E+00
         11   -1    0    0    0    0  0.00000000000E+00  0.00000000000E+00  0.30000000000E+02  0.30000000000E+02  0.00000000000E+00 0. -1.
        -11   -1    0    0    0    0 -0.00000000000E+00 -0.00000000000E+00 -0.30000000000E+02  0.30000000000E+02  0.00000000000E+00 0.  1.
          5    1    1    2  501    0  0.12432367657E+02 -0.37610359626E+01 -0.26630825052E+02  0.30000000000E+02  0.47000000000E+01 0.  1.
         -5    1    1    2    0  501 -0.12432367657E+02  0.37610359626E+01  0.26630825052E+02  0.30000000000E+02  0.47000000000E+01 0. -1.
</event>
<event>
 4    1  0.7581446E-002  0.6000000E+02  0.7546771E-02  0.1259629E+00
         11   -1    0    0    0    0  0.00000000000E+00  0.00000000000E+00  0.30000000000E+02  0.30000000000E+02  0.00000000000E+00 0. -1.
        -11   -1    0    0    0    0 -0.00000000000E+00 -0.00000000000E+00 -0.30000000000E+02  0.30000000000E+02  0.00000000000E+00 0.  1.
          5    1    1    2  501    0 -0.11179311287E+02 -0.10054001960E+02 -0.25531354130E+02  0.30000000000E+02  0.47000000000E+01 0.  1.
         -5    1    1    2    0  501  0.11179311287E+02  0.10054001960E+02  0.25531354130E+02  0.30000000000E+02  0.47000000000E+01 0. -1.
</event>
<event>
 4    1  0.7581446E-002  0.6000000E+02  0.7546771E-02  0.1259629E+00
         11   -1    0    0    0    0  0.00000000000E+00  0.00000000000E+00  0.30000000000E+02  0.30000000000E+02  0.00000000000E+00 0.  1.
        -11   -1    0    0    0    0 -0.00000000000E+00 -0.00000000000E+00 -0.30000000000E+02  0.30000000000E+02  0.00000000000E+00 0. -1.
          5    1    1    2  501    0 -0.19859134526E+02 -0.10785423015E+02 -0.19162448337E+02  0.30000000000E+02  0.47000000000E+01 0. -1.
         -5    1    1    2    0  501  0.19859134526E+02  0.10785423015E+02  0.19162448337E+02  0.30000000000E+02  0.47000000000E+01 0.  1.
</event>
<event>
 4    1  0.7581446E-002  0.6000000E+02  0.7546771E-02  0.1259629E+00
         11   -1    0    0    0    0  0.00000000000E+00  0.00000000000E+00  0.30000000000E+02  0.30000000000E+02  0.00000000000E+00 0.  1.
        -11   -1    0    0    0    0 -0.00000000000E+00 -0.00000000000E+00 -0.30000000000E+02  0.30000000000E+02  0.00000000000E+00 0. -1.
          5    1    1    2  501    0  0.21141372879E+02  0.36915588500E+00 -0.20756109383E+02  0.30000000000E+02  0.47000000000E+01 0. -1.
         -5    1    1    2    0  501 -0.21141372879E+02 -0.36915588500E+00  0.20756109383E+02  0.30000000000E+02  0.47000000000E+01 0.  1.
</event>
<event>
 4    1  0.7581446E-002  0.6000000E+02  0.7546771E-02  0.1259629E+00
         11   -1    0    0    0    0  0.00000000000E+00  0.00000000000E+00  0.30000000000E+02  0.30000000000E+02  0.00000000000E+00 0.  1.
        -11   -1    0    0    0    0 -0.00000000000E+00 -0.00000000000E+00 -0.30000000000E+02  0.30000000000E+02  0.00000000000E+00 0. -1.
          5    1    1    2  501    0 -0.20064550319E+02 -0.21645456789E+02 -0.26073014580E+01  0.30000000000E+02  0.47000000000E+01 0. -1.
         -5    1    1    2    0  501  0.20064550319E+02  0.21645456789E+02  0.26073014580E+01  0.30000000000E+02  0.47000000000E+01 0.  1.
</event>
<event>
 4    1  0.7581446E-002  0.6000000E+02  0.7546771E-02  0.1259629E+00
         11   -1    0    0    0    0  0.00000000000E+00  0.00000000000E+00  0.30000000000E+02  0.30000000000E+02  0.00000000000E+00 0.  1.
        -11   -1    0    0    0    0 -0.00000000000E+00 -0.00000000000E+00 -0.30000000000E+02  0.30000000000E+02  0.00000000000E+00 0. -1.
          5    1    1    2  501    0  0.25569317695E+02  0.10732887813E+02 -0.10436719400E+02  0.30000000000E+02  0.47000000000E+01 0. -1.
         -5    1    1    2    0  501 -0.25569317695E+02 -0.10732887813E+02  0.10436719400E+02  0.30000000000E+02  0.47000000000E+01 0.  1.
</event>
<event>
 4    1  0.7581446E-002  0.6000000E+02  0.7546771E-02  0.1259629E+00
         11   -1    0    0    0    0  0.00000000000E+00  0.00000000000E+00  0.30000000000E+02  0.30000000000E+02  0.00000000000E+00 0.  1.
        -11   -1    0    0    0    0 -0.00000000000E+00 -0.00000000000E+00 -0.30000000000E+02  0.30000000000E+02  0.00000000000E+00 0. -1.
          5    1    1    2  501    0  0.16538076918E+02  0.22800759326E+02  0.91938776360E+01  0.30000000000E+02  0.47000000000E+01 0. -1.
         -5    1    1    2    0  501 -0.16538076918E+02 -0.22800759326E+02 -0.91938776360E+01  0.30000000000E+02  0.47000000000E+01 0.  1.
</event>
<event>
 4    1  0.7581446E-002  0.6000000E+02  0.7546771E-02  0.1259629E+00
         11   -1    0    0    0    0  0.00000000000E+00  0.00000000000E+00  0.30000000000E+02  0.30000000000E+02  0.00000000000E+00 0.  1.
        -11   -1    0    0    0    0 -0.00000000000E+00 -0.00000000000E+00 -0.30000000000E+02  0.30000000000E+02  0.00000000000E+00 0. -1.
          5    1    1    2  501    0  0.17436390967E+02 -0.72740096764E+01 -0.22824790323E+02  0.30000000000E+02  0.47000000000E+01 0. -1.
         -5    1    1    2    0  501 -0.17436390967E+02  0.72740096764E+01  0.22824790323E+02  0.30000000000E+02  0.47000000000E+01 0.  1.
</event>
<event>
 4    1  0.7581446E-002  0.6000000E+02  0.7546771E-02  0.1259629E+00
         11   -1    0    0    0    0  0.00000000000E+00  0.00000000000E+00  0.30000000000E+02  0.30000000000E+02  0.00000000000E+00 0.  1.
        -11   -1    0    0    0    0 -0.00000000000E+00 -0.00000000000E+00 -0.30000000000E+02  0.30000000000E+02  0.00000000000E+00 0. -1.
          5    1    1    2  501    0  0.23174792882E+02 -0.15760249381E+02 -0.96152750517E+01  0.30000000000E+02  0.47000000000E+01 0. -1.
         -5    1    1    2    0  501 -0.23174792882E+02  0.15760249381E+02  0.96152750517E+01  0.30000000000E+02  0.47000000000E+01 0.  1.
</event>
<event>
 4    1  0.7581446E-002  0.6000000E+02  0.7546771E-02  0.1259629E+00
         11   -1    0    0    0    0  0.00000000000E+00  0.00000000000E+00  0.30000000000E+02  0.30000000000E+02  0.00000000000E+00 0.  1.
        -11   -1    0    0    0    0 -0.00000000000E+00 -0.00000000000E+00 -0.30000000000E+02  0.30000000000E+02  0.00000000000E+00 0. -1.
          5    1    1    2  501    0  0.16086361512E+02  0.12204670783E+02  0.21683749315E+02  0.30000000000E+02  0.47000000000E+01 0.  1.
         -5    1    1    2    0  501 -0.16086361512E+02 -0.12204670783E+02 -0.21683749315E+02  0.30000000000E+02  0.47000000000E+01 0. -1.
</event>
<event>
 4    1  0.7581446E-002  0.6000000E+02  0.7546771E-02  0.1259629E+00
         11   -1    0    0    0    0  0.00000000000E+00  0.00000000000E+00  0.30000000000E+02  0.30000000000E+02  0.00000000000E+00 0.  1.
        -11   -1    0    0    0    0 -0.00000000000E+00 -0.00000000000E+00 -0.30000000000E+02  0.30000000000E+02  0.00000000000E+00 0. -1.
          5    1    1    2  501    0  0.23449654209E+02 -0.13826729681E+02 -0.11698088040E+02  0.30000000000E+02  0.47000000000E+01 0. -1.
         -5    1    1    2    0  501 -0.23449654209E+02  0.13826729681E+02  0.11698088040E+02  0.30000000000E+02  0.47000000000E+01 0.  1.
</event>
<event>
 4    1  0.7581446E-002  0.6000000E+02  0.7546771E-02  0.1259629E+00
         11   -1    0    0    0    0  0.00000000000E+00  0.00000000000E+00  0.30000000000E+02  0.30000000000E+02  0.00000000000E+00 0.  1.
        -11   -1    0    0    0    0 -0.00000000000E+00 -0.00000000000E+00 -0.30000000000E+02  0.30000000000E+02  0.00000000000E+00 0. -1.
          5    1    1    2  501    0  0.13020708168E+01  0.39361072454E+01 -0.29338058411E+02  0.30000000000E+02  0.47000000000E+01 0. -1.
         -5    1    1    2    0  501 -0.13020708168E+01 -0.39361072454E+01  0.29338058411E+02  0.30000000000E+02  0.47000000000E+01 0.  1.
</event>
<event>
 4    1  0.7581446E-002  0.6000000E+02  0.7546771E-02  0.1259629E+00
         11   -1    0    0    0    0  0.00000000000E+00  0.00000000000E+00  0.30000000000E+02  0.30000000000E+02  0.00000000000E+00 0. -1.
        -11   -1    0    0    0    0 -0.00000000000E+00 -0.00000000000E+00 -0.30000000000E+02  0.30000000000E+02  0.00000000000E+00 0.  1.
          5    1    1    2  501    0  0.14834787101E+02  0.19392943055E+02 -0.16785495266E+02  0.30000000000E+02  0.47000000000E+01 0.  1.
         -5    1    1    2    0  501 -0.14834787101E+02 -0.19392943055E+02  0.16785495266E+02  0.30000000000E+02  0.47000000000E+01 0. -1.
</event>
<event>
 4    1  0.7581446E-002  0.6000000E+02  0.7546771E-02  0.1259629E+00
         11   -1    0    0    0    0  0.00000000000E+00  0.00000000000E+00  0.30000000000E+02  0.30000000000E+02  0.00000000000E+00 0.  1.
        -11   -1    0    0    0    0 -0.00000000000E+00 -0.00000000000E+00 -0.30000000000E+02  0.30000000000E+02  0.00000000000E+00 0. -1.
          5    1    1    2  501    0 -0.28323351220E+02 -0.84425787777E+01 -0.21025316311E+01  0.30000000000E+02  0.47000000000E+01 0. -1.
         -5    1    1    2    0  501  0.28323351220E+02  0.84425787777E+01  0.21025316311E+01  0.30000000000E+02  0.47000000000E+01 0.  1.
</event>
<event>
 4    1  0.7581446E-002  0.6000000E+02  0.7546771E-02  0.1259629E+00
         11   -1    0    0    0    0  0.00000000000E+00  0.00000000000E+00  0.30000000000E+02  0.30000000000E+02  0.00000000000E+00 0. -1.
        -11   -1    0    0    0    0 -0.00000000000E+00 -0.00000000000E+00 -0.30000000000E+02  0.30000000000E+02  0.00000000000E+00 0.  1.
          5    1    1    2  501    0  0.70054045525E+01 -0.18711802634E+02 -0.21879276708E+02  0.30000000000E+02  0.47000000000E+01 0.  1.
         -5    1    1    2    0  501 -0.70054045525E+01  0.18711802634E+02  0.21879276708E+02  0.30000000000E+02  0.47000000000E+01 0. -1.
</event>
<event>
 4    1  0.7581446E-002  0.6000000E+02  0.7546771E-02  0.1259629E+00
         11   -1    0    0    0    0  0.00000000000E+00  0.00000000000E+00  0.30000000000E+02  0.30000000000E+02  0.00000000000E+00 0.  1.
        -11   -1    0    0    0    0 -0.00000000000E+00 -0.00000000000E+00 -0.30000000000E+02  0.30000000000E+02  0.00000000000E+00 0. -1.
          5    1    1    2  501    0 -0.15581551544E+02 -0.21300198410E+02  0.13469476574E+02  0.30000000000E+02  0.47000000000E+01 0. -1.
         -5    1    1    2    0  501  0.15581551544E+02  0.21300198410E+02 -0.13469476574E+02  0.30000000000E+02  0.47000000000E+01 0.  1.
</event>
<event>
 4    1  0.7581446E-002  0.6000000E+02  0.7546771E-02  0.1259629E+00
         11   -1    0    0    0    0  0.00000000000E+00  0.00000000000E+00  0.30000000000E+02  0.30000000000E+02  0.00000000000E+00 0. -1.
        -11   -1    0    0    0    0 -0.00000000000E+00 -0.00000000000E+00 -0.30000000000E+02  0.30000000000E+02  0.00000000000E+00 0.  1.
          5    1    1    2  501    0 -0.51841567083E+01 -0.28965799979E+02 -0.34665473912E+01  0.30000000000E+02  0.47000000000E+01 0.  1.
         -5    1    1    2    0  501  0.51841567083E+01  0.28965799979E+02  0.34665473912E+01  0.30000000000E+02  0.47000000000E+01 0. -1.
</event>
<event>
 4    1  0.7581446E-002  0.6000000E+02  0.7546771E-02  0.1259629E+00
         11   -1    0    0    0    0  0.00000000000E+00  0.00000000000E+00  0.30000000000E+02  0.30000000000E+02  0.00000000000E+00 0.  1.
        -11   -1    0    0    0    0 -0.00000000000E+00 -0.00000000000E+00 -0.30000000000E+02  0.30000000000E+02  0.00000000000E+00 0. -1.
          5    1    1    2  501    0  0.70785741319E+01 -0.13102625547E+02 -0.25614936893E+02  0.30000000000E+02  0.47000000000E+01 0. -1.
         -5    1    1    2    0  501 -0.70785741319E+01  0.13102625547E+02  0.25614936893E+02  0.30000000000E+02  0.47000000000E+01 0.  1.
</event>
<event>
 4    1  0.7581446E-002  0.6000000E+02  0.7546771E-02  0.1259629E+00
         11   -1    0    0    0    0  0.00000000000E+00  0.00000000000E+00  0.30000000000E+02  0.30000000000E+02  0.00000000000E+00 0. -1.
        -11   -1    0    0    0    0 -0.00000000000E+00 -0.00000000000E+00 -0.30000000000E+02  0.30000000000E+02  0.00000000000E+00 0.  1.
          5    1    1    2  501    0 -0.15845058407E+00 -0.26434925877E+02  0.13382062147E+02  0.30000000000E+02  0.47000000000E+01 0.  1.
         -5    1    1    2    0  501  0.15845058407E+00  0.26434925877E+02 -0.13382062147E+02  0.30000000000E+02  0.47000000000E+01 0. -1.
</event>
<event>
 4    1  0.7581446E-002  0.6000000E+02  0.7546771E-02  0.1259629E+00
         11   -1    0    0    0    0  0.00000000000E+00  0.00000000000E+00  0.30000000000E+02  0.30000000000E+02  0.00000000000E+00 0.  1.
        -11   -1    0    0    0    0 -0.00000000000E+00 -0.00000000000E+00 -0.30000000000E+02  0.30000000000E+02  0.00000000000E+00 0. -1.
          5    1    1    2  501    0  0.94236240908E+01 -0.74722591612E+01 -0.27078970660E+02  0.30000000000E+02  0.47000000000E+01 0. -1.
         -5    1    1    2    0  501 -0.94236240908E+01  0.74722591612E+01  0.27078970660E+02  0.30000000000E+02  0.47000000000E+01 0.  1.
</event>
<event>
 4    1  0.7581446E-002  0.6000000E+02  0.7546771E-02  0.1259629E+00
         11   -1    0    0    0    0  0.00000000000E+00  0.00000000000E+00  0.30000000000E+02  0.30000000000E+02  0.00000000000E+00 0. -1.
        -11   -1    0    0    0    0 -0.00000000000E+00 -0.00000000000E+00 -0.30000000000E+02  0.30000000000E+02  0.00000000000E+00 0.  1.
          5    1    1    2  501    0 -0.18020950804E+02 -0.19431762021E+02 -0.13249979504E+02  0.30000000000E+02  0.47000000000E+01 0.  1.
         -5    1    1    2    0  501  0.18020950804E+02  0.19431762021E+02  0.13249979504E+02  0.30000000000E+02  0.47000000000E+01 0. -1.
</event>
<event>
 4    1  0.7581446E-002  0.6000000E+02  0.7546771E-02  0.1259629E+00
         11   -1    0    0    0    0  0.00000000000E+00  0.00000000000E+00  0.30000000000E+02  0.30000000000E+02  0.00000000000E+00 0. -1.
        -11   -1    0    0    0    0 -0.00000000000E+00 -0.00000000000E+00 -0.30000000000E+02  0.30000000000E+02  0.00000000000E+00 0.  1.
          5    1    1    2  501    0  0.66494295135E+01  0.28432767532E+02  0.50272077333E+01  0.30000000000E+02  0.47000000000E+01 0.  1.
         -5    1    1    2    0  501 -0.66494295135E+01 -0.28432767532E+02 -0.50272077333E+01  0.30000000000E+02  0.47000000000E+01 0. -1.
</event>
<event>
 4    1  0.7581446E-002  0.6000000E+02  0.7546771E-02  0.1259629E+00
         11   -1    0    0    0    0  0.00000000000E+00  0.00000000000E+00  0.30000000000E+02  0.30000000000E+02  0.00000000000E+00 0.  1.
        -11   -1    0    0    0    0 -0.00000000000E+00 -0.00000000000E+00 -0.30000000000E+02  0.30000000000E+02  0.00000000000E+00 0. -1.
          5    1    1    2  501    0 -0.20905425170E+02 -0.18074365304E+01 -0.20919043277E+02  0.30000000000E+02  0.47000000000E+01 0. -1.
         -5    1    1    2    0  501  0.20905425170E+02  0.18074365304E+01  0.20919043277E+02  0.30000000000E+02  0.47000000000E+01 0.  1.
</event>
<event>
 4    1  0.7581446E-002  0.6000000E+02  0.7546771E-02  0.1259629E+00
         11   -1    0    0    0    0  0.00000000000E+00  0.00000000000E+00  0.30000000000E+02  0.30000000000E+02  0.00000000000E+00 0.  1.
        -11   -1    0    0    0    0 -0.00000000000E+00 -0.00000000000E+00 -0.30000000000E+02  0.30000000000E+02  0.00000000000E+00 0. -1.
          5    1    1    2  501    0 -0.10302785353E+02  0.22414105371E+02 -0.16412510301E+02  0.30000000000E+02  0.47000000000E+01 0. -1.
         -5    1    1    2    0  501  0.10302785353E+02 -0.22414105371E+02  0.16412510301E+02  0.30000000000E+02  0.47000000000E+01 0.  1.
</event>
<event>
 4    1  0.7581446E-002  0.6000000E+02  0.7546771E-02  0.1259629E+00
         11   -1    0    0    0    0  0.00000000000E+00  0.00000000000E+00  0.30000000000E+02  0.30000000000E+02  0.00000000000E+00 0. -1.
        -11   -1    0    0    0    0 -0.00000000000E+00 -0.00000000000E+00 -0.30000000000E+02  0.30000000000E+02  0.00000000000E+00 0.  1.
          5    1    1    2  501    0 -0.20427751495E-01 -0.16636121173E+02 -0.24518341197E+02  0.30000000000E+02  0.47000000000E+01 0.  1.
         -5    1    1    2    0  501  0.20427751495E-01  0.16636121173E+02  0.24518341197E+02  0.30000000000E+02  0.47000000000E+01 0. -1.
</event>
<event>
 4    1  0.7581446E-002  0.6000000E+02  0.7546771E-02  0.1259629E+00
         11   -1    0    0    0    0  0.00000000000E+00  0.00000000000E+00  0.30000000000E+02  0.30000000000E+02  0.00000000000E+00 0.  1.
        -11   -1    0    0    0    0 -0.00000000000E+00 -0.00000000000E+00 -0.30000000000E+02  0.30000000000E+02  0.00000000000E+00 0. -1.
          5    1    1    2  501    0  0.19553845365E+02  0.21030726354E+02 -0.72983340890E+01  0.30000000000E+02  0.47000000000E+01 0.  1.
         -5    1    1    2    0  501 -0.19553845365E+02 -0.21030726354E+02  0.72983340890E+01  0.30000000000E+02  0.47000000000E+01 0. -1.
</event>
<event>
 4    1  0.7581446E-002  0.6000000E+02  0.7546771E-02  0.1259629E+00
         11   -1    0    0    0    0  0.00000000000E+00  0.00000000000E+00  0.30000000000E+02  0.30000000000E+02  0.00000000000E+00 0.  1.
        -11   -1    0    0    0    0 -0.00000000000E+00 -0.00000000000E+00 -0.30000000000E+02  0.30000000000E+02  0.00000000000E+00 0. -1.
          5    1    1    2  501    0 -0.12692442534E+02  0.26719795496E+02 -0.16924630449E+01  0.30000000000E+02  0.47000000000E+01 0. -1.
         -5    1    1    2    0  501  0.12692442534E+02 -0.26719795496E+02  0.16924630449E+01  0.30000000000E+02  0.47000000000E+01 0.  1.
</event>
<event>
 4    1  0.7581446E-002  0.6000000E+02  0.7546771E-02  0.1259629E+00
         11   -1    0    0    0    0  0.00000000000E+00  0.00000000000E+00  0.30000000000E+02  0.30000000000E+02  0.00000000000E+00 0.  1.
        -11   -1    0    0    0    0 -0.00000000000E+00 -0.00000000000E+00 -0.30000000000E+02  0.30000000000E+02  0.00000000000E+00 0. -1.
          5    1    1    2  501    0  0.71171851502E+01  0.19454806631E+02 -0.21184101928E+02  0.30000000000E+02  0.47000000000E+01 0. -1.
         -5    1    1    2    0  501 -0.71171851502E+01 -0.19454806631E+02  0.21184101928E+02  0.30000000000E+02  0.47000000000E+01 0.  1.
</event>
<event>
 4    1  0.7581446E-002  0.6000000E+02  0.7546771E-02  0.1259629E+00
         11   -1    0    0    0    0  0.00000000000E+00  0.00000000000E+00  0.30000000000E+02  0.30000000000E+02  0.00000000000E+00 0.  1.
        -11   -1    0    0    0    0 -0.00000000000E+00 -0.00000000000E+00 -0.30000000000E+02  0.30000000000E+02  0.00000000000E+00 0. -1.
          5    1    1    2  501    0 -0.23071407444E+02  0.18590420238E+02 -0.12819488817E+00  0.30000000000E+02  0.47000000000E+01 0. -1.
         -5    1    1    2    0  501  0.23071407444E+02 -0.18590420238E+02  0.12819488817E+00  0.30000000000E+02  0.47000000000E+01 0.  1.
</event>
<event>
 4    1  0.7581446E-002  0.6000000E+02  0.7546771E-02  0.1259629E+00
         11   -1    0    0    0    0  0.00000000000E+00  0.00000000000E+00  0.30000000000E+02  0.30000000000E+02  0.00000000000E+00 0. -1.
        -11   -1    0    0    0    0 -0.00000000000E+00 -0.00000000000E+00 -0.30000000000E+02  0.30000000000E+02  0.00000000000E+00 0.  1.
          5    1    1    2  501    0  0.10818359270E+02  0.17819406238E+02 -0.21055684839E+02  0.30000000000E+02  0.47000000000E+01 0.  1.
         -5    1    1    2    0  501 -0.10818359270E+02 -0.17819406238E+02  0.21055684839E+02  0.30000000000E+02  0.47000000000E+01 0. -1.
</event>
<event>
 4    1  0.7581446E-002  0.6000000E+02  0.7546771E-02  0.1259629E+00
         11   -1    0    0    0    0  0.00000000000E+00  0.00000000000E+00  0.30000000000E+02  0.30000000000E+02  0.00000000000E+00 0.  1.
        -11   -1    0    0    0    0 -0.00000000000E+00 -0.00000000000E+00 -0.30000000000E+02  0.30000000000E+02  0.00000000000E+00 0. -1.
          5    1    1    2  501    0 -0.25597271316E+02 -0.14650955436E+02 -0.28353493581E+01  0.30000000000E+02  0.47000000000E+01 0. -1.
         -5    1    1    2    0  501  0.25597271316E+02  0.14650955436E+02  0.28353493581E+01  0.30000000000E+02  0.47000000000E+01 0.  1.
</event>
