<event>
 4    1  0.4351282E-004  0.1000000E+04  0.7546771E-02  0.8684367E-01
         11   -1    0    0    0    0  0.00000000000E+00  0.00000000000E+00  0.50000000000E+03  0.50000000000E+03  0.00000000000E+00 0. -1.
        -11   -1    0    0    0    0 -0.00000000000E+00 -0.00000000000E+00 -0.50000000000E+03  0.50000000000E+03  0.00000000000E+00 0.  1.
          5    1    1    2  501    0  0.46960754714E+03 -0.12058011364E+02  0.17117612577E+03  0.50000000000E+03  0.47000000000E+01 0. -1.
         -5    1    1    2    0  501 -0.46960754714E+03  0.12058011364E+02 -0.17117612577E+03  0.50000000000E+03  0.47000000000E+01 0.  1.
</event>
<event>
 4    1  0.4351282E-004  0.1000000E+04  0.7546771E-02  0.8684367E-01
         11   -1    0    0    0    0  0.00000000000E+00  0.00000000000E+00  0.50000000000E+03  0.50000000000E+03  0.00000000000E+00 0. -1.
        -11   -1    0    0    0    0 -0.00000000000E+00 -0.00000000000E+00 -0.50000000000E+03  0.50000000000E+03  0.00000000000E+00 0.  1.
          5    1    1    2  501    0 -0.21800788383E+03  0.15289846870E+03  0.42316962421E+03  0.50000000000E+03  0.47000000000E+01 0. -1.
         -5    1    1    2    0  501  0.21800788383E+03 -0.15289846870E+03 -0.42316962421E+03  0.50000000000E+03  0.47000000000E+01 0.  1.
</event>
<event>
 4    1  0.4351282E-004  0.1000000E+04  0.7546771E-02  0.8684367E-01
         11   -1    0    0    0    0  0.00000000000E+00  0.00000000000E+00  0.50000000000E+03  0.50000000000E+03  0.00000000000E+00 0. -1.
        -11   -1    0    0    0    0 -0.00000000000E+00 -0.00000000000E+00 -0.50000000000E+03  0.50000000000E+03  0.00000000000E+00 0.  1.
          5    1    1    2  501    0 -0.39063246834E+03 -0.11679502216E+03  0.28938401385E+03  0.50000000000E+03  0.47000000000E+01 0. -1.
         -5    1    1    2    0  501  0.39063246834E+03  0.11679502216E+03 -0.28938401385E+03  0.50000000000E+03  0.47000000000E+01 0.  1.
</event>
<event>
 4    1  0.4351282E-004  0.1000000E+04  0.7546771E-02  0.8684367E-01
         11   -1    0    0    0    0  0.00000000000E+00  0.00000000000E+00  0.50000000000E+03  0.50000000000E+03  0.00000000000E+00 0. -1.
        -11   -1    0    0    0    0 -0.00000000000E+00 -0.00000000000E+00 -0.50000000000E+03  0.50000000000E+03  0.00000000000E+00 0.  1.
          5    1    1    2  501    0  0.58173277221E+02 -0.48330112052E+03 -0.11407807293E+03  0.50000000000E+03  0.47000000000E+01 0. -1.
         -5    1    1    2    0  501 -0.58173277221E+02  0.48330112052E+03  0.11407807293E+03  0.50000000000E+03  0.47000000000E+01 0.  1.
</event>
<event>
 4    1  0.4351282E-004  0.1000000E+04  0.7546771E-02  0.8684367E-01
         11   -1    0    0    0    0  0.00000000000E+00  0.00000000000E+00  0.50000000000E+03  0.50000000000E+03  0.00000000000E+00 0.  1.
        -11   -1    0    0    0    0 -0.00000000000E+00 -0.00000000000E+00 -0.50000000000E+03  0.50000000000E+03  0.00000000000E+00 0. -1.
          5    1    1    2  501    0 -0.47012160796E+03  0.16262308727E+03  0.50172853358E+02  0.50000000000E+03  0.47000000000E+01 0. -1.
         -5    1    1    2    0  501  0.47012160796E+03 -0.16262308727E+03 -0.50172853358E+02  0.50000000000E+03  0.47000000000E+01 0.  1.
</event>
<event>
 4    1  0.4351282E-004  0.1000000E+04  0.7546771E-02  0.8684367E-01
         11   -1    0    0    0    0  0.00000000000E+00  0.00000000000E+00  0.50000000000E+03  0.50000000000E+03  0.00000000000E+00 0. -1.
        -11   -1    0    0    0    0 -0.00000000000E+00 -0.00000000000E+00 -0.50000000000E+03  0.50000000000E+03  0.00000000000E+00 0.  1.
          5    1    1    2  501    0 -0.12014652519E+03 -0.46898523320E+03  0.12488223861E+03  0.50000000000E+03  0.47000000000E+01 0. -1.
         -5    1    1    2    0  501  0.12014652519E+03  0.46898523320E+03 -0.12488223861E+03  0.50000000000E+03  0.47000000000E+01 0.  1.
</event>
<event>
 4    1  0.4351282E-004  0.1000000E+04  0.7546771E-02  0.8684367E-01
         11   -1    0    0    0    0  0.00000000000E+00  0.00000000000E+00  0.50000000000E+03  0.50000000000E+03  0.00000000000E+00 0. -1.
        -11   -1    0    0    0    0 -0.00000000000E+00 -0.00000000000E+00 -0.50000000000E+03  0.50000000000E+03  0.00000000000E+00 0.  1.
          5    1    1    2  501    0 -0.70781871860E+02  0.10322758457E+03  0.48405774697E+03  0.50000000000E+03  0.47000000000E+01 0. -1.
         -5    1    1    2    0  501  0.70781871860E+02 -0.10322758457E+03 -0.48405774697E+03  0.50000000000E+03  0.47000000000E+01 0.  1.
</event>
<event>
 4    1  0.4351282E-004  0.1000000E+04  0.7546771E-02  0.8684367E-01
         11   -1    0    0    0    0  0.00000000000E+00  0.00000000000E+00  0.50000000000E+03  0.50000000000E+03  0.00000000000E+00 0. -1.
        -11   -1    0    0    0    0 -0.00000000000E+00 -0.00000000000E+00 -0.50000000000E+03  0.50000000000E+03  0.00000000000E+00 0.  1.
          5    1    1    2  501    0 -0.48891819430E+03  0.10418641530E+03  0.90609132407E+01  0.50000000000E+03  0.47000000000E+01 0.  1.
         -5    1    1    2    0  501  0.48891819430E+03 -0.10418641530E+03 -0.90609132407E+01  0.50000000000E+03  0.47000000000E+01 0. -1.
</event>
<event>
 4    1  0.4351282E-004  0.1000000E+04  0.7546771E-02  0.8684367E-01
         11   -1    0    0    0    0  0.00000000000E+00  0.00000000000E+00  0.50000000000E+03  0.50000000000E+03  0.00000000000E+00 0. -1.
        -11   -1    0    0    0    0 -0.00000000000E+00 -0.00000000000E+00 -0.50000000000E+03  0.50000000000E+03  0.00000000000E+00 0.  1.
          5    1    1    2  501    0  0.34227535498E+03 -0.51008666847E+02  0.36086508183E+03  0.50000000000E+03  0.47000000000E+01 0. -1.
         -5    1    1    2    0  501 -0.34227535498E+03  0.51008666847E+02 -0.36086508183E+03  0.50000000000E+03  0.47000000000E+01 0.  1.
</event>
<event>
 4    1  0.4351282E-004  0.1000000E+04  0.7546771E-02  0.8684367E-01
         11   -1    0    0    0    0  0.00000000000E+00  0.00000000000E+00  0.50000000000E+03  0.50000000000E+03  0.00000000000E+00 0.  1.
        -11   -1    0    0    0    0 -0.00000000000E+00 -0.00000000000E+00 -0.50000000000E+03  0.50000000000E+03  0.00000000000E+00 0. -1.
          5    1    1    2  501    0  0.97465663912E+01 -0.10564989642E+03  0.48859084501E+03  0.50000000000E+03  0.47000000000E+01 0.  1.
         -5    1    1    2    0  501 -0.97465663912E+01  0.10564989642E+03 -0.48859084501E+03  0.50000000000E+03  0.47000000000E+01 0. -1.
</event>
<event>
 4    1  0.4351282E-004  0.1000000E+04  0.7546771E-02  0.8684367E-01
         11   -1    0    0    0    0  0.00000000000E+00  0.00000000000E+00  0.50000000000E+03  0.50000000000E+03  0.00000000000E+00 0. -1.
        -11   -1    0    0    0    0 -0.00000000000E+00 -0.00000000000E+00 -0.50000000000E+03  0.50000000000E+03  0.00000000000E+00 0.  1.
          5    1    1    2  501    0 -0.16240861058E+03  0.17996852463E+03  0.43727872501E+03  0.50000000000E+03  0.47000000000E+01 0. -1.
         -5    1    1    2    0  501  0.16240861058E+03 -0.17996852463E+03 -0.43727872501E+03  0.50000000000E+03  0.47000000000E+01 0.  1.
</event>
<event>
 4    1  0.4351282E-004  0.1000000E+04  0.7546771E-02  0.8684367E-01
         11   -1    0    0    0    0  0.00000000000E+00  0.00000000000E+00  0.50000000000E+03  0.50000000000E+03  0.00000000000E+00 0. -1.
        -11   -1    0    0    0    0 -0.00000000000E+00 -0.00000000000E+00 -0.50000000000E+03  0.50000000000E+03  0.00000000000E+00 0.  1.
          5    1    1    2  501    0  0.27530570735E+03 -0.32412671049E+03  0.26291928999E+03  0.50000000000E+03  0.47000000000E+01 0. -1.
         -5    1    1    2    0  501 -0.27530570735E+03  0.32412671049E+03 -0.26291928999E+03  0.50000000000E+03  0.47000000000E+01 0.  1.
</event>
<event>
 4    1  0.4351282E-004  0.1000000E+04  0.7546771E-02  0.8684367E-01
         11   -1    0    0    0    0  0.00000000000E+00  0.00000000000E+00  0.50000000000E+03  0.50000000000E+03  0.00000000000E+00 0. -1.
        -11   -1    0    0    0    0 -0.00000000000E+00 -0.00000000000E+00 -0.50000000000E+03  0.50000000000E+03  0.00000000000E+00 0.  1.
          5    1    1    2  501    0 -0.19921984954E+03  0.32936807086E+03  0.31907058067E+03  0.50000000000E+03  0.47000000000E+01 0. -1.
         -5    1    1    2    0  501  0.19921984954E+03 -0.32936807086E+03 -0.31907058067E+03  0.50000000000E+03  0.47000000000E+01 0.  1.
</event>
<event>
 4    1  0.4351282E-004  0.1000000E+04  0.7546771E-02  0.8684367E-01
         11   -1    0    0    0    0  0.00000000000E+00  0.00000000000E+00  0.50000000000E+03  0.50000000000E+03  0.00000000000E+00 0. -1.
        -11   -1    0    0    0    0 -0.00000000000E+00 -0.00000000000E+00 -0.50000000000E+03  0.50000000000E+03  0.00000000000E+00 0.  1.
          5    1    1    2  501    0 -0.15396806940E+03 -0.45715674786E+03 -0.13145132745E+03  0.50000000000E+03  0.47000000000E+01 0. -1.
         -5    1    1    2    0  501  0.15396806940E+03  0.45715674786E+03  0.13145132745E+03  0.50000000000E+03  0.47000000000E+01 0.  1.
</event>
<event>
 4    1  0.4351282E-004  0.1000000E+04  0.7546771E-02  0.8684367E-01
         11   -1    0    0    0    0  0.00000000000E+00  0.00000000000E+00  0.50000000000E+03  0.50000000000E+03  0.00000000000E+00 0. -1.
        -11   -1    0    0    0    0 -0.00000000000E+00 -0.00000000000E+00 -0.50000000000E+03  0.50000000000E+03  0.00000000000E+00 0.  1.
          5    1    1    2  501    0 -0.42837249201E+03  0.25658062166E+03 -0.25323954563E+02  0.50000000000E+03  0.47000000000E+01 0. -1.
         -5    1    1    2    0  501  0.42837249201E+03 -0.25658062166E+03  0.25323954563E+02  0.50000000000E+03  0.47000000000E+01 0.  1.
</event>
<event>
 4    1  0.4351282E-004  0.1000000E+04  0.7546771E-02  0.8684367E-01
         11   -1    0    0    0    0  0.00000000000E+00  0.00000000000E+00  0.50000000000E+03  0.50000000000E+03  0.00000000000E+00 0. -1.
        -11   -1    0    0    0    0 -0.00000000000E+00 -0.00000000000E+00 -0.50000000000E+03  0.50000000000E+03  0.00000000000E+00 0.  1.
          5    1    1    2  501    0 -0.15125718798E+03  0.43021446909E+03  0.20497483668E+03  0.50000000000E+03  0.47000000000E+01 0. -1.
         -5    1    1    2    0  501  0.15125718798E+03 -0.43021446909E+03 -0.20497483668E+03  0.50000000000E+03  0.47000000000E+01 0.  1.
</event>
<event>
 4    1  0.4351282E-004  0.1000000E+04  0.7546771E-02  0.8684367E-01
         11   -1    0    0    0    0  0.00000000000E+00  0.00000000000E+00  0.50000000000E+03  0.50000000000E+03  0.00000000000E+00 0.  1.
        -11   -1    0    0    0    0 -0.00000000000E+00 -0.00000000000E+00 -0.50000000000E+03  0.50000000000E+03  0.00000000000E+00 0. -1.
          5    1    1    2  501    0  0.16074630394E+03 -0.12149272754E+03  0.45757846641E+03  0.50000000000E+03  0.47000000000E+01 0.  1.
         -5    1    1    2    0  501 -0.16074630394E+03  0.12149272754E+03 -0.45757846641E+03  0.50000000000E+03  0.47000000000E+01 0. -1.
</event>
<event>
 4    1  0.4351282E-004  0.1000000E+04  0.7546771E-02  0.8684367E-01
         11   -1    0    0    0    0  0.00000000000E+00  0.00000000000E+00  0.50000000000E+03  0.50000000000E+03  0.00000000000E+00 0. -1.
        -11   -1    0    0    0    0 -0.00000000000E+00 -0.00000000000E+00 -0.50000000000E+03  0.50000000000E+03  0.00000000000E+00 0.  1.
          5    1    1    2  501    0 -0.33824869639E+02  0.46476225816E+03  0.18119004274E+03  0.50000000000E+03  0.47000000000E+01 0. -1.
         -5    1    1    2    0  501  0.33824869639E+02 -0.46476225816E+03 -0.18119004274E+03  0.50000000000E+03  0.47000000000E+01 0.  1.
</event>
<event>
 4    1  0.4351282E-004  0.1000000E+04  0.7546771E-02  0.8684367E-01
         11   -1    0    0    0    0  0.00000000000E+00  0.00000000000E+00  0.50000000000E+03  0.50000000000E+03  0.00000000000E+00 0. -1.
        -11   -1    0    0    0    0 -0.00000000000E+00 -0.00000000000E+00 -0.50000000000E+03  0.50000000000E+03  0.00000000000E+00 0.  1.
          5    1    1    2  501    0 -0.22848948452E+03  0.44415009133E+03  0.22386644042E+02  0.50000000000E+03  0.47000000000E+01 0. -1.
         -5    1    1    2    0  501  0.22848948452E+03 -0.44415009133E+03 -0.22386644042E+02  0.50000000000E+03  0.47000000000E+01 0.  1.
</event>
<event>
 4    1  0.4351282E-004  0.1000000E+04  0.7546771E-02  0.8684367E-01
         11   -1    0    0    0    0  0.00000000000E+00  0.00000000000E+00  0.50000000000E+03  0.50000000000E+03  0.00000000000E+00 0. -1.
        -11   -1    0    0    0    0 -0.00000000000E+00 -0.00000000000E+00 -0.50000000000E+03  0.50000000000E+03  0.00000000000E+00 0.  1.
          5    1    1    2  501    0  0.74212645745E+02  0.27365349184E+03  0.41180597326E+03  0.50000000000E+03  0.47000000000E+01 0. -1.
         -5    1    1    2    0  501 -0.74212645745E+02 -0.27365349184E+03 -0.41180597326E+03  0.50000000000E+03  0.47000000000E+01 0.  1.
</event>
<event>
 4    1  0.4351282E-004  0.1000000E+04  0.7546771E-02  0.8684367E-01
         11   -1    0    0    0    0  0.00000000000E+00  0.00000000000E+00  0.50000000000E+03  0.50000000000E+03  0.00000000000E+00 0. -1.
        -11   -1    0    0    0    0 -0.00000000000E+00 -0.00000000000E+00 -0.50000000000E+03  0.50000000000E+03  0.00000000000E+00 0.  1.
          5    1    1    2  501    0 -0.47865839949E+03  0.97394636588E+02 -0.10666926156E+03  0.50000000000E+03  0.47000000000E+01 0. -1.
         -5    1    1    2    0  501  0.47865839949E+03 -0.97394636588E+02  0.10666926156E+03  0.50000000000E+03  0.47000000000E+01 0.  1.
</event>
<event>
 4    1  0.4351282E-004  0.1000000E+04  0.7546771E-02  0.8684367E-01
         11   -1    0    0    0    0  0.00000000000E+00  0.00000000000E+00  0.50000000000E+03  0.50000000000E+03  0.00000000000E+00 0. -1.
        -11   -1    0    0    0    0 -0.00000000000E+00 -0.00000000000E+00 -0.50000000000E+03  0.50000000000E+03  0.00000000000E+00 0.  1.
          5    1    1    2  501    0  0.38479771191E+03 -0.29505111052E+03 -0.12187482551E+03  0.50000000000E+03  0.47000000000E+01 0. -1.
         -5    1    1    2    0  501 -0.38479771191E+03  0.29505111052E+03  0.12187482551E+03  0.50000000000E+03  0.47000000000E+01 0.  1.
</event>
<event>
 4    1  0.4351282E-004  0.1000000E+04  0.7546771E-02  0.8684367E-01
         11   -1    0    0    0    0  0.00000000000E+00  0.00000000000E+00  0.50000000000E+03  0.50000000000E+03  0.00000000000E+00 0. -1.
        -11   -1    0    0    0    0 -0.00000000000E+00 -0.00000000000E+00 -0.50000000000E+03  0.50000000000E+03  0.00000000000E+00 0.  1.
          5    1    1    2  501    0  0.10994540730E+03 -0.44941324469E+03  0.18951953173E+03  0.50000000000E+03  0.47000000000E+01 0. -1.
         -5    1    1    2    0  501 -0.10994540730E+03  0.44941324469E+03 -0.18951953173E+03  0.50000000000E+03  0.47000000000E+01 0.  1.
</event>
<event>
 4    1  0.4351282E-004  0.1000000E+04  0.7546771E-02  0.8684367E-01
         11   -1    0    0    0    0  0.00000000000E+00  0.00000000000E+00  0.50000000000E+03  0.50000000000E+03  0.00000000000E+00 0.  1.
        -11   -1    0    0    0    0 -0.00000000000E+00 -0.00000000000E+00 -0.50000000000E+03  0.50000000000E+03  0.00000000000E+00 0. -1.
          5    1    1    2  501    0  0.25200034988E+03 -0.43139647091E+03 -0.19256649512E+02  0.50000000000E+03  0.47000000000E+01 0.  1.
         -5    1    1    2    0  501 -0.25200034988E+03  0.43139647091E+03  0.19256649512E+02  0.50000000000E+03  0.47000000000E+01 0. -1.
</event>
<event>
 4    1  0.4351282E-004  0.1000000E+04  0.7546771E-02  0.8684367E-01
         11   -1    0    0    0    0  0.00000000000E+00  0.00000000000E+00  0.50000000000E+03  0.50000000000E+03  0.00000000000E+00 0. -1.
        -11   -1    0    0    0    0 -0.00000000000E+00 -0.00000000000E+00 -0.50000000000E+03  0.50000000000E+03  0.00000000000E+00 0.  1.
          5    1    1    2  501    0 -0.59796857630E+02 -0.46552774525E+03  0.17229673305E+03  0.50000000000E+03  0.47000000000E+01 0. -1.
         -5    1    1    2    0  501  0.59796857630E+02  0.46552774525E+03 -0.17229673305E+03  0.50000000000E+03  0.47000000000E+01 0.  1.
</event>
<event>
 4    1  0.4351282E-004  0.1000000E+04  0.7546771E-02  0.8684367E-01
         11   -1    0    0    0    0  0.00000000000E+00  0.00000000000E+00  0.50000000000E+03  0.50000000000E+03  0.00000000000E+00 0.  1.
        -11   -1    0    0    0    0 -0.00000000000E+00 -0.00000000000E+00 -0.50000000000E+03  0.50000000000E+03  0.00000000000E+00 0. -1.
          5    1    1    2  501    0  0.63179266160E+02  0.38304059680E+03  0.31506537660E+03  0.50000000000E+03  0.47000000000E+01 0.  1.
         -5    1    1    2    0  501 -0.63179266160E+02 -0.38304059680E+03 -0.31506537660E+03  0.50000000000E+03  0.47000000000E+01 0. -1.
</event>
<event>
 4    1  0.4351282E-004  0.1000000E+04  0.7546771E-02  0.8684367E-01
         11   -1    0    0    0    0  0.00000000000E+00  0.00000000000E+00  0.50000000000E+03  0.50000000000E+03  0.00000000000E+00 0. -1.
        -11   -1    0    0    0    0 -0.00000000000E+00 -0.00000000000E+00 -0.50000000000E+03  0.50000000000E+03  0.00000000000E+00 0.  1.
          5    1    1    2  501    0  0.35994631920E+03  0.23154085216E+03  0.25846738880E+03  0.50000000000E+03  0.47000000000E+01 0. -1.
         -5    1    1    2    0  501 -0.35994631920E+03 -0.23154085216E+03 -0.25846738880E+03  0.50000000000E+03  0.47000000000E+01 0.  1.
</event>
<event>
 4    1  0.4351282E-004  0.1000000E+04  0.7546771E-02  0.8684367E-01
         11   -1    0    0    0    0  0.00000000000E+00  0.00000000000E+00  0.50000000000E+03  0.50000000000E+03  0.00000000000E+00 0.  1.
        -11   -1    0    0    0    0 -0.00000000000E+00 -0.00000000000E+00 -0.50000000000E+03  0.50000000000E+03  0.00000000000E+00 0. -1.
          5    1    1    2  501    0  0.20499754402E+03  0.94254096393E+01  0.45592222867E+03  0.50000000000E+03  0.47000000000E+01 0.  1.
         -5    1    1    2    0  501 -0.20499754402E+03 -0.94254096393E+01 -0.45592222867E+03  0.50000000000E+03  0.47000000000E+01 0. -1.
</event>
<event>
 4    1  0.4351282E-004  0.1000000E+04  0.7546771E-02  0.8684367E-01
         11   -1    0    0    0    0  0.00000000000E+00  0.00000000000E+00  0.50000000000E+03  0.50000000000E+03  0.00000000000E+00 0. -1.
        -11   -1    0    0    0    0 -0.00000000000E+00 -0.00000000000E+00 -0.50000000000E+03  0.50000000000E+03  0.00000000000E+00 0.  1.
          5    1    1    2  501    0 -0.26050386480E+03  0.29305499639E+03  0.31021672346E+03  0.50000000000E+03  0.47000000000E+01 0. -1.
         -5    1    1    2    0  501  0.26050386480E+03 -0.29305499639E+03 -0.31021672346E+03  0.50000000000E+03  0.47000000000E+01 0.  1.
</event>
<event>
 4    1  0.4351282E-004  0.1000000E+04  0.7546771E-02  0.8684367E-01
         11   -1    0    0    0    0  0.00000000000E+00  0.00000000000E+00  0.50000000000E+03  0.50000000000E+03  0.00000000000E+00 0. -1.
        -11   -1    0    0    0    0 -0.00000000000E+00 -0.00000000000E+00 -0.50000000000E+03  0.50000000000E+03  0.00000000000E+00 0.  1.
          5    1    1    2  501    0 -0.34826702601E+03  0.28773495283E+03 -0.21423488398E+03  0.50000000000E+03  0.47000000000E+01 0. -1.
         -5    1    1    2    0  501  0.34826702601E+03 -0.28773495283E+03  0.21423488398E+03  0.50000000000E+03  0.47000000000E+01 0.  1.
</event>
<event>
 4    1  0.4351282E-004  0.1000000E+04  0.7546771E-02  0.8684367E-01
         11   -1    0    0    0    0  0.00000000000E+00  0.00000000000E+00  0.50000000000E+03  0.50000000000E+03  0.00000000000E+00 0. -1.
        -11   -1    0    0    0    0 -0.00000000000E+00 -0.00000000000E+00 -0.50000000000E+03  0.50000000000E+03  0.00000000000E+00 0.  1.
          5    1    1    2  501    0  0.61817188814E+02  0.35037890449E+03  0.35127079078E+03  0.50000000000E+03  0.47000000000E+01 0. -1.
         -5    1    1    2    0  501 -0.61817188814E+02 -0.35037890449E+03 -0.35127079078E+03  0.50000000000E+03  0.47000000000E+01 0.  1.
</event>
<event>
 4    1  0.4351282E-004  0.1000000E+04  0.7546771E-02  0.8684367E-01
         11   -1    0    0    0    0  0.00000000000E+00  0.00000000000E+00  0.50000000000E+03  0.50000000000E+03  0.00000000000E+00 0. -1.
        -11   -1    0    0    0    0 -0.00000000000E+00 -0.00000000000E+00 -0.50000000000E+03  0.50000000000E+03  0.00000000000E+00 0.  1.
          5    1    1    2  501    0  0.41400644122E+03 -0.22369294996E+03  0.16893205962E+03  0.50000000000E+03  0.47000000000E+01 0. -1.
         -5    1    1    2    0  501 -0.41400644122E+03  0.22369294996E+03 -0.16893205962E+03  0.50000000000E+03  0.47000000000E+01 0.  1.
</event>
<event>
 4    1  0.4351282E-004  0.1000000E+04  0.7546771E-02  0.8684367E-01
         11   -1    0    0    0    0  0.00000000000E+00  0.00000000000E+00  0.50000000000E+03  0.50000000000E+03  0.00000000000E+00 0. -1.
        -11   -1    0    0    0    0 -0.00000000000E+00 -0.00000000000E+00 -0.50000000000E+03  0.50000000000E+03  0.00000000000E+00 0.  1.
          5    1    1    2  501    0 -0.20994616787E+03  0.74539716887E+02  0.44759842181E+03  0.50000000000E+03  0.47000000000E+01 0. -1.
         -5    1    1    2    0  501  0.20994616787E+03 -0.74539716887E+02 -0.44759842181E+03  0.50000000000E+03  0.47000000000E+01 0.  1.
</event>
<event>
 4    1  0.4351282E-004  0.1000000E+04  0.7546771E-02  0.8684367E-01
         11   -1    0    0    0    0  0.00000000000E+00  0.00000000000E+00  0.50000000000E+03  0.50000000000E+03  0.00000000000E+00 0. -1.
        -11   -1    0    0    0    0 -0.00000000000E+00 -0.00000000000E+00 -0.50000000000E+03  0.50000000000E+03  0.00000000000E+00 0.  1.
          5    1    1    2  501    0 -0.25949266739E+03  0.16235000543E+03  0.39532763792E+03  0.50000000000E+03  0.47000000000E+01 0. -1.
         -5    1    1    2    0  501  0.25949266739E+03 -0.16235000543E+03 -0.39532763792E+03  0.50000000000E+03  0.47000000000E+01 0.  1.
</event>
<event>
 4    1  0.4351282E-004  0.1000000E+04  0.7546771E-02  0.8684367E-01
         11   -1    0    0    0    0  0.00000000000E+00  0.00000000000E+00  0.50000000000E+03  0.50000000000E+03  0.00000000000E+00 0. -1.
        -11   -1    0    0    0    0 -0.00000000000E+00 -0.00000000000E+00 -0.50000000000E+03  0.50000000000E+03  0.00000000000E+00 0.  1.
          5    1    1    2  501    0 -0.15910576464E+03  0.45502527409E+03  0.13272251353E+03  0.50000000000E+03  0.47000000000E+01 0. -1.
         -5    1    1    2    0  501  0.15910576464E+03 -0.45502527409E+03 -0.13272251353E+03  0.50000000000E+03  0.47000000000E+01 0.  1.
</event>
<event>
 4    1  0.4351282E-004  0.1000000E+04  0.7546771E-02  0.8684367E-01
         11   -1    0    0    0    0  0.00000000000E+00  0.00000000000E+00  0.50000000000E+03  0.50000000000E+03  0.00000000000E+00 0. -1.
        -11   -1    0    0    0    0 -0.00000000000E+00 -0.00000000000E+00 -0.50000000000E+03  0.50000000000E+03  0.00000000000E+00 0.  1.
          5    1    1    2  501    0 -0.27095361481E+03  0.40711124359E+03 -0.10403116824E+03  0.50000000000E+03  0.47000000000E+01 0. -1.
         -5    1    1    2    0  501  0.27095361481E+03 -0.40711124359E+03  0.10403116824E+03  0.50000000000E+03  0.47000000000E+01 0.  1.
</event>
<event>
 4    1  0.4351282E-004  0.1000000E+04  0.7546771E-02  0.8684367E-01
         11   -1    0    0    0    0  0.00000000000E+00  0.00000000000E+00  0.50000000000E+03  0.50000000000E+03  0.00000000000E+00 0. -1.
        -11   -1    0    0    0    0 -0.00000000000E+00 -0.00000000000E+00 -0.50000000000E+03  0.50000000000E+03  0.00000000000E+00 0.  1.
          5    1    1    2  501    0  0.44143419977E+03  0.13537753064E+03  0.19179854397E+03  0.50000000000E+03  0.47000000000E+01 0. -1.
         -5    1    1    2    0  501 -0.44143419977E+03 -0.13537753064E+03 -0.19179854397E+03  0.50000000000E+03  0.47000000000E+01 0.  1.
</event>
<event>
 4    1  0.4351282E-004  0.1000000E+04  0.7546771E-02  0.8684367E-01
         11   -1    0    0    0    0  0.00000000000E+00  0.00000000000E+00  0.50000000000E+03  0.50000000000E+03  0.00000000000E+00 0. -1.
        -11   -1    0    0    0    0 -0.00000000000E+00 -0.00000000000E+00 -0.50000000000E+03  0.50000000000E+03  0.00000000000E+00 0.  1.
          5    1    1    2  501    0  0.19753943358E+03  0.99544874754E+02 -0.44838253767E+03  0.50000000000E+03  0.47000000000E+01 0.  1.
         -5    1    1    2    0  501 -0.19753943358E+03 -0.99544874754E+02  0.44838253767E+03  0.50000000000E+03  0.47000000000E+01 0. -1.
</event>
<event>
 4    1  0.4351282E-004  0.1000000E+04  0.7546771E-02  0.8684367E-01
         11   -1    0    0    0    0  0.00000000000E+00  0.00000000000E+00  0.50000000000E+03  0.50000000000E+03  0.00000000000E+00 0. -1.
        -11   -1    0    0    0    0 -0.00000000000E+00 -0.00000000000E+00 -0.50000000000E+03  0.50000000000E+03  0.00000000000E+00 0.  1.
          5    1    1    2  501    0  0.25471902973E+02 -0.93768046201E+02  0.49044535442E+03  0.50000000000E+03  0.47000000000E+01 0. -1.
         -5    1    1    2    0  501 -0.25471902973E+02  0.93768046201E+02 -0.49044535442E+03  0.50000000000E+03  0.47000000000E+01 0.  1.
</event>
<event>
 4    1  0.4351282E-004  0.1000000E+04  0.7546771E-02  0.8684367E-01
         11   -1    0    0    0    0  0.00000000000E+00  0.00000000000E+00  0.50000000000E+03  0.50000000000E+03  0.00000000000E+00 0. -1.
        -11   -1    0    0    0    0 -0.00000000000E+00 -0.00000000000E+00 -0.50000000000E+03  0.50000000000E+03  0.00000000000E+00 0.  1.
          5    1    1    2  501    0  0.20760191341E+03 -0.34950003751E+03  0.29108259880E+03  0.50000000000E+03  0.47000000000E+01 0. -1.
         -5    1    1    2    0  501 -0.20760191341E+03  0.34950003751E+03 -0.29108259880E+03  0.50000000000E+03  0.47000000000E+01 0.  1.
</event>
<event>
 4    1  0.4351282E-004  0.1000000E+04  0.7546771E-02  0.8684367E-01
         11   -1    0    0    0    0  0.00000000000E+00  0.00000000000E+00  0.50000000000E+03  0.50000000000E+03  0.00000000000E+00 0.  1.
        -11   -1    0    0    0    0 -0.00000000000E+00 -0.00000000000E+00 -0.50000000000E+03  0.50000000000E+03  0.00000000000E+00 0. -1.
          5    1    1    2  501    0 -0.68513066753E+02 -0.40633014680E+03  0.28316016931E+03  0.50000000000E+03  0.47000000000E+01 0.  1.
         -5    1    1    2    0  501  0.68513066753E+02  0.40633014680E+03 -0.28316016931E+03  0.50000000000E+03  0.47000000000E+01 0. -1.
</event>
<event>
 4    1  0.4351282E-004  0.1000000E+04  0.7546771E-02  0.8684367E-01
         11   -1    0    0    0    0  0.00000000000E+00  0.00000000000E+00  0.50000000000E+03  0.50000000000E+03  0.00000000000E+00 0. -1.
        -11   -1    0    0    0    0 -0.00000000000E+00 -0.00000000000E+00 -0.50000000000E+03  0.50000000000E+03  0.00000000000E+00 0.  1.
          5    1    1    2  501    0 -0.22747665387E+03  0.34534965435E+03 -0.28100871549E+03  0.50000000000E+03  0.47000000000E+01 0. -1.
         -5    1    1    2    0  501  0.22747665387E+03 -0.34534965435E+03  0.28100871549E+03  0.50000000000E+03  0.47000000000E+01 0.  1.
</event>
<event>
 4    1  0.4351282E-004  0.1000000E+04  0.7546771E-02  0.8684367E-01
         11   -1    0    0    0    0  0.00000000000E+00  0.00000000000E+00  0.50000000000E+03  0.50000000000E+03  0.00000000000E+00 0. -1.
        -11   -1    0    0    0    0 -0.00000000000E+00 -0.00000000000E+00 -0.50000000000E+03  0.50000000000E+03  0.00000000000E+00 0.  1.
          5    1    1    2  501    0 -0.22386856029E+02  0.27033809406E+02  0.49874433513E+03  0.50000000000E+03  0.47000000000E+01 0. -1.
         -5    1    1    2    0  501  0.22386856029E+02 -0.27033809406E+02 -0.49874433513E+03  0.50000000000E+03  0.47000000000E+01 0.  1.
</event>
<event>
 4    1  0.4351282E-004  0.1000000E+04  0.7546771E-02  0.8684367E-01
         11   -1    0    0    0    0  0.00000000000E+00  0.00000000000E+00  0.50000000000E+03  0.50000000000E+03  0.00000000000E+00 0. -1.
        -11   -1    0    0    0    0 -0.00000000000E+00 -0.00000000000E+00 -0.50000000000E+03  0.50000000000E+03  0.00000000000E+00 0.  1.
          5    1    1    2  501    0  0.43019549526E+03  0.25178958016E+03 -0.38881270329E+02  0.50000000000E+03  0.47000000000E+01 0. -1.
         -5    1    1    2    0  501 -0.43019549526E+03 -0.25178958016E+03  0.38881270329E+02  0.50000000000E+03  0.47000000000E+01 0.  1.
</event>
<event>
 4    1  0.4351282E-004  0.1000000E+04  0.7546771E-02  0.8684367E-01
         11   -1    0    0    0    0  0.00000000000E+00  0.00000000000E+00  0.50000000000E+03  0.50000000000E+03  0.00000000000E+00 0. -1.
        -11   -1    0    0    0    0 -0.00000000000E+00 -0.00000000000E+00 -0.50000000000E+03  0.50000000000E+03  0.00000000000E+00 0.  1.
          5    1    1    2  501    0 -0.88365603431E+02 -0.21442162627E+03  0.44293656015E+03  0.50000000000E+03  0.47000000000E+01 0. -1.
         -5    1    1    2    0  501  0.88365603431E+02  0.21442162627E+03 -0.44293656015E+03  0.50000000000E+03  0.47000000000E+01 0.  1.
</event>
<event>
 4    1  0.4351282E-004  0.1000000E+04  0.7546771E-02  0.8684367E-01
         11   -1    0    0    0    0  0.00000000000E+00  0.00000000000E+00  0.50000000000E+03  0.50000000000E+03  0.00000000000E+00 0. -1.
        -11   -1    0    0    0    0 -0.00000000000E+00 -0.00000000000E+00 -0.50000000000E+03  0.50000000000E+03  0.00000000000E+00 0.  1.
          5    1    1    2  501    0 -0.24885469647E+03  0.62358083454E+02  0.42913951050E+03  0.50000000000E+03  0.47000000000E+01 0. -1.
         -5    1    1    2    0  501  0.24885469647E+03 -0.62358083454E+02 -0.42913951050E+03  0.50000000000E+03  0.47000000000E+01 0.  1.
</event>
<event>
 4    1  0.4351282E-004  0.1000000E+04  0.7546771E-02  0.8684367E-01
         11   -1    0    0    0    0  0.00000000000E+00  0.00000000000E+00  0.50000000000E+03  0.50000000000E+03  0.00000000000E+00 0. -1.
        -11   -1    0    0    0    0 -0.00000000000E+00 -0.00000000000E+00 -0.50000000000E+03  0.50000000000E+03  0.00000000000E+00 0.  1.
          5    1    1    2  501    0 -0.45521825830E+03  0.17007308735E+03  0.11759843651E+03  0.50000000000E+03  0.47000000000E+01 0. -1.
         -5    1    1    2    0  501  0.45521825830E+03 -0.17007308735E+03 -0.11759843651E+03  0.50000000000E+03  0.47000000000E+01 0.  1.
</event>
<event>
 4    1  0.4351282E-004  0.1000000E+04  0.7546771E-02  0.8684367E-01
         11   -1    0    0    0    0  0.00000000000E+00  0.00000000000E+00  0.50000000000E+03  0.50000000000E+03  0.00000000000E+00 0.  1.
        -11   -1    0    0    0    0 -0.00000000000E+00 -0.00000000000E+00 -0.50000000000E+03  0.50000000000E+03  0.00000000000E+00 0. -1.
          5    1    1    2  501    0  0.41217155289E+03  0.51861726979E+01 -0.28295869770E+03  0.50000000000E+03  0.47000000000E+01 0.  1.
         -5    1    1    2    0  501 -0.41217155289E+03 -0.51861726979E+01  0.28295869770E+03  0.50000000000E+03  0.47000000000E+01 0. -1.
</event>
<event>
 4    1  0.4351282E-004  0.1000000E+04  0.7546771E-02  0.8684367E-01
         11   -1    0    0    0    0  0.00000000000E+00  0.00000000000E+00  0.50000000000E+03  0.50000000000E+03  0.00000000000E+00 0. -1.
        -11   -1    0    0    0    0 -0.00000000000E+00 -0.00000000000E+00 -0.50000000000E+03  0.50000000000E+03  0.00000000000E+00 0.  1.
          5    1    1    2  501    0 -0.71954821275E+02 -0.17691416170E+03  0.46206254239E+03  0.50000000000E+03  0.47000000000E+01 0. -1.
         -5    1    1    2    0  501  0.71954821275E+02  0.17691416170E+03 -0.46206254239E+03  0.50000000000E+03  0.47000000000E+01 0.  1.
</event>
<event>
 4    1  0.4351282E-004  0.1000000E+04  0.7546771E-02  0.8684367E-01
         11   -1    0    0    0    0  0.00000000000E+00  0.00000000000E+00  0.50000000000E+03  0.50000000000E+03  0.00000000000E+00 0. -1.
        -11   -1    0    0    0    0 -0.00000000000E+00 -0.00000000000E+00 -0.50000000000E+03  0.50000000000E+03  0.00000000000E+00 0.  1.
          5    1    1    2  501    0 -0.42484058665E+03  0.25219588417E+03 -0.76717807180E+02  0.50000000000E+03  0.47000000000E+01 0.  1.
         -5    1    1    2    0  501  0.42484058665E+03 -0.25219588417E+03  0.76717807180E+02  0.50000000000E+03  0.47000000000E+01 0. -1.
</event>
<event>
 4    1  0.4351282E-004  0.1000000E+04  0.7546771E-02  0.8684367E-01
         11   -1    0    0    0    0  0.00000000000E+00  0.00000000000E+00  0.50000000000E+03  0.50000000000E+03  0.00000000000E+00 0.  1.
        -11   -1    0    0    0    0 -0.00000000000E+00 -0.00000000000E+00 -0.50000000000E+03  0.50000000000E+03  0.00000000000E+00 0. -1.
          5    1    1    2  501    0  0.39473161735E+03 -0.18903277267E+03 -0.24172602491E+03  0.50000000000E+03  0.47000000000E+01 0. -1.
         -5    1    1    2    0  501 -0.39473161735E+03  0.18903277267E+03  0.24172602491E+03  0.50000000000E+03  0.47000000000E+01 0.  1.
</event>
<event>
 4    1  0.4351282E-004  0.1000000E+04  0.7546771E-02  0.8684367E-01
         11   -1    0    0    0    0  0.00000000000E+00  0.00000000000E+00  0.50000000000E+03  0.50000000000E+03  0.00000000000E+00 0. -1.
        -11   -1    0    0    0    0 -0.00000000000E+00 -0.00000000000E+00 -0.50000000000E+03  0.50000000000E+03  0.00000000000E+00 0.  1.
          5    1    1    2  501    0 -0.51189056302E+00  0.11355546740E+02  0.49984867663E+03  0.50000000000E+03  0.47000000000E+01 0. -1.
         -5    1    1    2    0  501  0.51189056302E+00 -0.11355546740E+02 -0.49984867663E+03  0.50000000000E+03  0.47000000000E+01 0.  1.
</event>
<event>
 4    1  0.4351282E-004  0.1000000E+04  0.7546771E-02  0.8684367E-01
         11   -1    0    0    0    0  0.00000000000E+00  0.00000000000E+00  0.50000000000E+03  0.50000000000E+03  0.00000000000E+00 0. -1.
        -11   -1    0    0    0    0 -0.00000000000E+00 -0.00000000000E+00 -0.50000000000E+03  0.50000000000E+03  0.00000000000E+00 0.  1.
          5    1    1    2  501    0  0.67286840538E+02 -0.46914239564E+03  0.15923505802E+03  0.50000000000E+03  0.47000000000E+01 0. -1.
         -5    1    1    2    0  501 -0.67286840538E+02  0.46914239564E+03 -0.15923505802E+03  0.50000000000E+03  0.47000000000E+01 0.  1.
</event>
<event>
 4    1  0.4351282E-004  0.1000000E+04  0.7546771E-02  0.8684367E-01
         11   -1    0    0    0    0  0.00000000000E+00  0.00000000000E+00  0.50000000000E+03  0.50000000000E+03  0.00000000000E+00 0. -1.
        -11   -1    0    0    0    0 -0.00000000000E+00 -0.00000000000E+00 -0.50000000000E+03  0.50000000000E+03  0.00000000000E+00 0.  1.
          5    1    1    2  501    0 -0.21637786787E+03 -0.17309452719E+03  0.41616921192E+03  0.50000000000E+03  0.47000000000E+01 0. -1.
         -5    1    1    2    0  501  0.21637786787E+03  0.17309452719E+03 -0.41616921192E+03  0.50000000000E+03  0.47000000000E+01 0.  1.
</event>
<event>
 4    1  0.4351282E-004  0.1000000E+04  0.7546771E-02  0.8684367E-01
         11   -1    0    0    0    0  0.00000000000E+00  0.00000000000E+00  0.50000000000E+03  0.50000000000E+03  0.00000000000E+00 0. -1.
        -11   -1    0    0    0    0 -0.00000000000E+00 -0.00000000000E+00 -0.50000000000E+03  0.50000000000E+03  0.00000000000E+00 0.  1.
          5    1    1    2  501    0  0.21034647433E+03 -0.13152220558E+03  0.43409005998E+03  0.50000000000E+03  0.47000000000E+01 0. -1.
         -5    1    1    2    0  501 -0.21034647433E+03  0.13152220558E+03 -0.43409005998E+03  0.50000000000E+03  0.47000000000E+01 0.  1.
</event>
<event>
 4    1  0.4351282E-004  0.1000000E+04  0.7546771E-02  0.8684367E-01
         11   -1    0    0    0    0  0.00000000000E+00  0.00000000000E+00  0.50000000000E+03  0.50000000000E+03  0.00000000000E+00 0. -1.
        -11   -1    0    0    0    0 -0.00000000000E+00 -0.00000000000E+00 -0.50000000000E+03  0.50000000000E+03  0.00000000000E+00 0.  1.
          5    1    1    2  501    0 -0.63789613984E+02 -0.48624056040E+03  0.97359707133E+02  0.50000000000E+03  0.47000000000E+01 0. -1.
         -5    1    1    2    0  501  0.63789613984E+02  0.48624056040E+03 -0.97359707133E+02  0.50000000000E+03  0.47000000000E+01 0.  1.
</event>
<event>
 4    1  0.4351282E-004  0.1000000E+04  0.7546771E-02  0.8684367E-01
         11   -1    0    0    0    0  0.00000000000E+00  0.00000000000E+00  0.50000000000E+03  0.50000000000E+03  0.00000000000E+00 0. -1.
        -11   -1    0    0    0    0 -0.00000000000E+00 -0.00000000000E+00 -0.50000000000E+03  0.50000000000E+03  0.00000000000E+00 0.  1.
          5    1    1    2  501    0 -0.46067786374E+03  0.18838223552E+03 -0.47601987388E+02  0.50000000000E+03  0.47000000000E+01 0. -1.
         -5    1    1    2    0  501  0.46067786374E+03 -0.18838223552E+03  0.47601987388E+02  0.50000000000E+03  0.47000000000E+01 0.  1.
</event>
<event>
 4    1  0.4351282E-004  0.1000000E+04  0.7546771E-02  0.8684367E-01
         11   -1    0    0    0    0  0.00000000000E+00  0.00000000000E+00  0.50000000000E+03  0.50000000000E+03  0.00000000000E+00 0.  1.
        -11   -1    0    0    0    0 -0.00000000000E+00 -0.00000000000E+00 -0.50000000000E+03  0.50000000000E+03  0.00000000000E+00 0. -1.
          5    1    1    2  501    0  0.25935926282E+03  0.11355976682E+03  0.41208598878E+03  0.50000000000E+03  0.47000000000E+01 0.  1.
         -5    1    1    2    0  501 -0.25935926282E+03 -0.11355976682E+03 -0.41208598878E+03  0.50000000000E+03  0.47000000000E+01 0. -1.
</event>
<event>
 4    1  0.4351282E-004  0.1000000E+04  0.7546771E-02  0.8684367E-01
         11   -1    0    0    0    0  0.00000000000E+00  0.00000000000E+00  0.50000000000E+03  0.50000000000E+03  0.00000000000E+00 0. -1.
        -11   -1    0    0    0    0 -0.00000000000E+00 -0.00000000000E+00 -0.50000000000E+03  0.50000000000E+03  0.00000000000E+00 0.  1.
          5    1    1    2  501    0  0.14641677245E+03  0.68858842187E+02  0.47307346004E+03  0.50000000000E+03  0.47000000000E+01 0. -1.
         -5    1    1    2    0  501 -0.14641677245E+03 -0.68858842187E+02 -0.47307346004E+03  0.50000000000E+03  0.47000000000E+01 0.  1.
</event>
<event>
 4    1  0.4351282E-004  0.1000000E+04  0.7546771E-02  0.8684367E-01
         11   -1    0    0    0    0  0.00000000000E+00  0.00000000000E+00  0.50000000000E+03  0.50000000000E+03  0.00000000000E+00 0. -1.
        -11   -1    0    0    0    0 -0.00000000000E+00 -0.00000000000E+00 -0.50000000000E+03  0.50000000000E+03  0.00000000000E+00 0.  1.
          5    1    1    2  501    0 -0.42965240086E+03 -0.25335978768E+03 -0.34431706633E+02  0.50000000000E+03  0.47000000000E+01 0. -1.
         -5    1    1    2    0  501  0.42965240086E+03  0.25335978768E+03  0.34431706633E+02  0.50000000000E+03  0.47000000000E+01 0.  1.
</event>
<event>
 4    1  0.4351282E-004  0.1000000E+04  0.7546771E-02  0.8684367E-01
         11   -1    0    0    0    0  0.00000000000E+00  0.00000000000E+00  0.50000000000E+03  0.50000000000E+03  0.00000000000E+00 0. -1.
        -11   -1    0    0    0    0 -0.00000000000E+00 -0.00000000000E+00 -0.50000000000E+03  0.50000000000E+03  0.00000000000E+00 0.  1.
          5    1    1    2  501    0 -0.23794052770E+02 -0.84776115144E+02  0.49216335028E+03  0.50000000000E+03  0.47000000000E+01 0. -1.
         -5    1    1    2    0  501  0.23794052770E+02  0.84776115144E+02 -0.49216335028E+03  0.50000000000E+03  0.47000000000E+01 0.  1.
</event>
<event>
 4    1  0.4351282E-004  0.1000000E+04  0.7546771E-02  0.8684367E-01
         11   -1    0    0    0    0  0.00000000000E+00  0.00000000000E+00  0.50000000000E+03  0.50000000000E+03  0.00000000000E+00 0. -1.
        -11   -1    0    0    0    0 -0.00000000000E+00 -0.00000000000E+00 -0.50000000000E+03  0.50000000000E+03  0.00000000000E+00 0.  1.
          5    1    1    2  501    0 -0.11651064821E+01  0.47619828985E+03  0.15235399986E+03  0.50000000000E+03  0.47000000000E+01 0. -1.
         -5    1    1    2    0  501  0.11651064821E+01 -0.47619828985E+03 -0.15235399986E+03  0.50000000000E+03  0.47000000000E+01 0.  1.
</event>
<event>
 4    1  0.4351282E-004  0.1000000E+04  0.7546771E-02  0.8684367E-01
         11   -1    0    0    0    0  0.00000000000E+00  0.00000000000E+00  0.50000000000E+03  0.50000000000E+03  0.00000000000E+00 0. -1.
        -11   -1    0    0    0    0 -0.00000000000E+00 -0.00000000000E+00 -0.50000000000E+03  0.50000000000E+03  0.00000000000E+00 0.  1.
          5    1    1    2  501    0  0.87528647675E+02  0.13853951014E+03  0.47235944996E+03  0.50000000000E+03  0.47000000000E+01 0. -1.
         -5    1    1    2    0  501 -0.87528647675E+02 -0.13853951014E+03 -0.47235944996E+03  0.50000000000E+03  0.47000000000E+01 0.  1.
</event>
<event>
 4    1  0.4351282E-004  0.1000000E+04  0.7546771E-02  0.8684367E-01
         11   -1    0    0    0    0  0.00000000000E+00  0.00000000000E+00  0.50000000000E+03  0.50000000000E+03  0.00000000000E+00 0. -1.
        -11   -1    0    0    0    0 -0.00000000000E+00 -0.00000000000E+00 -0.50000000000E+03  0.50000000000E+03  0.00000000000E+00 0.  1.
          5    1    1    2  501    0  0.38068287001E+03  0.25018384249E+03 -0.20607403387E+03  0.50000000000E+03  0.47000000000E+01 0. -1.
         -5    1    1    2    0  501 -0.38068287001E+03 -0.25018384249E+03  0.20607403387E+03  0.50000000000E+03  0.47000000000E+01 0.  1.
</event>
<event>
 4    1  0.4351282E-004  0.1000000E+04  0.7546771E-02  0.8684367E-01
         11   -1    0    0    0    0  0.00000000000E+00  0.00000000000E+00  0.50000000000E+03  0.50000000000E+03  0.00000000000E+00 0. -1.
        -11   -1    0    0    0    0 -0.00000000000E+00 -0.00000000000E+00 -0.50000000000E+03  0.50000000000E+03  0.00000000000E+00 0.  1.
          5    1    1    2  501    0  0.41740432462E+03 -0.63548691706E+02  0.26779302376E+03  0.50000000000E+03  0.47000000000E+01 0. -1.
         -5    1    1    2    0  501 -0.41740432462E+03  0.63548691706E+02 -0.26779302376E+03  0.50000000000E+03  0.47000000000E+01 0.  1.
</event>
<event>
 4    1  0.4351282E-004  0.1000000E+04  0.7546771E-02  0.8684367E-01
         11   -1    0    0    0    0  0.00000000000E+00  0.00000000000E+00  0.50000000000E+03  0.50000000000E+03  0.00000000000E+00 0. -1.
        -11   -1    0    0    0    0 -0.00000000000E+00 -0.00000000000E+00 -0.50000000000E+03  0.50000000000E+03  0.00000000000E+00 0.  1.
          5    1    1    2  501    0 -0.90472954909E+02  0.22747514907E+03  0.43594450448E+03  0.50000000000E+03  0.47000000000E+01 0. -1.
         -5    1    1    2    0  501  0.90472954909E+02 -0.22747514907E+03 -0.43594450448E+03  0.50000000000E+03  0.47000000000E+01 0.  1.
</event>
<event>
 4    1  0.4351282E-004  0.1000000E+04  0.7546771E-02  0.8684367E-01
         11   -1    0    0    0    0  0.00000000000E+00  0.00000000000E+00  0.50000000000E+03  0.50000000000E+03  0.00000000000E+00 0.  1.
        -11   -1    0    0    0    0 -0.00000000000E+00 -0.00000000000E+00 -0.50000000000E+03  0.50000000000E+03  0.00000000000E+00 0. -1.
          5    1    1    2  501    0 -0.40201477088E+03  0.19649876880E+03  0.22304768068E+03  0.50000000000E+03  0.47000000000E+01 0.  1.
         -5    1    1    2    0  501  0.40201477088E+03 -0.19649876880E+03 -0.22304768068E+03  0.50000000000E+03  0.47000000000E+01 0. -1.
</event>
<event>
 4    1  0.4351282E-004  0.1000000E+04  0.7546771E-02  0.8684367E-01
         11   -1    0    0    0    0  0.00000000000E+00  0.00000000000E+00  0.50000000000E+03  0.50000000000E+03  0.00000000000E+00 0. -1.
        -11   -1    0    0    0    0 -0.00000000000E+00 -0.00000000000E+00 -0.50000000000E+03  0.50000000000E+03  0.00000000000E+00 0.  1.
          5    1    1    2  501    0  0.32854022785E+03  0.25442227100E+03  0.27804412725E+03  0.50000000000E+03  0.47000000000E+01 0. -1.
         -5    1    1    2    0  501 -0.32854022785E+03 -0.25442227100E+03 -0.27804412725E+03  0.50000000000E+03  0.47000000000E+01 0.  1.
</event>
<event>
 4    1  0.4351282E-004  0.1000000E+04  0.7546771E-02  0.8684367E-01
         11   -1    0    0    0    0  0.00000000000E+00  0.00000000000E+00  0.50000000000E+03  0.50000000000E+03  0.00000000000E+00 0. -1.
        -11   -1    0    0    0    0 -0.00000000000E+00 -0.00000000000E+00 -0.50000000000E+03  0.50000000000E+03  0.00000000000E+00 0.  1.
          5    1    1    2  501    0  0.24662126230E+03 -0.43486692182E+03  0.68281244347E+01  0.50000000000E+03  0.47000000000E+01 0. -1.
         -5    1    1    2    0  501 -0.24662126230E+03  0.43486692182E+03 -0.68281244347E+01  0.50000000000E+03  0.47000000000E+01 0.  1.
</event>
<event>
 4    1  0.4351282E-004  0.1000000E+04  0.7546771E-02  0.8684367E-01
         11   -1    0    0    0    0  0.00000000000E+00  0.00000000000E+00  0.50000000000E+03  0.50000000000E+03  0.00000000000E+00 0.  1.
        -11   -1    0    0    0    0 -0.00000000000E+00 -0.00000000000E+00 -0.50000000000E+03  0.50000000000E+03  0.00000000000E+00 0. -1.
          5    1    1    2  501    0  0.10932008963E+03 -0.10248584041E+03 -0.47699442399E+03  0.50000000000E+03  0.47000000000E+01 0. -1.
         -5    1    1    2    0  501 -0.10932008963E+03  0.10248584041E+03  0.47699442399E+03  0.50000000000E+03  0.47000000000E+01 0.  1.
</event>
<event>
 4    1  0.4351282E-004  0.1000000E+04  0.7546771E-02  0.8684367E-01
         11   -1    0    0    0    0  0.00000000000E+00  0.00000000000E+00  0.50000000000E+03  0.50000000000E+03  0.00000000000E+00 0. -1.
        -11   -1    0    0    0    0 -0.00000000000E+00 -0.00000000000E+00 -0.50000000000E+03  0.50000000000E+03  0.00000000000E+00 0.  1.
          5    1    1    2  501    0 -0.17143574798E+03 -0.15504568826E+01  0.46966508322E+03  0.50000000000E+03  0.47000000000E+01 0. -1.
         -5    1    1    2    0  501  0.17143574798E+03  0.15504568826E+01 -0.46966508322E+03  0.50000000000E+03  0.47000000000E+01 0.  1.
</event>
<event>
 4    1  0.4351282E-004  0.1000000E+04  0.7546771E-02  0.8684367E-01
         11   -1    0    0    0    0  0.00000000000E+00  0.00000000000E+00  0.50000000000E+03  0.50000000000E+03  0.00000000000E+00 0. -1.
        -11   -1    0    0    0    0 -0.00000000000E+00 -0.00000000000E+00 -0.50000000000E+03  0.50000000000E+03  0.00000000000E+00 0.  1.
          5    1    1    2  501    0  0.30613366595E+03 -0.37915732404E+03 -0.11180255902E+03  0.50000000000E+03  0.47000000000E+01 0. -1.
         -5    1    1    2    0  501 -0.30613366595E+03  0.37915732404E+03  0.11180255902E+03  0.50000000000E+03  0.47000000000E+01 0.  1.
</event>
<event>
 4    1  0.4351282E-004  0.1000000E+04  0.7546771E-02  0.8684367E-01
         11   -1    0    0    0    0  0.00000000000E+00  0.00000000000E+00  0.50000000000E+03  0.50000000000E+03  0.00000000000E+00 0. -1.
        -11   -1    0    0    0    0 -0.00000000000E+00 -0.00000000000E+00 -0.50000000000E+03  0.50000000000E+03  0.00000000000E+00 0.  1.
          5    1    1    2  501    0  0.51056068867E+02  0.40950127323E+02  0.49567557425E+03  0.50000000000E+03  0.47000000000E+01 0. -1.
         -5    1    1    2    0  501 -0.51056068867E+02 -0.40950127323E+02 -0.49567557425E+03  0.50000000000E+03  0.47000000000E+01 0.  1.
</event>
<event>
 4    1  0.4351282E-004  0.1000000E+04  0.7546771E-02  0.8684367E-01
         11   -1    0    0    0    0  0.00000000000E+00  0.00000000000E+00  0.50000000000E+03  0.50000000000E+03  0.00000000000E+00 0.  1.
        -11   -1    0    0    0    0 -0.00000000000E+00 -0.00000000000E+00 -0.50000000000E+03  0.50000000000E+03  0.00000000000E+00 0. -1.
          5    1    1    2  501    0 -0.22741729388E+03 -0.43702240519E+03 -0.85268410382E+02  0.50000000000E+03  0.47000000000E+01 0.  1.
         -5    1    1    2    0  501  0.22741729388E+03  0.43702240519E+03  0.85268410382E+02  0.50000000000E+03  0.47000000000E+01 0. -1.
</event>
<event>
 4    1  0.4351282E-004  0.1000000E+04  0.7546771E-02  0.8684367E-01
         11   -1    0    0    0    0  0.00000000000E+00  0.00000000000E+00  0.50000000000E+03  0.50000000000E+03  0.00000000000E+00 0. -1.
        -11   -1    0    0    0    0 -0.00000000000E+00 -0.00000000000E+00 -0.50000000000E+03  0.50000000000E+03  0.00000000000E+00 0.  1.
          5    1    1    2  501    0  0.42820397453E+03  0.15329740067E+03  0.20765156668E+03  0.50000000000E+03  0.47000000000E+01 0. -1.
         -5    1    1    2    0  501 -0.42820397453E+03 -0.15329740067E+03 -0.20765156668E+03  0.50000000000E+03  0.47000000000E+01 0.  1.
</event>
<event>
 4    1  0.4351282E-004  0.1000000E+04  0.7546771E-02  0.8684367E-01
         11   -1    0    0    0    0  0.00000000000E+00  0.00000000000E+00  0.50000000000E+03  0.50000000000E+03  0.00000000000E+00 0.  1.
        -11   -1    0    0    0    0 -0.00000000000E+00 -0.00000000000E+00 -0.50000000000E+03  0.50000000000E+03  0.00000000000E+00 0. -1.
          5    1    1    2  501    0 -0.18926981405E+03 -0.12110409652E+03  0.44664151766E+03  0.50000000000E+03  0.47000000000E+01 0.  1.
         -5    1    1    2    0  501  0.18926981405E+03  0.12110409652E+03 -0.44664151766E+03  0.50000000000E+03  0.47000000000E+01 0. -1.
</event>
<event>
 4    1  0.4351282E-004  0.1000000E+04  0.7546771E-02  0.8684367E-01
         11   -1    0    0    0    0  0.00000000000E+00  0.00000000000E+00  0.50000000000E+03  0.50000000000E+03  0.00000000000E+00 0. -1.
        -11   -1    0    0    0    0 -0.00000000000E+00 -0.00000000000E+00 -0.50000000000E+03  0.50000000000E+03  0.00000000000E+00 0.  1.
          5    1    1    2  501    0 -0.30044244938E+03  0.21158574954E+03 -0.33903350159E+03  0.50000000000E+03  0.47000000000E+01 0.  1.
         -5    1    1    2    0  501  0.30044244938E+03 -0.21158574954E+03  0.33903350159E+03  0.50000000000E+03  0.47000000000E+01 0. -1.
</event>
<event>
 4    1  0.4351282E-004  0.1000000E+04  0.7546771E-02  0.8684367E-01
         11   -1    0    0    0    0  0.00000000000E+00  0.00000000000E+00  0.50000000000E+03  0.50000000000E+03  0.00000000000E+00 0. -1.
        -11   -1    0    0    0    0 -0.00000000000E+00 -0.00000000000E+00 -0.50000000000E+03  0.50000000000E+03  0.00000000000E+00 0.  1.
          5    1    1    2  501    0 -0.28845516005E+03  0.22447868455E+03 -0.34114637741E+03  0.50000000000E+03  0.47000000000E+01 0.  1.
         -5    1    1    2    0  501  0.28845516005E+03 -0.22447868455E+03  0.34114637741E+03  0.50000000000E+03  0.47000000000E+01 0. -1.
</event>
<event>
 4    1  0.4351282E-004  0.1000000E+04  0.7546771E-02  0.8684367E-01
         11   -1    0    0    0    0  0.00000000000E+00  0.00000000000E+00  0.50000000000E+03  0.50000000000E+03  0.00000000000E+00 0. -1.
        -11   -1    0    0    0    0 -0.00000000000E+00 -0.00000000000E+00 -0.50000000000E+03  0.50000000000E+03  0.00000000000E+00 0.  1.
          5    1    1    2  501    0 -0.43821197179E+01 -0.30591415326E+03  0.39544309055E+03  0.50000000000E+03  0.47000000000E+01 0. -1.
         -5    1    1    2    0  501  0.43821197179E+01  0.30591415326E+03 -0.39544309055E+03  0.50000000000E+03  0.47000000000E+01 0.  1.
</event>
<event>
 4    1  0.4351282E-004  0.1000000E+04  0.7546771E-02  0.8684367E-01
         11   -1    0    0    0    0  0.00000000000E+00  0.00000000000E+00  0.50000000000E+03  0.50000000000E+03  0.00000000000E+00 0. -1.
        -11   -1    0    0    0    0 -0.00000000000E+00 -0.00000000000E+00 -0.50000000000E+03  0.50000000000E+03  0.00000000000E+00 0.  1.
          5    1    1    2  501    0  0.46025457847E+01 -0.19881075679E+03  0.45872759843E+03  0.50000000000E+03  0.47000000000E+01 0. -1.
         -5    1    1    2    0  501 -0.46025457847E+01  0.19881075679E+03 -0.45872759843E+03  0.50000000000E+03  0.47000000000E+01 0.  1.
</event>
<event>
 4    1  0.4351282E-004  0.1000000E+04  0.7546771E-02  0.8684367E-01
         11   -1    0    0    0    0  0.00000000000E+00  0.00000000000E+00  0.50000000000E+03  0.50000000000E+03  0.00000000000E+00 0. -1.
        -11   -1    0    0    0    0 -0.00000000000E+00 -0.00000000000E+00 -0.50000000000E+03  0.50000000000E+03  0.00000000000E+00 0.  1.
          5    1    1    2  501    0  0.20154415308E+03 -0.38209528680E+03  0.25171622149E+03  0.50000000000E+03  0.47000000000E+01 0. -1.
         -5    1    1    2    0  501 -0.20154415308E+03  0.38209528680E+03 -0.25171622149E+03  0.50000000000E+03  0.47000000000E+01 0.  1.
</event>
<event>
 4    1  0.4351282E-004  0.1000000E+04  0.7546771E-02  0.8684367E-01
         11   -1    0    0    0    0  0.00000000000E+00  0.00000000000E+00  0.50000000000E+03  0.50000000000E+03  0.00000000000E+00 0. -1.
        -11   -1    0    0    0    0 -0.00000000000E+00 -0.00000000000E+00 -0.50000000000E+03  0.50000000000E+03  0.00000000000E+00 0.  1.
          5    1    1    2  501    0  0.43456674665E+02 -0.36876104044E+03  0.33482043319E+03  0.50000000000E+03  0.47000000000E+01 0. -1.
         -5    1    1    2    0  501 -0.43456674665E+02  0.36876104044E+03 -0.33482043319E+03  0.50000000000E+03  0.47000000000E+01 0.  1.
</event>
<event>
 4    1  0.4351282E-004  0.1000000E+04  0.7546771E-02  0.8684367E-01
         11   -1    0    0    0    0  0.00000000000E+00  0.00000000000E+00  0.50000000000E+03  0.50000000000E+03  0.00000000000E+00 0. -1.
        -11   -1    0    0    0    0 -0.00000000000E+00 -0.00000000000E+00 -0.50000000000E+03  0.50000000000E+03  0.00000000000E+00 0.  1.
          5    1    1    2  501    0  0.36908884213E+03  0.18409131702E+03  0.28259816633E+03  0.50000000000E+03  0.47000000000E+01 0. -1.
         -5    1    1    2    0  501 -0.36908884213E+03 -0.18409131702E+03 -0.28259816633E+03  0.50000000000E+03  0.47000000000E+01 0.  1.
</event>
<event>
 4    1  0.4351282E-004  0.1000000E+04  0.7546771E-02  0.8684367E-01
         11   -1    0    0    0    0  0.00000000000E+00  0.00000000000E+00  0.50000000000E+03  0.50000000000E+03  0.00000000000E+00 0.  1.
        -11   -1    0    0    0    0 -0.00000000000E+00 -0.00000000000E+00 -0.50000000000E+03  0.50000000000E+03  0.00000000000E+00 0. -1.
          5    1    1    2  501    0 -0.26444573328E+01 -0.13235047329E+03 -0.48213511495E+03  0.50000000000E+03  0.47000000000E+01 0. -1.
         -5    1    1    2    0  501  0.26444573328E+01  0.13235047329E+03  0.48213511495E+03  0.50000000000E+03  0.47000000000E+01 0.  1.
</event>
<event>
 4    1  0.4351282E-004  0.1000000E+04  0.7546771E-02  0.8684367E-01
         11   -1    0    0    0    0  0.00000000000E+00  0.00000000000E+00  0.50000000000E+03  0.50000000000E+03  0.00000000000E+00 0. -1.
        -11   -1    0    0    0    0 -0.00000000000E+00 -0.00000000000E+00 -0.50000000000E+03  0.50000000000E+03  0.00000000000E+00 0.  1.
          5    1    1    2  501    0 -0.45899319481E+03 -0.17827241811E+03  0.86730052779E+02  0.50000000000E+03  0.47000000000E+01 0. -1.
         -5    1    1    2    0  501  0.45899319481E+03  0.17827241811E+03 -0.86730052779E+02  0.50000000000E+03  0.47000000000E+01 0.  1.
</event>
<event>
 4    1  0.4351282E-004  0.1000000E+04  0.7546771E-02  0.8684367E-01
         11   -1    0    0    0    0  0.00000000000E+00  0.00000000000E+00  0.50000000000E+03  0.50000000000E+03  0.00000000000E+00 0.  1.
        -11   -1    0    0    0    0 -0.00000000000E+00 -0.00000000000E+00 -0.50000000000E+03  0.50000000000E+03  0.00000000000E+00 0. -1.
          5    1    1    2  501    0  0.41445387403E+03  0.17468211222E+03  0.21838510933E+03  0.50000000000E+03  0.47000000000E+01 0.  1.
         -5    1    1    2    0  501 -0.41445387403E+03 -0.17468211222E+03 -0.21838510933E+03  0.50000000000E+03  0.47000000000E+01 0. -1.
</event>
<event>
 4    1  0.4351282E-004  0.1000000E+04  0.7546771E-02  0.8684367E-01
         11   -1    0    0    0    0  0.00000000000E+00  0.00000000000E+00  0.50000000000E+03  0.50000000000E+03  0.00000000000E+00 0. -1.
        -11   -1    0    0    0    0 -0.00000000000E+00 -0.00000000000E+00 -0.50000000000E+03  0.50000000000E+03  0.00000000000E+00 0.  1.
          5    1    1    2  501    0 -0.74756507721E+02 -0.47891299460E+03  0.12260390760E+03  0.50000000000E+03  0.47000000000E+01 0. -1.
         -5    1    1    2    0  501  0.74756507721E+02  0.47891299460E+03 -0.12260390760E+03  0.50000000000E+03  0.47000000000E+01 0.  1.
</event>
<event>
 4    1  0.4351282E-004  0.1000000E+04  0.7546771E-02  0.8684367E-01
         11   -1    0    0    0    0  0.00000000000E+00  0.00000000000E+00  0.50000000000E+03  0.50000000000E+03  0.00000000000E+00 0. -1.
        -11   -1    0    0    0    0 -0.00000000000E+00 -0.00000000000E+00 -0.50000000000E+03  0.50000000000E+03  0.00000000000E+00 0.  1.
          5    1    1    2  501    0  0.56636658270E+02  0.35574972020E+03  0.34671650598E+03  0.50000000000E+03  0.47000000000E+01 0. -1.
         -5    1    1    2    0  501 -0.56636658270E+02 -0.35574972020E+03 -0.34671650598E+03  0.50000000000E+03  0.47000000000E+01 0.  1.
</event>
<event>
 4    1  0.4351282E-004  0.1000000E+04  0.7546771E-02  0.8684367E-01
         11   -1    0    0    0    0  0.00000000000E+00  0.00000000000E+00  0.50000000000E+03  0.50000000000E+03  0.00000000000E+00 0. -1.
        -11   -1    0    0    0    0 -0.00000000000E+00 -0.00000000000E+00 -0.50000000000E+03  0.50000000000E+03  0.00000000000E+00 0.  1.
          5    1    1    2  501    0 -0.23875018415E+03  0.24632711915E+03  0.36372958354E+03  0.50000000000E+03  0.47000000000E+01 0. -1.
         -5    1    1    2    0  501  0.23875018415E+03 -0.24632711915E+03 -0.36372958354E+03  0.50000000000E+03  0.47000000000E+01 0.  1.
</event>
<event>
 4    1  0.4351282E-004  0.1000000E+04  0.7546771E-02  0.8684367E-01
         11   -1    0    0    0    0  0.00000000000E+00  0.00000000000E+00  0.50000000000E+03  0.50000000000E+03  0.00000000000E+00 0. -1.
        -11   -1    0    0    0    0 -0.00000000000E+00 -0.00000000000E+00 -0.50000000000E+03  0.50000000000E+03  0.00000000000E+00 0.  1.
          5    1    1    2  501    0  0.47305924946E+03  0.27810286737E+02 -0.15943476550E+03  0.50000000000E+03  0.47000000000E+01 0.  1.
         -5    1    1    2    0  501 -0.47305924946E+03 -0.27810286737E+02  0.15943476550E+03  0.50000000000E+03  0.47000000000E+01 0. -1.
</event>
<event>
 4    1  0.4351282E-004  0.1000000E+04  0.7546771E-02  0.8684367E-01
         11   -1    0    0    0    0  0.00000000000E+00  0.00000000000E+00  0.50000000000E+03  0.50000000000E+03  0.00000000000E+00 0. -1.
        -11   -1    0    0    0    0 -0.00000000000E+00 -0.00000000000E+00 -0.50000000000E+03  0.50000000000E+03  0.00000000000E+00 0.  1.
          5    1    1    2  501    0 -0.29528340084E+03 -0.13504022667E+03  0.38019700205E+03  0.50000000000E+03  0.47000000000E+01 0. -1.
         -5    1    1    2    0  501  0.29528340084E+03  0.13504022667E+03 -0.38019700205E+03  0.50000000000E+03  0.47000000000E+01 0.  1.
</event>
<event>
 4    1  0.4351282E-004  0.1000000E+04  0.7546771E-02  0.8684367E-01
         11   -1    0    0    0    0  0.00000000000E+00  0.00000000000E+00  0.50000000000E+03  0.50000000000E+03  0.00000000000E+00 0.  1.
        -11   -1    0    0    0    0 -0.00000000000E+00 -0.00000000000E+00 -0.50000000000E+03  0.50000000000E+03  0.00000000000E+00 0. -1.
          5    1    1    2  501    0  0.16414666951E+03  0.23087388366E+03  0.41198426030E+03  0.50000000000E+03  0.47000000000E+01 0.  1.
         -5    1    1    2    0  501 -0.16414666951E+03 -0.23087388366E+03 -0.41198426030E+03  0.50000000000E+03  0.47000000000E+01 0. -1.
</event>
<event>
 4    1  0.4351282E-004  0.1000000E+04  0.7546771E-02  0.8684367E-01
         11   -1    0    0    0    0  0.00000000000E+00  0.00000000000E+00  0.50000000000E+03  0.50000000000E+03  0.00000000000E+00 0. -1.
        -11   -1    0    0    0    0 -0.00000000000E+00 -0.00000000000E+00 -0.50000000000E+03  0.50000000000E+03  0.00000000000E+00 0.  1.
          5    1    1    2  501    0 -0.26872548426E+03  0.32490909016E+03  0.26869798518E+03  0.50000000000E+03  0.47000000000E+01 0. -1.
         -5    1    1    2    0  501  0.26872548426E+03 -0.32490909016E+03 -0.26869798518E+03  0.50000000000E+03  0.47000000000E+01 0.  1.
</event>
<event>
 4    1  0.4351282E-004  0.1000000E+04  0.7546771E-02  0.8684367E-01
         11   -1    0    0    0    0  0.00000000000E+00  0.00000000000E+00  0.50000000000E+03  0.50000000000E+03  0.00000000000E+00 0. -1.
        -11   -1    0    0    0    0 -0.00000000000E+00 -0.00000000000E+00 -0.50000000000E+03  0.50000000000E+03  0.00000000000E+00 0.  1.
          5    1    1    2  501    0 -0.47497601339E+03 -0.14861174151E+02  0.15541828145E+03  0.50000000000E+03  0.47000000000E+01 0. -1.
         -5    1    1    2    0  501  0.47497601339E+03  0.14861174151E+02 -0.15541828145E+03  0.50000000000E+03  0.47000000000E+01 0.  1.
</event>
<event>
 4    1  0.4351282E-004  0.1000000E+04  0.7546771E-02  0.8684367E-01
         11   -1    0    0    0    0  0.00000000000E+00  0.00000000000E+00  0.50000000000E+03  0.50000000000E+03  0.00000000000E+00 0. -1.
        -11   -1    0    0    0    0 -0.00000000000E+00 -0.00000000000E+00 -0.50000000000E+03  0.50000000000E+03  0.00000000000E+00 0.  1.
          5    1    1    2  501    0 -0.33693584098E+03  0.20076218324E+02 -0.36884833539E+03  0.50000000000E+03  0.47000000000E+01 0. -1.
         -5    1    1    2    0  501  0.33693584098E+03 -0.20076218324E+02  0.36884833539E+03  0.50000000000E+03  0.47000000000E+01 0.  1.
</event>
<event>
 4    1  0.4351282E-004  0.1000000E+04  0.7546771E-02  0.8684367E-01
         11   -1    0    0    0    0  0.00000000000E+00  0.00000000000E+00  0.50000000000E+03  0.50000000000E+03  0.00000000000E+00 0.  1.
        -11   -1    0    0    0    0 -0.00000000000E+00 -0.00000000000E+00 -0.50000000000E+03  0.50000000000E+03  0.00000000000E+00 0. -1.
          5    1    1    2  501    0 -0.99547226905E+02 -0.47260657582E+03 -0.12927213196E+03  0.50000000000E+03  0.47000000000E+01 0.  1.
         -5    1    1    2    0  501  0.99547226905E+02  0.47260657582E+03  0.12927213196E+03  0.50000000000E+03  0.47000000000E+01 0. -1.
</event>
<event>
 4    1  0.4351282E-004  0.1000000E+04  0.7546771E-02  0.8684367E-01
         11   -1    0    0    0    0  0.00000000000E+00  0.00000000000E+00  0.50000000000E+03  0.50000000000E+03  0.00000000000E+00 0. -1.
        -11   -1    0    0    0    0 -0.00000000000E+00 -0.00000000000E+00 -0.50000000000E+03  0.50000000000E+03  0.00000000000E+00 0.  1.
          5    1    1    2  501    0 -0.39838731951E+03 -0.33977664478E+02  0.30018489630E+03  0.50000000000E+03  0.47000000000E+01 0. -1.
         -5    1    1    2    0  501  0.39838731951E+03  0.33977664478E+02 -0.30018489630E+03  0.50000000000E+03  0.47000000000E+01 0.  1.
</event>
<event>
 4    1  0.4351282E-004  0.1000000E+04  0.7546771E-02  0.8684367E-01
         11   -1    0    0    0    0  0.00000000000E+00  0.00000000000E+00  0.50000000000E+03  0.50000000000E+03  0.00000000000E+00 0. -1.
        -11   -1    0    0    0    0 -0.00000000000E+00 -0.00000000000E+00 -0.50000000000E+03  0.50000000000E+03  0.00000000000E+00 0.  1.
          5    1    1    2  501    0 -0.46815331844E+03 -0.16963396707E+03 -0.45107622924E+02  0.50000000000E+03  0.47000000000E+01 0. -1.
         -5    1    1    2    0  501  0.46815331844E+03  0.16963396707E+03  0.45107622924E+02  0.50000000000E+03  0.47000000000E+01 0.  1.
</event>
<event>
 4    1  0.4351282E-004  0.1000000E+04  0.7546771E-02  0.8684367E-01
         11   -1    0    0    0    0  0.00000000000E+00  0.00000000000E+00  0.50000000000E+03  0.50000000000E+03  0.00000000000E+00 0. -1.
        -11   -1    0    0    0    0 -0.00000000000E+00 -0.00000000000E+00 -0.50000000000E+03  0.50000000000E+03  0.00000000000E+00 0.  1.
          5    1    1    2  501    0 -0.76073708264E+02  0.39704565855E+03  0.29418607366E+03  0.50000000000E+03  0.47000000000E+01 0. -1.
         -5    1    1    2    0  501  0.76073708264E+02 -0.39704565855E+03 -0.29418607366E+03  0.50000000000E+03  0.47000000000E+01 0.  1.
</event>
<event>
 4    1  0.4351282E-004  0.1000000E+04  0.7546771E-02  0.8684367E-01
         11   -1    0    0    0    0  0.00000000000E+00  0.00000000000E+00  0.50000000000E+03  0.50000000000E+03  0.00000000000E+00 0. -1.
        -11   -1    0    0    0    0 -0.00000000000E+00 -0.00000000000E+00 -0.50000000000E+03  0.50000000000E+03  0.00000000000E+00 0.  1.
          5    1    1    2  501    0 -0.14061288193E+03 -0.47461217282E+03  0.70350642126E+02  0.50000000000E+03  0.47000000000E+01 0. -1.
         -5    1    1    2    0  501  0.14061288193E+03  0.47461217282E+03 -0.70350642126E+02  0.50000000000E+03  0.47000000000E+01 0.  1.
</event>
<event>
 4    1  0.4351282E-004  0.1000000E+04  0.7546771E-02  0.8684367E-01
         11   -1    0    0    0    0  0.00000000000E+00  0.00000000000E+00  0.50000000000E+03  0.50000000000E+03  0.00000000000E+00 0. -1.
        -11   -1    0    0    0    0 -0.00000000000E+00 -0.00000000000E+00 -0.50000000000E+03  0.50000000000E+03  0.00000000000E+00 0.  1.
          5    1    1    2  501    0 -0.21987910367E+03  0.17689460479E+03  0.41272192644E+03  0.50000000000E+03  0.47000000000E+01 0. -1.
         -5    1    1    2    0  501  0.21987910367E+03 -0.17689460479E+03 -0.41272192644E+03  0.50000000000E+03  0.47000000000E+01 0.  1.
</event>
<event>
 4    1  0.4351282E-004  0.1000000E+04  0.7546771E-02  0.8684367E-01
         11   -1    0    0    0    0  0.00000000000E+00  0.00000000000E+00  0.50000000000E+03  0.50000000000E+03  0.00000000000E+00 0. -1.
        -11   -1    0    0    0    0 -0.00000000000E+00 -0.00000000000E+00 -0.50000000000E+03  0.50000000000E+03  0.00000000000E+00 0.  1.
          5    1    1    2  501    0 -0.31900381959E+03 -0.34494796824E+03  0.17095429885E+03  0.50000000000E+03  0.47000000000E+01 0. -1.
         -5    1    1    2    0  501  0.31900381959E+03  0.34494796824E+03 -0.17095429885E+03  0.50000000000E+03  0.47000000000E+01 0.  1.
</event>
<event>
 4    1  0.4351282E-004  0.1000000E+04  0.7546771E-02  0.8684367E-01
         11   -1    0    0    0    0  0.00000000000E+00  0.00000000000E+00  0.50000000000E+03  0.50000000000E+03  0.00000000000E+00 0. -1.
        -11   -1    0    0    0    0 -0.00000000000E+00 -0.00000000000E+00 -0.50000000000E+03  0.50000000000E+03  0.00000000000E+00 0.  1.
          5    1    1    2  501    0 -0.33229003026E+03  0.10099150122E+03  0.35966924038E+03  0.50000000000E+03  0.47000000000E+01 0. -1.
         -5    1    1    2    0  501  0.33229003026E+03 -0.10099150122E+03 -0.35966924038E+03  0.50000000000E+03  0.47000000000E+01 0.  1.
</event>
<event>
 4    1  0.4351282E-004  0.1000000E+04  0.7546771E-02  0.8684367E-01
         11   -1    0    0    0    0  0.00000000000E+00  0.00000000000E+00  0.50000000000E+03  0.50000000000E+03  0.00000000000E+00 0. -1.
        -11   -1    0    0    0    0 -0.00000000000E+00 -0.00000000000E+00 -0.50000000000E+03  0.50000000000E+03  0.00000000000E+00 0.  1.
          5    1    1    2  501    0 -0.49573017697E+03  0.17538246692E+02  0.62625166992E+02  0.50000000000E+03  0.47000000000E+01 0. -1.
         -5    1    1    2    0  501  0.49573017697E+03 -0.17538246692E+02 -0.62625166992E+02  0.50000000000E+03  0.47000000000E+01 0.  1.
</event>
<event>
 4    1  0.4351282E-004  0.1000000E+04  0.7546771E-02  0.8684367E-01
         11   -1    0    0    0    0  0.00000000000E+00  0.00000000000E+00  0.50000000000E+03  0.50000000000E+03  0.00000000000E+00 0. -1.
        -11   -1    0    0    0    0 -0.00000000000E+00 -0.00000000000E+00 -0.50000000000E+03  0.50000000000E+03  0.00000000000E+00 0.  1.
          5    1    1    2  501    0 -0.41052167306E+03 -0.19475831656E+03  0.20861223377E+03  0.50000000000E+03  0.47000000000E+01 0. -1.
         -5    1    1    2    0  501  0.41052167306E+03  0.19475831656E+03 -0.20861223377E+03  0.50000000000E+03  0.47000000000E+01 0.  1.
</event>
<event>
 4    1  0.4351282E-004  0.1000000E+04  0.7546771E-02  0.8684367E-01
         11   -1    0    0    0    0  0.00000000000E+00  0.00000000000E+00  0.50000000000E+03  0.50000000000E+03  0.00000000000E+00 0. -1.
        -11   -1    0    0    0    0 -0.00000000000E+00 -0.00000000000E+00 -0.50000000000E+03  0.50000000000E+03  0.00000000000E+00 0.  1.
          5    1    1    2  501    0 -0.31573076278E+03 -0.34833939580E+03  0.17015187559E+03  0.50000000000E+03  0.47000000000E+01 0. -1.
         -5    1    1    2    0  501  0.31573076278E+03  0.34833939580E+03 -0.17015187559E+03  0.50000000000E+03  0.47000000000E+01 0.  1.
</event>
<event>
 4    1  0.4351282E-004  0.1000000E+04  0.7546771E-02  0.8684367E-01
         11   -1    0    0    0    0  0.00000000000E+00  0.00000000000E+00  0.50000000000E+03  0.50000000000E+03  0.00000000000E+00 0. -1.
        -11   -1    0    0    0    0 -0.00000000000E+00 -0.00000000000E+00 -0.50000000000E+03  0.50000000000E+03  0.00000000000E+00 0.  1.
          5    1    1    2  501    0  0.43573671816E+03  0.90495813431E+02  0.22786384135E+03  0.50000000000E+03  0.47000000000E+01 0. -1.
         -5    1    1    2    0  501 -0.43573671816E+03 -0.90495813431E+02 -0.22786384135E+03  0.50000000000E+03  0.47000000000E+01 0.  1.
</event>
<event>
 4    1  0.4351282E-004  0.1000000E+04  0.7546771E-02  0.8684367E-01
         11   -1    0    0    0    0  0.00000000000E+00  0.00000000000E+00  0.50000000000E+03  0.50000000000E+03  0.00000000000E+00 0. -1.
        -11   -1    0    0    0    0 -0.00000000000E+00 -0.00000000000E+00 -0.50000000000E+03  0.50000000000E+03  0.00000000000E+00 0.  1.
          5    1    1    2  501    0  0.28736131804E+02  0.91255661353E+02  0.49073877878E+03  0.50000000000E+03  0.47000000000E+01 0. -1.
         -5    1    1    2    0  501 -0.28736131804E+02 -0.91255661353E+02 -0.49073877878E+03  0.50000000000E+03  0.47000000000E+01 0.  1.
</event>
<event>
 4    1  0.4351282E-004  0.1000000E+04  0.7546771E-02  0.8684367E-01
         11   -1    0    0    0    0  0.00000000000E+00  0.00000000000E+00  0.50000000000E+03  0.50000000000E+03  0.00000000000E+00 0. -1.
        -11   -1    0    0    0    0 -0.00000000000E+00 -0.00000000000E+00 -0.50000000000E+03  0.50000000000E+03  0.00000000000E+00 0.  1.
          5    1    1    2  501    0 -0.14409425091E+03  0.39813260289E+03  0.26590447038E+03  0.50000000000E+03  0.47000000000E+01 0. -1.
         -5    1    1    2    0  501  0.14409425091E+03 -0.39813260289E+03 -0.26590447038E+03  0.50000000000E+03  0.47000000000E+01 0.  1.
</event>
<event>
 4    1  0.4351282E-004  0.1000000E+04  0.7546771E-02  0.8684367E-01
         11   -1    0    0    0    0  0.00000000000E+00  0.00000000000E+00  0.50000000000E+03  0.50000000000E+03  0.00000000000E+00 0. -1.
        -11   -1    0    0    0    0 -0.00000000000E+00 -0.00000000000E+00 -0.50000000000E+03  0.50000000000E+03  0.00000000000E+00 0.  1.
          5    1    1    2  501    0 -0.32344305991E+03 -0.35203010792E+02  0.37963567407E+03  0.50000000000E+03  0.47000000000E+01 0. -1.
         -5    1    1    2    0  501  0.32344305991E+03  0.35203010792E+02 -0.37963567407E+03  0.50000000000E+03  0.47000000000E+01 0.  1.
</event>
<event>
 4    1  0.4351282E-004  0.1000000E+04  0.7546771E-02  0.8684367E-01
         11   -1    0    0    0    0  0.00000000000E+00  0.00000000000E+00  0.50000000000E+03  0.50000000000E+03  0.00000000000E+00 0. -1.
        -11   -1    0    0    0    0 -0.00000000000E+00 -0.00000000000E+00 -0.50000000000E+03  0.50000000000E+03  0.00000000000E+00 0.  1.
          5    1    1    2  501    0 -0.25469246932E+03 -0.10447786073E+03  0.41736558638E+03  0.50000000000E+03  0.47000000000E+01 0. -1.
         -5    1    1    2    0  501  0.25469246932E+03  0.10447786073E+03 -0.41736558638E+03  0.50000000000E+03  0.47000000000E+01 0.  1.
</event>
<event>
 4    1  0.4351282E-004  0.1000000E+04  0.7546771E-02  0.8684367E-01
         11   -1    0    0    0    0  0.00000000000E+00  0.00000000000E+00  0.50000000000E+03  0.50000000000E+03  0.00000000000E+00 0. -1.
        -11   -1    0    0    0    0 -0.00000000000E+00 -0.00000000000E+00 -0.50000000000E+03  0.50000000000E+03  0.00000000000E+00 0.  1.
          5    1    1    2  501    0  0.45087313373E+02 -0.30078739327E+03  0.39682740357E+03  0.50000000000E+03  0.47000000000E+01 0. -1.
         -5    1    1    2    0  501 -0.45087313373E+02  0.30078739327E+03 -0.39682740357E+03  0.50000000000E+03  0.47000000000E+01 0.  1.
</event>
<event>
 4    1  0.4351282E-004  0.1000000E+04  0.7546771E-02  0.8684367E-01
         11   -1    0    0    0    0  0.00000000000E+00  0.00000000000E+00  0.50000000000E+03  0.50000000000E+03  0.00000000000E+00 0. -1.
        -11   -1    0    0    0    0 -0.00000000000E+00 -0.00000000000E+00 -0.50000000000E+03  0.50000000000E+03  0.00000000000E+00 0.  1.
          5    1    1    2  501    0  0.22841232250E+03 -0.38237858368E+03  0.22713947186E+03  0.50000000000E+03  0.47000000000E+01 0. -1.
         -5    1    1    2    0  501 -0.22841232250E+03  0.38237858368E+03 -0.22713947186E+03  0.50000000000E+03  0.47000000000E+01 0.  1.
</event>
<event>
 4    1  0.4351282E-004  0.1000000E+04  0.7546771E-02  0.8684367E-01
         11   -1    0    0    0    0  0.00000000000E+00  0.00000000000E+00  0.50000000000E+03  0.50000000000E+03  0.00000000000E+00 0. -1.
        -11   -1    0    0    0    0 -0.00000000000E+00 -0.00000000000E+00 -0.50000000000E+03  0.50000000000E+03  0.00000000000E+00 0.  1.
          5    1    1    2  501    0 -0.19925915065E+03  0.44590455621E+03  0.10697115327E+03  0.50000000000E+03  0.47000000000E+01 0. -1.
         -5    1    1    2    0  501  0.19925915065E+03 -0.44590455621E+03 -0.10697115327E+03  0.50000000000E+03  0.47000000000E+01 0.  1.
</event>
<event>
 4    1  0.4351282E-004  0.1000000E+04  0.7546771E-02  0.8684367E-01
         11   -1    0    0    0    0  0.00000000000E+00  0.00000000000E+00  0.50000000000E+03  0.50000000000E+03  0.00000000000E+00 0. -1.
        -11   -1    0    0    0    0 -0.00000000000E+00 -0.00000000000E+00 -0.50000000000E+03  0.50000000000E+03  0.00000000000E+00 0.  1.
          5    1    1    2  501    0  0.84421868982E+02  0.46076406971E+03  0.17477794511E+03  0.50000000000E+03  0.47000000000E+01 0. -1.
         -5    1    1    2    0  501 -0.84421868982E+02 -0.46076406971E+03 -0.17477794511E+03  0.50000000000E+03  0.47000000000E+01 0.  1.
</event>
<event>
 4    1  0.4351282E-004  0.1000000E+04  0.7546771E-02  0.8684367E-01
         11   -1    0    0    0    0  0.00000000000E+00  0.00000000000E+00  0.50000000000E+03  0.50000000000E+03  0.00000000000E+00 0. -1.
        -11   -1    0    0    0    0 -0.00000000000E+00 -0.00000000000E+00 -0.50000000000E+03  0.50000000000E+03  0.00000000000E+00 0.  1.
          5    1    1    2  501    0 -0.61143818521E+02 -0.10981705136E+03  0.48392102526E+03  0.50000000000E+03  0.47000000000E+01 0. -1.
         -5    1    1    2    0  501  0.61143818521E+02  0.10981705136E+03 -0.48392102526E+03  0.50000000000E+03  0.47000000000E+01 0.  1.
</event>
<event>
 4    1  0.4351282E-004  0.1000000E+04  0.7546771E-02  0.8684367E-01
         11   -1    0    0    0    0  0.00000000000E+00  0.00000000000E+00  0.50000000000E+03  0.50000000000E+03  0.00000000000E+00 0. -1.
        -11   -1    0    0    0    0 -0.00000000000E+00 -0.00000000000E+00 -0.50000000000E+03  0.50000000000E+03  0.00000000000E+00 0.  1.
          5    1    1    2  501    0 -0.11961490281E+03 -0.48471833537E+03 -0.26801499568E+02  0.50000000000E+03  0.47000000000E+01 0.  1.
         -5    1    1    2    0  501  0.11961490281E+03  0.48471833537E+03  0.26801499568E+02  0.50000000000E+03  0.47000000000E+01 0. -1.
</event>
<event>
 4    1  0.4351282E-004  0.1000000E+04  0.7546771E-02  0.8684367E-01
         11   -1    0    0    0    0  0.00000000000E+00  0.00000000000E+00  0.50000000000E+03  0.50000000000E+03  0.00000000000E+00 0.  1.
        -11   -1    0    0    0    0 -0.00000000000E+00 -0.00000000000E+00 -0.50000000000E+03  0.50000000000E+03  0.00000000000E+00 0. -1.
          5    1    1    2  501    0 -0.18521028178E+03 -0.42260219034E+03 -0.19256804054E+03  0.50000000000E+03  0.47000000000E+01 0.  1.
         -5    1    1    2    0  501  0.18521028178E+03  0.42260219034E+03  0.19256804054E+03  0.50000000000E+03  0.47000000000E+01 0. -1.
</event>
<event>
 4    1  0.4351282E-004  0.1000000E+04  0.7546771E-02  0.8684367E-01
         11   -1    0    0    0    0  0.00000000000E+00  0.00000000000E+00  0.50000000000E+03  0.50000000000E+03  0.00000000000E+00 0. -1.
        -11   -1    0    0    0    0 -0.00000000000E+00 -0.00000000000E+00 -0.50000000000E+03  0.50000000000E+03  0.00000000000E+00 0.  1.
          5    1    1    2  501    0 -0.41959121153E+03 -0.24593373995E+03  0.11592118341E+03  0.50000000000E+03  0.47000000000E+01 0. -1.
         -5    1    1    2    0  501  0.41959121153E+03  0.24593373995E+03 -0.11592118341E+03  0.50000000000E+03  0.47000000000E+01 0.  1.
</event>
<event>
 4    1  0.4351282E-004  0.1000000E+04  0.7546771E-02  0.8684367E-01
         11   -1    0    0    0    0  0.00000000000E+00  0.00000000000E+00  0.50000000000E+03  0.50000000000E+03  0.00000000000E+00 0. -1.
        -11   -1    0    0    0    0 -0.00000000000E+00 -0.00000000000E+00 -0.50000000000E+03  0.50000000000E+03  0.00000000000E+00 0.  1.
          5    1    1    2  501    0 -0.35215427618E+03 -0.35435259199E+03  0.19987904358E+02  0.50000000000E+03  0.47000000000E+01 0. -1.
         -5    1    1    2    0  501  0.35215427618E+03  0.35435259199E+03 -0.19987904358E+02  0.50000000000E+03  0.47000000000E+01 0.  1.
</event>
<event>
 4    1  0.4351282E-004  0.1000000E+04  0.7546771E-02  0.8684367E-01
         11   -1    0    0    0    0  0.00000000000E+00  0.00000000000E+00  0.50000000000E+03  0.50000000000E+03  0.00000000000E+00 0. -1.
        -11   -1    0    0    0    0 -0.00000000000E+00 -0.00000000000E+00 -0.50000000000E+03  0.50000000000E+03  0.00000000000E+00 0.  1.
          5    1    1    2  501    0 -0.47265464693E+03  0.10138226403E+03 -0.12766021808E+03  0.50000000000E+03  0.47000000000E+01 0. -1.
         -5    1    1    2    0  501  0.47265464693E+03 -0.10138226403E+03  0.12766021808E+03  0.50000000000E+03  0.47000000000E+01 0.  1.
</event>
<event>
 4    1  0.4351282E-004  0.1000000E+04  0.7546771E-02  0.8684367E-01
         11   -1    0    0    0    0  0.00000000000E+00  0.00000000000E+00  0.50000000000E+03  0.50000000000E+03  0.00000000000E+00 0. -1.
        -11   -1    0    0    0    0 -0.00000000000E+00 -0.00000000000E+00 -0.50000000000E+03  0.50000000000E+03  0.00000000000E+00 0.  1.
          5    1    1    2  501    0 -0.10921641132E+03  0.40233856775E+03  0.27599522170E+03  0.50000000000E+03  0.47000000000E+01 0. -1.
         -5    1    1    2    0  501  0.10921641132E+03 -0.40233856775E+03 -0.27599522170E+03  0.50000000000E+03  0.47000000000E+01 0.  1.
</event>
<event>
 4    1  0.4351282E-004  0.1000000E+04  0.7546771E-02  0.8684367E-01
         11   -1    0    0    0    0  0.00000000000E+00  0.00000000000E+00  0.50000000000E+03  0.50000000000E+03  0.00000000000E+00 0. -1.
        -11   -1    0    0    0    0 -0.00000000000E+00 -0.00000000000E+00 -0.50000000000E+03  0.50000000000E+03  0.00000000000E+00 0.  1.
          5    1    1    2  501    0  0.83448815513E+02  0.39142851285E+03  0.29966301827E+03  0.50000000000E+03  0.47000000000E+01 0. -1.
         -5    1    1    2    0  501 -0.83448815513E+02 -0.39142851285E+03 -0.29966301827E+03  0.50000000000E+03  0.47000000000E+01 0.  1.
</event>
<event>
 4    1  0.4351282E-004  0.1000000E+04  0.7546771E-02  0.8684367E-01
         11   -1    0    0    0    0  0.00000000000E+00  0.00000000000E+00  0.50000000000E+03  0.50000000000E+03  0.00000000000E+00 0. -1.
        -11   -1    0    0    0    0 -0.00000000000E+00 -0.00000000000E+00 -0.50000000000E+03  0.50000000000E+03  0.00000000000E+00 0.  1.
          5    1    1    2  501    0  0.68066202442E+02 -0.39038940884E+03 -0.30486228292E+03  0.50000000000E+03  0.47000000000E+01 0. -1.
         -5    1    1    2    0  501 -0.68066202442E+02  0.39038940884E+03  0.30486228292E+03  0.50000000000E+03  0.47000000000E+01 0.  1.
</event>
<event>
 4    1  0.4351282E-004  0.1000000E+04  0.7546771E-02  0.8684367E-01
         11   -1    0    0    0    0  0.00000000000E+00  0.00000000000E+00  0.50000000000E+03  0.50000000000E+03  0.00000000000E+00 0. -1.
        -11   -1    0    0    0    0 -0.00000000000E+00 -0.00000000000E+00 -0.50000000000E+03  0.50000000000E+03  0.00000000000E+00 0.  1.
          5    1    1    2  501    0 -0.33211106998E+03 -0.36426712065E+03  0.83603899489E+02  0.50000000000E+03  0.47000000000E+01 0. -1.
         -5    1    1    2    0  501  0.33211106998E+03  0.36426712065E+03 -0.83603899489E+02  0.50000000000E+03  0.47000000000E+01 0.  1.
</event>
<event>
 4    1  0.4351282E-004  0.1000000E+04  0.7546771E-02  0.8684367E-01
         11   -1    0    0    0    0  0.00000000000E+00  0.00000000000E+00  0.50000000000E+03  0.50000000000E+03  0.00000000000E+00 0. -1.
        -11   -1    0    0    0    0 -0.00000000000E+00 -0.00000000000E+00 -0.50000000000E+03  0.50000000000E+03  0.00000000000E+00 0.  1.
          5    1    1    2  501    0  0.37014023674E+02  0.15502527393E+03  0.47389348645E+03  0.50000000000E+03  0.47000000000E+01 0. -1.
         -5    1    1    2    0  501 -0.37014023674E+02 -0.15502527393E+03 -0.47389348645E+03  0.50000000000E+03  0.47000000000E+01 0.  1.
</event>
<event>
 4    1  0.4351282E-004  0.1000000E+04  0.7546771E-02  0.8684367E-01
         11   -1    0    0    0    0  0.00000000000E+00  0.00000000000E+00  0.50000000000E+03  0.50000000000E+03  0.00000000000E+00 0.  1.
        -11   -1    0    0    0    0 -0.00000000000E+00 -0.00000000000E+00 -0.50000000000E+03  0.50000000000E+03  0.00000000000E+00 0. -1.
          5    1    1    2  501    0  0.34507676207E+02 -0.30643985334E+02  0.49784342563E+03  0.50000000000E+03  0.47000000000E+01 0.  1.
         -5    1    1    2    0  501 -0.34507676207E+02  0.30643985334E+02 -0.49784342563E+03  0.50000000000E+03  0.47000000000E+01 0. -1.
</event>
<event>
 4    1  0.4351282E-004  0.1000000E+04  0.7546771E-02  0.8684367E-01
         11   -1    0    0    0    0  0.00000000000E+00  0.00000000000E+00  0.50000000000E+03  0.50000000000E+03  0.00000000000E+00 0. -1.
        -11   -1    0    0    0    0 -0.00000000000E+00 -0.00000000000E+00 -0.50000000000E+03  0.50000000000E+03  0.00000000000E+00 0.  1.
          5    1    1    2  501    0 -0.33627815457E+02  0.16767054554E+03  0.46982301794E+03  0.50000000000E+03  0.47000000000E+01 0. -1.
         -5    1    1    2    0  501  0.33627815457E+02 -0.16767054554E+03 -0.46982301794E+03  0.50000000000E+03  0.47000000000E+01 0.  1.
</event>
<event>
 4    1  0.4351282E-004  0.1000000E+04  0.7546771E-02  0.8684367E-01
         11   -1    0    0    0    0  0.00000000000E+00  0.00000000000E+00  0.50000000000E+03  0.50000000000E+03  0.00000000000E+00 0. -1.
        -11   -1    0    0    0    0 -0.00000000000E+00 -0.00000000000E+00 -0.50000000000E+03  0.50000000000E+03  0.00000000000E+00 0.  1.
          5    1    1    2  501    0 -0.32764568332E+03  0.36687783610E+03  0.89592798718E+02  0.50000000000E+03  0.47000000000E+01 0. -1.
         -5    1    1    2    0  501  0.32764568332E+03 -0.36687783610E+03 -0.89592798718E+02  0.50000000000E+03  0.47000000000E+01 0.  1.
</event>
<event>
 4    1  0.4351282E-004  0.1000000E+04  0.7546771E-02  0.8684367E-01
         11   -1    0    0    0    0  0.00000000000E+00  0.00000000000E+00  0.50000000000E+03  0.50000000000E+03  0.00000000000E+00 0. -1.
        -11   -1    0    0    0    0 -0.00000000000E+00 -0.00000000000E+00 -0.50000000000E+03  0.50000000000E+03  0.00000000000E+00 0.  1.
          5    1    1    2  501    0  0.35557964522E+03 -0.34937139786E+03 -0.38479244607E+02  0.50000000000E+03  0.47000000000E+01 0. -1.
         -5    1    1    2    0  501 -0.35557964522E+03  0.34937139786E+03  0.38479244607E+02  0.50000000000E+03  0.47000000000E+01 0.  1.
</event>
<event>
 4    1  0.4351282E-004  0.1000000E+04  0.7546771E-02  0.8684367E-01
         11   -1    0    0    0    0  0.00000000000E+00  0.00000000000E+00  0.50000000000E+03  0.50000000000E+03  0.00000000000E+00 0. -1.
        -11   -1    0    0    0    0 -0.00000000000E+00 -0.00000000000E+00 -0.50000000000E+03  0.50000000000E+03  0.00000000000E+00 0.  1.
          5    1    1    2  501    0 -0.17647930750E+03 -0.23378978456E+03  0.40518551388E+03  0.50000000000E+03  0.47000000000E+01 0. -1.
         -5    1    1    2    0  501  0.17647930750E+03  0.23378978456E+03 -0.40518551388E+03  0.50000000000E+03  0.47000000000E+01 0.  1.
</event>
<event>
 4    1  0.4351282E-004  0.1000000E+04  0.7546771E-02  0.8684367E-01
         11   -1    0    0    0    0  0.00000000000E+00  0.00000000000E+00  0.50000000000E+03  0.50000000000E+03  0.00000000000E+00 0. -1.
        -11   -1    0    0    0    0 -0.00000000000E+00 -0.00000000000E+00 -0.50000000000E+03  0.50000000000E+03  0.00000000000E+00 0.  1.
          5    1    1    2  501    0  0.12631116511E+03 -0.43177191639E+03  0.21816601886E+03  0.50000000000E+03  0.47000000000E+01 0. -1.
         -5    1    1    2    0  501 -0.12631116511E+03  0.43177191639E+03 -0.21816601886E+03  0.50000000000E+03  0.47000000000E+01 0.  1.
</event>
<event>
 4    1  0.4351282E-004  0.1000000E+04  0.7546771E-02  0.8684367E-01
         11   -1    0    0    0    0  0.00000000000E+00  0.00000000000E+00  0.50000000000E+03  0.50000000000E+03  0.00000000000E+00 0. -1.
        -11   -1    0    0    0    0 -0.00000000000E+00 -0.00000000000E+00 -0.50000000000E+03  0.50000000000E+03  0.00000000000E+00 0.  1.
          5    1    1    2  501    0  0.25983105519E+03  0.17293461622E+03  0.39058846792E+03  0.50000000000E+03  0.47000000000E+01 0. -1.
         -5    1    1    2    0  501 -0.25983105519E+03 -0.17293461622E+03 -0.39058846792E+03  0.50000000000E+03  0.47000000000E+01 0.  1.
</event>
<event>
 4    1  0.4351282E-004  0.1000000E+04  0.7546771E-02  0.8684367E-01
         11   -1    0    0    0    0  0.00000000000E+00  0.00000000000E+00  0.50000000000E+03  0.50000000000E+03  0.00000000000E+00 0. -1.
        -11   -1    0    0    0    0 -0.00000000000E+00 -0.00000000000E+00 -0.50000000000E+03  0.50000000000E+03  0.00000000000E+00 0.  1.
          5    1    1    2  501    0  0.49697383101E+03 -0.28855293813E+02 -0.46500465715E+02  0.50000000000E+03  0.47000000000E+01 0. -1.
         -5    1    1    2    0  501 -0.49697383101E+03  0.28855293813E+02  0.46500465715E+02  0.50000000000E+03  0.47000000000E+01 0.  1.
</event>
<event>
 4    1  0.4351282E-004  0.1000000E+04  0.7546771E-02  0.8684367E-01
         11   -1    0    0    0    0  0.00000000000E+00  0.00000000000E+00  0.50000000000E+03  0.50000000000E+03  0.00000000000E+00 0.  1.
        -11   -1    0    0    0    0 -0.00000000000E+00 -0.00000000000E+00 -0.50000000000E+03  0.50000000000E+03  0.00000000000E+00 0. -1.
          5    1    1    2  501    0  0.31218606895E+03 -0.20493917249E+03  0.33244203094E+03  0.50000000000E+03  0.47000000000E+01 0.  1.
         -5    1    1    2    0  501 -0.31218606895E+03  0.20493917249E+03 -0.33244203094E+03  0.50000000000E+03  0.47000000000E+01 0. -1.
</event>
<event>
 4    1  0.4351282E-004  0.1000000E+04  0.7546771E-02  0.8684367E-01
         11   -1    0    0    0    0  0.00000000000E+00  0.00000000000E+00  0.50000000000E+03  0.50000000000E+03  0.00000000000E+00 0. -1.
        -11   -1    0    0    0    0 -0.00000000000E+00 -0.00000000000E+00 -0.50000000000E+03  0.50000000000E+03  0.00000000000E+00 0.  1.
          5    1    1    2  501    0 -0.10190036990E+03  0.18815900213E+03  0.45187433489E+03  0.50000000000E+03  0.47000000000E+01 0. -1.
         -5    1    1    2    0  501  0.10190036990E+03 -0.18815900213E+03 -0.45187433489E+03  0.50000000000E+03  0.47000000000E+01 0.  1.
</event>
<event>
 4    1  0.4351282E-004  0.1000000E+04  0.7546771E-02  0.8684367E-01
         11   -1    0    0    0    0  0.00000000000E+00  0.00000000000E+00  0.50000000000E+03  0.50000000000E+03  0.00000000000E+00 0. -1.
        -11   -1    0    0    0    0 -0.00000000000E+00 -0.00000000000E+00 -0.50000000000E+03  0.50000000000E+03  0.00000000000E+00 0.  1.
          5    1    1    2  501    0 -0.28120542153E+03  0.35314722834E+03  0.21491499719E+03  0.50000000000E+03  0.47000000000E+01 0. -1.
         -5    1    1    2    0  501  0.28120542153E+03 -0.35314722834E+03 -0.21491499719E+03  0.50000000000E+03  0.47000000000E+01 0.  1.
</event>
<event>
 4    1  0.4351282E-004  0.1000000E+04  0.7546771E-02  0.8684367E-01
         11   -1    0    0    0    0  0.00000000000E+00  0.00000000000E+00  0.50000000000E+03  0.50000000000E+03  0.00000000000E+00 0.  1.
        -11   -1    0    0    0    0 -0.00000000000E+00 -0.00000000000E+00 -0.50000000000E+03  0.50000000000E+03  0.00000000000E+00 0. -1.
          5    1    1    2  501    0 -0.46487229219E+03  0.15369257040E+03 -0.10124354676E+03  0.50000000000E+03  0.47000000000E+01 0.  1.
         -5    1    1    2    0  501  0.46487229219E+03 -0.15369257040E+03  0.10124354676E+03  0.50000000000E+03  0.47000000000E+01 0. -1.
</event>
<event>
 4    1  0.4351282E-004  0.1000000E+04  0.7546771E-02  0.8684367E-01
         11   -1    0    0    0    0  0.00000000000E+00  0.00000000000E+00  0.50000000000E+03  0.50000000000E+03  0.00000000000E+00 0. -1.
        -11   -1    0    0    0    0 -0.00000000000E+00 -0.00000000000E+00 -0.50000000000E+03  0.50000000000E+03  0.00000000000E+00 0.  1.
          5    1    1    2  501    0 -0.22604632646E+03  0.30833870280E+03  0.32219281905E+03  0.50000000000E+03  0.47000000000E+01 0. -1.
         -5    1    1    2    0  501  0.22604632646E+03 -0.30833870280E+03 -0.32219281905E+03  0.50000000000E+03  0.47000000000E+01 0.  1.
</event>
<event>
 4    1  0.4351282E-004  0.1000000E+04  0.7546771E-02  0.8684367E-01
         11   -1    0    0    0    0  0.00000000000E+00  0.00000000000E+00  0.50000000000E+03  0.50000000000E+03  0.00000000000E+00 0. -1.
        -11   -1    0    0    0    0 -0.00000000000E+00 -0.00000000000E+00 -0.50000000000E+03  0.50000000000E+03  0.00000000000E+00 0.  1.
          5    1    1    2  501    0  0.16286942924E+03 -0.38188014593E+03  0.27860189009E+03  0.50000000000E+03  0.47000000000E+01 0. -1.
         -5    1    1    2    0  501 -0.16286942924E+03  0.38188014593E+03 -0.27860189009E+03  0.50000000000E+03  0.47000000000E+01 0.  1.
</event>
<event>
 4    1  0.4351282E-004  0.1000000E+04  0.7546771E-02  0.8684367E-01
         11   -1    0    0    0    0  0.00000000000E+00  0.00000000000E+00  0.50000000000E+03  0.50000000000E+03  0.00000000000E+00 0. -1.
        -11   -1    0    0    0    0 -0.00000000000E+00 -0.00000000000E+00 -0.50000000000E+03  0.50000000000E+03  0.00000000000E+00 0.  1.
          5    1    1    2  501    0  0.36034281516E+03  0.90596846019E+02 -0.33454921470E+03  0.50000000000E+03  0.47000000000E+01 0. -1.
         -5    1    1    2    0  501 -0.36034281516E+03 -0.90596846019E+02  0.33454921470E+03  0.50000000000E+03  0.47000000000E+01 0.  1.
</event>
<event>
 4    1  0.4351282E-004  0.1000000E+04  0.7546771E-02  0.8684367E-01
         11   -1    0    0    0    0  0.00000000000E+00  0.00000000000E+00  0.50000000000E+03  0.50000000000E+03  0.00000000000E+00 0. -1.
        -11   -1    0    0    0    0 -0.00000000000E+00 -0.00000000000E+00 -0.50000000000E+03  0.50000000000E+03  0.00000000000E+00 0.  1.
          5    1    1    2  501    0  0.26983155767E+03  0.42074351284E+03 -0.11989032128E+02  0.50000000000E+03  0.47000000000E+01 0. -1.
         -5    1    1    2    0  501 -0.26983155767E+03 -0.42074351284E+03  0.11989032128E+02  0.50000000000E+03  0.47000000000E+01 0.  1.
</event>
<event>
 4    1  0.4351282E-004  0.1000000E+04  0.7546771E-02  0.8684367E-01
         11   -1    0    0    0    0  0.00000000000E+00  0.00000000000E+00  0.50000000000E+03  0.50000000000E+03  0.00000000000E+00 0.  1.
        -11   -1    0    0    0    0 -0.00000000000E+00 -0.00000000000E+00 -0.50000000000E+03  0.50000000000E+03  0.00000000000E+00 0. -1.
          5    1    1    2  501    0 -0.38297537953E+03 -0.25716672321E+03  0.19280312536E+03  0.50000000000E+03  0.47000000000E+01 0.  1.
         -5    1    1    2    0  501  0.38297537953E+03  0.25716672321E+03 -0.19280312536E+03  0.50000000000E+03  0.47000000000E+01 0. -1.
</event>
<event>
 4    1  0.4351282E-004  0.1000000E+04  0.7546771E-02  0.8684367E-01
         11   -1    0    0    0    0  0.00000000000E+00  0.00000000000E+00  0.50000000000E+03  0.50000000000E+03  0.00000000000E+00 0. -1.
        -11   -1    0    0    0    0 -0.00000000000E+00 -0.00000000000E+00 -0.50000000000E+03  0.50000000000E+03  0.00000000000E+00 0.  1.
          5    1    1    2  501    0  0.26987838645E+02  0.35830274507E+03  0.34766177449E+03  0.50000000000E+03  0.47000000000E+01 0. -1.
         -5    1    1    2    0  501 -0.26987838645E+02 -0.35830274507E+03 -0.34766177449E+03  0.50000000000E+03  0.47000000000E+01 0.  1.
</event>
<event>
 4    1  0.4351282E-004  0.1000000E+04  0.7546771E-02  0.8684367E-01
         11   -1    0    0    0    0  0.00000000000E+00  0.00000000000E+00  0.50000000000E+03  0.50000000000E+03  0.00000000000E+00 0. -1.
        -11   -1    0    0    0    0 -0.00000000000E+00 -0.00000000000E+00 -0.50000000000E+03  0.50000000000E+03  0.00000000000E+00 0.  1.
          5    1    1    2  501    0 -0.15634370519E+02 -0.36409790214E+03  0.34229547779E+03  0.50000000000E+03  0.47000000000E+01 0. -1.
         -5    1    1    2    0  501  0.15634370519E+02  0.36409790214E+03 -0.34229547779E+03  0.50000000000E+03  0.47000000000E+01 0.  1.
</event>
<event>
 4    1  0.4351282E-004  0.1000000E+04  0.7546771E-02  0.8684367E-01
         11   -1    0    0    0    0  0.00000000000E+00  0.00000000000E+00  0.50000000000E+03  0.50000000000E+03  0.00000000000E+00 0. -1.
        -11   -1    0    0    0    0 -0.00000000000E+00 -0.00000000000E+00 -0.50000000000E+03  0.50000000000E+03  0.00000000000E+00 0.  1.
          5    1    1    2  501    0  0.87419000749E+02 -0.66989694446E+02  0.48769684144E+03  0.50000000000E+03  0.47000000000E+01 0. -1.
         -5    1    1    2    0  501 -0.87419000749E+02  0.66989694446E+02 -0.48769684144E+03  0.50000000000E+03  0.47000000000E+01 0.  1.
</event>
<event>
 4    1  0.4351282E-004  0.1000000E+04  0.7546771E-02  0.8684367E-01
         11   -1    0    0    0    0  0.00000000000E+00  0.00000000000E+00  0.50000000000E+03  0.50000000000E+03  0.00000000000E+00 0. -1.
        -11   -1    0    0    0    0 -0.00000000000E+00 -0.00000000000E+00 -0.50000000000E+03  0.50000000000E+03  0.00000000000E+00 0.  1.
          5    1    1    2  501    0 -0.35716587043E+03 -0.17376667561E+03  0.30367020507E+03  0.50000000000E+03  0.47000000000E+01 0. -1.
         -5    1    1    2    0  501  0.35716587043E+03  0.17376667561E+03 -0.30367020507E+03  0.50000000000E+03  0.47000000000E+01 0.  1.
</event>
<event>
 4    1  0.4351282E-004  0.1000000E+04  0.7546771E-02  0.8684367E-01
         11   -1    0    0    0    0  0.00000000000E+00  0.00000000000E+00  0.50000000000E+03  0.50000000000E+03  0.00000000000E+00 0.  1.
        -11   -1    0    0    0    0 -0.00000000000E+00 -0.00000000000E+00 -0.50000000000E+03  0.50000000000E+03  0.00000000000E+00 0. -1.
          5    1    1    2  501    0 -0.24200604910E+03  0.41354205667E+03 -0.14280738624E+03  0.50000000000E+03  0.47000000000E+01 0.  1.
         -5    1    1    2    0  501  0.24200604910E+03 -0.41354205667E+03  0.14280738624E+03  0.50000000000E+03  0.47000000000E+01 0. -1.
</event>
<event>
 4    1  0.4351282E-004  0.1000000E+04  0.7546771E-02  0.8684367E-01
         11   -1    0    0    0    0  0.00000000000E+00  0.00000000000E+00  0.50000000000E+03  0.50000000000E+03  0.00000000000E+00 0. -1.
        -11   -1    0    0    0    0 -0.00000000000E+00 -0.00000000000E+00 -0.50000000000E+03  0.50000000000E+03  0.00000000000E+00 0.  1.
          5    1    1    2  501    0  0.40231341800E+03  0.10725369728E+03  0.27680041206E+03  0.50000000000E+03  0.47000000000E+01 0. -1.
         -5    1    1    2    0  501 -0.40231341800E+03 -0.10725369728E+03 -0.27680041206E+03  0.50000000000E+03  0.47000000000E+01 0.  1.
</event>
<event>
 4    1  0.4351282E-004  0.1000000E+04  0.7546771E-02  0.8684367E-01
         11   -1    0    0    0    0  0.00000000000E+00  0.00000000000E+00  0.50000000000E+03  0.50000000000E+03  0.00000000000E+00 0. -1.
        -11   -1    0    0    0    0 -0.00000000000E+00 -0.00000000000E+00 -0.50000000000E+03  0.50000000000E+03  0.00000000000E+00 0.  1.
          5    1    1    2  501    0  0.20572991756E+03  0.25252515058E+03  0.37932065505E+03  0.50000000000E+03  0.47000000000E+01 0. -1.
         -5    1    1    2    0  501 -0.20572991756E+03 -0.25252515058E+03 -0.37932065505E+03  0.50000000000E+03  0.47000000000E+01 0.  1.
</event>
<event>
 4    1  0.4351282E-004  0.1000000E+04  0.7546771E-02  0.8684367E-01
         11   -1    0    0    0    0  0.00000000000E+00  0.00000000000E+00  0.50000000000E+03  0.50000000000E+03  0.00000000000E+00 0.  1.
        -11   -1    0    0    0    0 -0.00000000000E+00 -0.00000000000E+00 -0.50000000000E+03  0.50000000000E+03  0.00000000000E+00 0. -1.
          5    1    1    2  501    0 -0.47961897044E+03  0.11612914902E+03  0.80359031517E+02  0.50000000000E+03  0.47000000000E+01 0.  1.
         -5    1    1    2    0  501  0.47961897044E+03 -0.11612914902E+03 -0.80359031517E+02  0.50000000000E+03  0.47000000000E+01 0. -1.
</event>
<event>
 4    1  0.4351282E-004  0.1000000E+04  0.7546771E-02  0.8684367E-01
         11   -1    0    0    0    0  0.00000000000E+00  0.00000000000E+00  0.50000000000E+03  0.50000000000E+03  0.00000000000E+00 0. -1.
        -11   -1    0    0    0    0 -0.00000000000E+00 -0.00000000000E+00 -0.50000000000E+03  0.50000000000E+03  0.00000000000E+00 0.  1.
          5    1    1    2  501    0 -0.34051189420E+02  0.36231447692E+03 -0.34285076391E+03  0.50000000000E+03  0.47000000000E+01 0.  1.
         -5    1    1    2    0  501  0.34051189420E+02 -0.36231447692E+03  0.34285076391E+03  0.50000000000E+03  0.47000000000E+01 0. -1.
</event>
<event>
 4    1  0.4351282E-004  0.1000000E+04  0.7546771E-02  0.8684367E-01
         11   -1    0    0    0    0  0.00000000000E+00  0.00000000000E+00  0.50000000000E+03  0.50000000000E+03  0.00000000000E+00 0.  1.
        -11   -1    0    0    0    0 -0.00000000000E+00 -0.00000000000E+00 -0.50000000000E+03  0.50000000000E+03  0.00000000000E+00 0. -1.
          5    1    1    2  501    0  0.46300825993E+03 -0.14904659673E+03 -0.11569949542E+03  0.50000000000E+03  0.47000000000E+01 0.  1.
         -5    1    1    2    0  501 -0.46300825993E+03  0.14904659673E+03  0.11569949542E+03  0.50000000000E+03  0.47000000000E+01 0. -1.
</event>
<event>
 4    1  0.4351282E-004  0.1000000E+04  0.7546771E-02  0.8684367E-01
         11   -1    0    0    0    0  0.00000000000E+00  0.00000000000E+00  0.50000000000E+03  0.50000000000E+03  0.00000000000E+00 0. -1.
        -11   -1    0    0    0    0 -0.00000000000E+00 -0.00000000000E+00 -0.50000000000E+03  0.50000000000E+03  0.00000000000E+00 0.  1.
          5    1    1    2  501    0  0.38270506798E+03  0.18765811404E+03  0.26134110502E+03  0.50000000000E+03  0.47000000000E+01 0. -1.
         -5    1    1    2    0  501 -0.38270506798E+03 -0.18765811404E+03 -0.26134110502E+03  0.50000000000E+03  0.47000000000E+01 0.  1.
</event>
<event>
 4    1  0.4351282E-004  0.1000000E+04  0.7546771E-02  0.8684367E-01
         11   -1    0    0    0    0  0.00000000000E+00  0.00000000000E+00  0.50000000000E+03  0.50000000000E+03  0.00000000000E+00 0. -1.
        -11   -1    0    0    0    0 -0.00000000000E+00 -0.00000000000E+00 -0.50000000000E+03  0.50000000000E+03  0.00000000000E+00 0.  1.
          5    1    1    2  501    0  0.25371449602E+03  0.14245405754E+03  0.40658788226E+03  0.50000000000E+03  0.47000000000E+01 0. -1.
         -5    1    1    2    0  501 -0.25371449602E+03 -0.14245405754E+03 -0.40658788226E+03  0.50000000000E+03  0.47000000000E+01 0.  1.
</event>
<event>
 4    1  0.4351282E-004  0.1000000E+04  0.7546771E-02  0.8684367E-01
         11   -1    0    0    0    0  0.00000000000E+00  0.00000000000E+00  0.50000000000E+03  0.50000000000E+03  0.00000000000E+00 0.  1.
        -11   -1    0    0    0    0 -0.00000000000E+00 -0.00000000000E+00 -0.50000000000E+03  0.50000000000E+03  0.00000000000E+00 0. -1.
          5    1    1    2  501    0 -0.27851009788E+03 -0.62599742367E+02  0.41047692704E+03  0.50000000000E+03  0.47000000000E+01 0.  1.
         -5    1    1    2    0  501  0.27851009788E+03  0.62599742367E+02 -0.41047692704E+03  0.50000000000E+03  0.47000000000E+01 0. -1.
</event>
<event>
 4    1  0.4351282E-004  0.1000000E+04  0.7546771E-02  0.8684367E-01
         11   -1    0    0    0    0  0.00000000000E+00  0.00000000000E+00  0.50000000000E+03  0.50000000000E+03  0.00000000000E+00 0. -1.
        -11   -1    0    0    0    0 -0.00000000000E+00 -0.00000000000E+00 -0.50000000000E+03  0.50000000000E+03  0.00000000000E+00 0.  1.
          5    1    1    2  501    0  0.12982067160E+03 -0.44791915469E+03  0.18025796539E+03  0.50000000000E+03  0.47000000000E+01 0. -1.
         -5    1    1    2    0  501 -0.12982067160E+03  0.44791915469E+03 -0.18025796539E+03  0.50000000000E+03  0.47000000000E+01 0.  1.
</event>
<event>
 4    1  0.4351282E-004  0.1000000E+04  0.7546771E-02  0.8684367E-01
         11   -1    0    0    0    0  0.00000000000E+00  0.00000000000E+00  0.50000000000E+03  0.50000000000E+03  0.00000000000E+00 0. -1.
        -11   -1    0    0    0    0 -0.00000000000E+00 -0.00000000000E+00 -0.50000000000E+03  0.50000000000E+03  0.00000000000E+00 0.  1.
          5    1    1    2  501    0 -0.10482303387E+03  0.44899146936E+02  0.48679986460E+03  0.50000000000E+03  0.47000000000E+01 0. -1.
         -5    1    1    2    0  501  0.10482303387E+03 -0.44899146936E+02 -0.48679986460E+03  0.50000000000E+03  0.47000000000E+01 0.  1.
</event>
<event>
 4    1  0.4351282E-004  0.1000000E+04  0.7546771E-02  0.8684367E-01
         11   -1    0    0    0    0  0.00000000000E+00  0.00000000000E+00  0.50000000000E+03  0.50000000000E+03  0.00000000000E+00 0. -1.
        -11   -1    0    0    0    0 -0.00000000000E+00 -0.00000000000E+00 -0.50000000000E+03  0.50000000000E+03  0.00000000000E+00 0.  1.
          5    1    1    2  501    0 -0.12589215373E+03 -0.42336330458E+03  0.23429167285E+03  0.50000000000E+03  0.47000000000E+01 0. -1.
         -5    1    1    2    0  501  0.12589215373E+03  0.42336330458E+03 -0.23429167285E+03  0.50000000000E+03  0.47000000000E+01 0.  1.
</event>
<event>
 4    1  0.4351282E-004  0.1000000E+04  0.7546771E-02  0.8684367E-01
         11   -1    0    0    0    0  0.00000000000E+00  0.00000000000E+00  0.50000000000E+03  0.50000000000E+03  0.00000000000E+00 0. -1.
        -11   -1    0    0    0    0 -0.00000000000E+00 -0.00000000000E+00 -0.50000000000E+03  0.50000000000E+03  0.00000000000E+00 0.  1.
          5    1    1    2  501    0  0.27288276527E+03 -0.39924973815E+03 -0.12693523154E+03  0.50000000000E+03  0.47000000000E+01 0. -1.
         -5    1    1    2    0  501 -0.27288276527E+03  0.39924973815E+03  0.12693523154E+03  0.50000000000E+03  0.47000000000E+01 0.  1.
</event>
<event>
 4    1  0.4351282E-004  0.1000000E+04  0.7546771E-02  0.8684367E-01
         11   -1    0    0    0    0  0.00000000000E+00  0.00000000000E+00  0.50000000000E+03  0.50000000000E+03  0.00000000000E+00 0. -1.
        -11   -1    0    0    0    0 -0.00000000000E+00 -0.00000000000E+00 -0.50000000000E+03  0.50000000000E+03  0.00000000000E+00 0.  1.
          5    1    1    2  501    0 -0.44585869673E+03 -0.29620658573E+02  0.22430013182E+03  0.50000000000E+03  0.47000000000E+01 0. -1.
         -5    1    1    2    0  501  0.44585869673E+03  0.29620658573E+02 -0.22430013182E+03  0.50000000000E+03  0.47000000000E+01 0.  1.
</event>
<event>
 4    1  0.4351282E-004  0.1000000E+04  0.7546771E-02  0.8684367E-01
         11   -1    0    0    0    0  0.00000000000E+00  0.00000000000E+00  0.50000000000E+03  0.50000000000E+03  0.00000000000E+00 0. -1.
        -11   -1    0    0    0    0 -0.00000000000E+00 -0.00000000000E+00 -0.50000000000E+03  0.50000000000E+03  0.00000000000E+00 0.  1.
          5    1    1    2  501    0 -0.73498715011E+02 -0.11242616547E+03  0.48159755627E+03  0.50000000000E+03  0.47000000000E+01 0. -1.
         -5    1    1    2    0  501  0.73498715011E+02  0.11242616547E+03 -0.48159755627E+03  0.50000000000E+03  0.47000000000E+01 0.  1.
</event>
<event>
 4    1  0.4351282E-004  0.1000000E+04  0.7546771E-02  0.8684367E-01
         11   -1    0    0    0    0  0.00000000000E+00  0.00000000000E+00  0.50000000000E+03  0.50000000000E+03  0.00000000000E+00 0. -1.
        -11   -1    0    0    0    0 -0.00000000000E+00 -0.00000000000E+00 -0.50000000000E+03  0.50000000000E+03  0.00000000000E+00 0.  1.
          5    1    1    2  501    0  0.29962067810E+03 -0.16630177667E+03  0.36407290250E+03  0.50000000000E+03  0.47000000000E+01 0. -1.
         -5    1    1    2    0  501 -0.29962067810E+03  0.16630177667E+03 -0.36407290250E+03  0.50000000000E+03  0.47000000000E+01 0.  1.
</event>
<event>
 4    1  0.4351282E-004  0.1000000E+04  0.7546771E-02  0.8684367E-01
         11   -1    0    0    0    0  0.00000000000E+00  0.00000000000E+00  0.50000000000E+03  0.50000000000E+03  0.00000000000E+00 0. -1.
        -11   -1    0    0    0    0 -0.00000000000E+00 -0.00000000000E+00 -0.50000000000E+03  0.50000000000E+03  0.00000000000E+00 0.  1.
          5    1    1    2  501    0  0.27765438335E+03 -0.12614330290E+03  0.39619921825E+03  0.50000000000E+03  0.47000000000E+01 0. -1.
         -5    1    1    2    0  501 -0.27765438335E+03  0.12614330290E+03 -0.39619921825E+03  0.50000000000E+03  0.47000000000E+01 0.  1.
</event>
<event>
 4    1  0.4351282E-004  0.1000000E+04  0.7546771E-02  0.8684367E-01
         11   -1    0    0    0    0  0.00000000000E+00  0.00000000000E+00  0.50000000000E+03  0.50000000000E+03  0.00000000000E+00 0. -1.
        -11   -1    0    0    0    0 -0.00000000000E+00 -0.00000000000E+00 -0.50000000000E+03  0.50000000000E+03  0.00000000000E+00 0.  1.
          5    1    1    2  501    0 -0.57547205726E+02  0.39885746648E+03  0.29593740984E+03  0.50000000000E+03  0.47000000000E+01 0. -1.
         -5    1    1    2    0  501  0.57547205726E+02 -0.39885746648E+03 -0.29593740984E+03  0.50000000000E+03  0.47000000000E+01 0.  1.
</event>
<event>
 4    1  0.4351282E-004  0.1000000E+04  0.7546771E-02  0.8684367E-01
         11   -1    0    0    0    0  0.00000000000E+00  0.00000000000E+00  0.50000000000E+03  0.50000000000E+03  0.00000000000E+00 0.  1.
        -11   -1    0    0    0    0 -0.00000000000E+00 -0.00000000000E+00 -0.50000000000E+03  0.50000000000E+03  0.00000000000E+00 0. -1.
          5    1    1    2  501    0  0.41978427423E+03 -0.86091303185E+02  0.25757981409E+03  0.50000000000E+03  0.47000000000E+01 0.  1.
         -5    1    1    2    0  501 -0.41978427423E+03  0.86091303185E+02 -0.25757981409E+03  0.50000000000E+03  0.47000000000E+01 0. -1.
</event>
<event>
 4    1  0.4351282E-004  0.1000000E+04  0.7546771E-02  0.8684367E-01
         11   -1    0    0    0    0  0.00000000000E+00  0.00000000000E+00  0.50000000000E+03  0.50000000000E+03  0.00000000000E+00 0. -1.
        -11   -1    0    0    0    0 -0.00000000000E+00 -0.00000000000E+00 -0.50000000000E+03  0.50000000000E+03  0.00000000000E+00 0.  1.
          5    1    1    2  501    0 -0.40196896426E+03 -0.16786099029E+03 -0.24540079403E+03  0.50000000000E+03  0.47000000000E+01 0. -1.
         -5    1    1    2    0  501  0.40196896426E+03  0.16786099029E+03  0.24540079403E+03  0.50000000000E+03  0.47000000000E+01 0.  1.
</event>
<event>
 4    1  0.4351282E-004  0.1000000E+04  0.7546771E-02  0.8684367E-01
         11   -1    0    0    0    0  0.00000000000E+00  0.00000000000E+00  0.50000000000E+03  0.50000000000E+03  0.00000000000E+00 0. -1.
        -11   -1    0    0    0    0 -0.00000000000E+00 -0.00000000000E+00 -0.50000000000E+03  0.50000000000E+03  0.00000000000E+00 0.  1.
          5    1    1    2  501    0 -0.30203808949E+03  0.50458157460E+02  0.39522762662E+03  0.50000000000E+03  0.47000000000E+01 0. -1.
         -5    1    1    2    0  501  0.30203808949E+03 -0.50458157460E+02 -0.39522762662E+03  0.50000000000E+03  0.47000000000E+01 0.  1.
</event>
<event>
 4    1  0.4351282E-004  0.1000000E+04  0.7546771E-02  0.8684367E-01
         11   -1    0    0    0    0  0.00000000000E+00  0.00000000000E+00  0.50000000000E+03  0.50000000000E+03  0.00000000000E+00 0. -1.
        -11   -1    0    0    0    0 -0.00000000000E+00 -0.00000000000E+00 -0.50000000000E+03  0.50000000000E+03  0.00000000000E+00 0.  1.
          5    1    1    2  501    0 -0.18410884648E+03  0.45367779735E+03  0.10128326042E+03  0.50000000000E+03  0.47000000000E+01 0. -1.
         -5    1    1    2    0  501  0.18410884648E+03 -0.45367779735E+03 -0.10128326042E+03  0.50000000000E+03  0.47000000000E+01 0.  1.
</event>
<event>
 4    1  0.4351282E-004  0.1000000E+04  0.7546771E-02  0.8684367E-01
         11   -1    0    0    0    0  0.00000000000E+00  0.00000000000E+00  0.50000000000E+03  0.50000000000E+03  0.00000000000E+00 0. -1.
        -11   -1    0    0    0    0 -0.00000000000E+00 -0.00000000000E+00 -0.50000000000E+03  0.50000000000E+03  0.00000000000E+00 0.  1.
          5    1    1    2  501    0 -0.36095998549E+03  0.25086496771E+03  0.23822797244E+03  0.50000000000E+03  0.47000000000E+01 0. -1.
         -5    1    1    2    0  501  0.36095998549E+03 -0.25086496771E+03 -0.23822797244E+03  0.50000000000E+03  0.47000000000E+01 0.  1.
</event>
<event>
 4    1  0.4351282E-004  0.1000000E+04  0.7546771E-02  0.8684367E-01
         11   -1    0    0    0    0  0.00000000000E+00  0.00000000000E+00  0.50000000000E+03  0.50000000000E+03  0.00000000000E+00 0. -1.
        -11   -1    0    0    0    0 -0.00000000000E+00 -0.00000000000E+00 -0.50000000000E+03  0.50000000000E+03  0.00000000000E+00 0.  1.
          5    1    1    2  501    0  0.28595702647E+03 -0.98855665658E+02  0.39803774492E+03  0.50000000000E+03  0.47000000000E+01 0. -1.
         -5    1    1    2    0  501 -0.28595702647E+03  0.98855665658E+02 -0.39803774492E+03  0.50000000000E+03  0.47000000000E+01 0.  1.
</event>
<event>
 4    1  0.4351282E-004  0.1000000E+04  0.7546771E-02  0.8684367E-01
         11   -1    0    0    0    0  0.00000000000E+00  0.00000000000E+00  0.50000000000E+03  0.50000000000E+03  0.00000000000E+00 0.  1.
        -11   -1    0    0    0    0 -0.00000000000E+00 -0.00000000000E+00 -0.50000000000E+03  0.50000000000E+03  0.00000000000E+00 0. -1.
          5    1    1    2  501    0 -0.10280497262E+03 -0.16083005150E+02  0.48903004463E+03  0.50000000000E+03  0.47000000000E+01 0.  1.
         -5    1    1    2    0  501  0.10280497262E+03  0.16083005150E+02 -0.48903004463E+03  0.50000000000E+03  0.47000000000E+01 0. -1.
</event>
<event>
 4    1  0.4351282E-004  0.1000000E+04  0.7546771E-02  0.8684367E-01
         11   -1    0    0    0    0  0.00000000000E+00  0.00000000000E+00  0.50000000000E+03  0.50000000000E+03  0.00000000000E+00 0.  1.
        -11   -1    0    0    0    0 -0.00000000000E+00 -0.00000000000E+00 -0.50000000000E+03  0.50000000000E+03  0.00000000000E+00 0. -1.
          5    1    1    2  501    0  0.11945362875E+03 -0.36145278008E+03  0.32413057300E+03  0.50000000000E+03  0.47000000000E+01 0.  1.
         -5    1    1    2    0  501 -0.11945362875E+03  0.36145278008E+03 -0.32413057300E+03  0.50000000000E+03  0.47000000000E+01 0. -1.
</event>
<event>
 4    1  0.4351282E-004  0.1000000E+04  0.7546771E-02  0.8684367E-01
         11   -1    0    0    0    0  0.00000000000E+00  0.00000000000E+00  0.50000000000E+03  0.50000000000E+03  0.00000000000E+00 0. -1.
        -11   -1    0    0    0    0 -0.00000000000E+00 -0.00000000000E+00 -0.50000000000E+03  0.50000000000E+03  0.00000000000E+00 0.  1.
          5    1    1    2  501    0 -0.45565955606E+03  0.11915475786E+03 -0.16779279677E+03  0.50000000000E+03  0.47000000000E+01 0. -1.
         -5    1    1    2    0  501  0.45565955606E+03 -0.11915475786E+03  0.16779279677E+03  0.50000000000E+03  0.47000000000E+01 0.  1.
</event>
<event>
 4    1  0.4351282E-004  0.1000000E+04  0.7546771E-02  0.8684367E-01
         11   -1    0    0    0    0  0.00000000000E+00  0.00000000000E+00  0.50000000000E+03  0.50000000000E+03  0.00000000000E+00 0. -1.
        -11   -1    0    0    0    0 -0.00000000000E+00 -0.00000000000E+00 -0.50000000000E+03  0.50000000000E+03  0.00000000000E+00 0.  1.
          5    1    1    2  501    0  0.12824291904E+03  0.33378023191E+03 -0.34946018443E+03  0.50000000000E+03  0.47000000000E+01 0.  1.
         -5    1    1    2    0  501 -0.12824291904E+03 -0.33378023191E+03  0.34946018443E+03  0.50000000000E+03  0.47000000000E+01 0. -1.
</event>
<event>
 4    1  0.4351282E-004  0.1000000E+04  0.7546771E-02  0.8684367E-01
         11   -1    0    0    0    0  0.00000000000E+00  0.00000000000E+00  0.50000000000E+03  0.50000000000E+03  0.00000000000E+00 0. -1.
        -11   -1    0    0    0    0 -0.00000000000E+00 -0.00000000000E+00 -0.50000000000E+03  0.50000000000E+03  0.00000000000E+00 0.  1.
          5    1    1    2  501    0 -0.93625669552E+02 -0.10327564397E+03  0.48015235641E+03  0.50000000000E+03  0.47000000000E+01 0. -1.
         -5    1    1    2    0  501  0.93625669552E+02  0.10327564397E+03 -0.48015235641E+03  0.50000000000E+03  0.47000000000E+01 0.  1.
</event>
<event>
 4    1  0.4351282E-004  0.1000000E+04  0.7546771E-02  0.8684367E-01
         11   -1    0    0    0    0  0.00000000000E+00  0.00000000000E+00  0.50000000000E+03  0.50000000000E+03  0.00000000000E+00 0. -1.
        -11   -1    0    0    0    0 -0.00000000000E+00 -0.00000000000E+00 -0.50000000000E+03  0.50000000000E+03  0.00000000000E+00 0.  1.
          5    1    1    2  501    0 -0.45632094452E+03 -0.45305271746E+02  0.19923990047E+03  0.50000000000E+03  0.47000000000E+01 0. -1.
         -5    1    1    2    0  501  0.45632094452E+03  0.45305271746E+02 -0.19923990047E+03  0.50000000000E+03  0.47000000000E+01 0.  1.
</event>
<event>
 4    1  0.4351282E-004  0.1000000E+04  0.7546771E-02  0.8684367E-01
         11   -1    0    0    0    0  0.00000000000E+00  0.00000000000E+00  0.50000000000E+03  0.50000000000E+03  0.00000000000E+00 0. -1.
        -11   -1    0    0    0    0 -0.00000000000E+00 -0.00000000000E+00 -0.50000000000E+03  0.50000000000E+03  0.00000000000E+00 0.  1.
          5    1    1    2  501    0  0.22735202310E+03  0.40111053486E+03  0.19338900283E+03  0.50000000000E+03  0.47000000000E+01 0. -1.
         -5    1    1    2    0  501 -0.22735202310E+03 -0.40111053486E+03 -0.19338900283E+03  0.50000000000E+03  0.47000000000E+01 0.  1.
</event>
<event>
 4    1  0.4351282E-004  0.1000000E+04  0.7546771E-02  0.8684367E-01
         11   -1    0    0    0    0  0.00000000000E+00  0.00000000000E+00  0.50000000000E+03  0.50000000000E+03  0.00000000000E+00 0. -1.
        -11   -1    0    0    0    0 -0.00000000000E+00 -0.00000000000E+00 -0.50000000000E+03  0.50000000000E+03  0.00000000000E+00 0.  1.
          5    1    1    2  501    0  0.75839598100E+02  0.15710374175E+03  0.46855595150E+03  0.50000000000E+03  0.47000000000E+01 0. -1.
         -5    1    1    2    0  501 -0.75839598100E+02 -0.15710374175E+03 -0.46855595150E+03  0.50000000000E+03  0.47000000000E+01 0.  1.
</event>
<event>
 4    1  0.4351282E-004  0.1000000E+04  0.7546771E-02  0.8684367E-01
         11   -1    0    0    0    0  0.00000000000E+00  0.00000000000E+00  0.50000000000E+03  0.50000000000E+03  0.00000000000E+00 0. -1.
        -11   -1    0    0    0    0 -0.00000000000E+00 -0.00000000000E+00 -0.50000000000E+03  0.50000000000E+03  0.00000000000E+00 0.  1.
          5    1    1    2  501    0  0.58906801828E+01 -0.48331862573E+03  0.12785271178E+03  0.50000000000E+03  0.47000000000E+01 0. -1.
         -5    1    1    2    0  501 -0.58906801828E+01  0.48331862573E+03 -0.12785271178E+03  0.50000000000E+03  0.47000000000E+01 0.  1.
</event>
<event>
 4    1  0.4351282E-004  0.1000000E+04  0.7546771E-02  0.8684367E-01
         11   -1    0    0    0    0  0.00000000000E+00  0.00000000000E+00  0.50000000000E+03  0.50000000000E+03  0.00000000000E+00 0. -1.
        -11   -1    0    0    0    0 -0.00000000000E+00 -0.00000000000E+00 -0.50000000000E+03  0.50000000000E+03  0.00000000000E+00 0.  1.
          5    1    1    2  501    0  0.18936145692E+03  0.43155009545E+03  0.16698701672E+03  0.50000000000E+03  0.47000000000E+01 0. -1.
         -5    1    1    2    0  501 -0.18936145692E+03 -0.43155009545E+03 -0.16698701672E+03  0.50000000000E+03  0.47000000000E+01 0.  1.
</event>
<event>
 4    1  0.4351282E-004  0.1000000E+04  0.7546771E-02  0.8684367E-01
         11   -1    0    0    0    0  0.00000000000E+00  0.00000000000E+00  0.50000000000E+03  0.50000000000E+03  0.00000000000E+00 0. -1.
        -11   -1    0    0    0    0 -0.00000000000E+00 -0.00000000000E+00 -0.50000000000E+03  0.50000000000E+03  0.00000000000E+00 0.  1.
          5    1    1    2  501    0 -0.40628057322E+03 -0.21475072925E+03 -0.19696733260E+03  0.50000000000E+03  0.47000000000E+01 0. -1.
         -5    1    1    2    0  501  0.40628057322E+03  0.21475072925E+03  0.19696733260E+03  0.50000000000E+03  0.47000000000E+01 0.  1.
</event>
<event>
 4    1  0.4351282E-004  0.1000000E+04  0.7546771E-02  0.8684367E-01
         11   -1    0    0    0    0  0.00000000000E+00  0.00000000000E+00  0.50000000000E+03  0.50000000000E+03  0.00000000000E+00 0. -1.
        -11   -1    0    0    0    0 -0.00000000000E+00 -0.00000000000E+00 -0.50000000000E+03  0.50000000000E+03  0.00000000000E+00 0.  1.
          5    1    1    2  501    0 -0.36483060049E+03 -0.29363430031E+02  0.34060876666E+03  0.50000000000E+03  0.47000000000E+01 0. -1.
         -5    1    1    2    0  501  0.36483060049E+03  0.29363430031E+02 -0.34060876666E+03  0.50000000000E+03  0.47000000000E+01 0.  1.
</event>
<event>
 4    1  0.4351282E-004  0.1000000E+04  0.7546771E-02  0.8684367E-01
         11   -1    0    0    0    0  0.00000000000E+00  0.00000000000E+00  0.50000000000E+03  0.50000000000E+03  0.00000000000E+00 0. -1.
        -11   -1    0    0    0    0 -0.00000000000E+00 -0.00000000000E+00 -0.50000000000E+03  0.50000000000E+03  0.00000000000E+00 0.  1.
          5    1    1    2  501    0 -0.35162047889E+02 -0.35442795924E+01  0.49872735885E+03  0.50000000000E+03  0.47000000000E+01 0. -1.
         -5    1    1    2    0  501  0.35162047889E+02  0.35442795924E+01 -0.49872735885E+03  0.50000000000E+03  0.47000000000E+01 0.  1.
</event>
<event>
 4    1  0.4351282E-004  0.1000000E+04  0.7546771E-02  0.8684367E-01
         11   -1    0    0    0    0  0.00000000000E+00  0.00000000000E+00  0.50000000000E+03  0.50000000000E+03  0.00000000000E+00 0. -1.
        -11   -1    0    0    0    0 -0.00000000000E+00 -0.00000000000E+00 -0.50000000000E+03  0.50000000000E+03  0.00000000000E+00 0.  1.
          5    1    1    2  501    0  0.34712384181E+02  0.19950934300E+03  0.45713125297E+03  0.50000000000E+03  0.47000000000E+01 0. -1.
         -5    1    1    2    0  501 -0.34712384181E+02 -0.19950934300E+03 -0.45713125297E+03  0.50000000000E+03  0.47000000000E+01 0.  1.
</event>
<event>
 4    1  0.4351282E-004  0.1000000E+04  0.7546771E-02  0.8684367E-01
         11   -1    0    0    0    0  0.00000000000E+00  0.00000000000E+00  0.50000000000E+03  0.50000000000E+03  0.00000000000E+00 0. -1.
        -11   -1    0    0    0    0 -0.00000000000E+00 -0.00000000000E+00 -0.50000000000E+03  0.50000000000E+03  0.00000000000E+00 0.  1.
          5    1    1    2  501    0 -0.40935866767E+03 -0.26396018094E+03  0.11282027336E+03  0.50000000000E+03  0.47000000000E+01 0. -1.
         -5    1    1    2    0  501  0.40935866767E+03  0.26396018094E+03 -0.11282027336E+03  0.50000000000E+03  0.47000000000E+01 0.  1.
</event>
<event>
 4    1  0.4351282E-004  0.1000000E+04  0.7546771E-02  0.8684367E-01
         11   -1    0    0    0    0  0.00000000000E+00  0.00000000000E+00  0.50000000000E+03  0.50000000000E+03  0.00000000000E+00 0. -1.
        -11   -1    0    0    0    0 -0.00000000000E+00 -0.00000000000E+00 -0.50000000000E+03  0.50000000000E+03  0.00000000000E+00 0.  1.
          5    1    1    2  501    0  0.17532125828E+03 -0.40323879415E+03  0.23798916213E+03  0.50000000000E+03  0.47000000000E+01 0. -1.
         -5    1    1    2    0  501 -0.17532125828E+03  0.40323879415E+03 -0.23798916213E+03  0.50000000000E+03  0.47000000000E+01 0.  1.
</event>
<event>
 4    1  0.4351282E-004  0.1000000E+04  0.7546771E-02  0.8684367E-01
         11   -1    0    0    0    0  0.00000000000E+00  0.00000000000E+00  0.50000000000E+03  0.50000000000E+03  0.00000000000E+00 0. -1.
        -11   -1    0    0    0    0 -0.00000000000E+00 -0.00000000000E+00 -0.50000000000E+03  0.50000000000E+03  0.00000000000E+00 0.  1.
          5    1    1    2  501    0  0.19844925742E+03  0.22838693199E+03  0.39803920853E+03  0.50000000000E+03  0.47000000000E+01 0. -1.
         -5    1    1    2    0  501 -0.19844925742E+03 -0.22838693199E+03 -0.39803920853E+03  0.50000000000E+03  0.47000000000E+01 0.  1.
</event>
<event>
 4    1  0.4351282E-004  0.1000000E+04  0.7546771E-02  0.8684367E-01
         11   -1    0    0    0    0  0.00000000000E+00  0.00000000000E+00  0.50000000000E+03  0.50000000000E+03  0.00000000000E+00 0. -1.
        -11   -1    0    0    0    0 -0.00000000000E+00 -0.00000000000E+00 -0.50000000000E+03  0.50000000000E+03  0.00000000000E+00 0.  1.
          5    1    1    2  501    0 -0.34153527611E+02  0.18003886550E+03  0.46518539687E+03  0.50000000000E+03  0.47000000000E+01 0. -1.
         -5    1    1    2    0  501  0.34153527611E+02 -0.18003886550E+03 -0.46518539687E+03  0.50000000000E+03  0.47000000000E+01 0.  1.
</event>
<event>
 4    1  0.4351282E-004  0.1000000E+04  0.7546771E-02  0.8684367E-01
         11   -1    0    0    0    0  0.00000000000E+00  0.00000000000E+00  0.50000000000E+03  0.50000000000E+03  0.00000000000E+00 0. -1.
        -11   -1    0    0    0    0 -0.00000000000E+00 -0.00000000000E+00 -0.50000000000E+03  0.50000000000E+03  0.00000000000E+00 0.  1.
          5    1    1    2  501    0 -0.45718336007E+03 -0.18192445786E+02  0.20156964104E+03  0.50000000000E+03  0.47000000000E+01 0. -1.
         -5    1    1    2    0  501  0.45718336007E+03  0.18192445786E+02 -0.20156964104E+03  0.50000000000E+03  0.47000000000E+01 0.  1.
</event>
<event>
 4    1  0.4351282E-004  0.1000000E+04  0.7546771E-02  0.8684367E-01
         11   -1    0    0    0    0  0.00000000000E+00  0.00000000000E+00  0.50000000000E+03  0.50000000000E+03  0.00000000000E+00 0. -1.
        -11   -1    0    0    0    0 -0.00000000000E+00 -0.00000000000E+00 -0.50000000000E+03  0.50000000000E+03  0.00000000000E+00 0.  1.
          5    1    1    2  501    0 -0.41873056050E+03 -0.15992361650E+03  0.22151086789E+03  0.50000000000E+03  0.47000000000E+01 0. -1.
         -5    1    1    2    0  501  0.41873056050E+03  0.15992361650E+03 -0.22151086789E+03  0.50000000000E+03  0.47000000000E+01 0.  1.
</event>
<event>
 4    1  0.4351282E-004  0.1000000E+04  0.7546771E-02  0.8684367E-01
         11   -1    0    0    0    0  0.00000000000E+00  0.00000000000E+00  0.50000000000E+03  0.50000000000E+03  0.00000000000E+00 0. -1.
        -11   -1    0    0    0    0 -0.00000000000E+00 -0.00000000000E+00 -0.50000000000E+03  0.50000000000E+03  0.00000000000E+00 0.  1.
          5    1    1    2  501    0 -0.21283218532E+03  0.19597014759E+03  0.40776963122E+03  0.50000000000E+03  0.47000000000E+01 0. -1.
         -5    1    1    2    0  501  0.21283218532E+03 -0.19597014759E+03 -0.40776963122E+03  0.50000000000E+03  0.47000000000E+01 0.  1.
</event>
<event>
 4    1  0.4351282E-004  0.1000000E+04  0.7546771E-02  0.8684367E-01
         11   -1    0    0    0    0  0.00000000000E+00  0.00000000000E+00  0.50000000000E+03  0.50000000000E+03  0.00000000000E+00 0.  1.
        -11   -1    0    0    0    0 -0.00000000000E+00 -0.00000000000E+00 -0.50000000000E+03  0.50000000000E+03  0.00000000000E+00 0. -1.
          5    1    1    2  501    0  0.35452866222E+02  0.75717385947E+02  0.49293801004E+03  0.50000000000E+03  0.47000000000E+01 0.  1.
         -5    1    1    2    0  501 -0.35452866222E+02 -0.75717385947E+02 -0.49293801004E+03  0.50000000000E+03  0.47000000000E+01 0. -1.
</event>
<event>
 4    1  0.4351282E-004  0.1000000E+04  0.7546771E-02  0.8684367E-01
         11   -1    0    0    0    0  0.00000000000E+00  0.00000000000E+00  0.50000000000E+03  0.50000000000E+03  0.00000000000E+00 0. -1.
        -11   -1    0    0    0    0 -0.00000000000E+00 -0.00000000000E+00 -0.50000000000E+03  0.50000000000E+03  0.00000000000E+00 0.  1.
          5    1    1    2  501    0  0.24357183627E+03 -0.19903023153E+03  0.38863561020E+03  0.50000000000E+03  0.47000000000E+01 0. -1.
         -5    1    1    2    0  501 -0.24357183627E+03  0.19903023153E+03 -0.38863561020E+03  0.50000000000E+03  0.47000000000E+01 0.  1.
</event>
<event>
 4    1  0.4351282E-004  0.1000000E+04  0.7546771E-02  0.8684367E-01
         11   -1    0    0    0    0  0.00000000000E+00  0.00000000000E+00  0.50000000000E+03  0.50000000000E+03  0.00000000000E+00 0. -1.
        -11   -1    0    0    0    0 -0.00000000000E+00 -0.00000000000E+00 -0.50000000000E+03  0.50000000000E+03  0.00000000000E+00 0.  1.
          5    1    1    2  501    0 -0.10798282516E+03 -0.18616280690E+03  0.45128818819E+03  0.50000000000E+03  0.47000000000E+01 0. -1.
         -5    1    1    2    0  501  0.10798282516E+03  0.18616280690E+03 -0.45128818819E+03  0.50000000000E+03  0.47000000000E+01 0.  1.
</event>
<event>
 4    1  0.4351282E-004  0.1000000E+04  0.7546771E-02  0.8684367E-01
         11   -1    0    0    0    0  0.00000000000E+00  0.00000000000E+00  0.50000000000E+03  0.50000000000E+03  0.00000000000E+00 0.  1.
        -11   -1    0    0    0    0 -0.00000000000E+00 -0.00000000000E+00 -0.50000000000E+03  0.50000000000E+03  0.00000000000E+00 0. -1.
          5    1    1    2  501    0 -0.42764158670E+02 -0.15028266675E+03  0.47493605549E+03  0.50000000000E+03  0.47000000000E+01 0.  1.
         -5    1    1    2    0  501  0.42764158670E+02  0.15028266675E+03 -0.47493605549E+03  0.50000000000E+03  0.47000000000E+01 0. -1.
</event>
<event>
 4    1  0.4351282E-004  0.1000000E+04  0.7546771E-02  0.8684367E-01
         11   -1    0    0    0    0  0.00000000000E+00  0.00000000000E+00  0.50000000000E+03  0.50000000000E+03  0.00000000000E+00 0. -1.
        -11   -1    0    0    0    0 -0.00000000000E+00 -0.00000000000E+00 -0.50000000000E+03  0.50000000000E+03  0.00000000000E+00 0.  1.
          5    1    1    2  501    0 -0.92557414354E+02 -0.16132702400E+03  0.46409549273E+03  0.50000000000E+03  0.47000000000E+01 0. -1.
         -5    1    1    2    0  501  0.92557414354E+02  0.16132702400E+03 -0.46409549273E+03  0.50000000000E+03  0.47000000000E+01 0.  1.
</event>
<event>
 4    1  0.4351282E-004  0.1000000E+04  0.7546771E-02  0.8684367E-01
         11   -1    0    0    0    0  0.00000000000E+00  0.00000000000E+00  0.50000000000E+03  0.50000000000E+03  0.00000000000E+00 0.  1.
        -11   -1    0    0    0    0 -0.00000000000E+00 -0.00000000000E+00 -0.50000000000E+03  0.50000000000E+03  0.00000000000E+00 0. -1.
          5    1    1    2  501    0 -0.40649355039E+03 -0.56208810638E+02  0.28562470674E+03  0.50000000000E+03  0.47000000000E+01 0.  1.
         -5    1    1    2    0  501  0.40649355039E+03  0.56208810638E+02 -0.28562470674E+03  0.50000000000E+03  0.47000000000E+01 0. -1.
</event>
<event>
 4    1  0.4351282E-004  0.1000000E+04  0.7546771E-02  0.8684367E-01
         11   -1    0    0    0    0  0.00000000000E+00  0.00000000000E+00  0.50000000000E+03  0.50000000000E+03  0.00000000000E+00 0. -1.
        -11   -1    0    0    0    0 -0.00000000000E+00 -0.00000000000E+00 -0.50000000000E+03  0.50000000000E+03  0.00000000000E+00 0.  1.
          5    1    1    2  501    0  0.16493899142E+03  0.38855781961E+03  0.26794749472E+03  0.50000000000E+03  0.47000000000E+01 0. -1.
         -5    1    1    2    0  501 -0.16493899142E+03 -0.38855781961E+03 -0.26794749472E+03  0.50000000000E+03  0.47000000000E+01 0.  1.
</event>
<event>
 4    1  0.4351282E-004  0.1000000E+04  0.7546771E-02  0.8684367E-01
         11   -1    0    0    0    0  0.00000000000E+00  0.00000000000E+00  0.50000000000E+03  0.50000000000E+03  0.00000000000E+00 0. -1.
        -11   -1    0    0    0    0 -0.00000000000E+00 -0.00000000000E+00 -0.50000000000E+03  0.50000000000E+03  0.00000000000E+00 0.  1.
          5    1    1    2  501    0 -0.23193725505E+03 -0.44261395028E+03  0.16610561031E+02  0.50000000000E+03  0.47000000000E+01 0. -1.
         -5    1    1    2    0  501  0.23193725505E+03  0.44261395028E+03 -0.16610561031E+02  0.50000000000E+03  0.47000000000E+01 0.  1.
</event>
<event>
 4    1  0.4351282E-004  0.1000000E+04  0.7546771E-02  0.8684367E-01
         11   -1    0    0    0    0  0.00000000000E+00  0.00000000000E+00  0.50000000000E+03  0.50000000000E+03  0.00000000000E+00 0.  1.
        -11   -1    0    0    0    0 -0.00000000000E+00 -0.00000000000E+00 -0.50000000000E+03  0.50000000000E+03  0.00000000000E+00 0. -1.
          5    1    1    2  501    0  0.15762650953E+03  0.38519849939E+02  0.47291438406E+03  0.50000000000E+03  0.47000000000E+01 0.  1.
         -5    1    1    2    0  501 -0.15762650953E+03 -0.38519849939E+02 -0.47291438406E+03  0.50000000000E+03  0.47000000000E+01 0. -1.
</event>
<event>
 4    1  0.4351282E-004  0.1000000E+04  0.7546771E-02  0.8684367E-01
         11   -1    0    0    0    0  0.00000000000E+00  0.00000000000E+00  0.50000000000E+03  0.50000000000E+03  0.00000000000E+00 0. -1.
        -11   -1    0    0    0    0 -0.00000000000E+00 -0.00000000000E+00 -0.50000000000E+03  0.50000000000E+03  0.00000000000E+00 0.  1.
          5    1    1    2  501    0  0.25504889914E+03  0.39014186339E+03  0.18087922898E+03  0.50000000000E+03  0.47000000000E+01 0. -1.
         -5    1    1    2    0  501 -0.25504889914E+03 -0.39014186339E+03 -0.18087922898E+03  0.50000000000E+03  0.47000000000E+01 0.  1.
</event>
<event>
 4    1  0.4351282E-004  0.1000000E+04  0.7546771E-02  0.8684367E-01
         11   -1    0    0    0    0  0.00000000000E+00  0.00000000000E+00  0.50000000000E+03  0.50000000000E+03  0.00000000000E+00 0. -1.
        -11   -1    0    0    0    0 -0.00000000000E+00 -0.00000000000E+00 -0.50000000000E+03  0.50000000000E+03  0.00000000000E+00 0.  1.
          5    1    1    2  501    0 -0.97717952019E+02  0.48942488981E+03  0.29872882079E+02  0.50000000000E+03  0.47000000000E+01 0. -1.
         -5    1    1    2    0  501  0.97717952019E+02 -0.48942488981E+03 -0.29872882079E+02  0.50000000000E+03  0.47000000000E+01 0.  1.
</event>
<event>
 4    1  0.4351282E-004  0.1000000E+04  0.7546771E-02  0.8684367E-01
         11   -1    0    0    0    0  0.00000000000E+00  0.00000000000E+00  0.50000000000E+03  0.50000000000E+03  0.00000000000E+00 0. -1.
        -11   -1    0    0    0    0 -0.00000000000E+00 -0.00000000000E+00 -0.50000000000E+03  0.50000000000E+03  0.00000000000E+00 0.  1.
          5    1    1    2  501    0  0.46843379764E+02  0.40884096446E+03  0.28395892934E+03  0.50000000000E+03  0.47000000000E+01 0. -1.
         -5    1    1    2    0  501 -0.46843379764E+02 -0.40884096446E+03 -0.28395892934E+03  0.50000000000E+03  0.47000000000E+01 0.  1.
</event>
<event>
 4    1  0.4351282E-004  0.1000000E+04  0.7546771E-02  0.8684367E-01
         11   -1    0    0    0    0  0.00000000000E+00  0.00000000000E+00  0.50000000000E+03  0.50000000000E+03  0.00000000000E+00 0. -1.
        -11   -1    0    0    0    0 -0.00000000000E+00 -0.00000000000E+00 -0.50000000000E+03  0.50000000000E+03  0.00000000000E+00 0.  1.
          5    1    1    2  501    0 -0.31677821103E+03  0.33433173703E+03  0.19455529966E+03  0.50000000000E+03  0.47000000000E+01 0. -1.
         -5    1    1    2    0  501  0.31677821103E+03 -0.33433173703E+03 -0.19455529966E+03  0.50000000000E+03  0.47000000000E+01 0.  1.
</event>
<event>
 4    1  0.4351282E-004  0.1000000E+04  0.7546771E-02  0.8684367E-01
         11   -1    0    0    0    0  0.00000000000E+00  0.00000000000E+00  0.50000000000E+03  0.50000000000E+03  0.00000000000E+00 0. -1.
        -11   -1    0    0    0    0 -0.00000000000E+00 -0.00000000000E+00 -0.50000000000E+03  0.50000000000E+03  0.00000000000E+00 0.  1.
          5    1    1    2  501    0 -0.37701251954E+03 -0.96985811454E+01 -0.32824595601E+03  0.50000000000E+03  0.47000000000E+01 0. -1.
         -5    1    1    2    0  501  0.37701251954E+03  0.96985811454E+01  0.32824595601E+03  0.50000000000E+03  0.47000000000E+01 0.  1.
</event>
<event>
 4    1  0.4351282E-004  0.1000000E+04  0.7546771E-02  0.8684367E-01
         11   -1    0    0    0    0  0.00000000000E+00  0.00000000000E+00  0.50000000000E+03  0.50000000000E+03  0.00000000000E+00 0. -1.
        -11   -1    0    0    0    0 -0.00000000000E+00 -0.00000000000E+00 -0.50000000000E+03  0.50000000000E+03  0.00000000000E+00 0.  1.
          5    1    1    2  501    0  0.35471311617E+03 -0.19058675190E+03  0.29636667360E+03  0.50000000000E+03  0.47000000000E+01 0. -1.
         -5    1    1    2    0  501 -0.35471311617E+03  0.19058675190E+03 -0.29636667360E+03  0.50000000000E+03  0.47000000000E+01 0.  1.
</event>
<event>
 4    1  0.4351282E-004  0.1000000E+04  0.7546771E-02  0.8684367E-01
         11   -1    0    0    0    0  0.00000000000E+00  0.00000000000E+00  0.50000000000E+03  0.50000000000E+03  0.00000000000E+00 0. -1.
        -11   -1    0    0    0    0 -0.00000000000E+00 -0.00000000000E+00 -0.50000000000E+03  0.50000000000E+03  0.00000000000E+00 0.  1.
          5    1    1    2  501    0  0.14818450238E+03  0.44921842656E+03  0.16193229601E+03  0.50000000000E+03  0.47000000000E+01 0. -1.
         -5    1    1    2    0  501 -0.14818450238E+03 -0.44921842656E+03 -0.16193229601E+03  0.50000000000E+03  0.47000000000E+01 0.  1.
</event>
<event>
 4    1  0.4351282E-004  0.1000000E+04  0.7546771E-02  0.8684367E-01
         11   -1    0    0    0    0  0.00000000000E+00  0.00000000000E+00  0.50000000000E+03  0.50000000000E+03  0.00000000000E+00 0. -1.
        -11   -1    0    0    0    0 -0.00000000000E+00 -0.00000000000E+00 -0.50000000000E+03  0.50000000000E+03  0.00000000000E+00 0.  1.
          5    1    1    2  501    0  0.18807008937E+03  0.43980864853E+03  0.14551942881E+03  0.50000000000E+03  0.47000000000E+01 0. -1.
         -5    1    1    2    0  501 -0.18807008937E+03 -0.43980864853E+03 -0.14551942881E+03  0.50000000000E+03  0.47000000000E+01 0.  1.
</event>
<event>
 4    1  0.4351282E-004  0.1000000E+04  0.7546771E-02  0.8684367E-01
         11   -1    0    0    0    0  0.00000000000E+00  0.00000000000E+00  0.50000000000E+03  0.50000000000E+03  0.00000000000E+00 0. -1.
        -11   -1    0    0    0    0 -0.00000000000E+00 -0.00000000000E+00 -0.50000000000E+03  0.50000000000E+03  0.00000000000E+00 0.  1.
          5    1    1    2  501    0  0.48441392202E+03  0.34771226733E+02 -0.11879404002E+03  0.50000000000E+03  0.47000000000E+01 0. -1.
         -5    1    1    2    0  501 -0.48441392202E+03 -0.34771226733E+02  0.11879404002E+03  0.50000000000E+03  0.47000000000E+01 0.  1.
</event>
<event>
 4    1  0.4351282E-004  0.1000000E+04  0.7546771E-02  0.8684367E-01
         11   -1    0    0    0    0  0.00000000000E+00  0.00000000000E+00  0.50000000000E+03  0.50000000000E+03  0.00000000000E+00 0. -1.
        -11   -1    0    0    0    0 -0.00000000000E+00 -0.00000000000E+00 -0.50000000000E+03  0.50000000000E+03  0.00000000000E+00 0.  1.
          5    1    1    2  501    0  0.25490046137E+03 -0.22918525150E+03  0.36397497893E+03  0.50000000000E+03  0.47000000000E+01 0. -1.
         -5    1    1    2    0  501 -0.25490046137E+03  0.22918525150E+03 -0.36397497893E+03  0.50000000000E+03  0.47000000000E+01 0.  1.
</event>
<event>
 4    1  0.4351282E-004  0.1000000E+04  0.7546771E-02  0.8684367E-01
         11   -1    0    0    0    0  0.00000000000E+00  0.00000000000E+00  0.50000000000E+03  0.50000000000E+03  0.00000000000E+00 0. -1.
        -11   -1    0    0    0    0 -0.00000000000E+00 -0.00000000000E+00 -0.50000000000E+03  0.50000000000E+03  0.00000000000E+00 0.  1.
          5    1    1    2  501    0  0.28282492185E+02 -0.24617374971E+03  0.43425395287E+03  0.50000000000E+03  0.47000000000E+01 0. -1.
         -5    1    1    2    0  501 -0.28282492185E+02  0.24617374971E+03 -0.43425395287E+03  0.50000000000E+03  0.47000000000E+01 0.  1.
</event>
<event>
 4    1  0.4351282E-004  0.1000000E+04  0.7546771E-02  0.8684367E-01
         11   -1    0    0    0    0  0.00000000000E+00  0.00000000000E+00  0.50000000000E+03  0.50000000000E+03  0.00000000000E+00 0.  1.
        -11   -1    0    0    0    0 -0.00000000000E+00 -0.00000000000E+00 -0.50000000000E+03  0.50000000000E+03  0.00000000000E+00 0. -1.
          5    1    1    2  501    0  0.12116521239E+03  0.22383717092E+03 -0.43034151813E+03  0.50000000000E+03  0.47000000000E+01 0. -1.
         -5    1    1    2    0  501 -0.12116521239E+03 -0.22383717092E+03  0.43034151813E+03  0.50000000000E+03  0.47000000000E+01 0.  1.
</event>
<event>
 4    1  0.4351282E-004  0.1000000E+04  0.7546771E-02  0.8684367E-01
         11   -1    0    0    0    0  0.00000000000E+00  0.00000000000E+00  0.50000000000E+03  0.50000000000E+03  0.00000000000E+00 0. -1.
        -11   -1    0    0    0    0 -0.00000000000E+00 -0.00000000000E+00 -0.50000000000E+03  0.50000000000E+03  0.00000000000E+00 0.  1.
          5    1    1    2  501    0  0.61426631697E+02  0.44084964043E+03  0.22771972566E+03  0.50000000000E+03  0.47000000000E+01 0. -1.
         -5    1    1    2    0  501 -0.61426631697E+02 -0.44084964043E+03 -0.22771972566E+03  0.50000000000E+03  0.47000000000E+01 0.  1.
</event>
<event>
 4    1  0.4351282E-004  0.1000000E+04  0.7546771E-02  0.8684367E-01
         11   -1    0    0    0    0  0.00000000000E+00  0.00000000000E+00  0.50000000000E+03  0.50000000000E+03  0.00000000000E+00 0.  1.
        -11   -1    0    0    0    0 -0.00000000000E+00 -0.00000000000E+00 -0.50000000000E+03  0.50000000000E+03  0.00000000000E+00 0. -1.
          5    1    1    2  501    0  0.28605485002E+03 -0.22559842546E+03 -0.34242646395E+03  0.50000000000E+03  0.47000000000E+01 0. -1.
         -5    1    1    2    0  501 -0.28605485002E+03  0.22559842546E+03  0.34242646395E+03  0.50000000000E+03  0.47000000000E+01 0.  1.
</event>
<event>
 4    1  0.4351282E-004  0.1000000E+04  0.7546771E-02  0.8684367E-01
         11   -1    0    0    0    0  0.00000000000E+00  0.00000000000E+00  0.50000000000E+03  0.50000000000E+03  0.00000000000E+00 0. -1.
        -11   -1    0    0    0    0 -0.00000000000E+00 -0.00000000000E+00 -0.50000000000E+03  0.50000000000E+03  0.00000000000E+00 0.  1.
          5    1    1    2  501    0  0.15305775005E+02  0.48083195183E+03  0.13617737459E+03  0.50000000000E+03  0.47000000000E+01 0. -1.
         -5    1    1    2    0  501 -0.15305775005E+02 -0.48083195183E+03 -0.13617737459E+03  0.50000000000E+03  0.47000000000E+01 0.  1.
</event>
<event>
 4    1  0.4351282E-004  0.1000000E+04  0.7546771E-02  0.8684367E-01
         11   -1    0    0    0    0  0.00000000000E+00  0.00000000000E+00  0.50000000000E+03  0.50000000000E+03  0.00000000000E+00 0. -1.
        -11   -1    0    0    0    0 -0.00000000000E+00 -0.00000000000E+00 -0.50000000000E+03  0.50000000000E+03  0.00000000000E+00 0.  1.
          5    1    1    2  501    0 -0.97324682049E+02  0.31715379047E+03  0.37405786913E+03  0.50000000000E+03  0.47000000000E+01 0. -1.
         -5    1    1    2    0  501  0.97324682049E+02 -0.31715379047E+03 -0.37405786913E+03  0.50000000000E+03  0.47000000000E+01 0.  1.
</event>
<event>
 4    1  0.4351282E-004  0.1000000E+04  0.7546771E-02  0.8684367E-01
         11   -1    0    0    0    0  0.00000000000E+00  0.00000000000E+00  0.50000000000E+03  0.50000000000E+03  0.00000000000E+00 0. -1.
        -11   -1    0    0    0    0 -0.00000000000E+00 -0.00000000000E+00 -0.50000000000E+03  0.50000000000E+03  0.00000000000E+00 0.  1.
          5    1    1    2  501    0 -0.20568853504E+02  0.45670892216E+03  0.20241490233E+03  0.50000000000E+03  0.47000000000E+01 0. -1.
         -5    1    1    2    0  501  0.20568853504E+02 -0.45670892216E+03 -0.20241490233E+03  0.50000000000E+03  0.47000000000E+01 0.  1.
</event>
<event>
 4    1  0.4351282E-004  0.1000000E+04  0.7546771E-02  0.8684367E-01
         11   -1    0    0    0    0  0.00000000000E+00  0.00000000000E+00  0.50000000000E+03  0.50000000000E+03  0.00000000000E+00 0. -1.
        -11   -1    0    0    0    0 -0.00000000000E+00 -0.00000000000E+00 -0.50000000000E+03  0.50000000000E+03  0.00000000000E+00 0.  1.
          5    1    1    2  501    0  0.40554818089E+03 -0.23601022909E+03 -0.17264922457E+03  0.50000000000E+03  0.47000000000E+01 0. -1.
         -5    1    1    2    0  501 -0.40554818089E+03  0.23601022909E+03  0.17264922457E+03  0.50000000000E+03  0.47000000000E+01 0.  1.
</event>
<event>
 4    1  0.4351282E-004  0.1000000E+04  0.7546771E-02  0.8684367E-01
         11   -1    0    0    0    0  0.00000000000E+00  0.00000000000E+00  0.50000000000E+03  0.50000000000E+03  0.00000000000E+00 0. -1.
        -11   -1    0    0    0    0 -0.00000000000E+00 -0.00000000000E+00 -0.50000000000E+03  0.50000000000E+03  0.00000000000E+00 0.  1.
          5    1    1    2  501    0 -0.45953880382E+03  0.19688694506E+03 -0.61260628687E+01  0.50000000000E+03  0.47000000000E+01 0. -1.
         -5    1    1    2    0  501  0.45953880382E+03 -0.19688694506E+03  0.61260628687E+01  0.50000000000E+03  0.47000000000E+01 0.  1.
</event>
<event>
 4    1  0.4351282E-004  0.1000000E+04  0.7546771E-02  0.8684367E-01
         11   -1    0    0    0    0  0.00000000000E+00  0.00000000000E+00  0.50000000000E+03  0.50000000000E+03  0.00000000000E+00 0. -1.
        -11   -1    0    0    0    0 -0.00000000000E+00 -0.00000000000E+00 -0.50000000000E+03  0.50000000000E+03  0.00000000000E+00 0.  1.
          5    1    1    2  501    0  0.25421676053E+03  0.19462113047E+03  0.38402391102E+03  0.50000000000E+03  0.47000000000E+01 0. -1.
         -5    1    1    2    0  501 -0.25421676053E+03 -0.19462113047E+03 -0.38402391102E+03  0.50000000000E+03  0.47000000000E+01 0.  1.
</event>
<event>
 4    1  0.4351282E-004  0.1000000E+04  0.7546771E-02  0.8684367E-01
         11   -1    0    0    0    0  0.00000000000E+00  0.00000000000E+00  0.50000000000E+03  0.50000000000E+03  0.00000000000E+00 0. -1.
        -11   -1    0    0    0    0 -0.00000000000E+00 -0.00000000000E+00 -0.50000000000E+03  0.50000000000E+03  0.00000000000E+00 0.  1.
          5    1    1    2  501    0  0.27128795160E+03 -0.34861989402E+03  0.23418993747E+03  0.50000000000E+03  0.47000000000E+01 0. -1.
         -5    1    1    2    0  501 -0.27128795160E+03  0.34861989402E+03 -0.23418993747E+03  0.50000000000E+03  0.47000000000E+01 0.  1.
</event>
<event>
 4    1  0.4351282E-004  0.1000000E+04  0.7546771E-02  0.8684367E-01
         11   -1    0    0    0    0  0.00000000000E+00  0.00000000000E+00  0.50000000000E+03  0.50000000000E+03  0.00000000000E+00 0. -1.
        -11   -1    0    0    0    0 -0.00000000000E+00 -0.00000000000E+00 -0.50000000000E+03  0.50000000000E+03  0.00000000000E+00 0.  1.
          5    1    1    2  501    0  0.22467184436E+02  0.48155596050E+03  0.13257825060E+03  0.50000000000E+03  0.47000000000E+01 0. -1.
         -5    1    1    2    0  501 -0.22467184436E+02 -0.48155596050E+03 -0.13257825060E+03  0.50000000000E+03  0.47000000000E+01 0.  1.
</event>
<event>
 4    1  0.4351282E-004  0.1000000E+04  0.7546771E-02  0.8684367E-01
         11   -1    0    0    0    0  0.00000000000E+00  0.00000000000E+00  0.50000000000E+03  0.50000000000E+03  0.00000000000E+00 0. -1.
        -11   -1    0    0    0    0 -0.00000000000E+00 -0.00000000000E+00 -0.50000000000E+03  0.50000000000E+03  0.00000000000E+00 0.  1.
          5    1    1    2  501    0  0.23125010814E+03  0.39572492723E+03  0.19975755168E+03  0.50000000000E+03  0.47000000000E+01 0.  1.
         -5    1    1    2    0  501 -0.23125010814E+03 -0.39572492723E+03 -0.19975755168E+03  0.50000000000E+03  0.47000000000E+01 0. -1.
</event>
<event>
 4    1  0.4351282E-004  0.1000000E+04  0.7546771E-02  0.8684367E-01
         11   -1    0    0    0    0  0.00000000000E+00  0.00000000000E+00  0.50000000000E+03  0.50000000000E+03  0.00000000000E+00 0. -1.
        -11   -1    0    0    0    0 -0.00000000000E+00 -0.00000000000E+00 -0.50000000000E+03  0.50000000000E+03  0.00000000000E+00 0.  1.
          5    1    1    2  501    0 -0.30417286294E+03  0.10951619557E+02  0.39665708298E+03  0.50000000000E+03  0.47000000000E+01 0. -1.
         -5    1    1    2    0  501  0.30417286294E+03 -0.10951619557E+02 -0.39665708298E+03  0.50000000000E+03  0.47000000000E+01 0.  1.
</event>
<event>
 4    1  0.4351282E-004  0.1000000E+04  0.7546771E-02  0.8684367E-01
         11   -1    0    0    0    0  0.00000000000E+00  0.00000000000E+00  0.50000000000E+03  0.50000000000E+03  0.00000000000E+00 0. -1.
        -11   -1    0    0    0    0 -0.00000000000E+00 -0.00000000000E+00 -0.50000000000E+03  0.50000000000E+03  0.00000000000E+00 0.  1.
          5    1    1    2  501    0  0.20195655556E+03 -0.43861270145E+02  0.45526656878E+03  0.50000000000E+03  0.47000000000E+01 0. -1.
         -5    1    1    2    0  501 -0.20195655556E+03  0.43861270145E+02 -0.45526656878E+03  0.50000000000E+03  0.47000000000E+01 0.  1.
</event>
<event>
 4    1  0.4351282E-004  0.1000000E+04  0.7546771E-02  0.8684367E-01
         11   -1    0    0    0    0  0.00000000000E+00  0.00000000000E+00  0.50000000000E+03  0.50000000000E+03  0.00000000000E+00 0.  1.
        -11   -1    0    0    0    0 -0.00000000000E+00 -0.00000000000E+00 -0.50000000000E+03  0.50000000000E+03  0.00000000000E+00 0. -1.
          5    1    1    2  501    0  0.17765121015E+03  0.17313966772E+03  0.43409746946E+03  0.50000000000E+03  0.47000000000E+01 0.  1.
         -5    1    1    2    0  501 -0.17765121015E+03 -0.17313966772E+03 -0.43409746946E+03  0.50000000000E+03  0.47000000000E+01 0. -1.
</event>
<event>
 4    1  0.4351282E-004  0.1000000E+04  0.7546771E-02  0.8684367E-01
         11   -1    0    0    0    0  0.00000000000E+00  0.00000000000E+00  0.50000000000E+03  0.50000000000E+03  0.00000000000E+00 0.  1.
        -11   -1    0    0    0    0 -0.00000000000E+00 -0.00000000000E+00 -0.50000000000E+03  0.50000000000E+03  0.00000000000E+00 0. -1.
          5    1    1    2  501    0  0.21326389105E+02 -0.31406269836E+03  0.38844268126E+03  0.50000000000E+03  0.47000000000E+01 0.  1.
         -5    1    1    2    0  501 -0.21326389105E+02  0.31406269836E+03 -0.38844268126E+03  0.50000000000E+03  0.47000000000E+01 0. -1.
</event>
<event>
 4    1  0.4351282E-004  0.1000000E+04  0.7546771E-02  0.8684367E-01
         11   -1    0    0    0    0  0.00000000000E+00  0.00000000000E+00  0.50000000000E+03  0.50000000000E+03  0.00000000000E+00 0. -1.
        -11   -1    0    0    0    0 -0.00000000000E+00 -0.00000000000E+00 -0.50000000000E+03  0.50000000000E+03  0.00000000000E+00 0.  1.
          5    1    1    2  501    0  0.31092096301E+03  0.20193104978E+03  0.33545478964E+03  0.50000000000E+03  0.47000000000E+01 0. -1.
         -5    1    1    2    0  501 -0.31092096301E+03 -0.20193104978E+03 -0.33545478964E+03  0.50000000000E+03  0.47000000000E+01 0.  1.
</event>
<event>
 4    1  0.4351282E-004  0.1000000E+04  0.7546771E-02  0.8684367E-01
         11   -1    0    0    0    0  0.00000000000E+00  0.00000000000E+00  0.50000000000E+03  0.50000000000E+03  0.00000000000E+00 0. -1.
        -11   -1    0    0    0    0 -0.00000000000E+00 -0.00000000000E+00 -0.50000000000E+03  0.50000000000E+03  0.00000000000E+00 0.  1.
          5    1    1    2  501    0 -0.35520400130E+03 -0.34376060783E+02  0.35018040195E+03  0.50000000000E+03  0.47000000000E+01 0. -1.
         -5    1    1    2    0  501  0.35520400130E+03  0.34376060783E+02 -0.35018040195E+03  0.50000000000E+03  0.47000000000E+01 0.  1.
</event>
<event>
 4    1  0.4351282E-004  0.1000000E+04  0.7546771E-02  0.8684367E-01
         11   -1    0    0    0    0  0.00000000000E+00  0.00000000000E+00  0.50000000000E+03  0.50000000000E+03  0.00000000000E+00 0. -1.
        -11   -1    0    0    0    0 -0.00000000000E+00 -0.00000000000E+00 -0.50000000000E+03  0.50000000000E+03  0.00000000000E+00 0.  1.
          5    1    1    2  501    0 -0.11913892707E+03  0.48382556011E+03  0.41190453289E+02  0.50000000000E+03  0.47000000000E+01 0. -1.
         -5    1    1    2    0  501  0.11913892707E+03 -0.48382556011E+03 -0.41190453289E+02  0.50000000000E+03  0.47000000000E+01 0.  1.
</event>
<event>
 4    1  0.4351282E-004  0.1000000E+04  0.7546771E-02  0.8684367E-01
         11   -1    0    0    0    0  0.00000000000E+00  0.00000000000E+00  0.50000000000E+03  0.50000000000E+03  0.00000000000E+00 0.  1.
        -11   -1    0    0    0    0 -0.00000000000E+00 -0.00000000000E+00 -0.50000000000E+03  0.50000000000E+03  0.00000000000E+00 0. -1.
          5    1    1    2  501    0 -0.36604939299E+03 -0.34037307327E+03  0.11485768730E+02  0.50000000000E+03  0.47000000000E+01 0.  1.
         -5    1    1    2    0  501  0.36604939299E+03  0.34037307327E+03 -0.11485768730E+02  0.50000000000E+03  0.47000000000E+01 0. -1.
</event>
<event>
 4    1  0.4351282E-004  0.1000000E+04  0.7546771E-02  0.8684367E-01
         11   -1    0    0    0    0  0.00000000000E+00  0.00000000000E+00  0.50000000000E+03  0.50000000000E+03  0.00000000000E+00 0. -1.
        -11   -1    0    0    0    0 -0.00000000000E+00 -0.00000000000E+00 -0.50000000000E+03  0.50000000000E+03  0.00000000000E+00 0.  1.
          5    1    1    2  501    0  0.37952172402E+02  0.11410558830E+03 -0.48530140874E+03  0.50000000000E+03  0.47000000000E+01 0.  1.
         -5    1    1    2    0  501 -0.37952172402E+02 -0.11410558830E+03  0.48530140874E+03  0.50000000000E+03  0.47000000000E+01 0. -1.
</event>
<event>
 4    1  0.4351282E-004  0.1000000E+04  0.7546771E-02  0.8684367E-01
         11   -1    0    0    0    0  0.00000000000E+00  0.00000000000E+00  0.50000000000E+03  0.50000000000E+03  0.00000000000E+00 0. -1.
        -11   -1    0    0    0    0 -0.00000000000E+00 -0.00000000000E+00 -0.50000000000E+03  0.50000000000E+03  0.00000000000E+00 0.  1.
          5    1    1    2  501    0 -0.18868799329E+02 -0.38195186784E+03  0.32207863802E+03  0.50000000000E+03  0.47000000000E+01 0. -1.
         -5    1    1    2    0  501  0.18868799329E+02  0.38195186784E+03 -0.32207863802E+03  0.50000000000E+03  0.47000000000E+01 0.  1.
</event>
<event>
 4    1  0.4351282E-004  0.1000000E+04  0.7546771E-02  0.8684367E-01
         11   -1    0    0    0    0  0.00000000000E+00  0.00000000000E+00  0.50000000000E+03  0.50000000000E+03  0.00000000000E+00 0. -1.
        -11   -1    0    0    0    0 -0.00000000000E+00 -0.00000000000E+00 -0.50000000000E+03  0.50000000000E+03  0.00000000000E+00 0.  1.
          5    1    1    2  501    0 -0.23105313410E+02  0.31267646196E+03  0.38945793692E+03  0.50000000000E+03  0.47000000000E+01 0. -1.
         -5    1    1    2    0  501  0.23105313410E+02 -0.31267646196E+03 -0.38945793692E+03  0.50000000000E+03  0.47000000000E+01 0.  1.
</event>
<event>
 4    1  0.4351282E-004  0.1000000E+04  0.7546771E-02  0.8684367E-01
         11   -1    0    0    0    0  0.00000000000E+00  0.00000000000E+00  0.50000000000E+03  0.50000000000E+03  0.00000000000E+00 0.  1.
        -11   -1    0    0    0    0 -0.00000000000E+00 -0.00000000000E+00 -0.50000000000E+03  0.50000000000E+03  0.00000000000E+00 0. -1.
          5    1    1    2  501    0  0.11820092050E+03  0.12102686147E+03  0.47048799262E+03  0.50000000000E+03  0.47000000000E+01 0.  1.
         -5    1    1    2    0  501 -0.11820092050E+03 -0.12102686147E+03 -0.47048799262E+03  0.50000000000E+03  0.47000000000E+01 0. -1.
</event>
<event>
 4    1  0.4351282E-004  0.1000000E+04  0.7546771E-02  0.8684367E-01
         11   -1    0    0    0    0  0.00000000000E+00  0.00000000000E+00  0.50000000000E+03  0.50000000000E+03  0.00000000000E+00 0.  1.
        -11   -1    0    0    0    0 -0.00000000000E+00 -0.00000000000E+00 -0.50000000000E+03  0.50000000000E+03  0.00000000000E+00 0. -1.
          5    1    1    2  501    0 -0.33161062870E+02 -0.47591207327E+03 -0.14961935846E+03  0.50000000000E+03  0.47000000000E+01 0. -1.
         -5    1    1    2    0  501  0.33161062870E+02  0.47591207327E+03  0.14961935846E+03  0.50000000000E+03  0.47000000000E+01 0.  1.
</event>
<event>
 4    1  0.4351282E-004  0.1000000E+04  0.7546771E-02  0.8684367E-01
         11   -1    0    0    0    0  0.00000000000E+00  0.00000000000E+00  0.50000000000E+03  0.50000000000E+03  0.00000000000E+00 0. -1.
        -11   -1    0    0    0    0 -0.00000000000E+00 -0.00000000000E+00 -0.50000000000E+03  0.50000000000E+03  0.00000000000E+00 0.  1.
          5    1    1    2  501    0  0.36415740053E+01 -0.21056599173E+03  0.45346070620E+03  0.50000000000E+03  0.47000000000E+01 0. -1.
         -5    1    1    2    0  501 -0.36415740053E+01  0.21056599173E+03 -0.45346070620E+03  0.50000000000E+03  0.47000000000E+01 0.  1.
</event>
<event>
 4    1  0.4351282E-004  0.1000000E+04  0.7546771E-02  0.8684367E-01
         11   -1    0    0    0    0  0.00000000000E+00  0.00000000000E+00  0.50000000000E+03  0.50000000000E+03  0.00000000000E+00 0.  1.
        -11   -1    0    0    0    0 -0.00000000000E+00 -0.00000000000E+00 -0.50000000000E+03  0.50000000000E+03  0.00000000000E+00 0. -1.
          5    1    1    2  501    0 -0.15041527000E+03 -0.42115515384E+03  0.22356541088E+03  0.50000000000E+03  0.47000000000E+01 0.  1.
         -5    1    1    2    0  501  0.15041527000E+03  0.42115515384E+03 -0.22356541088E+03  0.50000000000E+03  0.47000000000E+01 0. -1.
</event>
<event>
 4    1  0.4351282E-004  0.1000000E+04  0.7546771E-02  0.8684367E-01
         11   -1    0    0    0    0  0.00000000000E+00  0.00000000000E+00  0.50000000000E+03  0.50000000000E+03  0.00000000000E+00 0. -1.
        -11   -1    0    0    0    0 -0.00000000000E+00 -0.00000000000E+00 -0.50000000000E+03  0.50000000000E+03  0.00000000000E+00 0.  1.
          5    1    1    2  501    0  0.79123581084E+02 -0.12322657200E+03  0.47805081411E+03  0.50000000000E+03  0.47000000000E+01 0. -1.
         -5    1    1    2    0  501 -0.79123581084E+02  0.12322657200E+03 -0.47805081411E+03  0.50000000000E+03  0.47000000000E+01 0.  1.
</event>
<event>
 4    1  0.4351282E-004  0.1000000E+04  0.7546771E-02  0.8684367E-01
         11   -1    0    0    0    0  0.00000000000E+00  0.00000000000E+00  0.50000000000E+03  0.50000000000E+03  0.00000000000E+00 0. -1.
        -11   -1    0    0    0    0 -0.00000000000E+00 -0.00000000000E+00 -0.50000000000E+03  0.50000000000E+03  0.00000000000E+00 0.  1.
          5    1    1    2  501    0 -0.17353380269E+03 -0.46292273519E+03  0.74608783428E+02  0.50000000000E+03  0.47000000000E+01 0. -1.
         -5    1    1    2    0  501  0.17353380269E+03  0.46292273519E+03 -0.74608783428E+02  0.50000000000E+03  0.47000000000E+01 0.  1.
</event>
<event>
 4    1  0.4351282E-004  0.1000000E+04  0.7546771E-02  0.8684367E-01
         11   -1    0    0    0    0  0.00000000000E+00  0.00000000000E+00  0.50000000000E+03  0.50000000000E+03  0.00000000000E+00 0.  1.
        -11   -1    0    0    0    0 -0.00000000000E+00 -0.00000000000E+00 -0.50000000000E+03  0.50000000000E+03  0.00000000000E+00 0. -1.
          5    1    1    2  501    0 -0.22306179296E+03 -0.42641388117E+03  0.13561913017E+03  0.50000000000E+03  0.47000000000E+01 0.  1.
         -5    1    1    2    0  501  0.22306179296E+03  0.42641388117E+03 -0.13561913017E+03  0.50000000000E+03  0.47000000000E+01 0. -1.
</event>
<event>
 4    1  0.4351282E-004  0.1000000E+04  0.7546771E-02  0.8684367E-01
         11   -1    0    0    0    0  0.00000000000E+00  0.00000000000E+00  0.50000000000E+03  0.50000000000E+03  0.00000000000E+00 0. -1.
        -11   -1    0    0    0    0 -0.00000000000E+00 -0.00000000000E+00 -0.50000000000E+03  0.50000000000E+03  0.00000000000E+00 0.  1.
          5    1    1    2  501    0 -0.47100762092E+03  0.46561355898E+02  0.16112656879E+03  0.50000000000E+03  0.47000000000E+01 0. -1.
         -5    1    1    2    0  501  0.47100762092E+03 -0.46561355898E+02 -0.16112656879E+03  0.50000000000E+03  0.47000000000E+01 0.  1.
</event>
<event>
 4    1  0.4351282E-004  0.1000000E+04  0.7546771E-02  0.8684367E-01
         11   -1    0    0    0    0  0.00000000000E+00  0.00000000000E+00  0.50000000000E+03  0.50000000000E+03  0.00000000000E+00 0. -1.
        -11   -1    0    0    0    0 -0.00000000000E+00 -0.00000000000E+00 -0.50000000000E+03  0.50000000000E+03  0.00000000000E+00 0.  1.
          5    1    1    2  501    0 -0.28993107094E+03  0.16738050457E+03  0.37135111524E+03  0.50000000000E+03  0.47000000000E+01 0. -1.
         -5    1    1    2    0  501  0.28993107094E+03 -0.16738050457E+03 -0.37135111524E+03  0.50000000000E+03  0.47000000000E+01 0.  1.
</event>
<event>
 4    1  0.4351282E-004  0.1000000E+04  0.7546771E-02  0.8684367E-01
         11   -1    0    0    0    0  0.00000000000E+00  0.00000000000E+00  0.50000000000E+03  0.50000000000E+03  0.00000000000E+00 0. -1.
        -11   -1    0    0    0    0 -0.00000000000E+00 -0.00000000000E+00 -0.50000000000E+03  0.50000000000E+03  0.00000000000E+00 0.  1.
          5    1    1    2  501    0  0.10603249065E+03  0.86937042062E+02  0.48080866428E+03  0.50000000000E+03  0.47000000000E+01 0. -1.
         -5    1    1    2    0  501 -0.10603249065E+03 -0.86937042062E+02 -0.48080866428E+03  0.50000000000E+03  0.47000000000E+01 0.  1.
</event>
<event>
 4    1  0.4351282E-004  0.1000000E+04  0.7546771E-02  0.8684367E-01
         11   -1    0    0    0    0  0.00000000000E+00  0.00000000000E+00  0.50000000000E+03  0.50000000000E+03  0.00000000000E+00 0.  1.
        -11   -1    0    0    0    0 -0.00000000000E+00 -0.00000000000E+00 -0.50000000000E+03  0.50000000000E+03  0.00000000000E+00 0. -1.
          5    1    1    2  501    0 -0.24677623961E+03  0.41001456860E+03  0.14480141954E+03  0.50000000000E+03  0.47000000000E+01 0.  1.
         -5    1    1    2    0  501  0.24677623961E+03 -0.41001456860E+03 -0.14480141954E+03  0.50000000000E+03  0.47000000000E+01 0. -1.
</event>
<event>
 4    1  0.4351282E-004  0.1000000E+04  0.7546771E-02  0.8684367E-01
         11   -1    0    0    0    0  0.00000000000E+00  0.00000000000E+00  0.50000000000E+03  0.50000000000E+03  0.00000000000E+00 0. -1.
        -11   -1    0    0    0    0 -0.00000000000E+00 -0.00000000000E+00 -0.50000000000E+03  0.50000000000E+03  0.00000000000E+00 0.  1.
          5    1    1    2  501    0  0.34485512340E+03  0.36164879987E+03 -0.16217256766E+02  0.50000000000E+03  0.47000000000E+01 0. -1.
         -5    1    1    2    0  501 -0.34485512340E+03 -0.36164879987E+03  0.16217256766E+02  0.50000000000E+03  0.47000000000E+01 0.  1.
</event>
<event>
 4    1  0.4351282E-004  0.1000000E+04  0.7546771E-02  0.8684367E-01
         11   -1    0    0    0    0  0.00000000000E+00  0.00000000000E+00  0.50000000000E+03  0.50000000000E+03  0.00000000000E+00 0. -1.
        -11   -1    0    0    0    0 -0.00000000000E+00 -0.00000000000E+00 -0.50000000000E+03  0.50000000000E+03  0.00000000000E+00 0.  1.
          5    1    1    2  501    0 -0.18031081808E+03 -0.16560161384E+02  0.46603828162E+03  0.50000000000E+03  0.47000000000E+01 0. -1.
         -5    1    1    2    0  501  0.18031081808E+03  0.16560161384E+02 -0.46603828162E+03  0.50000000000E+03  0.47000000000E+01 0.  1.
</event>
<event>
 4    1  0.4351282E-004  0.1000000E+04  0.7546771E-02  0.8684367E-01
         11   -1    0    0    0    0  0.00000000000E+00  0.00000000000E+00  0.50000000000E+03  0.50000000000E+03  0.00000000000E+00 0. -1.
        -11   -1    0    0    0    0 -0.00000000000E+00 -0.00000000000E+00 -0.50000000000E+03  0.50000000000E+03  0.00000000000E+00 0.  1.
          5    1    1    2  501    0  0.35862746480E+03 -0.80326706566E+02  0.33898653617E+03  0.50000000000E+03  0.47000000000E+01 0. -1.
         -5    1    1    2    0  501 -0.35862746480E+03  0.80326706566E+02 -0.33898653617E+03  0.50000000000E+03  0.47000000000E+01 0.  1.
</event>
<event>
 4    1  0.4351282E-004  0.1000000E+04  0.7546771E-02  0.8684367E-01
         11   -1    0    0    0    0  0.00000000000E+00  0.00000000000E+00  0.50000000000E+03  0.50000000000E+03  0.00000000000E+00 0. -1.
        -11   -1    0    0    0    0 -0.00000000000E+00 -0.00000000000E+00 -0.50000000000E+03  0.50000000000E+03  0.00000000000E+00 0.  1.
          5    1    1    2  501    0  0.12537754882E+03 -0.46071819701E+03  0.14831427172E+03  0.50000000000E+03  0.47000000000E+01 0. -1.
         -5    1    1    2    0  501 -0.12537754882E+03  0.46071819701E+03 -0.14831427172E+03  0.50000000000E+03  0.47000000000E+01 0.  1.
</event>
<event>
 4    1  0.4351282E-004  0.1000000E+04  0.7546771E-02  0.8684367E-01
         11   -1    0    0    0    0  0.00000000000E+00  0.00000000000E+00  0.50000000000E+03  0.50000000000E+03  0.00000000000E+00 0. -1.
        -11   -1    0    0    0    0 -0.00000000000E+00 -0.00000000000E+00 -0.50000000000E+03  0.50000000000E+03  0.00000000000E+00 0.  1.
          5    1    1    2  501    0 -0.19367706525E+03 -0.70419378842E+02  0.45553069653E+03  0.50000000000E+03  0.47000000000E+01 0. -1.
         -5    1    1    2    0  501  0.19367706525E+03  0.70419378842E+02 -0.45553069653E+03  0.50000000000E+03  0.47000000000E+01 0.  1.
</event>
<event>
 4    1  0.4351282E-004  0.1000000E+04  0.7546771E-02  0.8684367E-01
         11   -1    0    0    0    0  0.00000000000E+00  0.00000000000E+00  0.50000000000E+03  0.50000000000E+03  0.00000000000E+00 0.  1.
        -11   -1    0    0    0    0 -0.00000000000E+00 -0.00000000000E+00 -0.50000000000E+03  0.50000000000E+03  0.00000000000E+00 0. -1.
          5    1    1    2  501    0  0.25818754391E+03 -0.26646781772E+03  0.33512983199E+03  0.50000000000E+03  0.47000000000E+01 0.  1.
         -5    1    1    2    0  501 -0.25818754391E+03  0.26646781772E+03 -0.33512983199E+03  0.50000000000E+03  0.47000000000E+01 0. -1.
</event>
<event>
 4    1  0.4351282E-004  0.1000000E+04  0.7546771E-02  0.8684367E-01
         11   -1    0    0    0    0  0.00000000000E+00  0.00000000000E+00  0.50000000000E+03  0.50000000000E+03  0.00000000000E+00 0.  1.
        -11   -1    0    0    0    0 -0.00000000000E+00 -0.00000000000E+00 -0.50000000000E+03  0.50000000000E+03  0.00000000000E+00 0. -1.
          5    1    1    2  501    0 -0.23149832319E+03  0.26090843683E+03 -0.35820835271E+03  0.50000000000E+03  0.47000000000E+01 0. -1.
         -5    1    1    2    0  501  0.23149832319E+03 -0.26090843683E+03  0.35820835271E+03  0.50000000000E+03  0.47000000000E+01 0.  1.
</event>
<event>
 4    1  0.4351282E-004  0.1000000E+04  0.7546771E-02  0.8684367E-01
         11   -1    0    0    0    0  0.00000000000E+00  0.00000000000E+00  0.50000000000E+03  0.50000000000E+03  0.00000000000E+00 0. -1.
        -11   -1    0    0    0    0 -0.00000000000E+00 -0.00000000000E+00 -0.50000000000E+03  0.50000000000E+03  0.00000000000E+00 0.  1.
          5    1    1    2  501    0 -0.22029595809E+02  0.29543525305E+03  0.40275379348E+03  0.50000000000E+03  0.47000000000E+01 0. -1.
         -5    1    1    2    0  501  0.22029595809E+02 -0.29543525305E+03 -0.40275379348E+03  0.50000000000E+03  0.47000000000E+01 0.  1.
</event>
<event>
 4    1  0.4351282E-004  0.1000000E+04  0.7546771E-02  0.8684367E-01
         11   -1    0    0    0    0  0.00000000000E+00  0.00000000000E+00  0.50000000000E+03  0.50000000000E+03  0.00000000000E+00 0.  1.
        -11   -1    0    0    0    0 -0.00000000000E+00 -0.00000000000E+00 -0.50000000000E+03  0.50000000000E+03  0.00000000000E+00 0. -1.
          5    1    1    2  501    0  0.62304211317E+02  0.18217140227E+03  0.46142136431E+03  0.50000000000E+03  0.47000000000E+01 0.  1.
         -5    1    1    2    0  501 -0.62304211317E+02 -0.18217140227E+03 -0.46142136431E+03  0.50000000000E+03  0.47000000000E+01 0. -1.
</event>
<event>
 4    1  0.4351282E-004  0.1000000E+04  0.7546771E-02  0.8684367E-01
         11   -1    0    0    0    0  0.00000000000E+00  0.00000000000E+00  0.50000000000E+03  0.50000000000E+03  0.00000000000E+00 0. -1.
        -11   -1    0    0    0    0 -0.00000000000E+00 -0.00000000000E+00 -0.50000000000E+03  0.50000000000E+03  0.00000000000E+00 0.  1.
          5    1    1    2  501    0 -0.13675088076E+03 -0.43217938671E+03  0.21094569043E+03  0.50000000000E+03  0.47000000000E+01 0. -1.
         -5    1    1    2    0  501  0.13675088076E+03  0.43217938671E+03 -0.21094569043E+03  0.50000000000E+03  0.47000000000E+01 0.  1.
</event>
<event>
 4    1  0.4351282E-004  0.1000000E+04  0.7546771E-02  0.8684367E-01
         11   -1    0    0    0    0  0.00000000000E+00  0.00000000000E+00  0.50000000000E+03  0.50000000000E+03  0.00000000000E+00 0. -1.
        -11   -1    0    0    0    0 -0.00000000000E+00 -0.00000000000E+00 -0.50000000000E+03  0.50000000000E+03  0.00000000000E+00 0.  1.
          5    1    1    2  501    0 -0.47292243610E+03 -0.51999465823E+02 -0.15368257867E+03  0.50000000000E+03  0.47000000000E+01 0. -1.
         -5    1    1    2    0  501  0.47292243610E+03  0.51999465823E+02  0.15368257867E+03  0.50000000000E+03  0.47000000000E+01 0.  1.
</event>
<event>
 4    1  0.4351282E-004  0.1000000E+04  0.7546771E-02  0.8684367E-01
         11   -1    0    0    0    0  0.00000000000E+00  0.00000000000E+00  0.50000000000E+03  0.50000000000E+03  0.00000000000E+00 0. -1.
        -11   -1    0    0    0    0 -0.00000000000E+00 -0.00000000000E+00 -0.50000000000E+03  0.50000000000E+03  0.00000000000E+00 0.  1.
          5    1    1    2  501    0  0.41774642886E+03 -0.11066366547E+02  0.27448746184E+03  0.50000000000E+03  0.47000000000E+01 0. -1.
         -5    1    1    2    0  501 -0.41774642886E+03  0.11066366547E+02 -0.27448746184E+03  0.50000000000E+03  0.47000000000E+01 0.  1.
</event>
<event>
 4    1  0.4351282E-004  0.1000000E+04  0.7546771E-02  0.8684367E-01
         11   -1    0    0    0    0  0.00000000000E+00  0.00000000000E+00  0.50000000000E+03  0.50000000000E+03  0.00000000000E+00 0. -1.
        -11   -1    0    0    0    0 -0.00000000000E+00 -0.00000000000E+00 -0.50000000000E+03  0.50000000000E+03  0.00000000000E+00 0.  1.
          5    1    1    2  501    0 -0.27274344257E+02 -0.49111266100E+03 -0.89679286072E+02  0.50000000000E+03  0.47000000000E+01 0. -1.
         -5    1    1    2    0  501  0.27274344257E+02  0.49111266100E+03  0.89679286072E+02  0.50000000000E+03  0.47000000000E+01 0.  1.
</event>
<event>
 4    1  0.4351282E-004  0.1000000E+04  0.7546771E-02  0.8684367E-01
         11   -1    0    0    0    0  0.00000000000E+00  0.00000000000E+00  0.50000000000E+03  0.50000000000E+03  0.00000000000E+00 0. -1.
        -11   -1    0    0    0    0 -0.00000000000E+00 -0.00000000000E+00 -0.50000000000E+03  0.50000000000E+03  0.00000000000E+00 0.  1.
          5    1    1    2  501    0  0.36520851371E+02 -0.49618786809E+03 -0.49413935039E+02  0.50000000000E+03  0.47000000000E+01 0. -1.
         -5    1    1    2    0  501 -0.36520851371E+02  0.49618786809E+03  0.49413935039E+02  0.50000000000E+03  0.47000000000E+01 0.  1.
</event>
<event>
 4    1  0.4351282E-004  0.1000000E+04  0.7546771E-02  0.8684367E-01
         11   -1    0    0    0    0  0.00000000000E+00  0.00000000000E+00  0.50000000000E+03  0.50000000000E+03  0.00000000000E+00 0.  1.
        -11   -1    0    0    0    0 -0.00000000000E+00 -0.00000000000E+00 -0.50000000000E+03  0.50000000000E+03  0.00000000000E+00 0. -1.
          5    1    1    2  501    0 -0.35432866603E+03  0.17574062690E+03  0.30585018961E+03  0.50000000000E+03  0.47000000000E+01 0.  1.
         -5    1    1    2    0  501  0.35432866603E+03 -0.17574062690E+03 -0.30585018961E+03  0.50000000000E+03  0.47000000000E+01 0. -1.
</event>
<event>
 4    1  0.4351282E-004  0.1000000E+04  0.7546771E-02  0.8684367E-01
         11   -1    0    0    0    0  0.00000000000E+00  0.00000000000E+00  0.50000000000E+03  0.50000000000E+03  0.00000000000E+00 0.  1.
        -11   -1    0    0    0    0 -0.00000000000E+00 -0.00000000000E+00 -0.50000000000E+03  0.50000000000E+03  0.00000000000E+00 0. -1.
          5    1    1    2  501    0  0.42750051706E+03  0.11586825579E+03  0.23193914118E+03  0.50000000000E+03  0.47000000000E+01 0.  1.
         -5    1    1    2    0  501 -0.42750051706E+03 -0.11586825579E+03 -0.23193914118E+03  0.50000000000E+03  0.47000000000E+01 0. -1.
</event>
<event>
 4    1  0.4351282E-004  0.1000000E+04  0.7546771E-02  0.8684367E-01
         11   -1    0    0    0    0  0.00000000000E+00  0.00000000000E+00  0.50000000000E+03  0.50000000000E+03  0.00000000000E+00 0. -1.
        -11   -1    0    0    0    0 -0.00000000000E+00 -0.00000000000E+00 -0.50000000000E+03  0.50000000000E+03  0.00000000000E+00 0.  1.
          5    1    1    2  501    0  0.32418829523E+03  0.14552452855E+03  0.35171362048E+03  0.50000000000E+03  0.47000000000E+01 0. -1.
         -5    1    1    2    0  501 -0.32418829523E+03 -0.14552452855E+03 -0.35171362048E+03  0.50000000000E+03  0.47000000000E+01 0.  1.
</event>
<event>
 4    1  0.4351282E-004  0.1000000E+04  0.7546771E-02  0.8684367E-01
         11   -1    0    0    0    0  0.00000000000E+00  0.00000000000E+00  0.50000000000E+03  0.50000000000E+03  0.00000000000E+00 0. -1.
        -11   -1    0    0    0    0 -0.00000000000E+00 -0.00000000000E+00 -0.50000000000E+03  0.50000000000E+03  0.00000000000E+00 0.  1.
          5    1    1    2  501    0 -0.22745395139E+03 -0.29765438343E+03  0.33112607572E+03  0.50000000000E+03  0.47000000000E+01 0. -1.
         -5    1    1    2    0  501  0.22745395139E+03  0.29765438343E+03 -0.33112607572E+03  0.50000000000E+03  0.47000000000E+01 0.  1.
</event>
<event>
 4    1  0.4351282E-004  0.1000000E+04  0.7546771E-02  0.8684367E-01
         11   -1    0    0    0    0  0.00000000000E+00  0.00000000000E+00  0.50000000000E+03  0.50000000000E+03  0.00000000000E+00 0. -1.
        -11   -1    0    0    0    0 -0.00000000000E+00 -0.00000000000E+00 -0.50000000000E+03  0.50000000000E+03  0.00000000000E+00 0.  1.
          5    1    1    2  501    0  0.46830989185E+03  0.17495158805E+03  0.74630448134E+01  0.50000000000E+03  0.47000000000E+01 0. -1.
         -5    1    1    2    0  501 -0.46830989185E+03 -0.17495158805E+03 -0.74630448134E+01  0.50000000000E+03  0.47000000000E+01 0.  1.
</event>
<event>
 4    1  0.4351282E-004  0.1000000E+04  0.7546771E-02  0.8684367E-01
         11   -1    0    0    0    0  0.00000000000E+00  0.00000000000E+00  0.50000000000E+03  0.50000000000E+03  0.00000000000E+00 0. -1.
        -11   -1    0    0    0    0 -0.00000000000E+00 -0.00000000000E+00 -0.50000000000E+03  0.50000000000E+03  0.00000000000E+00 0.  1.
          5    1    1    2  501    0 -0.48898864543E+02  0.47278214747E+03 -0.15512527868E+03  0.50000000000E+03  0.47000000000E+01 0.  1.
         -5    1    1    2    0  501  0.48898864543E+02 -0.47278214747E+03  0.15512527868E+03  0.50000000000E+03  0.47000000000E+01 0. -1.
</event>
<event>
 4    1  0.4351282E-004  0.1000000E+04  0.7546771E-02  0.8684367E-01
         11   -1    0    0    0    0  0.00000000000E+00  0.00000000000E+00  0.50000000000E+03  0.50000000000E+03  0.00000000000E+00 0. -1.
        -11   -1    0    0    0    0 -0.00000000000E+00 -0.00000000000E+00 -0.50000000000E+03  0.50000000000E+03  0.00000000000E+00 0.  1.
          5    1    1    2  501    0 -0.74776706113E+02 -0.85138630597E+01  0.49428116327E+03  0.50000000000E+03  0.47000000000E+01 0. -1.
         -5    1    1    2    0  501  0.74776706113E+02  0.85138630597E+01 -0.49428116327E+03  0.50000000000E+03  0.47000000000E+01 0.  1.
</event>
<event>
 4    1  0.4351282E-004  0.1000000E+04  0.7546771E-02  0.8684367E-01
         11   -1    0    0    0    0  0.00000000000E+00  0.00000000000E+00  0.50000000000E+03  0.50000000000E+03  0.00000000000E+00 0.  1.
        -11   -1    0    0    0    0 -0.00000000000E+00 -0.00000000000E+00 -0.50000000000E+03  0.50000000000E+03  0.00000000000E+00 0. -1.
          5    1    1    2  501    0 -0.44711742475E+03  0.17860277888E+03 -0.13477746794E+03  0.50000000000E+03  0.47000000000E+01 0.  1.
         -5    1    1    2    0  501  0.44711742475E+03 -0.17860277888E+03  0.13477746794E+03  0.50000000000E+03  0.47000000000E+01 0. -1.
</event>
<event>
 4    1  0.4351282E-004  0.1000000E+04  0.7546771E-02  0.8684367E-01
         11   -1    0    0    0    0  0.00000000000E+00  0.00000000000E+00  0.50000000000E+03  0.50000000000E+03  0.00000000000E+00 0. -1.
        -11   -1    0    0    0    0 -0.00000000000E+00 -0.00000000000E+00 -0.50000000000E+03  0.50000000000E+03  0.00000000000E+00 0.  1.
          5    1    1    2  501    0 -0.14105714498E+03 -0.11447746626E+03  0.46580650658E+03  0.50000000000E+03  0.47000000000E+01 0. -1.
         -5    1    1    2    0  501  0.14105714498E+03  0.11447746626E+03 -0.46580650658E+03  0.50000000000E+03  0.47000000000E+01 0.  1.
</event>
<event>
 4    1  0.4351282E-004  0.1000000E+04  0.7546771E-02  0.8684367E-01
         11   -1    0    0    0    0  0.00000000000E+00  0.00000000000E+00  0.50000000000E+03  0.50000000000E+03  0.00000000000E+00 0. -1.
        -11   -1    0    0    0    0 -0.00000000000E+00 -0.00000000000E+00 -0.50000000000E+03  0.50000000000E+03  0.00000000000E+00 0.  1.
          5    1    1    2  501    0  0.61016937329E+02  0.88312565939E+02  0.48831929519E+03  0.50000000000E+03  0.47000000000E+01 0. -1.
         -5    1    1    2    0  501 -0.61016937329E+02 -0.88312565939E+02 -0.48831929519E+03  0.50000000000E+03  0.47000000000E+01 0.  1.
</event>
<event>
 4    1  0.4351282E-004  0.1000000E+04  0.7546771E-02  0.8684367E-01
         11   -1    0    0    0    0  0.00000000000E+00  0.00000000000E+00  0.50000000000E+03  0.50000000000E+03  0.00000000000E+00 0. -1.
        -11   -1    0    0    0    0 -0.00000000000E+00 -0.00000000000E+00 -0.50000000000E+03  0.50000000000E+03  0.00000000000E+00 0.  1.
          5    1    1    2  501    0 -0.18774073852E+03  0.37718167443E+03  0.26919381414E+03  0.50000000000E+03  0.47000000000E+01 0. -1.
         -5    1    1    2    0  501  0.18774073852E+03 -0.37718167443E+03 -0.26919381414E+03  0.50000000000E+03  0.47000000000E+01 0.  1.
</event>
<event>
 4    1  0.4351282E-004  0.1000000E+04  0.7546771E-02  0.8684367E-01
         11   -1    0    0    0    0  0.00000000000E+00  0.00000000000E+00  0.50000000000E+03  0.50000000000E+03  0.00000000000E+00 0. -1.
        -11   -1    0    0    0    0 -0.00000000000E+00 -0.00000000000E+00 -0.50000000000E+03  0.50000000000E+03  0.00000000000E+00 0.  1.
          5    1    1    2  501    0  0.43203569416E+03 -0.13689143206E+03  0.21114877408E+03  0.50000000000E+03  0.47000000000E+01 0. -1.
         -5    1    1    2    0  501 -0.43203569416E+03  0.13689143206E+03 -0.21114877408E+03  0.50000000000E+03  0.47000000000E+01 0.  1.
</event>
<event>
 4    1  0.4351282E-004  0.1000000E+04  0.7546771E-02  0.8684367E-01
         11   -1    0    0    0    0  0.00000000000E+00  0.00000000000E+00  0.50000000000E+03  0.50000000000E+03  0.00000000000E+00 0. -1.
        -11   -1    0    0    0    0 -0.00000000000E+00 -0.00000000000E+00 -0.50000000000E+03  0.50000000000E+03  0.00000000000E+00 0.  1.
          5    1    1    2  501    0  0.15617931798E+03  0.25505930431E+03  0.40066280326E+03  0.50000000000E+03  0.47000000000E+01 0. -1.
         -5    1    1    2    0  501 -0.15617931798E+03 -0.25505930431E+03 -0.40066280326E+03  0.50000000000E+03  0.47000000000E+01 0.  1.
</event>
<event>
 4    1  0.4351282E-004  0.1000000E+04  0.7546771E-02  0.8684367E-01
         11   -1    0    0    0    0  0.00000000000E+00  0.00000000000E+00  0.50000000000E+03  0.50000000000E+03  0.00000000000E+00 0. -1.
        -11   -1    0    0    0    0 -0.00000000000E+00 -0.00000000000E+00 -0.50000000000E+03  0.50000000000E+03  0.00000000000E+00 0.  1.
          5    1    1    2  501    0 -0.22291002081E+03  0.18380789341E+03  0.40804863796E+03  0.50000000000E+03  0.47000000000E+01 0. -1.
         -5    1    1    2    0  501  0.22291002081E+03 -0.18380789341E+03 -0.40804863796E+03  0.50000000000E+03  0.47000000000E+01 0.  1.
</event>
<event>
 4    1  0.4351282E-004  0.1000000E+04  0.7546771E-02  0.8684367E-01
         11   -1    0    0    0    0  0.00000000000E+00  0.00000000000E+00  0.50000000000E+03  0.50000000000E+03  0.00000000000E+00 0.  1.
        -11   -1    0    0    0    0 -0.00000000000E+00 -0.00000000000E+00 -0.50000000000E+03  0.50000000000E+03  0.00000000000E+00 0. -1.
          5    1    1    2  501    0  0.35479849969E+03 -0.17342061027E+03  0.30662880907E+03  0.50000000000E+03  0.47000000000E+01 0.  1.
         -5    1    1    2    0  501 -0.35479849969E+03  0.17342061027E+03 -0.30662880907E+03  0.50000000000E+03  0.47000000000E+01 0. -1.
</event>
<event>
 4    1  0.4351282E-004  0.1000000E+04  0.7546771E-02  0.8684367E-01
         11   -1    0    0    0    0  0.00000000000E+00  0.00000000000E+00  0.50000000000E+03  0.50000000000E+03  0.00000000000E+00 0. -1.
        -11   -1    0    0    0    0 -0.00000000000E+00 -0.00000000000E+00 -0.50000000000E+03  0.50000000000E+03  0.00000000000E+00 0.  1.
          5    1    1    2  501    0 -0.18816624233E+03 -0.24498711996E+03  0.39313189428E+03  0.50000000000E+03  0.47000000000E+01 0. -1.
         -5    1    1    2    0  501  0.18816624233E+03  0.24498711996E+03 -0.39313189428E+03  0.50000000000E+03  0.47000000000E+01 0.  1.
</event>
<event>
 4    1  0.4351282E-004  0.1000000E+04  0.7546771E-02  0.8684367E-01
         11   -1    0    0    0    0  0.00000000000E+00  0.00000000000E+00  0.50000000000E+03  0.50000000000E+03  0.00000000000E+00 0. -1.
        -11   -1    0    0    0    0 -0.00000000000E+00 -0.00000000000E+00 -0.50000000000E+03  0.50000000000E+03  0.00000000000E+00 0.  1.
          5    1    1    2  501    0 -0.47741559643E+03 -0.55202960668E+02  0.13785822944E+03  0.50000000000E+03  0.47000000000E+01 0. -1.
         -5    1    1    2    0  501  0.47741559643E+03  0.55202960668E+02 -0.13785822944E+03  0.50000000000E+03  0.47000000000E+01 0.  1.
</event>
<event>
 4    1  0.4351282E-004  0.1000000E+04  0.7546771E-02  0.8684367E-01
         11   -1    0    0    0    0  0.00000000000E+00  0.00000000000E+00  0.50000000000E+03  0.50000000000E+03  0.00000000000E+00 0. -1.
        -11   -1    0    0    0    0 -0.00000000000E+00 -0.00000000000E+00 -0.50000000000E+03  0.50000000000E+03  0.00000000000E+00 0.  1.
          5    1    1    2  501    0 -0.65167952344E+02  0.43355898240E+01  0.49569370648E+03  0.50000000000E+03  0.47000000000E+01 0. -1.
         -5    1    1    2    0  501  0.65167952344E+02 -0.43355898240E+01 -0.49569370648E+03  0.50000000000E+03  0.47000000000E+01 0.  1.
</event>
<event>
 4    1  0.4351282E-004  0.1000000E+04  0.7546771E-02  0.8684367E-01
         11   -1    0    0    0    0  0.00000000000E+00  0.00000000000E+00  0.50000000000E+03  0.50000000000E+03  0.00000000000E+00 0. -1.
        -11   -1    0    0    0    0 -0.00000000000E+00 -0.00000000000E+00 -0.50000000000E+03  0.50000000000E+03  0.00000000000E+00 0.  1.
          5    1    1    2  501    0  0.21572552931E+03  0.45044911327E+03 -0.23151724699E+02  0.50000000000E+03  0.47000000000E+01 0. -1.
         -5    1    1    2    0  501 -0.21572552931E+03 -0.45044911327E+03  0.23151724699E+02  0.50000000000E+03  0.47000000000E+01 0.  1.
</event>
<event>
 4    1  0.4351282E-004  0.1000000E+04  0.7546771E-02  0.8684367E-01
         11   -1    0    0    0    0  0.00000000000E+00  0.00000000000E+00  0.50000000000E+03  0.50000000000E+03  0.00000000000E+00 0.  1.
        -11   -1    0    0    0    0 -0.00000000000E+00 -0.00000000000E+00 -0.50000000000E+03  0.50000000000E+03  0.00000000000E+00 0. -1.
          5    1    1    2  501    0 -0.42571172376E+03  0.11115485591E+03  0.23747007446E+03  0.50000000000E+03  0.47000000000E+01 0.  1.
         -5    1    1    2    0  501  0.42571172376E+03 -0.11115485591E+03 -0.23747007446E+03  0.50000000000E+03  0.47000000000E+01 0. -1.
</event>
<event>
 4    1  0.4351282E-004  0.1000000E+04  0.7546771E-02  0.8684367E-01
         11   -1    0    0    0    0  0.00000000000E+00  0.00000000000E+00  0.50000000000E+03  0.50000000000E+03  0.00000000000E+00 0. -1.
        -11   -1    0    0    0    0 -0.00000000000E+00 -0.00000000000E+00 -0.50000000000E+03  0.50000000000E+03  0.00000000000E+00 0.  1.
          5    1    1    2  501    0  0.27172824156E+03 -0.31397574167E+03  0.27849758775E+03  0.50000000000E+03  0.47000000000E+01 0. -1.
         -5    1    1    2    0  501 -0.27172824156E+03  0.31397574167E+03 -0.27849758775E+03  0.50000000000E+03  0.47000000000E+01 0.  1.
</event>
<event>
 4    1  0.4351282E-004  0.1000000E+04  0.7546771E-02  0.8684367E-01
         11   -1    0    0    0    0  0.00000000000E+00  0.00000000000E+00  0.50000000000E+03  0.50000000000E+03  0.00000000000E+00 0. -1.
        -11   -1    0    0    0    0 -0.00000000000E+00 -0.00000000000E+00 -0.50000000000E+03  0.50000000000E+03  0.00000000000E+00 0.  1.
          5    1    1    2  501    0  0.27407655532E+03 -0.34425788412E+03  0.23737409514E+03  0.50000000000E+03  0.47000000000E+01 0. -1.
         -5    1    1    2    0  501 -0.27407655532E+03  0.34425788412E+03 -0.23737409514E+03  0.50000000000E+03  0.47000000000E+01 0.  1.
</event>
<event>
 4    1  0.4351282E-004  0.1000000E+04  0.7546771E-02  0.8684367E-01
         11   -1    0    0    0    0  0.00000000000E+00  0.00000000000E+00  0.50000000000E+03  0.50000000000E+03  0.00000000000E+00 0. -1.
        -11   -1    0    0    0    0 -0.00000000000E+00 -0.00000000000E+00 -0.50000000000E+03  0.50000000000E+03  0.00000000000E+00 0.  1.
          5    1    1    2  501    0 -0.82603304886E+02 -0.24246504877E+03  0.42937781050E+03  0.50000000000E+03  0.47000000000E+01 0. -1.
         -5    1    1    2    0  501  0.82603304886E+02  0.24246504877E+03 -0.42937781050E+03  0.50000000000E+03  0.47000000000E+01 0.  1.
</event>
<event>
 4    1  0.4351282E-004  0.1000000E+04  0.7546771E-02  0.8684367E-01
         11   -1    0    0    0    0  0.00000000000E+00  0.00000000000E+00  0.50000000000E+03  0.50000000000E+03  0.00000000000E+00 0. -1.
        -11   -1    0    0    0    0 -0.00000000000E+00 -0.00000000000E+00 -0.50000000000E+03  0.50000000000E+03  0.00000000000E+00 0.  1.
          5    1    1    2  501    0  0.10438606533E+03  0.48614219810E+03  0.52413954145E+02  0.50000000000E+03  0.47000000000E+01 0. -1.
         -5    1    1    2    0  501 -0.10438606533E+03 -0.48614219810E+03 -0.52413954145E+02  0.50000000000E+03  0.47000000000E+01 0.  1.
</event>
<event>
 4    1  0.4351282E-004  0.1000000E+04  0.7546771E-02  0.8684367E-01
         11   -1    0    0    0    0  0.00000000000E+00  0.00000000000E+00  0.50000000000E+03  0.50000000000E+03  0.00000000000E+00 0. -1.
        -11   -1    0    0    0    0 -0.00000000000E+00 -0.00000000000E+00 -0.50000000000E+03  0.50000000000E+03  0.00000000000E+00 0.  1.
          5    1    1    2  501    0 -0.11765605855E+03 -0.10257106542E+03  0.47498856663E+03  0.50000000000E+03  0.47000000000E+01 0. -1.
         -5    1    1    2    0  501  0.11765605855E+03  0.10257106542E+03 -0.47498856663E+03  0.50000000000E+03  0.47000000000E+01 0.  1.
</event>
<event>
 4    1  0.4351282E-004  0.1000000E+04  0.7546771E-02  0.8684367E-01
         11   -1    0    0    0    0  0.00000000000E+00  0.00000000000E+00  0.50000000000E+03  0.50000000000E+03  0.00000000000E+00 0. -1.
        -11   -1    0    0    0    0 -0.00000000000E+00 -0.00000000000E+00 -0.50000000000E+03  0.50000000000E+03  0.00000000000E+00 0.  1.
          5    1    1    2  501    0  0.21121963018E+03  0.39671156583E+03  0.21905275931E+03  0.50000000000E+03  0.47000000000E+01 0. -1.
         -5    1    1    2    0  501 -0.21121963018E+03 -0.39671156583E+03 -0.21905275931E+03  0.50000000000E+03  0.47000000000E+01 0.  1.
</event>
<event>
 4    1  0.4351282E-004  0.1000000E+04  0.7546771E-02  0.8684367E-01
         11   -1    0    0    0    0  0.00000000000E+00  0.00000000000E+00  0.50000000000E+03  0.50000000000E+03  0.00000000000E+00 0. -1.
        -11   -1    0    0    0    0 -0.00000000000E+00 -0.00000000000E+00 -0.50000000000E+03  0.50000000000E+03  0.00000000000E+00 0.  1.
          5    1    1    2  501    0  0.19861667462E+03  0.45156291762E+03  0.81364967879E+02  0.50000000000E+03  0.47000000000E+01 0. -1.
         -5    1    1    2    0  501 -0.19861667462E+03 -0.45156291762E+03 -0.81364967879E+02  0.50000000000E+03  0.47000000000E+01 0.  1.
</event>
<event>
 4    1  0.4351282E-004  0.1000000E+04  0.7546771E-02  0.8684367E-01
         11   -1    0    0    0    0  0.00000000000E+00  0.00000000000E+00  0.50000000000E+03  0.50000000000E+03  0.00000000000E+00 0.  1.
        -11   -1    0    0    0    0 -0.00000000000E+00 -0.00000000000E+00 -0.50000000000E+03  0.50000000000E+03  0.00000000000E+00 0. -1.
          5    1    1    2  501    0  0.79487869710E+02 -0.43685176384E+03  0.22982629309E+03  0.50000000000E+03  0.47000000000E+01 0.  1.
         -5    1    1    2    0  501 -0.79487869710E+02  0.43685176384E+03 -0.22982629309E+03  0.50000000000E+03  0.47000000000E+01 0. -1.
</event>
<event>
 4    1  0.4351282E-004  0.1000000E+04  0.7546771E-02  0.8684367E-01
         11   -1    0    0    0    0  0.00000000000E+00  0.00000000000E+00  0.50000000000E+03  0.50000000000E+03  0.00000000000E+00 0. -1.
        -11   -1    0    0    0    0 -0.00000000000E+00 -0.00000000000E+00 -0.50000000000E+03  0.50000000000E+03  0.00000000000E+00 0.  1.
          5    1    1    2  501    0  0.10021948222E+03 -0.43353060805E+03  0.22800258171E+03  0.50000000000E+03  0.47000000000E+01 0. -1.
         -5    1    1    2    0  501 -0.10021948222E+03  0.43353060805E+03 -0.22800258171E+03  0.50000000000E+03  0.47000000000E+01 0.  1.
</event>
<event>
 4    1  0.4351282E-004  0.1000000E+04  0.7546771E-02  0.8684367E-01
         11   -1    0    0    0    0  0.00000000000E+00  0.00000000000E+00  0.50000000000E+03  0.50000000000E+03  0.00000000000E+00 0. -1.
        -11   -1    0    0    0    0 -0.00000000000E+00 -0.00000000000E+00 -0.50000000000E+03  0.50000000000E+03  0.00000000000E+00 0.  1.
          5    1    1    2  501    0 -0.30650371762E+03  0.17697510374E+03  0.35314755236E+03  0.50000000000E+03  0.47000000000E+01 0. -1.
         -5    1    1    2    0  501  0.30650371762E+03 -0.17697510374E+03 -0.35314755236E+03  0.50000000000E+03  0.47000000000E+01 0.  1.
</event>
<event>
 4    1  0.4351282E-004  0.1000000E+04  0.7546771E-02  0.8684367E-01
         11   -1    0    0    0    0  0.00000000000E+00  0.00000000000E+00  0.50000000000E+03  0.50000000000E+03  0.00000000000E+00 0.  1.
        -11   -1    0    0    0    0 -0.00000000000E+00 -0.00000000000E+00 -0.50000000000E+03  0.50000000000E+03  0.00000000000E+00 0. -1.
          5    1    1    2  501    0 -0.39883353791E+03  0.16031831924E+03  0.25535809280E+03  0.50000000000E+03  0.47000000000E+01 0.  1.
         -5    1    1    2    0  501  0.39883353791E+03 -0.16031831924E+03 -0.25535809280E+03  0.50000000000E+03  0.47000000000E+01 0. -1.
</event>
<event>
 4    1  0.4351282E-004  0.1000000E+04  0.7546771E-02  0.8684367E-01
         11   -1    0    0    0    0  0.00000000000E+00  0.00000000000E+00  0.50000000000E+03  0.50000000000E+03  0.00000000000E+00 0. -1.
        -11   -1    0    0    0    0 -0.00000000000E+00 -0.00000000000E+00 -0.50000000000E+03  0.50000000000E+03  0.00000000000E+00 0.  1.
          5    1    1    2  501    0  0.37013904723E+03 -0.10012811962E+03  0.32085721961E+03  0.50000000000E+03  0.47000000000E+01 0. -1.
         -5    1    1    2    0  501 -0.37013904723E+03  0.10012811962E+03 -0.32085721961E+03  0.50000000000E+03  0.47000000000E+01 0.  1.
</event>
<event>
 4    1  0.4351282E-004  0.1000000E+04  0.7546771E-02  0.8684367E-01
         11   -1    0    0    0    0  0.00000000000E+00  0.00000000000E+00  0.50000000000E+03  0.50000000000E+03  0.00000000000E+00 0.  1.
        -11   -1    0    0    0    0 -0.00000000000E+00 -0.00000000000E+00 -0.50000000000E+03  0.50000000000E+03  0.00000000000E+00 0. -1.
          5    1    1    2  501    0 -0.24110373195E+01  0.95927164433E+02  0.49068327465E+03  0.50000000000E+03  0.47000000000E+01 0.  1.
         -5    1    1    2    0  501  0.24110373195E+01 -0.95927164433E+02 -0.49068327465E+03  0.50000000000E+03  0.47000000000E+01 0. -1.
</event>
<event>
 4    1  0.4351282E-004  0.1000000E+04  0.7546771E-02  0.8684367E-01
         11   -1    0    0    0    0  0.00000000000E+00  0.00000000000E+00  0.50000000000E+03  0.50000000000E+03  0.00000000000E+00 0. -1.
        -11   -1    0    0    0    0 -0.00000000000E+00 -0.00000000000E+00 -0.50000000000E+03  0.50000000000E+03  0.00000000000E+00 0.  1.
          5    1    1    2  501    0  0.33423704489E+03  0.37125089697E+03 -0.20887300509E+02  0.50000000000E+03  0.47000000000E+01 0. -1.
         -5    1    1    2    0  501 -0.33423704489E+03 -0.37125089697E+03  0.20887300509E+02  0.50000000000E+03  0.47000000000E+01 0.  1.
</event>
<event>
 4    1  0.4351282E-004  0.1000000E+04  0.7546771E-02  0.8684367E-01
         11   -1    0    0    0    0  0.00000000000E+00  0.00000000000E+00  0.50000000000E+03  0.50000000000E+03  0.00000000000E+00 0.  1.
        -11   -1    0    0    0    0 -0.00000000000E+00 -0.00000000000E+00 -0.50000000000E+03  0.50000000000E+03  0.00000000000E+00 0. -1.
          5    1    1    2  501    0  0.25019380685E+03 -0.39691422619E+03  0.17274277427E+03  0.50000000000E+03  0.47000000000E+01 0.  1.
         -5    1    1    2    0  501 -0.25019380685E+03  0.39691422619E+03 -0.17274277427E+03  0.50000000000E+03  0.47000000000E+01 0. -1.
</event>
<event>
 4    1  0.4351282E-004  0.1000000E+04  0.7546771E-02  0.8684367E-01
         11   -1    0    0    0    0  0.00000000000E+00  0.00000000000E+00  0.50000000000E+03  0.50000000000E+03  0.00000000000E+00 0. -1.
        -11   -1    0    0    0    0 -0.00000000000E+00 -0.00000000000E+00 -0.50000000000E+03  0.50000000000E+03  0.00000000000E+00 0.  1.
          5    1    1    2  501    0  0.11476302098E+03  0.13052985430E+03  0.46879560168E+03  0.50000000000E+03  0.47000000000E+01 0. -1.
         -5    1    1    2    0  501 -0.11476302098E+03 -0.13052985430E+03 -0.46879560168E+03  0.50000000000E+03  0.47000000000E+01 0.  1.
</event>
<event>
 4    1  0.4351282E-004  0.1000000E+04  0.7546771E-02  0.8684367E-01
         11   -1    0    0    0    0  0.00000000000E+00  0.00000000000E+00  0.50000000000E+03  0.50000000000E+03  0.00000000000E+00 0. -1.
        -11   -1    0    0    0    0 -0.00000000000E+00 -0.00000000000E+00 -0.50000000000E+03  0.50000000000E+03  0.00000000000E+00 0.  1.
          5    1    1    2  501    0 -0.27989736190E+03 -0.23850254898E+03 -0.33875051429E+03  0.50000000000E+03  0.47000000000E+01 0.  1.
         -5    1    1    2    0  501  0.27989736190E+03  0.23850254898E+03  0.33875051429E+03  0.50000000000E+03  0.47000000000E+01 0. -1.
</event>
<event>
 4    1  0.4351282E-004  0.1000000E+04  0.7546771E-02  0.8684367E-01
         11   -1    0    0    0    0  0.00000000000E+00  0.00000000000E+00  0.50000000000E+03  0.50000000000E+03  0.00000000000E+00 0. -1.
        -11   -1    0    0    0    0 -0.00000000000E+00 -0.00000000000E+00 -0.50000000000E+03  0.50000000000E+03  0.00000000000E+00 0.  1.
          5    1    1    2  501    0  0.27486039147E+03 -0.23076456766E+03  0.34810542873E+03  0.50000000000E+03  0.47000000000E+01 0. -1.
         -5    1    1    2    0  501 -0.27486039147E+03  0.23076456766E+03 -0.34810542873E+03  0.50000000000E+03  0.47000000000E+01 0.  1.
</event>
<event>
 4    1  0.4351282E-004  0.1000000E+04  0.7546771E-02  0.8684367E-01
         11   -1    0    0    0    0  0.00000000000E+00  0.00000000000E+00  0.50000000000E+03  0.50000000000E+03  0.00000000000E+00 0. -1.
        -11   -1    0    0    0    0 -0.00000000000E+00 -0.00000000000E+00 -0.50000000000E+03  0.50000000000E+03  0.00000000000E+00 0.  1.
          5    1    1    2  501    0  0.56896884753E+02 -0.35536464215E+03  0.34706861802E+03  0.50000000000E+03  0.47000000000E+01 0. -1.
         -5    1    1    2    0  501 -0.56896884753E+02  0.35536464215E+03 -0.34706861802E+03  0.50000000000E+03  0.47000000000E+01 0.  1.
</event>
<event>
 4    1  0.4351282E-004  0.1000000E+04  0.7546771E-02  0.8684367E-01
         11   -1    0    0    0    0  0.00000000000E+00  0.00000000000E+00  0.50000000000E+03  0.50000000000E+03  0.00000000000E+00 0. -1.
        -11   -1    0    0    0    0 -0.00000000000E+00 -0.00000000000E+00 -0.50000000000E+03  0.50000000000E+03  0.00000000000E+00 0.  1.
          5    1    1    2  501    0  0.35256404229E+03  0.85973518465E+02  0.34392595163E+03  0.50000000000E+03  0.47000000000E+01 0. -1.
         -5    1    1    2    0  501 -0.35256404229E+03 -0.85973518465E+02 -0.34392595163E+03  0.50000000000E+03  0.47000000000E+01 0.  1.
</event>
<event>
 4    1  0.4351282E-004  0.1000000E+04  0.7546771E-02  0.8684367E-01
         11   -1    0    0    0    0  0.00000000000E+00  0.00000000000E+00  0.50000000000E+03  0.50000000000E+03  0.00000000000E+00 0. -1.
        -11   -1    0    0    0    0 -0.00000000000E+00 -0.00000000000E+00 -0.50000000000E+03  0.50000000000E+03  0.00000000000E+00 0.  1.
          5    1    1    2  501    0 -0.33016322905E+03  0.27798179464E+01  0.37544963017E+03  0.50000000000E+03  0.47000000000E+01 0. -1.
         -5    1    1    2    0  501  0.33016322905E+03 -0.27798179464E+01 -0.37544963017E+03  0.50000000000E+03  0.47000000000E+01 0.  1.
</event>
<event>
 4    1  0.4351282E-004  0.1000000E+04  0.7546771E-02  0.8684367E-01
         11   -1    0    0    0    0  0.00000000000E+00  0.00000000000E+00  0.50000000000E+03  0.50000000000E+03  0.00000000000E+00 0. -1.
        -11   -1    0    0    0    0 -0.00000000000E+00 -0.00000000000E+00 -0.50000000000E+03  0.50000000000E+03  0.00000000000E+00 0.  1.
          5    1    1    2  501    0 -0.35685411961E+03  0.16227114413E+03  0.31032422255E+03  0.50000000000E+03  0.47000000000E+01 0. -1.
         -5    1    1    2    0  501  0.35685411961E+03 -0.16227114413E+03 -0.31032422255E+03  0.50000000000E+03  0.47000000000E+01 0.  1.
</event>
<event>
 4    1  0.4351282E-004  0.1000000E+04  0.7546771E-02  0.8684367E-01
         11   -1    0    0    0    0  0.00000000000E+00  0.00000000000E+00  0.50000000000E+03  0.50000000000E+03  0.00000000000E+00 0. -1.
        -11   -1    0    0    0    0 -0.00000000000E+00 -0.00000000000E+00 -0.50000000000E+03  0.50000000000E+03  0.00000000000E+00 0.  1.
          5    1    1    2  501    0  0.36666814149E+03 -0.26219697138E+03  0.21629871063E+03  0.50000000000E+03  0.47000000000E+01 0. -1.
         -5    1    1    2    0  501 -0.36666814149E+03  0.26219697138E+03 -0.21629871063E+03  0.50000000000E+03  0.47000000000E+01 0.  1.
</event>
<event>
 4    1  0.4351282E-004  0.1000000E+04  0.7546771E-02  0.8684367E-01
         11   -1    0    0    0    0  0.00000000000E+00  0.00000000000E+00  0.50000000000E+03  0.50000000000E+03  0.00000000000E+00 0. -1.
        -11   -1    0    0    0    0 -0.00000000000E+00 -0.00000000000E+00 -0.50000000000E+03  0.50000000000E+03  0.00000000000E+00 0.  1.
          5    1    1    2  501    0 -0.41183298001E+03 -0.11035510644E+02  0.28328382249E+03  0.50000000000E+03  0.47000000000E+01 0. -1.
         -5    1    1    2    0  501  0.41183298001E+03  0.11035510644E+02 -0.28328382249E+03  0.50000000000E+03  0.47000000000E+01 0.  1.
</event>
<event>
 4    1  0.4351282E-004  0.1000000E+04  0.7546771E-02  0.8684367E-01
         11   -1    0    0    0    0  0.00000000000E+00  0.00000000000E+00  0.50000000000E+03  0.50000000000E+03  0.00000000000E+00 0. -1.
        -11   -1    0    0    0    0 -0.00000000000E+00 -0.00000000000E+00 -0.50000000000E+03  0.50000000000E+03  0.00000000000E+00 0.  1.
          5    1    1    2  501    0 -0.46608478480E+02  0.18483840133E+03  0.46221242425E+03  0.50000000000E+03  0.47000000000E+01 0. -1.
         -5    1    1    2    0  501  0.46608478480E+02 -0.18483840133E+03 -0.46221242425E+03  0.50000000000E+03  0.47000000000E+01 0.  1.
</event>
<event>
 4    1  0.4351282E-004  0.1000000E+04  0.7546771E-02  0.8684367E-01
         11   -1    0    0    0    0  0.00000000000E+00  0.00000000000E+00  0.50000000000E+03  0.50000000000E+03  0.00000000000E+00 0. -1.
        -11   -1    0    0    0    0 -0.00000000000E+00 -0.00000000000E+00 -0.50000000000E+03  0.50000000000E+03  0.00000000000E+00 0.  1.
          5    1    1    2  501    0  0.16035737471E+03  0.10187341947E+03  0.46247727380E+03  0.50000000000E+03  0.47000000000E+01 0. -1.
         -5    1    1    2    0  501 -0.16035737471E+03 -0.10187341947E+03 -0.46247727380E+03  0.50000000000E+03  0.47000000000E+01 0.  1.
</event>
<event>
 4    1  0.4351282E-004  0.1000000E+04  0.7546771E-02  0.8684367E-01
         11   -1    0    0    0    0  0.00000000000E+00  0.00000000000E+00  0.50000000000E+03  0.50000000000E+03  0.00000000000E+00 0.  1.
        -11   -1    0    0    0    0 -0.00000000000E+00 -0.00000000000E+00 -0.50000000000E+03  0.50000000000E+03  0.00000000000E+00 0. -1.
          5    1    1    2  501    0  0.20043072283E+03 -0.14408390738E+03 -0.43479335664E+03  0.50000000000E+03  0.47000000000E+01 0. -1.
         -5    1    1    2    0  501 -0.20043072283E+03  0.14408390738E+03  0.43479335664E+03  0.50000000000E+03  0.47000000000E+01 0.  1.
</event>
<event>
 4    1  0.4351282E-004  0.1000000E+04  0.7546771E-02  0.8684367E-01
         11   -1    0    0    0    0  0.00000000000E+00  0.00000000000E+00  0.50000000000E+03  0.50000000000E+03  0.00000000000E+00 0. -1.
        -11   -1    0    0    0    0 -0.00000000000E+00 -0.00000000000E+00 -0.50000000000E+03  0.50000000000E+03  0.00000000000E+00 0.  1.
          5    1    1    2  501    0  0.34292274155E+03 -0.10102704893E+03  0.34953603350E+03  0.50000000000E+03  0.47000000000E+01 0. -1.
         -5    1    1    2    0  501 -0.34292274155E+03  0.10102704893E+03 -0.34953603350E+03  0.50000000000E+03  0.47000000000E+01 0.  1.
</event>
<event>
 4    1  0.4351282E-004  0.1000000E+04  0.7546771E-02  0.8684367E-01
         11   -1    0    0    0    0  0.00000000000E+00  0.00000000000E+00  0.50000000000E+03  0.50000000000E+03  0.00000000000E+00 0.  1.
        -11   -1    0    0    0    0 -0.00000000000E+00 -0.00000000000E+00 -0.50000000000E+03  0.50000000000E+03  0.00000000000E+00 0. -1.
          5    1    1    2  501    0  0.27606033077E+03 -0.40666942989E+03  0.91589183693E+02  0.50000000000E+03  0.47000000000E+01 0.  1.
         -5    1    1    2    0  501 -0.27606033077E+03  0.40666942989E+03 -0.91589183693E+02  0.50000000000E+03  0.47000000000E+01 0. -1.
</event>
<event>
 4    1  0.4351282E-004  0.1000000E+04  0.7546771E-02  0.8684367E-01
         11   -1    0    0    0    0  0.00000000000E+00  0.00000000000E+00  0.50000000000E+03  0.50000000000E+03  0.00000000000E+00 0.  1.
        -11   -1    0    0    0    0 -0.00000000000E+00 -0.00000000000E+00 -0.50000000000E+03  0.50000000000E+03  0.00000000000E+00 0. -1.
          5    1    1    2  501    0  0.23154487316E+03 -0.11522259327E+03  0.42788857862E+03  0.50000000000E+03  0.47000000000E+01 0.  1.
         -5    1    1    2    0  501 -0.23154487316E+03  0.11522259327E+03 -0.42788857862E+03  0.50000000000E+03  0.47000000000E+01 0. -1.
</event>
<event>
 4    1  0.4351282E-004  0.1000000E+04  0.7546771E-02  0.8684367E-01
         11   -1    0    0    0    0  0.00000000000E+00  0.00000000000E+00  0.50000000000E+03  0.50000000000E+03  0.00000000000E+00 0. -1.
        -11   -1    0    0    0    0 -0.00000000000E+00 -0.00000000000E+00 -0.50000000000E+03  0.50000000000E+03  0.00000000000E+00 0.  1.
          5    1    1    2  501    0 -0.34152217164E+03 -0.25777261633E+03  0.25863834702E+03  0.50000000000E+03  0.47000000000E+01 0. -1.
         -5    1    1    2    0  501  0.34152217164E+03  0.25777261633E+03 -0.25863834702E+03  0.50000000000E+03  0.47000000000E+01 0.  1.
</event>
<event>
 4    1  0.4351282E-004  0.1000000E+04  0.7546771E-02  0.8684367E-01
         11   -1    0    0    0    0  0.00000000000E+00  0.00000000000E+00  0.50000000000E+03  0.50000000000E+03  0.00000000000E+00 0. -1.
        -11   -1    0    0    0    0 -0.00000000000E+00 -0.00000000000E+00 -0.50000000000E+03  0.50000000000E+03  0.00000000000E+00 0.  1.
          5    1    1    2  501    0  0.53370744717E+02 -0.37944168955E+02 -0.49567097318E+03  0.50000000000E+03  0.47000000000E+01 0.  1.
         -5    1    1    2    0  501 -0.53370744717E+02  0.37944168955E+02  0.49567097318E+03  0.50000000000E+03  0.47000000000E+01 0. -1.
</event>
<event>
 4    1  0.4351282E-004  0.1000000E+04  0.7546771E-02  0.8684367E-01
         11   -1    0    0    0    0  0.00000000000E+00  0.00000000000E+00  0.50000000000E+03  0.50000000000E+03  0.00000000000E+00 0. -1.
        -11   -1    0    0    0    0 -0.00000000000E+00 -0.00000000000E+00 -0.50000000000E+03  0.50000000000E+03  0.00000000000E+00 0.  1.
          5    1    1    2  501    0 -0.45708899497E+03  0.19428664140E+03  0.57447903799E+02  0.50000000000E+03  0.47000000000E+01 0. -1.
         -5    1    1    2    0  501  0.45708899497E+03 -0.19428664140E+03 -0.57447903799E+02  0.50000000000E+03  0.47000000000E+01 0.  1.
</event>
<event>
 4    1  0.4351282E-004  0.1000000E+04  0.7546771E-02  0.8684367E-01
         11   -1    0    0    0    0  0.00000000000E+00  0.00000000000E+00  0.50000000000E+03  0.50000000000E+03  0.00000000000E+00 0. -1.
        -11   -1    0    0    0    0 -0.00000000000E+00 -0.00000000000E+00 -0.50000000000E+03  0.50000000000E+03  0.00000000000E+00 0.  1.
          5    1    1    2  501    0 -0.19278783906E+03 -0.97001824109E+02  0.45100044926E+03  0.50000000000E+03  0.47000000000E+01 0. -1.
         -5    1    1    2    0  501  0.19278783906E+03  0.97001824109E+02 -0.45100044926E+03  0.50000000000E+03  0.47000000000E+01 0.  1.
</event>
<event>
 4    1  0.4351282E-004  0.1000000E+04  0.7546771E-02  0.8684367E-01
         11   -1    0    0    0    0  0.00000000000E+00  0.00000000000E+00  0.50000000000E+03  0.50000000000E+03  0.00000000000E+00 0. -1.
        -11   -1    0    0    0    0 -0.00000000000E+00 -0.00000000000E+00 -0.50000000000E+03  0.50000000000E+03  0.00000000000E+00 0.  1.
          5    1    1    2  501    0 -0.35604328344E+03 -0.33375166831E+03  0.10872402778E+03  0.50000000000E+03  0.47000000000E+01 0. -1.
         -5    1    1    2    0  501  0.35604328344E+03  0.33375166831E+03 -0.10872402778E+03  0.50000000000E+03  0.47000000000E+01 0.  1.
</event>
<event>
 4    1  0.4351282E-004  0.1000000E+04  0.7546771E-02  0.8684367E-01
         11   -1    0    0    0    0  0.00000000000E+00  0.00000000000E+00  0.50000000000E+03  0.50000000000E+03  0.00000000000E+00 0. -1.
        -11   -1    0    0    0    0 -0.00000000000E+00 -0.00000000000E+00 -0.50000000000E+03  0.50000000000E+03  0.00000000000E+00 0.  1.
          5    1    1    2  501    0  0.45772611520E+03 -0.18988447310E+03 -0.66397291688E+02  0.50000000000E+03  0.47000000000E+01 0. -1.
         -5    1    1    2    0  501 -0.45772611520E+03  0.18988447310E+03  0.66397291688E+02  0.50000000000E+03  0.47000000000E+01 0.  1.
</event>
<event>
 4    1  0.4351282E-004  0.1000000E+04  0.7546771E-02  0.8684367E-01
         11   -1    0    0    0    0  0.00000000000E+00  0.00000000000E+00  0.50000000000E+03  0.50000000000E+03  0.00000000000E+00 0.  1.
        -11   -1    0    0    0    0 -0.00000000000E+00 -0.00000000000E+00 -0.50000000000E+03  0.50000000000E+03  0.00000000000E+00 0. -1.
          5    1    1    2  501    0  0.18332853901E+03 -0.20523270702E+03  0.41743034479E+03  0.50000000000E+03  0.47000000000E+01 0.  1.
         -5    1    1    2    0  501 -0.18332853901E+03  0.20523270702E+03 -0.41743034479E+03  0.50000000000E+03  0.47000000000E+01 0. -1.
</event>
<event>
 4    1  0.4351282E-004  0.1000000E+04  0.7546771E-02  0.8684367E-01
         11   -1    0    0    0    0  0.00000000000E+00  0.00000000000E+00  0.50000000000E+03  0.50000000000E+03  0.00000000000E+00 0. -1.
        -11   -1    0    0    0    0 -0.00000000000E+00 -0.00000000000E+00 -0.50000000000E+03  0.50000000000E+03  0.00000000000E+00 0.  1.
          5    1    1    2  501    0  0.13738221621E+03  0.29552587080E+03  0.37916816369E+03  0.50000000000E+03  0.47000000000E+01 0. -1.
         -5    1    1    2    0  501 -0.13738221621E+03 -0.29552587080E+03 -0.37916816369E+03  0.50000000000E+03  0.47000000000E+01 0.  1.
</event>
<event>
 4    1  0.4351282E-004  0.1000000E+04  0.7546771E-02  0.8684367E-01
         11   -1    0    0    0    0  0.00000000000E+00  0.00000000000E+00  0.50000000000E+03  0.50000000000E+03  0.00000000000E+00 0. -1.
        -11   -1    0    0    0    0 -0.00000000000E+00 -0.00000000000E+00 -0.50000000000E+03  0.50000000000E+03  0.00000000000E+00 0.  1.
          5    1    1    2  501    0  0.21232550668E+03 -0.10089457737E+03  0.44126644272E+03  0.50000000000E+03  0.47000000000E+01 0. -1.
         -5    1    1    2    0  501 -0.21232550668E+03  0.10089457737E+03 -0.44126644272E+03  0.50000000000E+03  0.47000000000E+01 0.  1.
</event>
<event>
 4    1  0.4351282E-004  0.1000000E+04  0.7546771E-02  0.8684367E-01
         11   -1    0    0    0    0  0.00000000000E+00  0.00000000000E+00  0.50000000000E+03  0.50000000000E+03  0.00000000000E+00 0. -1.
        -11   -1    0    0    0    0 -0.00000000000E+00 -0.00000000000E+00 -0.50000000000E+03  0.50000000000E+03  0.00000000000E+00 0.  1.
          5    1    1    2  501    0 -0.18553637121E+02 -0.31969016109E+03  0.38396858394E+03  0.50000000000E+03  0.47000000000E+01 0. -1.
         -5    1    1    2    0  501  0.18553637121E+02  0.31969016109E+03 -0.38396858394E+03  0.50000000000E+03  0.47000000000E+01 0.  1.
</event>
<event>
 4    1  0.4351282E-004  0.1000000E+04  0.7546771E-02  0.8684367E-01
         11   -1    0    0    0    0  0.00000000000E+00  0.00000000000E+00  0.50000000000E+03  0.50000000000E+03  0.00000000000E+00 0. -1.
        -11   -1    0    0    0    0 -0.00000000000E+00 -0.00000000000E+00 -0.50000000000E+03  0.50000000000E+03  0.00000000000E+00 0.  1.
          5    1    1    2  501    0 -0.34825351460E+03  0.17304531278E+03  0.31424945393E+03  0.50000000000E+03  0.47000000000E+01 0. -1.
         -5    1    1    2    0  501  0.34825351460E+03 -0.17304531278E+03 -0.31424945393E+03  0.50000000000E+03  0.47000000000E+01 0.  1.
</event>
<event>
 4    1  0.4351282E-004  0.1000000E+04  0.7546771E-02  0.8684367E-01
         11   -1    0    0    0    0  0.00000000000E+00  0.00000000000E+00  0.50000000000E+03  0.50000000000E+03  0.00000000000E+00 0. -1.
        -11   -1    0    0    0    0 -0.00000000000E+00 -0.00000000000E+00 -0.50000000000E+03  0.50000000000E+03  0.00000000000E+00 0.  1.
          5    1    1    2  501    0  0.38687547837E+03 -0.30442288068E+03  0.87361226832E+02  0.50000000000E+03  0.47000000000E+01 0. -1.
         -5    1    1    2    0  501 -0.38687547837E+03  0.30442288068E+03 -0.87361226832E+02  0.50000000000E+03  0.47000000000E+01 0.  1.
</event>
<event>
 4    1  0.4351282E-004  0.1000000E+04  0.7546771E-02  0.8684367E-01
         11   -1    0    0    0    0  0.00000000000E+00  0.00000000000E+00  0.50000000000E+03  0.50000000000E+03  0.00000000000E+00 0. -1.
        -11   -1    0    0    0    0 -0.00000000000E+00 -0.00000000000E+00 -0.50000000000E+03  0.50000000000E+03  0.00000000000E+00 0.  1.
          5    1    1    2  501    0  0.34537548852E+02  0.49015066844E+03 -0.92397997530E+02  0.50000000000E+03  0.47000000000E+01 0.  1.
         -5    1    1    2    0  501 -0.34537548852E+02 -0.49015066844E+03  0.92397997530E+02  0.50000000000E+03  0.47000000000E+01 0. -1.
</event>
<event>
 4    1  0.4351282E-004  0.1000000E+04  0.7546771E-02  0.8684367E-01
         11   -1    0    0    0    0  0.00000000000E+00  0.00000000000E+00  0.50000000000E+03  0.50000000000E+03  0.00000000000E+00 0. -1.
        -11   -1    0    0    0    0 -0.00000000000E+00 -0.00000000000E+00 -0.50000000000E+03  0.50000000000E+03  0.00000000000E+00 0.  1.
          5    1    1    2  501    0 -0.11243841751E+03 -0.37317124976E+03  0.31317523948E+03  0.50000000000E+03  0.47000000000E+01 0. -1.
         -5    1    1    2    0  501  0.11243841751E+03  0.37317124976E+03 -0.31317523948E+03  0.50000000000E+03  0.47000000000E+01 0.  1.
</event>
<event>
 4    1  0.4351282E-004  0.1000000E+04  0.7546771E-02  0.8684367E-01
         11   -1    0    0    0    0  0.00000000000E+00  0.00000000000E+00  0.50000000000E+03  0.50000000000E+03  0.00000000000E+00 0. -1.
        -11   -1    0    0    0    0 -0.00000000000E+00 -0.00000000000E+00 -0.50000000000E+03  0.50000000000E+03  0.00000000000E+00 0.  1.
          5    1    1    2  501    0 -0.32319546197E+03 -0.37276431616E+03 -0.81051637627E+02  0.50000000000E+03  0.47000000000E+01 0. -1.
         -5    1    1    2    0  501  0.32319546197E+03  0.37276431616E+03  0.81051637627E+02  0.50000000000E+03  0.47000000000E+01 0.  1.
</event>
<event>
 4    1  0.4351282E-004  0.1000000E+04  0.7546771E-02  0.8684367E-01
         11   -1    0    0    0    0  0.00000000000E+00  0.00000000000E+00  0.50000000000E+03  0.50000000000E+03  0.00000000000E+00 0.  1.
        -11   -1    0    0    0    0 -0.00000000000E+00 -0.00000000000E+00 -0.50000000000E+03  0.50000000000E+03  0.00000000000E+00 0. -1.
          5    1    1    2  501    0  0.14718628294E+03 -0.92361276123E+02  0.46881073237E+03  0.50000000000E+03  0.47000000000E+01 0.  1.
         -5    1    1    2    0  501 -0.14718628294E+03  0.92361276123E+02 -0.46881073237E+03  0.50000000000E+03  0.47000000000E+01 0. -1.
</event>
<event>
 4    1  0.4351282E-004  0.1000000E+04  0.7546771E-02  0.8684367E-01
         11   -1    0    0    0    0  0.00000000000E+00  0.00000000000E+00  0.50000000000E+03  0.50000000000E+03  0.00000000000E+00 0. -1.
        -11   -1    0    0    0    0 -0.00000000000E+00 -0.00000000000E+00 -0.50000000000E+03  0.50000000000E+03  0.00000000000E+00 0.  1.
          5    1    1    2  501    0 -0.19164443201E+03 -0.73838007247E+02  0.45584895565E+03  0.50000000000E+03  0.47000000000E+01 0. -1.
         -5    1    1    2    0  501  0.19164443201E+03  0.73838007247E+02 -0.45584895565E+03  0.50000000000E+03  0.47000000000E+01 0.  1.
</event>
<event>
 4    1  0.4351282E-004  0.1000000E+04  0.7546771E-02  0.8684367E-01
         11   -1    0    0    0    0  0.00000000000E+00  0.00000000000E+00  0.50000000000E+03  0.50000000000E+03  0.00000000000E+00 0.  1.
        -11   -1    0    0    0    0 -0.00000000000E+00 -0.00000000000E+00 -0.50000000000E+03  0.50000000000E+03  0.00000000000E+00 0. -1.
          5    1    1    2  501    0 -0.19597548893E+03 -0.53606123806E+02  0.45683465415E+03  0.50000000000E+03  0.47000000000E+01 0.  1.
         -5    1    1    2    0  501  0.19597548893E+03  0.53606123806E+02 -0.45683465415E+03  0.50000000000E+03  0.47000000000E+01 0. -1.
</event>
<event>
 4    1  0.4351282E-004  0.1000000E+04  0.7546771E-02  0.8684367E-01
         11   -1    0    0    0    0  0.00000000000E+00  0.00000000000E+00  0.50000000000E+03  0.50000000000E+03  0.00000000000E+00 0. -1.
        -11   -1    0    0    0    0 -0.00000000000E+00 -0.00000000000E+00 -0.50000000000E+03  0.50000000000E+03  0.00000000000E+00 0.  1.
          5    1    1    2  501    0 -0.38665592413E+03  0.22948516038E+03  0.21865879243E+03  0.50000000000E+03  0.47000000000E+01 0. -1.
         -5    1    1    2    0  501  0.38665592413E+03 -0.22948516038E+03 -0.21865879243E+03  0.50000000000E+03  0.47000000000E+01 0.  1.
</event>
<event>
 4    1  0.4351282E-004  0.1000000E+04  0.7546771E-02  0.8684367E-01
         11   -1    0    0    0    0  0.00000000000E+00  0.00000000000E+00  0.50000000000E+03  0.50000000000E+03  0.00000000000E+00 0. -1.
        -11   -1    0    0    0    0 -0.00000000000E+00 -0.00000000000E+00 -0.50000000000E+03  0.50000000000E+03  0.00000000000E+00 0.  1.
          5    1    1    2  501    0  0.43587688131E+03 -0.23019231880E+03  0.83670488874E+02  0.50000000000E+03  0.47000000000E+01 0. -1.
         -5    1    1    2    0  501 -0.43587688131E+03  0.23019231880E+03 -0.83670488874E+02  0.50000000000E+03  0.47000000000E+01 0.  1.
</event>
<event>
 4    1  0.4351282E-004  0.1000000E+04  0.7546771E-02  0.8684367E-01
         11   -1    0    0    0    0  0.00000000000E+00  0.00000000000E+00  0.50000000000E+03  0.50000000000E+03  0.00000000000E+00 0. -1.
        -11   -1    0    0    0    0 -0.00000000000E+00 -0.00000000000E+00 -0.50000000000E+03  0.50000000000E+03  0.00000000000E+00 0.  1.
          5    1    1    2  501    0 -0.44660839340E+03  0.10948494261E+03  0.19629544134E+03  0.50000000000E+03  0.47000000000E+01 0. -1.
         -5    1    1    2    0  501  0.44660839340E+03 -0.10948494261E+03 -0.19629544134E+03  0.50000000000E+03  0.47000000000E+01 0.  1.
</event>
<event>
 4    1  0.4351282E-004  0.1000000E+04  0.7546771E-02  0.8684367E-01
         11   -1    0    0    0    0  0.00000000000E+00  0.00000000000E+00  0.50000000000E+03  0.50000000000E+03  0.00000000000E+00 0. -1.
        -11   -1    0    0    0    0 -0.00000000000E+00 -0.00000000000E+00 -0.50000000000E+03  0.50000000000E+03  0.00000000000E+00 0.  1.
          5    1    1    2  501    0  0.39580713279E+03 -0.30249503903E+03  0.42560251399E+02  0.50000000000E+03  0.47000000000E+01 0. -1.
         -5    1    1    2    0  501 -0.39580713279E+03  0.30249503903E+03 -0.42560251399E+02  0.50000000000E+03  0.47000000000E+01 0.  1.
</event>
<event>
 4    1  0.4351282E-004  0.1000000E+04  0.7546771E-02  0.8684367E-01
         11   -1    0    0    0    0  0.00000000000E+00  0.00000000000E+00  0.50000000000E+03  0.50000000000E+03  0.00000000000E+00 0. -1.
        -11   -1    0    0    0    0 -0.00000000000E+00 -0.00000000000E+00 -0.50000000000E+03  0.50000000000E+03  0.00000000000E+00 0.  1.
          5    1    1    2  501    0 -0.25484453031E+03 -0.35192510794E+03  0.24734771835E+03  0.50000000000E+03  0.47000000000E+01 0. -1.
         -5    1    1    2    0  501  0.25484453031E+03  0.35192510794E+03 -0.24734771835E+03  0.50000000000E+03  0.47000000000E+01 0.  1.
</event>
<event>
 4    1  0.4351282E-004  0.1000000E+04  0.7546771E-02  0.8684367E-01
         11   -1    0    0    0    0  0.00000000000E+00  0.00000000000E+00  0.50000000000E+03  0.50000000000E+03  0.00000000000E+00 0. -1.
        -11   -1    0    0    0    0 -0.00000000000E+00 -0.00000000000E+00 -0.50000000000E+03  0.50000000000E+03  0.00000000000E+00 0.  1.
          5    1    1    2  501    0  0.17042541935E+03  0.30527477955E+03  0.35740788381E+03  0.50000000000E+03  0.47000000000E+01 0. -1.
         -5    1    1    2    0  501 -0.17042541935E+03 -0.30527477955E+03 -0.35740788381E+03  0.50000000000E+03  0.47000000000E+01 0.  1.
</event>
<event>
 4    1  0.4351282E-004  0.1000000E+04  0.7546771E-02  0.8684367E-01
         11   -1    0    0    0    0  0.00000000000E+00  0.00000000000E+00  0.50000000000E+03  0.50000000000E+03  0.00000000000E+00 0. -1.
        -11   -1    0    0    0    0 -0.00000000000E+00 -0.00000000000E+00 -0.50000000000E+03  0.50000000000E+03  0.00000000000E+00 0.  1.
          5    1    1    2  501    0 -0.11846834623E+03  0.17061125386E+02  0.48544008790E+03  0.50000000000E+03  0.47000000000E+01 0. -1.
         -5    1    1    2    0  501  0.11846834623E+03 -0.17061125386E+02 -0.48544008790E+03  0.50000000000E+03  0.47000000000E+01 0.  1.
</event>
<event>
 4    1  0.4351282E-004  0.1000000E+04  0.7546771E-02  0.8684367E-01
         11   -1    0    0    0    0  0.00000000000E+00  0.00000000000E+00  0.50000000000E+03  0.50000000000E+03  0.00000000000E+00 0. -1.
        -11   -1    0    0    0    0 -0.00000000000E+00 -0.00000000000E+00 -0.50000000000E+03  0.50000000000E+03  0.00000000000E+00 0.  1.
          5    1    1    2  501    0  0.16018592377E+03  0.46137882874E+03  0.10699512237E+03  0.50000000000E+03  0.47000000000E+01 0. -1.
         -5    1    1    2    0  501 -0.16018592377E+03 -0.46137882874E+03 -0.10699512237E+03  0.50000000000E+03  0.47000000000E+01 0.  1.
</event>
<event>
 4    1  0.4351282E-004  0.1000000E+04  0.7546771E-02  0.8684367E-01
         11   -1    0    0    0    0  0.00000000000E+00  0.00000000000E+00  0.50000000000E+03  0.50000000000E+03  0.00000000000E+00 0. -1.
        -11   -1    0    0    0    0 -0.00000000000E+00 -0.00000000000E+00 -0.50000000000E+03  0.50000000000E+03  0.00000000000E+00 0.  1.
          5    1    1    2  501    0  0.48213431573E+03  0.82769745689E+02  0.10331302335E+03  0.50000000000E+03  0.47000000000E+01 0. -1.
         -5    1    1    2    0  501 -0.48213431573E+03 -0.82769745689E+02 -0.10331302335E+03  0.50000000000E+03  0.47000000000E+01 0.  1.
</event>
<event>
 4    1  0.4351282E-004  0.1000000E+04  0.7546771E-02  0.8684367E-01
         11   -1    0    0    0    0  0.00000000000E+00  0.00000000000E+00  0.50000000000E+03  0.50000000000E+03  0.00000000000E+00 0. -1.
        -11   -1    0    0    0    0 -0.00000000000E+00 -0.00000000000E+00 -0.50000000000E+03  0.50000000000E+03  0.00000000000E+00 0.  1.
          5    1    1    2  501    0 -0.14718868949E+03 -0.38549088695E+03  0.28232990589E+03  0.50000000000E+03  0.47000000000E+01 0. -1.
         -5    1    1    2    0  501  0.14718868949E+03  0.38549088695E+03 -0.28232990589E+03  0.50000000000E+03  0.47000000000E+01 0.  1.
</event>
<event>
 4    1  0.4351282E-004  0.1000000E+04  0.7546771E-02  0.8684367E-01
         11   -1    0    0    0    0  0.00000000000E+00  0.00000000000E+00  0.50000000000E+03  0.50000000000E+03  0.00000000000E+00 0. -1.
        -11   -1    0    0    0    0 -0.00000000000E+00 -0.00000000000E+00 -0.50000000000E+03  0.50000000000E+03  0.00000000000E+00 0.  1.
          5    1    1    2  501    0 -0.39147314515E+03  0.27840259159E+03  0.13863146692E+03  0.50000000000E+03  0.47000000000E+01 0. -1.
         -5    1    1    2    0  501  0.39147314515E+03 -0.27840259159E+03 -0.13863146692E+03  0.50000000000E+03  0.47000000000E+01 0.  1.
</event>
<event>
 4    1  0.4351282E-004  0.1000000E+04  0.7546771E-02  0.8684367E-01
         11   -1    0    0    0    0  0.00000000000E+00  0.00000000000E+00  0.50000000000E+03  0.50000000000E+03  0.00000000000E+00 0. -1.
        -11   -1    0    0    0    0 -0.00000000000E+00 -0.00000000000E+00 -0.50000000000E+03  0.50000000000E+03  0.00000000000E+00 0.  1.
          5    1    1    2  501    0  0.14443834798E+03  0.12972019004E+03  0.46074737756E+03  0.50000000000E+03  0.47000000000E+01 0. -1.
         -5    1    1    2    0  501 -0.14443834798E+03 -0.12972019004E+03 -0.46074737756E+03  0.50000000000E+03  0.47000000000E+01 0.  1.
</event>
<event>
 4    1  0.4351282E-004  0.1000000E+04  0.7546771E-02  0.8684367E-01
         11   -1    0    0    0    0  0.00000000000E+00  0.00000000000E+00  0.50000000000E+03  0.50000000000E+03  0.00000000000E+00 0. -1.
        -11   -1    0    0    0    0 -0.00000000000E+00 -0.00000000000E+00 -0.50000000000E+03  0.50000000000E+03  0.00000000000E+00 0.  1.
          5    1    1    2  501    0  0.45046352808E+03 -0.65481215058E+01  0.21683551825E+03  0.50000000000E+03  0.47000000000E+01 0. -1.
         -5    1    1    2    0  501 -0.45046352808E+03  0.65481215058E+01 -0.21683551825E+03  0.50000000000E+03  0.47000000000E+01 0.  1.
</event>
<event>
 4    1  0.4351282E-004  0.1000000E+04  0.7546771E-02  0.8684367E-01
         11   -1    0    0    0    0  0.00000000000E+00  0.00000000000E+00  0.50000000000E+03  0.50000000000E+03  0.00000000000E+00 0. -1.
        -11   -1    0    0    0    0 -0.00000000000E+00 -0.00000000000E+00 -0.50000000000E+03  0.50000000000E+03  0.00000000000E+00 0.  1.
          5    1    1    2  501    0 -0.24645992646E+03 -0.41114267110E+03  0.14211656714E+03  0.50000000000E+03  0.47000000000E+01 0. -1.
         -5    1    1    2    0  501  0.24645992646E+03  0.41114267110E+03 -0.14211656714E+03  0.50000000000E+03  0.47000000000E+01 0.  1.
</event>
<event>
 4    1  0.4351282E-004  0.1000000E+04  0.7546771E-02  0.8684367E-01
         11   -1    0    0    0    0  0.00000000000E+00  0.00000000000E+00  0.50000000000E+03  0.50000000000E+03  0.00000000000E+00 0.  1.
        -11   -1    0    0    0    0 -0.00000000000E+00 -0.00000000000E+00 -0.50000000000E+03  0.50000000000E+03  0.00000000000E+00 0. -1.
          5    1    1    2  501    0 -0.18667930330E+03 -0.36663474206E+03 -0.28409103054E+03  0.50000000000E+03  0.47000000000E+01 0. -1.
         -5    1    1    2    0  501  0.18667930330E+03  0.36663474206E+03  0.28409103054E+03  0.50000000000E+03  0.47000000000E+01 0.  1.
</event>
<event>
 4    1  0.4351282E-004  0.1000000E+04  0.7546771E-02  0.8684367E-01
         11   -1    0    0    0    0  0.00000000000E+00  0.00000000000E+00  0.50000000000E+03  0.50000000000E+03  0.00000000000E+00 0. -1.
        -11   -1    0    0    0    0 -0.00000000000E+00 -0.00000000000E+00 -0.50000000000E+03  0.50000000000E+03  0.00000000000E+00 0.  1.
          5    1    1    2  501    0  0.14437834990E+02 -0.34676219480E+03  0.35989642840E+03  0.50000000000E+03  0.47000000000E+01 0. -1.
         -5    1    1    2    0  501 -0.14437834990E+02  0.34676219480E+03 -0.35989642840E+03  0.50000000000E+03  0.47000000000E+01 0.  1.
</event>
<event>
 4    1  0.4351282E-004  0.1000000E+04  0.7546771E-02  0.8684367E-01
         11   -1    0    0    0    0  0.00000000000E+00  0.00000000000E+00  0.50000000000E+03  0.50000000000E+03  0.00000000000E+00 0. -1.
        -11   -1    0    0    0    0 -0.00000000000E+00 -0.00000000000E+00 -0.50000000000E+03  0.50000000000E+03  0.00000000000E+00 0.  1.
          5    1    1    2  501    0 -0.14869664719E+03 -0.32919416486E+03  0.34568543350E+03  0.50000000000E+03  0.47000000000E+01 0. -1.
         -5    1    1    2    0  501  0.14869664719E+03  0.32919416486E+03 -0.34568543350E+03  0.50000000000E+03  0.47000000000E+01 0.  1.
</event>
<event>
 4    1  0.4351282E-004  0.1000000E+04  0.7546771E-02  0.8684367E-01
         11   -1    0    0    0    0  0.00000000000E+00  0.00000000000E+00  0.50000000000E+03  0.50000000000E+03  0.00000000000E+00 0. -1.
        -11   -1    0    0    0    0 -0.00000000000E+00 -0.00000000000E+00 -0.50000000000E+03  0.50000000000E+03  0.00000000000E+00 0.  1.
          5    1    1    2  501    0 -0.82256190524E+02 -0.49313449670E+03  0.54952056231E+01  0.50000000000E+03  0.47000000000E+01 0. -1.
         -5    1    1    2    0  501  0.82256190524E+02  0.49313449670E+03 -0.54952056231E+01  0.50000000000E+03  0.47000000000E+01 0.  1.
</event>
<event>
 4    1  0.4351282E-004  0.1000000E+04  0.7546771E-02  0.8684367E-01
         11   -1    0    0    0    0  0.00000000000E+00  0.00000000000E+00  0.50000000000E+03  0.50000000000E+03  0.00000000000E+00 0.  1.
        -11   -1    0    0    0    0 -0.00000000000E+00 -0.00000000000E+00 -0.50000000000E+03  0.50000000000E+03  0.00000000000E+00 0. -1.
          5    1    1    2  501    0  0.67863318157E+02  0.48616397426E+03  0.94958254924E+02  0.50000000000E+03  0.47000000000E+01 0.  1.
         -5    1    1    2    0  501 -0.67863318157E+02 -0.48616397426E+03 -0.94958254924E+02  0.50000000000E+03  0.47000000000E+01 0. -1.
</event>
<event>
 4    1  0.4351282E-004  0.1000000E+04  0.7546771E-02  0.8684367E-01
         11   -1    0    0    0    0  0.00000000000E+00  0.00000000000E+00  0.50000000000E+03  0.50000000000E+03  0.00000000000E+00 0. -1.
        -11   -1    0    0    0    0 -0.00000000000E+00 -0.00000000000E+00 -0.50000000000E+03  0.50000000000E+03  0.00000000000E+00 0.  1.
          5    1    1    2  501    0 -0.39137643158E+02 -0.76603336456E+02  0.49252216573E+03  0.50000000000E+03  0.47000000000E+01 0. -1.
         -5    1    1    2    0  501  0.39137643158E+02  0.76603336456E+02 -0.49252216573E+03  0.50000000000E+03  0.47000000000E+01 0.  1.
</event>
<event>
 4    1  0.4351282E-004  0.1000000E+04  0.7546771E-02  0.8684367E-01
         11   -1    0    0    0    0  0.00000000000E+00  0.00000000000E+00  0.50000000000E+03  0.50000000000E+03  0.00000000000E+00 0. -1.
        -11   -1    0    0    0    0 -0.00000000000E+00 -0.00000000000E+00 -0.50000000000E+03  0.50000000000E+03  0.00000000000E+00 0.  1.
          5    1    1    2  501    0  0.36683244729E+03 -0.52324739361E+02  0.33566946133E+03  0.50000000000E+03  0.47000000000E+01 0. -1.
         -5    1    1    2    0  501 -0.36683244729E+03  0.52324739361E+02 -0.33566946133E+03  0.50000000000E+03  0.47000000000E+01 0.  1.
</event>
<event>
 4    1  0.4351282E-004  0.1000000E+04  0.7546771E-02  0.8684367E-01
         11   -1    0    0    0    0  0.00000000000E+00  0.00000000000E+00  0.50000000000E+03  0.50000000000E+03  0.00000000000E+00 0. -1.
        -11   -1    0    0    0    0 -0.00000000000E+00 -0.00000000000E+00 -0.50000000000E+03  0.50000000000E+03  0.00000000000E+00 0.  1.
          5    1    1    2  501    0 -0.71602825973E+02  0.99492810784E+02  0.48471860488E+03  0.50000000000E+03  0.47000000000E+01 0. -1.
         -5    1    1    2    0  501  0.71602825973E+02 -0.99492810784E+02 -0.48471860488E+03  0.50000000000E+03  0.47000000000E+01 0.  1.
</event>
<event>
 4    1  0.4351282E-004  0.1000000E+04  0.7546771E-02  0.8684367E-01
         11   -1    0    0    0    0  0.00000000000E+00  0.00000000000E+00  0.50000000000E+03  0.50000000000E+03  0.00000000000E+00 0. -1.
        -11   -1    0    0    0    0 -0.00000000000E+00 -0.00000000000E+00 -0.50000000000E+03  0.50000000000E+03  0.00000000000E+00 0.  1.
          5    1    1    2  501    0  0.15685702531E+03  0.21309277663E+03  0.42422311601E+03  0.50000000000E+03  0.47000000000E+01 0. -1.
         -5    1    1    2    0  501 -0.15685702531E+03 -0.21309277663E+03 -0.42422311601E+03  0.50000000000E+03  0.47000000000E+01 0.  1.
</event>
<event>
 4    1  0.4351282E-004  0.1000000E+04  0.7546771E-02  0.8684367E-01
         11   -1    0    0    0    0  0.00000000000E+00  0.00000000000E+00  0.50000000000E+03  0.50000000000E+03  0.00000000000E+00 0. -1.
        -11   -1    0    0    0    0 -0.00000000000E+00 -0.00000000000E+00 -0.50000000000E+03  0.50000000000E+03  0.00000000000E+00 0.  1.
          5    1    1    2  501    0  0.29376150036E+03  0.35563713833E+03 -0.19288420553E+03  0.50000000000E+03  0.47000000000E+01 0. -1.
         -5    1    1    2    0  501 -0.29376150036E+03 -0.35563713833E+03  0.19288420553E+03  0.50000000000E+03  0.47000000000E+01 0.  1.
</event>
<event>
 4    1  0.4351282E-004  0.1000000E+04  0.7546771E-02  0.8684367E-01
         11   -1    0    0    0    0  0.00000000000E+00  0.00000000000E+00  0.50000000000E+03  0.50000000000E+03  0.00000000000E+00 0. -1.
        -11   -1    0    0    0    0 -0.00000000000E+00 -0.00000000000E+00 -0.50000000000E+03  0.50000000000E+03  0.00000000000E+00 0.  1.
          5    1    1    2  501    0  0.40526080706E+03  0.20962190269E+03  0.20445108504E+03  0.50000000000E+03  0.47000000000E+01 0. -1.
         -5    1    1    2    0  501 -0.40526080706E+03 -0.20962190269E+03 -0.20445108504E+03  0.50000000000E+03  0.47000000000E+01 0.  1.
</event>
<event>
 4    1  0.4351282E-004  0.1000000E+04  0.7546771E-02  0.8684367E-01
         11   -1    0    0    0    0  0.00000000000E+00  0.00000000000E+00  0.50000000000E+03  0.50000000000E+03  0.00000000000E+00 0. -1.
        -11   -1    0    0    0    0 -0.00000000000E+00 -0.00000000000E+00 -0.50000000000E+03  0.50000000000E+03  0.00000000000E+00 0.  1.
          5    1    1    2  501    0 -0.12132043998E+02 -0.41108650378E+03  0.28432131456E+03  0.50000000000E+03  0.47000000000E+01 0. -1.
         -5    1    1    2    0  501  0.12132043998E+02  0.41108650378E+03 -0.28432131456E+03  0.50000000000E+03  0.47000000000E+01 0.  1.
</event>
<event>
 4    1  0.4351282E-004  0.1000000E+04  0.7546771E-02  0.8684367E-01
         11   -1    0    0    0    0  0.00000000000E+00  0.00000000000E+00  0.50000000000E+03  0.50000000000E+03  0.00000000000E+00 0.  1.
        -11   -1    0    0    0    0 -0.00000000000E+00 -0.00000000000E+00 -0.50000000000E+03  0.50000000000E+03  0.00000000000E+00 0. -1.
          5    1    1    2  501    0  0.71452847299E+02 -0.43799889916E+03 -0.23028105643E+03  0.50000000000E+03  0.47000000000E+01 0.  1.
         -5    1    1    2    0  501 -0.71452847299E+02  0.43799889916E+03  0.23028105643E+03  0.50000000000E+03  0.47000000000E+01 0. -1.
</event>
<event>
 4    1  0.4351282E-004  0.1000000E+04  0.7546771E-02  0.8684367E-01
         11   -1    0    0    0    0  0.00000000000E+00  0.00000000000E+00  0.50000000000E+03  0.50000000000E+03  0.00000000000E+00 0.  1.
        -11   -1    0    0    0    0 -0.00000000000E+00 -0.00000000000E+00 -0.50000000000E+03  0.50000000000E+03  0.00000000000E+00 0. -1.
          5    1    1    2  501    0 -0.11062950899E+03  0.40702317857E+03 -0.26846071192E+03  0.50000000000E+03  0.47000000000E+01 0. -1.
         -5    1    1    2    0  501  0.11062950899E+03 -0.40702317857E+03  0.26846071192E+03  0.50000000000E+03  0.47000000000E+01 0.  1.
</event>
<event>
 4    1  0.4351282E-004  0.1000000E+04  0.7546771E-02  0.8684367E-01
         11   -1    0    0    0    0  0.00000000000E+00  0.00000000000E+00  0.50000000000E+03  0.50000000000E+03  0.00000000000E+00 0. -1.
        -11   -1    0    0    0    0 -0.00000000000E+00 -0.00000000000E+00 -0.50000000000E+03  0.50000000000E+03  0.00000000000E+00 0.  1.
          5    1    1    2  501    0 -0.47743420508E+03 -0.40266854539E+02  0.14287431627E+03  0.50000000000E+03  0.47000000000E+01 0. -1.
         -5    1    1    2    0  501  0.47743420508E+03  0.40266854539E+02 -0.14287431627E+03  0.50000000000E+03  0.47000000000E+01 0.  1.
</event>
<event>
 4    1  0.4351282E-004  0.1000000E+04  0.7546771E-02  0.8684367E-01
         11   -1    0    0    0    0  0.00000000000E+00  0.00000000000E+00  0.50000000000E+03  0.50000000000E+03  0.00000000000E+00 0.  1.
        -11   -1    0    0    0    0 -0.00000000000E+00 -0.00000000000E+00 -0.50000000000E+03  0.50000000000E+03  0.00000000000E+00 0. -1.
          5    1    1    2  501    0  0.22248721405E+03 -0.40114651811E+03  0.19889399335E+03  0.50000000000E+03  0.47000000000E+01 0.  1.
         -5    1    1    2    0  501 -0.22248721405E+03  0.40114651811E+03 -0.19889399335E+03  0.50000000000E+03  0.47000000000E+01 0. -1.
</event>
<event>
 4    1  0.4351282E-004  0.1000000E+04  0.7546771E-02  0.8684367E-01
         11   -1    0    0    0    0  0.00000000000E+00  0.00000000000E+00  0.50000000000E+03  0.50000000000E+03  0.00000000000E+00 0. -1.
        -11   -1    0    0    0    0 -0.00000000000E+00 -0.00000000000E+00 -0.50000000000E+03  0.50000000000E+03  0.00000000000E+00 0.  1.
          5    1    1    2  501    0  0.44698133630E+03  0.22311645133E+03 -0.20115768559E+02  0.50000000000E+03  0.47000000000E+01 0. -1.
         -5    1    1    2    0  501 -0.44698133630E+03 -0.22311645133E+03  0.20115768559E+02  0.50000000000E+03  0.47000000000E+01 0.  1.
</event>
<event>
 4    1  0.4351282E-004  0.1000000E+04  0.7546771E-02  0.8684367E-01
         11   -1    0    0    0    0  0.00000000000E+00  0.00000000000E+00  0.50000000000E+03  0.50000000000E+03  0.00000000000E+00 0. -1.
        -11   -1    0    0    0    0 -0.00000000000E+00 -0.00000000000E+00 -0.50000000000E+03  0.50000000000E+03  0.00000000000E+00 0.  1.
          5    1    1    2  501    0  0.27062697709E+03  0.32860124580E+02  0.41911712144E+03  0.50000000000E+03  0.47000000000E+01 0. -1.
         -5    1    1    2    0  501 -0.27062697709E+03 -0.32860124580E+02 -0.41911712144E+03  0.50000000000E+03  0.47000000000E+01 0.  1.
</event>
<event>
 4    1  0.4351282E-004  0.1000000E+04  0.7546771E-02  0.8684367E-01
         11   -1    0    0    0    0  0.00000000000E+00  0.00000000000E+00  0.50000000000E+03  0.50000000000E+03  0.00000000000E+00 0. -1.
        -11   -1    0    0    0    0 -0.00000000000E+00 -0.00000000000E+00 -0.50000000000E+03  0.50000000000E+03  0.00000000000E+00 0.  1.
          5    1    1    2  501    0  0.28023415978E+03 -0.41349043364E+03 -0.21734465284E+02  0.50000000000E+03  0.47000000000E+01 0. -1.
         -5    1    1    2    0  501 -0.28023415978E+03  0.41349043364E+03  0.21734465284E+02  0.50000000000E+03  0.47000000000E+01 0.  1.
</event>
<event>
 4    1  0.4351282E-004  0.1000000E+04  0.7546771E-02  0.8684367E-01
         11   -1    0    0    0    0  0.00000000000E+00  0.00000000000E+00  0.50000000000E+03  0.50000000000E+03  0.00000000000E+00 0. -1.
        -11   -1    0    0    0    0 -0.00000000000E+00 -0.00000000000E+00 -0.50000000000E+03  0.50000000000E+03  0.00000000000E+00 0.  1.
          5    1    1    2  501    0 -0.19989380130E+03 -0.15103465496E+03  0.43267645095E+03  0.50000000000E+03  0.47000000000E+01 0. -1.
         -5    1    1    2    0  501  0.19989380130E+03  0.15103465496E+03 -0.43267645095E+03  0.50000000000E+03  0.47000000000E+01 0.  1.
</event>
<event>
 4    1  0.4351282E-004  0.1000000E+04  0.7546771E-02  0.8684367E-01
         11   -1    0    0    0    0  0.00000000000E+00  0.00000000000E+00  0.50000000000E+03  0.50000000000E+03  0.00000000000E+00 0.  1.
        -11   -1    0    0    0    0 -0.00000000000E+00 -0.00000000000E+00 -0.50000000000E+03  0.50000000000E+03  0.00000000000E+00 0. -1.
          5    1    1    2  501    0  0.28973447295E+03  0.24305170726E+02  0.40674451915E+03  0.50000000000E+03  0.47000000000E+01 0.  1.
         -5    1    1    2    0  501 -0.28973447295E+03 -0.24305170726E+02 -0.40674451915E+03  0.50000000000E+03  0.47000000000E+01 0. -1.
</event>
<event>
 4    1  0.4351282E-004  0.1000000E+04  0.7546771E-02  0.8684367E-01
         11   -1    0    0    0    0  0.00000000000E+00  0.00000000000E+00  0.50000000000E+03  0.50000000000E+03  0.00000000000E+00 0. -1.
        -11   -1    0    0    0    0 -0.00000000000E+00 -0.00000000000E+00 -0.50000000000E+03  0.50000000000E+03  0.00000000000E+00 0.  1.
          5    1    1    2  501    0 -0.78498087100E+02 -0.47744917227E+03 -0.12592953673E+03  0.50000000000E+03  0.47000000000E+01 0. -1.
         -5    1    1    2    0  501  0.78498087100E+02  0.47744917227E+03  0.12592953673E+03  0.50000000000E+03  0.47000000000E+01 0.  1.
</event>
<event>
 4    1  0.4351282E-004  0.1000000E+04  0.7546771E-02  0.8684367E-01
         11   -1    0    0    0    0  0.00000000000E+00  0.00000000000E+00  0.50000000000E+03  0.50000000000E+03  0.00000000000E+00 0. -1.
        -11   -1    0    0    0    0 -0.00000000000E+00 -0.00000000000E+00 -0.50000000000E+03  0.50000000000E+03  0.00000000000E+00 0.  1.
          5    1    1    2  501    0  0.37533683070E+03 -0.22459806070E+03  0.24218976992E+03  0.50000000000E+03  0.47000000000E+01 0. -1.
         -5    1    1    2    0  501 -0.37533683070E+03  0.22459806070E+03 -0.24218976992E+03  0.50000000000E+03  0.47000000000E+01 0.  1.
</event>
<event>
 4    1  0.4351282E-004  0.1000000E+04  0.7546771E-02  0.8684367E-01
         11   -1    0    0    0    0  0.00000000000E+00  0.00000000000E+00  0.50000000000E+03  0.50000000000E+03  0.00000000000E+00 0. -1.
        -11   -1    0    0    0    0 -0.00000000000E+00 -0.00000000000E+00 -0.50000000000E+03  0.50000000000E+03  0.00000000000E+00 0.  1.
          5    1    1    2  501    0 -0.75290310987E+02 -0.37103335324E+03  0.32656320958E+03  0.50000000000E+03  0.47000000000E+01 0. -1.
         -5    1    1    2    0  501  0.75290310987E+02  0.37103335324E+03 -0.32656320958E+03  0.50000000000E+03  0.47000000000E+01 0.  1.
</event>
<event>
 4    1  0.4351282E-004  0.1000000E+04  0.7546771E-02  0.8684367E-01
         11   -1    0    0    0    0  0.00000000000E+00  0.00000000000E+00  0.50000000000E+03  0.50000000000E+03  0.00000000000E+00 0.  1.
        -11   -1    0    0    0    0 -0.00000000000E+00 -0.00000000000E+00 -0.50000000000E+03  0.50000000000E+03  0.00000000000E+00 0. -1.
          5    1    1    2  501    0 -0.14741368060E+03 -0.46479792499E+03  0.11049889456E+03  0.50000000000E+03  0.47000000000E+01 0.  1.
         -5    1    1    2    0  501  0.14741368060E+03  0.46479792499E+03 -0.11049889456E+03  0.50000000000E+03  0.47000000000E+01 0. -1.
</event>
<event>
 4    1  0.4351282E-004  0.1000000E+04  0.7546771E-02  0.8684367E-01
         11   -1    0    0    0    0  0.00000000000E+00  0.00000000000E+00  0.50000000000E+03  0.50000000000E+03  0.00000000000E+00 0. -1.
        -11   -1    0    0    0    0 -0.00000000000E+00 -0.00000000000E+00 -0.50000000000E+03  0.50000000000E+03  0.00000000000E+00 0.  1.
          5    1    1    2  501    0 -0.12626726380E+03 -0.33962139352E+03  0.34451675889E+03  0.50000000000E+03  0.47000000000E+01 0. -1.
         -5    1    1    2    0  501  0.12626726380E+03  0.33962139352E+03 -0.34451675889E+03  0.50000000000E+03  0.47000000000E+01 0.  1.
</event>
<event>
 4    1  0.4351282E-004  0.1000000E+04  0.7546771E-02  0.8684367E-01
         11   -1    0    0    0    0  0.00000000000E+00  0.00000000000E+00  0.50000000000E+03  0.50000000000E+03  0.00000000000E+00 0. -1.
        -11   -1    0    0    0    0 -0.00000000000E+00 -0.00000000000E+00 -0.50000000000E+03  0.50000000000E+03  0.00000000000E+00 0.  1.
          5    1    1    2  501    0 -0.20614809596E+03  0.17952144864E+03  0.41863220374E+03  0.50000000000E+03  0.47000000000E+01 0. -1.
         -5    1    1    2    0  501  0.20614809596E+03 -0.17952144864E+03 -0.41863220374E+03  0.50000000000E+03  0.47000000000E+01 0.  1.
</event>
<event>
 4    1  0.4351282E-004  0.1000000E+04  0.7546771E-02  0.8684367E-01
         11   -1    0    0    0    0  0.00000000000E+00  0.00000000000E+00  0.50000000000E+03  0.50000000000E+03  0.00000000000E+00 0.  1.
        -11   -1    0    0    0    0 -0.00000000000E+00 -0.00000000000E+00 -0.50000000000E+03  0.50000000000E+03  0.00000000000E+00 0. -1.
          5    1    1    2  501    0 -0.97000310551E+02 -0.28138100534E+03  0.40173819782E+03  0.50000000000E+03  0.47000000000E+01 0.  1.
         -5    1    1    2    0  501  0.97000310551E+02  0.28138100534E+03 -0.40173819782E+03  0.50000000000E+03  0.47000000000E+01 0. -1.
</event>
<event>
 4    1  0.4351282E-004  0.1000000E+04  0.7546771E-02  0.8684367E-01
         11   -1    0    0    0    0  0.00000000000E+00  0.00000000000E+00  0.50000000000E+03  0.50000000000E+03  0.00000000000E+00 0.  1.
        -11   -1    0    0    0    0 -0.00000000000E+00 -0.00000000000E+00 -0.50000000000E+03  0.50000000000E+03  0.00000000000E+00 0. -1.
          5    1    1    2  501    0  0.33540135249E+03  0.32557072970E+03  0.17744729558E+03  0.50000000000E+03  0.47000000000E+01 0.  1.
         -5    1    1    2    0  501 -0.33540135249E+03 -0.32557072970E+03 -0.17744729558E+03  0.50000000000E+03  0.47000000000E+01 0. -1.
</event>
<event>
 4    1  0.4351282E-004  0.1000000E+04  0.7546771E-02  0.8684367E-01
         11   -1    0    0    0    0  0.00000000000E+00  0.00000000000E+00  0.50000000000E+03  0.50000000000E+03  0.00000000000E+00 0.  1.
        -11   -1    0    0    0    0 -0.00000000000E+00 -0.00000000000E+00 -0.50000000000E+03  0.50000000000E+03  0.00000000000E+00 0. -1.
          5    1    1    2  501    0 -0.21419479515E+03 -0.13277746097E+03  0.43182015422E+03  0.50000000000E+03  0.47000000000E+01 0.  1.
         -5    1    1    2    0  501  0.21419479515E+03  0.13277746097E+03 -0.43182015422E+03  0.50000000000E+03  0.47000000000E+01 0. -1.
</event>
<event>
 4    1  0.4351282E-004  0.1000000E+04  0.7546771E-02  0.8684367E-01
         11   -1    0    0    0    0  0.00000000000E+00  0.00000000000E+00  0.50000000000E+03  0.50000000000E+03  0.00000000000E+00 0. -1.
        -11   -1    0    0    0    0 -0.00000000000E+00 -0.00000000000E+00 -0.50000000000E+03  0.50000000000E+03  0.00000000000E+00 0.  1.
          5    1    1    2  501    0 -0.19843269551E+03  0.45419552497E+03 -0.65641453724E+02  0.50000000000E+03  0.47000000000E+01 0. -1.
         -5    1    1    2    0  501  0.19843269551E+03 -0.45419552497E+03  0.65641453724E+02  0.50000000000E+03  0.47000000000E+01 0.  1.
</event>
<event>
 4    1  0.4351282E-004  0.1000000E+04  0.7546771E-02  0.8684367E-01
         11   -1    0    0    0    0  0.00000000000E+00  0.00000000000E+00  0.50000000000E+03  0.50000000000E+03  0.00000000000E+00 0.  1.
        -11   -1    0    0    0    0 -0.00000000000E+00 -0.00000000000E+00 -0.50000000000E+03  0.50000000000E+03  0.00000000000E+00 0. -1.
          5    1    1    2  501    0  0.41834029681E+03  0.22891922825E+03 -0.15021748567E+03  0.50000000000E+03  0.47000000000E+01 0. -1.
         -5    1    1    2    0  501 -0.41834029681E+03 -0.22891922825E+03  0.15021748567E+03  0.50000000000E+03  0.47000000000E+01 0.  1.
</event>
<event>
 4    1  0.4351282E-004  0.1000000E+04  0.7546771E-02  0.8684367E-01
         11   -1    0    0    0    0  0.00000000000E+00  0.00000000000E+00  0.50000000000E+03  0.50000000000E+03  0.00000000000E+00 0. -1.
        -11   -1    0    0    0    0 -0.00000000000E+00 -0.00000000000E+00 -0.50000000000E+03  0.50000000000E+03  0.00000000000E+00 0.  1.
          5    1    1    2  501    0  0.59720373256E+02  0.13678665144E+03  0.47718004884E+03  0.50000000000E+03  0.47000000000E+01 0. -1.
         -5    1    1    2    0  501 -0.59720373256E+02 -0.13678665144E+03 -0.47718004884E+03  0.50000000000E+03  0.47000000000E+01 0.  1.
</event>
<event>
 4    1  0.4351282E-004  0.1000000E+04  0.7546771E-02  0.8684367E-01
         11   -1    0    0    0    0  0.00000000000E+00  0.00000000000E+00  0.50000000000E+03  0.50000000000E+03  0.00000000000E+00 0.  1.
        -11   -1    0    0    0    0 -0.00000000000E+00 -0.00000000000E+00 -0.50000000000E+03  0.50000000000E+03  0.00000000000E+00 0. -1.
          5    1    1    2  501    0 -0.24993563267E+03  0.42839944467E+03  0.63118977570E+02  0.50000000000E+03  0.47000000000E+01 0.  1.
         -5    1    1    2    0  501  0.24993563267E+03 -0.42839944467E+03 -0.63118977570E+02  0.50000000000E+03  0.47000000000E+01 0. -1.
</event>
<event>
 4    1  0.4351282E-004  0.1000000E+04  0.7546771E-02  0.8684367E-01
         11   -1    0    0    0    0  0.00000000000E+00  0.00000000000E+00  0.50000000000E+03  0.50000000000E+03  0.00000000000E+00 0. -1.
        -11   -1    0    0    0    0 -0.00000000000E+00 -0.00000000000E+00 -0.50000000000E+03  0.50000000000E+03  0.00000000000E+00 0.  1.
          5    1    1    2  501    0 -0.13956383877E+03 -0.44780273800E+03 -0.17312582923E+03  0.50000000000E+03  0.47000000000E+01 0. -1.
         -5    1    1    2    0  501  0.13956383877E+03  0.44780273800E+03  0.17312582923E+03  0.50000000000E+03  0.47000000000E+01 0.  1.
</event>
<event>
 4    1  0.4351282E-004  0.1000000E+04  0.7546771E-02  0.8684367E-01
         11   -1    0    0    0    0  0.00000000000E+00  0.00000000000E+00  0.50000000000E+03  0.50000000000E+03  0.00000000000E+00 0. -1.
        -11   -1    0    0    0    0 -0.00000000000E+00 -0.00000000000E+00 -0.50000000000E+03  0.50000000000E+03  0.00000000000E+00 0.  1.
          5    1    1    2  501    0  0.29922268956E+03  0.19308822390E+03  0.35094248795E+03  0.50000000000E+03  0.47000000000E+01 0. -1.
         -5    1    1    2    0  501 -0.29922268956E+03 -0.19308822390E+03 -0.35094248795E+03  0.50000000000E+03  0.47000000000E+01 0.  1.
</event>
<event>
 4    1  0.4351282E-004  0.1000000E+04  0.7546771E-02  0.8684367E-01
         11   -1    0    0    0    0  0.00000000000E+00  0.00000000000E+00  0.50000000000E+03  0.50000000000E+03  0.00000000000E+00 0.  1.
        -11   -1    0    0    0    0 -0.00000000000E+00 -0.00000000000E+00 -0.50000000000E+03  0.50000000000E+03  0.00000000000E+00 0. -1.
          5    1    1    2  501    0 -0.61698431174E+02  0.35777704396E+03 -0.34375398239E+03  0.50000000000E+03  0.47000000000E+01 0. -1.
         -5    1    1    2    0  501  0.61698431174E+02 -0.35777704396E+03  0.34375398239E+03  0.50000000000E+03  0.47000000000E+01 0.  1.
</event>
<event>
 4    1  0.4351282E-004  0.1000000E+04  0.7546771E-02  0.8684367E-01
         11   -1    0    0    0    0  0.00000000000E+00  0.00000000000E+00  0.50000000000E+03  0.50000000000E+03  0.00000000000E+00 0.  1.
        -11   -1    0    0    0    0 -0.00000000000E+00 -0.00000000000E+00 -0.50000000000E+03  0.50000000000E+03  0.00000000000E+00 0. -1.
          5    1    1    2  501    0 -0.50357015351E+02  0.36295977528E+03  0.34015038223E+03  0.50000000000E+03  0.47000000000E+01 0.  1.
         -5    1    1    2    0  501  0.50357015351E+02 -0.36295977528E+03 -0.34015038223E+03  0.50000000000E+03  0.47000000000E+01 0. -1.
</event>
<event>
 4    1  0.4351282E-004  0.1000000E+04  0.7546771E-02  0.8684367E-01
         11   -1    0    0    0    0  0.00000000000E+00  0.00000000000E+00  0.50000000000E+03  0.50000000000E+03  0.00000000000E+00 0. -1.
        -11   -1    0    0    0    0 -0.00000000000E+00 -0.00000000000E+00 -0.50000000000E+03  0.50000000000E+03  0.00000000000E+00 0.  1.
          5    1    1    2  501    0  0.22840662235E+03 -0.17623967264E+03  0.40834777170E+03  0.50000000000E+03  0.47000000000E+01 0. -1.
         -5    1    1    2    0  501 -0.22840662235E+03  0.17623967264E+03 -0.40834777170E+03  0.50000000000E+03  0.47000000000E+01 0.  1.
</event>
<event>
 4    1  0.4351282E-004  0.1000000E+04  0.7546771E-02  0.8684367E-01
         11   -1    0    0    0    0  0.00000000000E+00  0.00000000000E+00  0.50000000000E+03  0.50000000000E+03  0.00000000000E+00 0.  1.
        -11   -1    0    0    0    0 -0.00000000000E+00 -0.00000000000E+00 -0.50000000000E+03  0.50000000000E+03  0.00000000000E+00 0. -1.
          5    1    1    2  501    0  0.19180876181E+03 -0.41652282682E+03  0.19923865999E+03  0.50000000000E+03  0.47000000000E+01 0.  1.
         -5    1    1    2    0  501 -0.19180876181E+03  0.41652282682E+03 -0.19923865999E+03  0.50000000000E+03  0.47000000000E+01 0. -1.
</event>
<event>
 4    1  0.4351282E-004  0.1000000E+04  0.7546771E-02  0.8684367E-01
         11   -1    0    0    0    0  0.00000000000E+00  0.00000000000E+00  0.50000000000E+03  0.50000000000E+03  0.00000000000E+00 0.  1.
        -11   -1    0    0    0    0 -0.00000000000E+00 -0.00000000000E+00 -0.50000000000E+03  0.50000000000E+03  0.00000000000E+00 0. -1.
          5    1    1    2  501    0  0.25288450725E+03  0.32601865371E+03  0.28238125544E+03  0.50000000000E+03  0.47000000000E+01 0.  1.
         -5    1    1    2    0  501 -0.25288450725E+03 -0.32601865371E+03 -0.28238125544E+03  0.50000000000E+03  0.47000000000E+01 0. -1.
</event>
<event>
 4    1  0.4351282E-004  0.1000000E+04  0.7546771E-02  0.8684367E-01
         11   -1    0    0    0    0  0.00000000000E+00  0.00000000000E+00  0.50000000000E+03  0.50000000000E+03  0.00000000000E+00 0.  1.
        -11   -1    0    0    0    0 -0.00000000000E+00 -0.00000000000E+00 -0.50000000000E+03  0.50000000000E+03  0.00000000000E+00 0. -1.
          5    1    1    2  501    0  0.15463717280E+03  0.38953545196E+03  0.27263049436E+03  0.50000000000E+03  0.47000000000E+01 0.  1.
         -5    1    1    2    0  501 -0.15463717280E+03 -0.38953545196E+03 -0.27263049436E+03  0.50000000000E+03  0.47000000000E+01 0. -1.
</event>
<event>
 4    1  0.4351282E-004  0.1000000E+04  0.7546771E-02  0.8684367E-01
         11   -1    0    0    0    0  0.00000000000E+00  0.00000000000E+00  0.50000000000E+03  0.50000000000E+03  0.00000000000E+00 0.  1.
        -11   -1    0    0    0    0 -0.00000000000E+00 -0.00000000000E+00 -0.50000000000E+03  0.50000000000E+03  0.00000000000E+00 0. -1.
          5    1    1    2  501    0 -0.39415510395E+02  0.49119785412E+03 -0.84551733536E+02  0.50000000000E+03  0.47000000000E+01 0.  1.
         -5    1    1    2    0  501  0.39415510395E+02 -0.49119785412E+03  0.84551733536E+02  0.50000000000E+03  0.47000000000E+01 0. -1.
</event>
<event>
 4    1  0.4351282E-004  0.1000000E+04  0.7546771E-02  0.8684367E-01
         11   -1    0    0    0    0  0.00000000000E+00  0.00000000000E+00  0.50000000000E+03  0.50000000000E+03  0.00000000000E+00 0. -1.
        -11   -1    0    0    0    0 -0.00000000000E+00 -0.00000000000E+00 -0.50000000000E+03  0.50000000000E+03  0.00000000000E+00 0.  1.
          5    1    1    2  501    0 -0.14843945369E+03 -0.39124399082E+03  0.27362707877E+03  0.50000000000E+03  0.47000000000E+01 0. -1.
         -5    1    1    2    0  501  0.14843945369E+03  0.39124399082E+03 -0.27362707877E+03  0.50000000000E+03  0.47000000000E+01 0.  1.
</event>
<event>
 4    1  0.4351282E-004  0.1000000E+04  0.7546771E-02  0.8684367E-01
         11   -1    0    0    0    0  0.00000000000E+00  0.00000000000E+00  0.50000000000E+03  0.50000000000E+03  0.00000000000E+00 0. -1.
        -11   -1    0    0    0    0 -0.00000000000E+00 -0.00000000000E+00 -0.50000000000E+03  0.50000000000E+03  0.00000000000E+00 0.  1.
          5    1    1    2  501    0 -0.34189096182E+03 -0.35932084182E+03 -0.63063562053E+02  0.50000000000E+03  0.47000000000E+01 0. -1.
         -5    1    1    2    0  501  0.34189096182E+03  0.35932084182E+03  0.63063562053E+02  0.50000000000E+03  0.47000000000E+01 0.  1.
</event>
<event>
 4    1  0.4351282E-004  0.1000000E+04  0.7546771E-02  0.8684367E-01
         11   -1    0    0    0    0  0.00000000000E+00  0.00000000000E+00  0.50000000000E+03  0.50000000000E+03  0.00000000000E+00 0. -1.
        -11   -1    0    0    0    0 -0.00000000000E+00 -0.00000000000E+00 -0.50000000000E+03  0.50000000000E+03  0.00000000000E+00 0.  1.
          5    1    1    2  501    0  0.24691396234E+03  0.72018638776E+02  0.42874785232E+03  0.50000000000E+03  0.47000000000E+01 0. -1.
         -5    1    1    2    0  501 -0.24691396234E+03 -0.72018638776E+02 -0.42874785232E+03  0.50000000000E+03  0.47000000000E+01 0.  1.
</event>
<event>
 4    1  0.4351282E-004  0.1000000E+04  0.7546771E-02  0.8684367E-01
         11   -1    0    0    0    0  0.00000000000E+00  0.00000000000E+00  0.50000000000E+03  0.50000000000E+03  0.00000000000E+00 0.  1.
        -11   -1    0    0    0    0 -0.00000000000E+00 -0.00000000000E+00 -0.50000000000E+03  0.50000000000E+03  0.00000000000E+00 0. -1.
          5    1    1    2  501    0  0.28717578170E+03  0.25536055378E+03  0.31984209850E+03  0.50000000000E+03  0.47000000000E+01 0.  1.
         -5    1    1    2    0  501 -0.28717578170E+03 -0.25536055378E+03 -0.31984209850E+03  0.50000000000E+03  0.47000000000E+01 0. -1.
</event>
<event>
 4    1  0.4351282E-004  0.1000000E+04  0.7546771E-02  0.8684367E-01
         11   -1    0    0    0    0  0.00000000000E+00  0.00000000000E+00  0.50000000000E+03  0.50000000000E+03  0.00000000000E+00 0.  1.
        -11   -1    0    0    0    0 -0.00000000000E+00 -0.00000000000E+00 -0.50000000000E+03  0.50000000000E+03  0.00000000000E+00 0. -1.
          5    1    1    2  501    0  0.34424039197E+03  0.32328779479E+03  0.16419946492E+03  0.50000000000E+03  0.47000000000E+01 0.  1.
         -5    1    1    2    0  501 -0.34424039197E+03 -0.32328779479E+03 -0.16419946492E+03  0.50000000000E+03  0.47000000000E+01 0. -1.
</event>
<event>
 4    1  0.4351282E-004  0.1000000E+04  0.7546771E-02  0.8684367E-01
         11   -1    0    0    0    0  0.00000000000E+00  0.00000000000E+00  0.50000000000E+03  0.50000000000E+03  0.00000000000E+00 0. -1.
        -11   -1    0    0    0    0 -0.00000000000E+00 -0.00000000000E+00 -0.50000000000E+03  0.50000000000E+03  0.00000000000E+00 0.  1.
          5    1    1    2  501    0 -0.16961498077E+03  0.45506534951E+03  0.11884526063E+03  0.50000000000E+03  0.47000000000E+01 0. -1.
         -5    1    1    2    0  501  0.16961498077E+03 -0.45506534951E+03 -0.11884526063E+03  0.50000000000E+03  0.47000000000E+01 0.  1.
</event>
<event>
 4    1  0.4351282E-004  0.1000000E+04  0.7546771E-02  0.8684367E-01
         11   -1    0    0    0    0  0.00000000000E+00  0.00000000000E+00  0.50000000000E+03  0.50000000000E+03  0.00000000000E+00 0. -1.
        -11   -1    0    0    0    0 -0.00000000000E+00 -0.00000000000E+00 -0.50000000000E+03  0.50000000000E+03  0.00000000000E+00 0.  1.
          5    1    1    2  501    0 -0.27584627210E+03  0.95433810838E+01 -0.41688807616E+03  0.50000000000E+03  0.47000000000E+01 0.  1.
         -5    1    1    2    0  501  0.27584627210E+03 -0.95433810838E+01  0.41688807616E+03  0.50000000000E+03  0.47000000000E+01 0. -1.
</event>
<event>
 4    1  0.4351282E-004  0.1000000E+04  0.7546771E-02  0.8684367E-01
         11   -1    0    0    0    0  0.00000000000E+00  0.00000000000E+00  0.50000000000E+03  0.50000000000E+03  0.00000000000E+00 0. -1.
        -11   -1    0    0    0    0 -0.00000000000E+00 -0.00000000000E+00 -0.50000000000E+03  0.50000000000E+03  0.00000000000E+00 0.  1.
          5    1    1    2  501    0  0.54903399504E+02  0.36192796733E+03  0.34054613958E+03  0.50000000000E+03  0.47000000000E+01 0. -1.
         -5    1    1    2    0  501 -0.54903399504E+02 -0.36192796733E+03 -0.34054613958E+03  0.50000000000E+03  0.47000000000E+01 0.  1.
</event>
<event>
 4    1  0.4351282E-004  0.1000000E+04  0.7546771E-02  0.8684367E-01
         11   -1    0    0    0    0  0.00000000000E+00  0.00000000000E+00  0.50000000000E+03  0.50000000000E+03  0.00000000000E+00 0.  1.
        -11   -1    0    0    0    0 -0.00000000000E+00 -0.00000000000E+00 -0.50000000000E+03  0.50000000000E+03  0.00000000000E+00 0. -1.
          5    1    1    2  501    0  0.29192941959E+03 -0.23447837672E+03  0.33132312752E+03  0.50000000000E+03  0.47000000000E+01 0.  1.
         -5    1    1    2    0  501 -0.29192941959E+03  0.23447837672E+03 -0.33132312752E+03  0.50000000000E+03  0.47000000000E+01 0. -1.
</event>
<event>
 4    1  0.4351282E-004  0.1000000E+04  0.7546771E-02  0.8684367E-01
         11   -1    0    0    0    0  0.00000000000E+00  0.00000000000E+00  0.50000000000E+03  0.50000000000E+03  0.00000000000E+00 0. -1.
        -11   -1    0    0    0    0 -0.00000000000E+00 -0.00000000000E+00 -0.50000000000E+03  0.50000000000E+03  0.00000000000E+00 0.  1.
          5    1    1    2  501    0 -0.15837724007E+03 -0.44657590517E+03  0.15957606572E+03  0.50000000000E+03  0.47000000000E+01 0. -1.
         -5    1    1    2    0  501  0.15837724007E+03  0.44657590517E+03 -0.15957606572E+03  0.50000000000E+03  0.47000000000E+01 0.  1.
</event>
<event>
 4    1  0.4351282E-004  0.1000000E+04  0.7546771E-02  0.8684367E-01
         11   -1    0    0    0    0  0.00000000000E+00  0.00000000000E+00  0.50000000000E+03  0.50000000000E+03  0.00000000000E+00 0. -1.
        -11   -1    0    0    0    0 -0.00000000000E+00 -0.00000000000E+00 -0.50000000000E+03  0.50000000000E+03  0.00000000000E+00 0.  1.
          5    1    1    2  501    0  0.35276191476E+03 -0.96500767581E+02  0.34091720893E+03  0.50000000000E+03  0.47000000000E+01 0. -1.
         -5    1    1    2    0  501 -0.35276191476E+03  0.96500767581E+02 -0.34091720893E+03  0.50000000000E+03  0.47000000000E+01 0.  1.
</event>
<event>
 4    1  0.4351282E-004  0.1000000E+04  0.7546771E-02  0.8684367E-01
         11   -1    0    0    0    0  0.00000000000E+00  0.00000000000E+00  0.50000000000E+03  0.50000000000E+03  0.00000000000E+00 0. -1.
        -11   -1    0    0    0    0 -0.00000000000E+00 -0.00000000000E+00 -0.50000000000E+03  0.50000000000E+03  0.00000000000E+00 0.  1.
          5    1    1    2  501    0 -0.26935271967E+02 -0.27988070765E+03  0.41342374220E+03  0.50000000000E+03  0.47000000000E+01 0. -1.
         -5    1    1    2    0  501  0.26935271967E+02  0.27988070765E+03 -0.41342374220E+03  0.50000000000E+03  0.47000000000E+01 0.  1.
</event>
<event>
 4    1  0.4351282E-004  0.1000000E+04  0.7546771E-02  0.8684367E-01
         11   -1    0    0    0    0  0.00000000000E+00  0.00000000000E+00  0.50000000000E+03  0.50000000000E+03  0.00000000000E+00 0. -1.
        -11   -1    0    0    0    0 -0.00000000000E+00 -0.00000000000E+00 -0.50000000000E+03  0.50000000000E+03  0.00000000000E+00 0.  1.
          5    1    1    2  501    0 -0.25839590921E+03 -0.37635058134E+03  0.20388649791E+03  0.50000000000E+03  0.47000000000E+01 0. -1.
         -5    1    1    2    0  501  0.25839590921E+03  0.37635058134E+03 -0.20388649791E+03  0.50000000000E+03  0.47000000000E+01 0.  1.
</event>
<event>
 4    1  0.4351282E-004  0.1000000E+04  0.7546771E-02  0.8684367E-01
         11   -1    0    0    0    0  0.00000000000E+00  0.00000000000E+00  0.50000000000E+03  0.50000000000E+03  0.00000000000E+00 0. -1.
        -11   -1    0    0    0    0 -0.00000000000E+00 -0.00000000000E+00 -0.50000000000E+03  0.50000000000E+03  0.00000000000E+00 0.  1.
          5    1    1    2  501    0 -0.44149263061E+02 -0.28638548338E+03  0.40744583380E+03  0.50000000000E+03  0.47000000000E+01 0. -1.
         -5    1    1    2    0  501  0.44149263061E+02  0.28638548338E+03 -0.40744583380E+03  0.50000000000E+03  0.47000000000E+01 0.  1.
</event>
<event>
 4    1  0.4351282E-004  0.1000000E+04  0.7546771E-02  0.8684367E-01
         11   -1    0    0    0    0  0.00000000000E+00  0.00000000000E+00  0.50000000000E+03  0.50000000000E+03  0.00000000000E+00 0. -1.
        -11   -1    0    0    0    0 -0.00000000000E+00 -0.00000000000E+00 -0.50000000000E+03  0.50000000000E+03  0.00000000000E+00 0.  1.
          5    1    1    2  501    0 -0.19088543403E+03 -0.83853431181E+02  0.45443290281E+03  0.50000000000E+03  0.47000000000E+01 0. -1.
         -5    1    1    2    0  501  0.19088543403E+03  0.83853431181E+02 -0.45443290281E+03  0.50000000000E+03  0.47000000000E+01 0.  1.
</event>
<event>
 4    1  0.4351282E-004  0.1000000E+04  0.7546771E-02  0.8684367E-01
         11   -1    0    0    0    0  0.00000000000E+00  0.00000000000E+00  0.50000000000E+03  0.50000000000E+03  0.00000000000E+00 0. -1.
        -11   -1    0    0    0    0 -0.00000000000E+00 -0.00000000000E+00 -0.50000000000E+03  0.50000000000E+03  0.00000000000E+00 0.  1.
          5    1    1    2  501    0 -0.26338606792E+02 -0.49860728606E+03 -0.25980032287E+02  0.50000000000E+03  0.47000000000E+01 0. -1.
         -5    1    1    2    0  501  0.26338606792E+02  0.49860728606E+03  0.25980032287E+02  0.50000000000E+03  0.47000000000E+01 0.  1.
</event>
<event>
 4    1  0.4351282E-004  0.1000000E+04  0.7546771E-02  0.8684367E-01
         11   -1    0    0    0    0  0.00000000000E+00  0.00000000000E+00  0.50000000000E+03  0.50000000000E+03  0.00000000000E+00 0. -1.
        -11   -1    0    0    0    0 -0.00000000000E+00 -0.00000000000E+00 -0.50000000000E+03  0.50000000000E+03  0.00000000000E+00 0.  1.
          5    1    1    2  501    0 -0.45731392235E+03 -0.19996114459E+03 -0.29281855781E+02  0.50000000000E+03  0.47000000000E+01 0. -1.
         -5    1    1    2    0  501  0.45731392235E+03  0.19996114459E+03  0.29281855781E+02  0.50000000000E+03  0.47000000000E+01 0.  1.
</event>
<event>
 4    1  0.4351282E-004  0.1000000E+04  0.7546771E-02  0.8684367E-01
         11   -1    0    0    0    0  0.00000000000E+00  0.00000000000E+00  0.50000000000E+03  0.50000000000E+03  0.00000000000E+00 0. -1.
        -11   -1    0    0    0    0 -0.00000000000E+00 -0.00000000000E+00 -0.50000000000E+03  0.50000000000E+03  0.00000000000E+00 0.  1.
          5    1    1    2  501    0 -0.47734305879E+03  0.10425541506E+03  0.10607696570E+03  0.50000000000E+03  0.47000000000E+01 0. -1.
         -5    1    1    2    0  501  0.47734305879E+03 -0.10425541506E+03 -0.10607696570E+03  0.50000000000E+03  0.47000000000E+01 0.  1.
</event>
<event>
 4    1  0.4351282E-004  0.1000000E+04  0.7546771E-02  0.8684367E-01
         11   -1    0    0    0    0  0.00000000000E+00  0.00000000000E+00  0.50000000000E+03  0.50000000000E+03  0.00000000000E+00 0. -1.
        -11   -1    0    0    0    0 -0.00000000000E+00 -0.00000000000E+00 -0.50000000000E+03  0.50000000000E+03  0.00000000000E+00 0.  1.
          5    1    1    2  501    0 -0.49702749486E+03 -0.29118260782E+01  0.54158107619E+02  0.50000000000E+03  0.47000000000E+01 0. -1.
         -5    1    1    2    0  501  0.49702749486E+03  0.29118260782E+01 -0.54158107619E+02  0.50000000000E+03  0.47000000000E+01 0.  1.
</event>
<event>
 4    1  0.4351282E-004  0.1000000E+04  0.7546771E-02  0.8684367E-01
         11   -1    0    0    0    0  0.00000000000E+00  0.00000000000E+00  0.50000000000E+03  0.50000000000E+03  0.00000000000E+00 0. -1.
        -11   -1    0    0    0    0 -0.00000000000E+00 -0.00000000000E+00 -0.50000000000E+03  0.50000000000E+03  0.00000000000E+00 0.  1.
          5    1    1    2  501    0  0.25501544501E+03  0.19543389251E+03  0.38308044385E+03  0.50000000000E+03  0.47000000000E+01 0. -1.
         -5    1    1    2    0  501 -0.25501544501E+03 -0.19543389251E+03 -0.38308044385E+03  0.50000000000E+03  0.47000000000E+01 0.  1.
</event>
<event>
 4    1  0.4351282E-004  0.1000000E+04  0.7546771E-02  0.8684367E-01
         11   -1    0    0    0    0  0.00000000000E+00  0.00000000000E+00  0.50000000000E+03  0.50000000000E+03  0.00000000000E+00 0. -1.
        -11   -1    0    0    0    0 -0.00000000000E+00 -0.00000000000E+00 -0.50000000000E+03  0.50000000000E+03  0.00000000000E+00 0.  1.
          5    1    1    2  501    0  0.45051436802E+03  0.20625083706E+03 -0.66897731054E+02  0.50000000000E+03  0.47000000000E+01 0. -1.
         -5    1    1    2    0  501 -0.45051436802E+03 -0.20625083706E+03  0.66897731054E+02  0.50000000000E+03  0.47000000000E+01 0.  1.
</event>
<event>
 4    1  0.4351282E-004  0.1000000E+04  0.7546771E-02  0.8684367E-01
         11   -1    0    0    0    0  0.00000000000E+00  0.00000000000E+00  0.50000000000E+03  0.50000000000E+03  0.00000000000E+00 0.  1.
        -11   -1    0    0    0    0 -0.00000000000E+00 -0.00000000000E+00 -0.50000000000E+03  0.50000000000E+03  0.00000000000E+00 0. -1.
          5    1    1    2  501    0 -0.25765687719E+03 -0.20137469829E+03 -0.37820506941E+03  0.50000000000E+03  0.47000000000E+01 0. -1.
         -5    1    1    2    0  501  0.25765687719E+03  0.20137469829E+03  0.37820506941E+03  0.50000000000E+03  0.47000000000E+01 0.  1.
</event>
<event>
 4    1  0.4351282E-004  0.1000000E+04  0.7546771E-02  0.8684367E-01
         11   -1    0    0    0    0  0.00000000000E+00  0.00000000000E+00  0.50000000000E+03  0.50000000000E+03  0.00000000000E+00 0. -1.
        -11   -1    0    0    0    0 -0.00000000000E+00 -0.00000000000E+00 -0.50000000000E+03  0.50000000000E+03  0.00000000000E+00 0.  1.
          5    1    1    2  501    0  0.26391345983E+03 -0.23098747144E+03  0.35633184499E+03  0.50000000000E+03  0.47000000000E+01 0. -1.
         -5    1    1    2    0  501 -0.26391345983E+03  0.23098747144E+03 -0.35633184499E+03  0.50000000000E+03  0.47000000000E+01 0.  1.
</event>
<event>
 4    1  0.4351282E-004  0.1000000E+04  0.7546771E-02  0.8684367E-01
         11   -1    0    0    0    0  0.00000000000E+00  0.00000000000E+00  0.50000000000E+03  0.50000000000E+03  0.00000000000E+00 0. -1.
        -11   -1    0    0    0    0 -0.00000000000E+00 -0.00000000000E+00 -0.50000000000E+03  0.50000000000E+03  0.00000000000E+00 0.  1.
          5    1    1    2  501    0 -0.11947447719E+03  0.34618544680E+03  0.34038125055E+03  0.50000000000E+03  0.47000000000E+01 0. -1.
         -5    1    1    2    0  501  0.11947447719E+03 -0.34618544680E+03 -0.34038125055E+03  0.50000000000E+03  0.47000000000E+01 0.  1.
</event>
<event>
 4    1  0.4351282E-004  0.1000000E+04  0.7546771E-02  0.8684367E-01
         11   -1    0    0    0    0  0.00000000000E+00  0.00000000000E+00  0.50000000000E+03  0.50000000000E+03  0.00000000000E+00 0. -1.
        -11   -1    0    0    0    0 -0.00000000000E+00 -0.00000000000E+00 -0.50000000000E+03  0.50000000000E+03  0.00000000000E+00 0.  1.
          5    1    1    2  501    0 -0.27379546033E+02 -0.48770887870E+03  0.10662232457E+03  0.50000000000E+03  0.47000000000E+01 0. -1.
         -5    1    1    2    0  501  0.27379546033E+02  0.48770887870E+03 -0.10662232457E+03  0.50000000000E+03  0.47000000000E+01 0.  1.
</event>
<event>
 4    1  0.4351282E-004  0.1000000E+04  0.7546771E-02  0.8684367E-01
         11   -1    0    0    0    0  0.00000000000E+00  0.00000000000E+00  0.50000000000E+03  0.50000000000E+03  0.00000000000E+00 0.  1.
        -11   -1    0    0    0    0 -0.00000000000E+00 -0.00000000000E+00 -0.50000000000E+03  0.50000000000E+03  0.00000000000E+00 0. -1.
          5    1    1    2  501    0 -0.40428115497E+03  0.18374548477E+03  0.22972212466E+03  0.50000000000E+03  0.47000000000E+01 0.  1.
         -5    1    1    2    0  501  0.40428115497E+03 -0.18374548477E+03 -0.22972212466E+03  0.50000000000E+03  0.47000000000E+01 0. -1.
</event>
<event>
 4    1  0.4351282E-004  0.1000000E+04  0.7546771E-02  0.8684367E-01
         11   -1    0    0    0    0  0.00000000000E+00  0.00000000000E+00  0.50000000000E+03  0.50000000000E+03  0.00000000000E+00 0. -1.
        -11   -1    0    0    0    0 -0.00000000000E+00 -0.00000000000E+00 -0.50000000000E+03  0.50000000000E+03  0.00000000000E+00 0.  1.
          5    1    1    2  501    0 -0.16092756530E+03  0.45850001322E+03  0.11771986495E+03  0.50000000000E+03  0.47000000000E+01 0. -1.
         -5    1    1    2    0  501  0.16092756530E+03 -0.45850001322E+03 -0.11771986495E+03  0.50000000000E+03  0.47000000000E+01 0.  1.
</event>
<event>
 4    1  0.4351282E-004  0.1000000E+04  0.7546771E-02  0.8684367E-01
         11   -1    0    0    0    0  0.00000000000E+00  0.00000000000E+00  0.50000000000E+03  0.50000000000E+03  0.00000000000E+00 0. -1.
        -11   -1    0    0    0    0 -0.00000000000E+00 -0.00000000000E+00 -0.50000000000E+03  0.50000000000E+03  0.00000000000E+00 0.  1.
          5    1    1    2  501    0 -0.41644231361E+03 -0.13041175542E+03  0.24402148161E+03  0.50000000000E+03  0.47000000000E+01 0. -1.
         -5    1    1    2    0  501  0.41644231361E+03  0.13041175542E+03 -0.24402148161E+03  0.50000000000E+03  0.47000000000E+01 0.  1.
</event>
<event>
 4    1  0.4351282E-004  0.1000000E+04  0.7546771E-02  0.8684367E-01
         11   -1    0    0    0    0  0.00000000000E+00  0.00000000000E+00  0.50000000000E+03  0.50000000000E+03  0.00000000000E+00 0. -1.
        -11   -1    0    0    0    0 -0.00000000000E+00 -0.00000000000E+00 -0.50000000000E+03  0.50000000000E+03  0.00000000000E+00 0.  1.
          5    1    1    2  501    0 -0.28497480474E+03  0.73130201591E+02  0.40425146169E+03  0.50000000000E+03  0.47000000000E+01 0. -1.
         -5    1    1    2    0  501  0.28497480474E+03 -0.73130201591E+02 -0.40425146169E+03  0.50000000000E+03  0.47000000000E+01 0.  1.
</event>
<event>
 4    1  0.4351282E-004  0.1000000E+04  0.7546771E-02  0.8684367E-01
         11   -1    0    0    0    0  0.00000000000E+00  0.00000000000E+00  0.50000000000E+03  0.50000000000E+03  0.00000000000E+00 0. -1.
        -11   -1    0    0    0    0 -0.00000000000E+00 -0.00000000000E+00 -0.50000000000E+03  0.50000000000E+03  0.00000000000E+00 0.  1.
          5    1    1    2  501    0 -0.16493688669E+03 -0.47041117405E+03 -0.38562426542E+02  0.50000000000E+03  0.47000000000E+01 0. -1.
         -5    1    1    2    0  501  0.16493688669E+03  0.47041117405E+03  0.38562426542E+02  0.50000000000E+03  0.47000000000E+01 0.  1.
</event>
<event>
 4    1  0.4351282E-004  0.1000000E+04  0.7546771E-02  0.8684367E-01
         11   -1    0    0    0    0  0.00000000000E+00  0.00000000000E+00  0.50000000000E+03  0.50000000000E+03  0.00000000000E+00 0. -1.
        -11   -1    0    0    0    0 -0.00000000000E+00 -0.00000000000E+00 -0.50000000000E+03  0.50000000000E+03  0.00000000000E+00 0.  1.
          5    1    1    2  501    0 -0.30098440216E+03 -0.25895078843E+03  0.30385981773E+03  0.50000000000E+03  0.47000000000E+01 0. -1.
         -5    1    1    2    0  501  0.30098440216E+03  0.25895078843E+03 -0.30385981773E+03  0.50000000000E+03  0.47000000000E+01 0.  1.
</event>
<event>
 4    1  0.4351282E-004  0.1000000E+04  0.7546771E-02  0.8684367E-01
         11   -1    0    0    0    0  0.00000000000E+00  0.00000000000E+00  0.50000000000E+03  0.50000000000E+03  0.00000000000E+00 0. -1.
        -11   -1    0    0    0    0 -0.00000000000E+00 -0.00000000000E+00 -0.50000000000E+03  0.50000000000E+03  0.00000000000E+00 0.  1.
          5    1    1    2  501    0 -0.47972961289E+03  0.30001191841E+02  0.13761299721E+03  0.50000000000E+03  0.47000000000E+01 0. -1.
         -5    1    1    2    0  501  0.47972961289E+03 -0.30001191841E+02 -0.13761299721E+03  0.50000000000E+03  0.47000000000E+01 0.  1.
</event>
<event>
 4    1  0.4351282E-004  0.1000000E+04  0.7546771E-02  0.8684367E-01
         11   -1    0    0    0    0  0.00000000000E+00  0.00000000000E+00  0.50000000000E+03  0.50000000000E+03  0.00000000000E+00 0.  1.
        -11   -1    0    0    0    0 -0.00000000000E+00 -0.00000000000E+00 -0.50000000000E+03  0.50000000000E+03  0.00000000000E+00 0. -1.
          5    1    1    2  501    0 -0.80342765543E+02  0.41711285418E+03  0.26370403277E+03  0.50000000000E+03  0.47000000000E+01 0.  1.
         -5    1    1    2    0  501  0.80342765543E+02 -0.41711285418E+03 -0.26370403277E+03  0.50000000000E+03  0.47000000000E+01 0. -1.
</event>
<event>
 4    1  0.4351282E-004  0.1000000E+04  0.7546771E-02  0.8684367E-01
         11   -1    0    0    0    0  0.00000000000E+00  0.00000000000E+00  0.50000000000E+03  0.50000000000E+03  0.00000000000E+00 0. -1.
        -11   -1    0    0    0    0 -0.00000000000E+00 -0.00000000000E+00 -0.50000000000E+03  0.50000000000E+03  0.00000000000E+00 0.  1.
          5    1    1    2  501    0  0.72705406117E+01  0.42176162340E+03  0.26840674780E+03  0.50000000000E+03  0.47000000000E+01 0. -1.
         -5    1    1    2    0  501 -0.72705406117E+01 -0.42176162340E+03 -0.26840674780E+03  0.50000000000E+03  0.47000000000E+01 0.  1.
</event>
<event>
 4    1  0.4351282E-004  0.1000000E+04  0.7546771E-02  0.8684367E-01
         11   -1    0    0    0    0  0.00000000000E+00  0.00000000000E+00  0.50000000000E+03  0.50000000000E+03  0.00000000000E+00 0. -1.
        -11   -1    0    0    0    0 -0.00000000000E+00 -0.00000000000E+00 -0.50000000000E+03  0.50000000000E+03  0.00000000000E+00 0.  1.
          5    1    1    2  501    0 -0.34658809655E+03  0.36016106496E+03 -0.11773215895E+02  0.50000000000E+03  0.47000000000E+01 0. -1.
         -5    1    1    2    0  501  0.34658809655E+03 -0.36016106496E+03  0.11773215895E+02  0.50000000000E+03  0.47000000000E+01 0.  1.
</event>
<event>
 4    1  0.4351282E-004  0.1000000E+04  0.7546771E-02  0.8684367E-01
         11   -1    0    0    0    0  0.00000000000E+00  0.00000000000E+00  0.50000000000E+03  0.50000000000E+03  0.00000000000E+00 0. -1.
        -11   -1    0    0    0    0 -0.00000000000E+00 -0.00000000000E+00 -0.50000000000E+03  0.50000000000E+03  0.00000000000E+00 0.  1.
          5    1    1    2  501    0  0.18127171215E+03 -0.29155968372E+03  0.36347135678E+03  0.50000000000E+03  0.47000000000E+01 0. -1.
         -5    1    1    2    0  501 -0.18127171215E+03  0.29155968372E+03 -0.36347135678E+03  0.50000000000E+03  0.47000000000E+01 0.  1.
</event>
<event>
 4    1  0.4351282E-004  0.1000000E+04  0.7546771E-02  0.8684367E-01
         11   -1    0    0    0    0  0.00000000000E+00  0.00000000000E+00  0.50000000000E+03  0.50000000000E+03  0.00000000000E+00 0. -1.
        -11   -1    0    0    0    0 -0.00000000000E+00 -0.00000000000E+00 -0.50000000000E+03  0.50000000000E+03  0.00000000000E+00 0.  1.
          5    1    1    2  501    0  0.29396890111E+03  0.32245237320E+03  0.24409969726E+03  0.50000000000E+03  0.47000000000E+01 0. -1.
         -5    1    1    2    0  501 -0.29396890111E+03 -0.32245237320E+03 -0.24409969726E+03  0.50000000000E+03  0.47000000000E+01 0.  1.
</event>
<event>
 4    1  0.4351282E-004  0.1000000E+04  0.7546771E-02  0.8684367E-01
         11   -1    0    0    0    0  0.00000000000E+00  0.00000000000E+00  0.50000000000E+03  0.50000000000E+03  0.00000000000E+00 0. -1.
        -11   -1    0    0    0    0 -0.00000000000E+00 -0.00000000000E+00 -0.50000000000E+03  0.50000000000E+03  0.00000000000E+00 0.  1.
          5    1    1    2  501    0  0.39116125005E+03 -0.20916064010E+03  0.23070026678E+03  0.50000000000E+03  0.47000000000E+01 0. -1.
         -5    1    1    2    0  501 -0.39116125005E+03  0.20916064010E+03 -0.23070026678E+03  0.50000000000E+03  0.47000000000E+01 0.  1.
</event>
<event>
 4    1  0.4351282E-004  0.1000000E+04  0.7546771E-02  0.8684367E-01
         11   -1    0    0    0    0  0.00000000000E+00  0.00000000000E+00  0.50000000000E+03  0.50000000000E+03  0.00000000000E+00 0. -1.
        -11   -1    0    0    0    0 -0.00000000000E+00 -0.00000000000E+00 -0.50000000000E+03  0.50000000000E+03  0.00000000000E+00 0.  1.
          5    1    1    2  501    0 -0.80367224079E+02 -0.49268784599E+03  0.27887375446E+02  0.50000000000E+03  0.47000000000E+01 0. -1.
         -5    1    1    2    0  501  0.80367224079E+02  0.49268784599E+03 -0.27887375446E+02  0.50000000000E+03  0.47000000000E+01 0.  1.
</event>
<event>
 4    1  0.4351282E-004  0.1000000E+04  0.7546771E-02  0.8684367E-01
         11   -1    0    0    0    0  0.00000000000E+00  0.00000000000E+00  0.50000000000E+03  0.50000000000E+03  0.00000000000E+00 0. -1.
        -11   -1    0    0    0    0 -0.00000000000E+00 -0.00000000000E+00 -0.50000000000E+03  0.50000000000E+03  0.00000000000E+00 0.  1.
          5    1    1    2  501    0 -0.24013035600E+03 -0.85448435208E+02  0.43013240642E+03  0.50000000000E+03  0.47000000000E+01 0. -1.
         -5    1    1    2    0  501  0.24013035600E+03  0.85448435208E+02 -0.43013240642E+03  0.50000000000E+03  0.47000000000E+01 0.  1.
</event>
<event>
 4    1  0.4351282E-004  0.1000000E+04  0.7546771E-02  0.8684367E-01
         11   -1    0    0    0    0  0.00000000000E+00  0.00000000000E+00  0.50000000000E+03  0.50000000000E+03  0.00000000000E+00 0. -1.
        -11   -1    0    0    0    0 -0.00000000000E+00 -0.00000000000E+00 -0.50000000000E+03  0.50000000000E+03  0.00000000000E+00 0.  1.
          5    1    1    2  501    0  0.13258234673E+03 -0.17592108349E+03  0.44883360360E+03  0.50000000000E+03  0.47000000000E+01 0. -1.
         -5    1    1    2    0  501 -0.13258234673E+03  0.17592108349E+03 -0.44883360360E+03  0.50000000000E+03  0.47000000000E+01 0.  1.
</event>
<event>
 4    1  0.4351282E-004  0.1000000E+04  0.7546771E-02  0.8684367E-01
         11   -1    0    0    0    0  0.00000000000E+00  0.00000000000E+00  0.50000000000E+03  0.50000000000E+03  0.00000000000E+00 0. -1.
        -11   -1    0    0    0    0 -0.00000000000E+00 -0.00000000000E+00 -0.50000000000E+03  0.50000000000E+03  0.00000000000E+00 0.  1.
          5    1    1    2  501    0  0.48731510817E+03  0.84210354147E+02  0.73556179915E+02  0.50000000000E+03  0.47000000000E+01 0. -1.
         -5    1    1    2    0  501 -0.48731510817E+03 -0.84210354147E+02 -0.73556179915E+02  0.50000000000E+03  0.47000000000E+01 0.  1.
</event>
<event>
 4    1  0.4351282E-004  0.1000000E+04  0.7546771E-02  0.8684367E-01
         11   -1    0    0    0    0  0.00000000000E+00  0.00000000000E+00  0.50000000000E+03  0.50000000000E+03  0.00000000000E+00 0. -1.
        -11   -1    0    0    0    0 -0.00000000000E+00 -0.00000000000E+00 -0.50000000000E+03  0.50000000000E+03  0.00000000000E+00 0.  1.
          5    1    1    2  501    0  0.44335128829E+03  0.23009054803E+03  0.21814785826E+02  0.50000000000E+03  0.47000000000E+01 0. -1.
         -5    1    1    2    0  501 -0.44335128829E+03 -0.23009054803E+03 -0.21814785826E+02  0.50000000000E+03  0.47000000000E+01 0.  1.
</event>
<event>
 4    1  0.4351282E-004  0.1000000E+04  0.7546771E-02  0.8684367E-01
         11   -1    0    0    0    0  0.00000000000E+00  0.00000000000E+00  0.50000000000E+03  0.50000000000E+03  0.00000000000E+00 0. -1.
        -11   -1    0    0    0    0 -0.00000000000E+00 -0.00000000000E+00 -0.50000000000E+03  0.50000000000E+03  0.00000000000E+00 0.  1.
          5    1    1    2  501    0 -0.59462769282E+01 -0.39221997735E+03  0.31000974365E+03  0.50000000000E+03  0.47000000000E+01 0. -1.
         -5    1    1    2    0  501  0.59462769282E+01  0.39221997735E+03 -0.31000974365E+03  0.50000000000E+03  0.47000000000E+01 0.  1.
</event>
<event>
 4    1  0.4351282E-004  0.1000000E+04  0.7546771E-02  0.8684367E-01
         11   -1    0    0    0    0  0.00000000000E+00  0.00000000000E+00  0.50000000000E+03  0.50000000000E+03  0.00000000000E+00 0. -1.
        -11   -1    0    0    0    0 -0.00000000000E+00 -0.00000000000E+00 -0.50000000000E+03  0.50000000000E+03  0.00000000000E+00 0.  1.
          5    1    1    2  501    0  0.12647158099E+03 -0.10633265138E+03  0.47188580870E+03  0.50000000000E+03  0.47000000000E+01 0. -1.
         -5    1    1    2    0  501 -0.12647158099E+03  0.10633265138E+03 -0.47188580870E+03  0.50000000000E+03  0.47000000000E+01 0.  1.
</event>
<event>
 4    1  0.4351282E-004  0.1000000E+04  0.7546771E-02  0.8684367E-01
         11   -1    0    0    0    0  0.00000000000E+00  0.00000000000E+00  0.50000000000E+03  0.50000000000E+03  0.00000000000E+00 0. -1.
        -11   -1    0    0    0    0 -0.00000000000E+00 -0.00000000000E+00 -0.50000000000E+03  0.50000000000E+03  0.00000000000E+00 0.  1.
          5    1    1    2  501    0 -0.48301661521E+03  0.12811119917E+03 -0.16136296888E+02  0.50000000000E+03  0.47000000000E+01 0. -1.
         -5    1    1    2    0  501  0.48301661521E+03 -0.12811119917E+03  0.16136296888E+02  0.50000000000E+03  0.47000000000E+01 0.  1.
</event>
<event>
 4    1  0.4351282E-004  0.1000000E+04  0.7546771E-02  0.8684367E-01
         11   -1    0    0    0    0  0.00000000000E+00  0.00000000000E+00  0.50000000000E+03  0.50000000000E+03  0.00000000000E+00 0. -1.
        -11   -1    0    0    0    0 -0.00000000000E+00 -0.00000000000E+00 -0.50000000000E+03  0.50000000000E+03  0.00000000000E+00 0.  1.
          5    1    1    2  501    0  0.36135796430E+02 -0.46911093227E+03  0.16913618018E+03  0.50000000000E+03  0.47000000000E+01 0. -1.
         -5    1    1    2    0  501 -0.36135796430E+02  0.46911093227E+03 -0.16913618018E+03  0.50000000000E+03  0.47000000000E+01 0.  1.
</event>
<event>
 4    1  0.4351282E-004  0.1000000E+04  0.7546771E-02  0.8684367E-01
         11   -1    0    0    0    0  0.00000000000E+00  0.00000000000E+00  0.50000000000E+03  0.50000000000E+03  0.00000000000E+00 0. -1.
        -11   -1    0    0    0    0 -0.00000000000E+00 -0.00000000000E+00 -0.50000000000E+03  0.50000000000E+03  0.00000000000E+00 0.  1.
          5    1    1    2  501    0 -0.19815699618E+03  0.42297387553E+03  0.17833904645E+03  0.50000000000E+03  0.47000000000E+01 0. -1.
         -5    1    1    2    0  501  0.19815699618E+03 -0.42297387553E+03 -0.17833904645E+03  0.50000000000E+03  0.47000000000E+01 0.  1.
</event>
<event>
 4    1  0.4351282E-004  0.1000000E+04  0.7546771E-02  0.8684367E-01
         11   -1    0    0    0    0  0.00000000000E+00  0.00000000000E+00  0.50000000000E+03  0.50000000000E+03  0.00000000000E+00 0. -1.
        -11   -1    0    0    0    0 -0.00000000000E+00 -0.00000000000E+00 -0.50000000000E+03  0.50000000000E+03  0.00000000000E+00 0.  1.
          5    1    1    2  501    0  0.30586469913E+03  0.11606085633E+03  0.37809333961E+03  0.50000000000E+03  0.47000000000E+01 0. -1.
         -5    1    1    2    0  501 -0.30586469913E+03 -0.11606085633E+03 -0.37809333961E+03  0.50000000000E+03  0.47000000000E+01 0.  1.
</event>
<event>
 4    1  0.4351282E-004  0.1000000E+04  0.7546771E-02  0.8684367E-01
         11   -1    0    0    0    0  0.00000000000E+00  0.00000000000E+00  0.50000000000E+03  0.50000000000E+03  0.00000000000E+00 0. -1.
        -11   -1    0    0    0    0 -0.00000000000E+00 -0.00000000000E+00 -0.50000000000E+03  0.50000000000E+03  0.00000000000E+00 0.  1.
          5    1    1    2  501    0 -0.81881396955E+02 -0.31815873862E+01  0.49321721821E+03  0.50000000000E+03  0.47000000000E+01 0. -1.
         -5    1    1    2    0  501  0.81881396955E+02  0.31815873862E+01 -0.49321721821E+03  0.50000000000E+03  0.47000000000E+01 0.  1.
</event>
<event>
 4    1  0.4351282E-004  0.1000000E+04  0.7546771E-02  0.8684367E-01
         11   -1    0    0    0    0  0.00000000000E+00  0.00000000000E+00  0.50000000000E+03  0.50000000000E+03  0.00000000000E+00 0. -1.
        -11   -1    0    0    0    0 -0.00000000000E+00 -0.00000000000E+00 -0.50000000000E+03  0.50000000000E+03  0.00000000000E+00 0.  1.
          5    1    1    2  501    0 -0.11826195222E+03  0.37452427800E+03  0.30939228472E+03  0.50000000000E+03  0.47000000000E+01 0. -1.
         -5    1    1    2    0  501  0.11826195222E+03 -0.37452427800E+03 -0.30939228472E+03  0.50000000000E+03  0.47000000000E+01 0.  1.
</event>
<event>
 4    1  0.4351282E-004  0.1000000E+04  0.7546771E-02  0.8684367E-01
         11   -1    0    0    0    0  0.00000000000E+00  0.00000000000E+00  0.50000000000E+03  0.50000000000E+03  0.00000000000E+00 0. -1.
        -11   -1    0    0    0    0 -0.00000000000E+00 -0.00000000000E+00 -0.50000000000E+03  0.50000000000E+03  0.00000000000E+00 0.  1.
          5    1    1    2  501    0 -0.36665610979E+03 -0.30905747506E+03 -0.14150860137E+03  0.50000000000E+03  0.47000000000E+01 0. -1.
         -5    1    1    2    0  501  0.36665610979E+03  0.30905747506E+03  0.14150860137E+03  0.50000000000E+03  0.47000000000E+01 0.  1.
</event>
<event>
 4    1  0.4351282E-004  0.1000000E+04  0.7546771E-02  0.8684367E-01
         11   -1    0    0    0    0  0.00000000000E+00  0.00000000000E+00  0.50000000000E+03  0.50000000000E+03  0.00000000000E+00 0. -1.
        -11   -1    0    0    0    0 -0.00000000000E+00 -0.00000000000E+00 -0.50000000000E+03  0.50000000000E+03  0.00000000000E+00 0.  1.
          5    1    1    2  501    0  0.29950516587E+03 -0.29695554256E+03  0.26849948111E+03  0.50000000000E+03  0.47000000000E+01 0. -1.
         -5    1    1    2    0  501 -0.29950516587E+03  0.29695554256E+03 -0.26849948111E+03  0.50000000000E+03  0.47000000000E+01 0.  1.
</event>
<event>
 4    1  0.4351282E-004  0.1000000E+04  0.7546771E-02  0.8684367E-01
         11   -1    0    0    0    0  0.00000000000E+00  0.00000000000E+00  0.50000000000E+03  0.50000000000E+03  0.00000000000E+00 0. -1.
        -11   -1    0    0    0    0 -0.00000000000E+00 -0.00000000000E+00 -0.50000000000E+03  0.50000000000E+03  0.00000000000E+00 0.  1.
          5    1    1    2  501    0 -0.12973063697E+03 -0.18773023099E+02  0.48248880343E+03  0.50000000000E+03  0.47000000000E+01 0. -1.
         -5    1    1    2    0  501  0.12973063697E+03  0.18773023099E+02 -0.48248880343E+03  0.50000000000E+03  0.47000000000E+01 0.  1.
</event>
<event>
 4    1  0.4351282E-004  0.1000000E+04  0.7546771E-02  0.8684367E-01
         11   -1    0    0    0    0  0.00000000000E+00  0.00000000000E+00  0.50000000000E+03  0.50000000000E+03  0.00000000000E+00 0.  1.
        -11   -1    0    0    0    0 -0.00000000000E+00 -0.00000000000E+00 -0.50000000000E+03  0.50000000000E+03  0.00000000000E+00 0. -1.
          5    1    1    2  501    0  0.88233418142E+02 -0.13811552090E+03  0.47235249212E+03  0.50000000000E+03  0.47000000000E+01 0.  1.
         -5    1    1    2    0  501 -0.88233418142E+02  0.13811552090E+03 -0.47235249212E+03  0.50000000000E+03  0.47000000000E+01 0. -1.
</event>
<event>
 4    1  0.4351282E-004  0.1000000E+04  0.7546771E-02  0.8684367E-01
         11   -1    0    0    0    0  0.00000000000E+00  0.00000000000E+00  0.50000000000E+03  0.50000000000E+03  0.00000000000E+00 0. -1.
        -11   -1    0    0    0    0 -0.00000000000E+00 -0.00000000000E+00 -0.50000000000E+03  0.50000000000E+03  0.00000000000E+00 0.  1.
          5    1    1    2  501    0 -0.37746127875E+01 -0.42135761127E+03  0.26911229203E+03  0.50000000000E+03  0.47000000000E+01 0. -1.
         -5    1    1    2    0  501  0.37746127875E+01  0.42135761127E+03 -0.26911229203E+03  0.50000000000E+03  0.47000000000E+01 0.  1.
</event>
<event>
 4    1  0.4351282E-004  0.1000000E+04  0.7546771E-02  0.8684367E-01
         11   -1    0    0    0    0  0.00000000000E+00  0.00000000000E+00  0.50000000000E+03  0.50000000000E+03  0.00000000000E+00 0. -1.
        -11   -1    0    0    0    0 -0.00000000000E+00 -0.00000000000E+00 -0.50000000000E+03  0.50000000000E+03  0.00000000000E+00 0.  1.
          5    1    1    2  501    0  0.42636568500E+03  0.11915289261E+03  0.23236351012E+03  0.50000000000E+03  0.47000000000E+01 0. -1.
         -5    1    1    2    0  501 -0.42636568500E+03 -0.11915289261E+03 -0.23236351012E+03  0.50000000000E+03  0.47000000000E+01 0.  1.
</event>
<event>
 4    1  0.4351282E-004  0.1000000E+04  0.7546771E-02  0.8684367E-01
         11   -1    0    0    0    0  0.00000000000E+00  0.00000000000E+00  0.50000000000E+03  0.50000000000E+03  0.00000000000E+00 0. -1.
        -11   -1    0    0    0    0 -0.00000000000E+00 -0.00000000000E+00 -0.50000000000E+03  0.50000000000E+03  0.00000000000E+00 0.  1.
          5    1    1    2  501    0  0.21649891118E+03 -0.99022997769E+02  0.43965961535E+03  0.50000000000E+03  0.47000000000E+01 0. -1.
         -5    1    1    2    0  501 -0.21649891118E+03  0.99022997769E+02 -0.43965961535E+03  0.50000000000E+03  0.47000000000E+01 0.  1.
</event>
<event>
 4    1  0.4351282E-004  0.1000000E+04  0.7546771E-02  0.8684367E-01
         11   -1    0    0    0    0  0.00000000000E+00  0.00000000000E+00  0.50000000000E+03  0.50000000000E+03  0.00000000000E+00 0. -1.
        -11   -1    0    0    0    0 -0.00000000000E+00 -0.00000000000E+00 -0.50000000000E+03  0.50000000000E+03  0.00000000000E+00 0.  1.
          5    1    1    2  501    0 -0.40124608244E+03  0.46941819288E+02  0.29457759068E+03  0.50000000000E+03  0.47000000000E+01 0. -1.
         -5    1    1    2    0  501  0.40124608244E+03 -0.46941819288E+02 -0.29457759068E+03  0.50000000000E+03  0.47000000000E+01 0.  1.
</event>
<event>
 4    1  0.4351282E-004  0.1000000E+04  0.7546771E-02  0.8684367E-01
         11   -1    0    0    0    0  0.00000000000E+00  0.00000000000E+00  0.50000000000E+03  0.50000000000E+03  0.00000000000E+00 0. -1.
        -11   -1    0    0    0    0 -0.00000000000E+00 -0.00000000000E+00 -0.50000000000E+03  0.50000000000E+03  0.00000000000E+00 0.  1.
          5    1    1    2  501    0  0.24671100608E+03 -0.25835416965E+03  0.34980667876E+03  0.50000000000E+03  0.47000000000E+01 0. -1.
         -5    1    1    2    0  501 -0.24671100608E+03  0.25835416965E+03 -0.34980667876E+03  0.50000000000E+03  0.47000000000E+01 0.  1.
</event>
<event>
 4    1  0.4351282E-004  0.1000000E+04  0.7546771E-02  0.8684367E-01
         11   -1    0    0    0    0  0.00000000000E+00  0.00000000000E+00  0.50000000000E+03  0.50000000000E+03  0.00000000000E+00 0. -1.
        -11   -1    0    0    0    0 -0.00000000000E+00 -0.00000000000E+00 -0.50000000000E+03  0.50000000000E+03  0.00000000000E+00 0.  1.
          5    1    1    2  501    0  0.25475798819E+03  0.29145251103E+03  0.31643595129E+03  0.50000000000E+03  0.47000000000E+01 0. -1.
         -5    1    1    2    0  501 -0.25475798819E+03 -0.29145251103E+03 -0.31643595129E+03  0.50000000000E+03  0.47000000000E+01 0.  1.
</event>
<event>
 4    1  0.4351282E-004  0.1000000E+04  0.7546771E-02  0.8684367E-01
         11   -1    0    0    0    0  0.00000000000E+00  0.00000000000E+00  0.50000000000E+03  0.50000000000E+03  0.00000000000E+00 0. -1.
        -11   -1    0    0    0    0 -0.00000000000E+00 -0.00000000000E+00 -0.50000000000E+03  0.50000000000E+03  0.00000000000E+00 0.  1.
          5    1    1    2  501    0  0.64626509248E+02 -0.27957787035E+03  0.40943563440E+03  0.50000000000E+03  0.47000000000E+01 0. -1.
         -5    1    1    2    0  501 -0.64626509248E+02  0.27957787035E+03 -0.40943563440E+03  0.50000000000E+03  0.47000000000E+01 0.  1.
</event>
<event>
 4    1  0.4351282E-004  0.1000000E+04  0.7546771E-02  0.8684367E-01
         11   -1    0    0    0    0  0.00000000000E+00  0.00000000000E+00  0.50000000000E+03  0.50000000000E+03  0.00000000000E+00 0. -1.
        -11   -1    0    0    0    0 -0.00000000000E+00 -0.00000000000E+00 -0.50000000000E+03  0.50000000000E+03  0.00000000000E+00 0.  1.
          5    1    1    2  501    0 -0.36963078482E+03  0.95658428617E+02  0.32280095716E+03  0.50000000000E+03  0.47000000000E+01 0. -1.
         -5    1    1    2    0  501  0.36963078482E+03 -0.95658428617E+02 -0.32280095716E+03  0.50000000000E+03  0.47000000000E+01 0.  1.
</event>
<event>
 4    1  0.4351282E-004  0.1000000E+04  0.7546771E-02  0.8684367E-01
         11   -1    0    0    0    0  0.00000000000E+00  0.00000000000E+00  0.50000000000E+03  0.50000000000E+03  0.00000000000E+00 0. -1.
        -11   -1    0    0    0    0 -0.00000000000E+00 -0.00000000000E+00 -0.50000000000E+03  0.50000000000E+03  0.00000000000E+00 0.  1.
          5    1    1    2  501    0  0.28582990105E+03  0.40563730817E+03  0.61135520639E+02  0.50000000000E+03  0.47000000000E+01 0. -1.
         -5    1    1    2    0  501 -0.28582990105E+03 -0.40563730817E+03 -0.61135520639E+02  0.50000000000E+03  0.47000000000E+01 0.  1.
</event>
<event>
 4    1  0.4351282E-004  0.1000000E+04  0.7546771E-02  0.8684367E-01
         11   -1    0    0    0    0  0.00000000000E+00  0.00000000000E+00  0.50000000000E+03  0.50000000000E+03  0.00000000000E+00 0.  1.
        -11   -1    0    0    0    0 -0.00000000000E+00 -0.00000000000E+00 -0.50000000000E+03  0.50000000000E+03  0.00000000000E+00 0. -1.
          5    1    1    2  501    0 -0.48251007344E+03  0.99996713628E+02  0.84632123282E+02  0.50000000000E+03  0.47000000000E+01 0.  1.
         -5    1    1    2    0  501  0.48251007344E+03 -0.99996713628E+02 -0.84632123282E+02  0.50000000000E+03  0.47000000000E+01 0. -1.
</event>
<event>
 4    1  0.4351282E-004  0.1000000E+04  0.7546771E-02  0.8684367E-01
         11   -1    0    0    0    0  0.00000000000E+00  0.00000000000E+00  0.50000000000E+03  0.50000000000E+03  0.00000000000E+00 0. -1.
        -11   -1    0    0    0    0 -0.00000000000E+00 -0.00000000000E+00 -0.50000000000E+03  0.50000000000E+03  0.00000000000E+00 0.  1.
          5    1    1    2  501    0  0.32324212225E+03 -0.63544795601E+02  0.37610437295E+03  0.50000000000E+03  0.47000000000E+01 0. -1.
         -5    1    1    2    0  501 -0.32324212225E+03  0.63544795601E+02 -0.37610437295E+03  0.50000000000E+03  0.47000000000E+01 0.  1.
</event>
<event>
 4    1  0.4351282E-004  0.1000000E+04  0.7546771E-02  0.8684367E-01
         11   -1    0    0    0    0  0.00000000000E+00  0.00000000000E+00  0.50000000000E+03  0.50000000000E+03  0.00000000000E+00 0.  1.
        -11   -1    0    0    0    0 -0.00000000000E+00 -0.00000000000E+00 -0.50000000000E+03  0.50000000000E+03  0.00000000000E+00 0. -1.
          5    1    1    2  501    0 -0.19600522775E+03 -0.40225030865E+03  0.22305727939E+03  0.50000000000E+03  0.47000000000E+01 0.  1.
         -5    1    1    2    0  501  0.19600522775E+03  0.40225030865E+03 -0.22305727939E+03  0.50000000000E+03  0.47000000000E+01 0. -1.
</event>
<event>
 4    1  0.4351282E-004  0.1000000E+04  0.7546771E-02  0.8684367E-01
         11   -1    0    0    0    0  0.00000000000E+00  0.00000000000E+00  0.50000000000E+03  0.50000000000E+03  0.00000000000E+00 0.  1.
        -11   -1    0    0    0    0 -0.00000000000E+00 -0.00000000000E+00 -0.50000000000E+03  0.50000000000E+03  0.00000000000E+00 0. -1.
          5    1    1    2  501    0 -0.41173624337E+03 -0.23493788857E+02  0.28266449685E+03  0.50000000000E+03  0.47000000000E+01 0.  1.
         -5    1    1    2    0  501  0.41173624337E+03  0.23493788857E+02 -0.28266449685E+03  0.50000000000E+03  0.47000000000E+01 0. -1.
</event>
<event>
 4    1  0.4351282E-004  0.1000000E+04  0.7546771E-02  0.8684367E-01
         11   -1    0    0    0    0  0.00000000000E+00  0.00000000000E+00  0.50000000000E+03  0.50000000000E+03  0.00000000000E+00 0. -1.
        -11   -1    0    0    0    0 -0.00000000000E+00 -0.00000000000E+00 -0.50000000000E+03  0.50000000000E+03  0.00000000000E+00 0.  1.
          5    1    1    2  501    0 -0.12257260864E+03  0.26894975194E+03  0.40326157335E+03  0.50000000000E+03  0.47000000000E+01 0. -1.
         -5    1    1    2    0  501  0.12257260864E+03 -0.26894975194E+03 -0.40326157335E+03  0.50000000000E+03  0.47000000000E+01 0.  1.
</event>
<event>
 4    1  0.4351282E-004  0.1000000E+04  0.7546771E-02  0.8684367E-01
         11   -1    0    0    0    0  0.00000000000E+00  0.00000000000E+00  0.50000000000E+03  0.50000000000E+03  0.00000000000E+00 0. -1.
        -11   -1    0    0    0    0 -0.00000000000E+00 -0.00000000000E+00 -0.50000000000E+03  0.50000000000E+03  0.00000000000E+00 0.  1.
          5    1    1    2  501    0 -0.17344492384E+03 -0.39128271863E+03 -0.25844264836E+03  0.50000000000E+03  0.47000000000E+01 0. -1.
         -5    1    1    2    0  501  0.17344492384E+03  0.39128271863E+03  0.25844264836E+03  0.50000000000E+03  0.47000000000E+01 0.  1.
</event>
<event>
 4    1  0.4351282E-004  0.1000000E+04  0.7546771E-02  0.8684367E-01
         11   -1    0    0    0    0  0.00000000000E+00  0.00000000000E+00  0.50000000000E+03  0.50000000000E+03  0.00000000000E+00 0.  1.
        -11   -1    0    0    0    0 -0.00000000000E+00 -0.00000000000E+00 -0.50000000000E+03  0.50000000000E+03  0.00000000000E+00 0. -1.
          5    1    1    2  501    0  0.11885140338E+03 -0.21659968434E+03  0.43466864467E+03  0.50000000000E+03  0.47000000000E+01 0.  1.
         -5    1    1    2    0  501 -0.11885140338E+03  0.21659968434E+03 -0.43466864467E+03  0.50000000000E+03  0.47000000000E+01 0. -1.
</event>
<event>
 4    1  0.4351282E-004  0.1000000E+04  0.7546771E-02  0.8684367E-01
         11   -1    0    0    0    0  0.00000000000E+00  0.00000000000E+00  0.50000000000E+03  0.50000000000E+03  0.00000000000E+00 0. -1.
        -11   -1    0    0    0    0 -0.00000000000E+00 -0.00000000000E+00 -0.50000000000E+03  0.50000000000E+03  0.00000000000E+00 0.  1.
          5    1    1    2  501    0  0.20240806596E+02 -0.35205785484E+03  0.35443403701E+03  0.50000000000E+03  0.47000000000E+01 0. -1.
         -5    1    1    2    0  501 -0.20240806596E+02  0.35205785484E+03 -0.35443403701E+03  0.50000000000E+03  0.47000000000E+01 0.  1.
</event>
<event>
 4    1  0.4351282E-004  0.1000000E+04  0.7546771E-02  0.8684367E-01
         11   -1    0    0    0    0  0.00000000000E+00  0.00000000000E+00  0.50000000000E+03  0.50000000000E+03  0.00000000000E+00 0. -1.
        -11   -1    0    0    0    0 -0.00000000000E+00 -0.00000000000E+00 -0.50000000000E+03  0.50000000000E+03  0.00000000000E+00 0.  1.
          5    1    1    2  501    0 -0.99015663484E+02  0.30927293625E+03  0.38016320086E+03  0.50000000000E+03  0.47000000000E+01 0. -1.
         -5    1    1    2    0  501  0.99015663484E+02 -0.30927293625E+03 -0.38016320086E+03  0.50000000000E+03  0.47000000000E+01 0.  1.
</event>
<event>
 4    1  0.4351282E-004  0.1000000E+04  0.7546771E-02  0.8684367E-01
         11   -1    0    0    0    0  0.00000000000E+00  0.00000000000E+00  0.50000000000E+03  0.50000000000E+03  0.00000000000E+00 0. -1.
        -11   -1    0    0    0    0 -0.00000000000E+00 -0.00000000000E+00 -0.50000000000E+03  0.50000000000E+03  0.00000000000E+00 0.  1.
          5    1    1    2  501    0  0.20198189632E+03  0.40913462273E+03  0.20442623130E+03  0.50000000000E+03  0.47000000000E+01 0. -1.
         -5    1    1    2    0  501 -0.20198189632E+03 -0.40913462273E+03 -0.20442623130E+03  0.50000000000E+03  0.47000000000E+01 0.  1.
</event>
<event>
 4    1  0.4351282E-004  0.1000000E+04  0.7546771E-02  0.8684367E-01
         11   -1    0    0    0    0  0.00000000000E+00  0.00000000000E+00  0.50000000000E+03  0.50000000000E+03  0.00000000000E+00 0. -1.
        -11   -1    0    0    0    0 -0.00000000000E+00 -0.00000000000E+00 -0.50000000000E+03  0.50000000000E+03  0.00000000000E+00 0.  1.
          5    1    1    2  501    0  0.11378654320E+03 -0.27884154989E+03  0.39909638264E+03  0.50000000000E+03  0.47000000000E+01 0. -1.
         -5    1    1    2    0  501 -0.11378654320E+03  0.27884154989E+03 -0.39909638264E+03  0.50000000000E+03  0.47000000000E+01 0.  1.
</event>
<event>
 4    1  0.4351282E-004  0.1000000E+04  0.7546771E-02  0.8684367E-01
         11   -1    0    0    0    0  0.00000000000E+00  0.00000000000E+00  0.50000000000E+03  0.50000000000E+03  0.00000000000E+00 0. -1.
        -11   -1    0    0    0    0 -0.00000000000E+00 -0.00000000000E+00 -0.50000000000E+03  0.50000000000E+03  0.00000000000E+00 0.  1.
          5    1    1    2  501    0 -0.32347116185E+02  0.17840532680E+03  0.46594325131E+03  0.50000000000E+03  0.47000000000E+01 0. -1.
         -5    1    1    2    0  501  0.32347116185E+02 -0.17840532680E+03 -0.46594325131E+03  0.50000000000E+03  0.47000000000E+01 0.  1.
</event>
<event>
 4    1  0.4351282E-004  0.1000000E+04  0.7546771E-02  0.8684367E-01
         11   -1    0    0    0    0  0.00000000000E+00  0.00000000000E+00  0.50000000000E+03  0.50000000000E+03  0.00000000000E+00 0. -1.
        -11   -1    0    0    0    0 -0.00000000000E+00 -0.00000000000E+00 -0.50000000000E+03  0.50000000000E+03  0.00000000000E+00 0.  1.
          5    1    1    2  501    0  0.31719628013E+03 -0.94709518257E+02  0.37469259003E+03  0.50000000000E+03  0.47000000000E+01 0. -1.
         -5    1    1    2    0  501 -0.31719628013E+03  0.94709518257E+02 -0.37469259003E+03  0.50000000000E+03  0.47000000000E+01 0.  1.
</event>
<event>
 4    1  0.4351282E-004  0.1000000E+04  0.7546771E-02  0.8684367E-01
         11   -1    0    0    0    0  0.00000000000E+00  0.00000000000E+00  0.50000000000E+03  0.50000000000E+03  0.00000000000E+00 0. -1.
        -11   -1    0    0    0    0 -0.00000000000E+00 -0.00000000000E+00 -0.50000000000E+03  0.50000000000E+03  0.00000000000E+00 0.  1.
          5    1    1    2  501    0  0.44017789516E+03  0.54929689511E+02 -0.23066005251E+03  0.50000000000E+03  0.47000000000E+01 0. -1.
         -5    1    1    2    0  501 -0.44017789516E+03 -0.54929689511E+02  0.23066005251E+03  0.50000000000E+03  0.47000000000E+01 0.  1.
</event>
<event>
 4    1  0.4351282E-004  0.1000000E+04  0.7546771E-02  0.8684367E-01
         11   -1    0    0    0    0  0.00000000000E+00  0.00000000000E+00  0.50000000000E+03  0.50000000000E+03  0.00000000000E+00 0. -1.
        -11   -1    0    0    0    0 -0.00000000000E+00 -0.00000000000E+00 -0.50000000000E+03  0.50000000000E+03  0.00000000000E+00 0.  1.
          5    1    1    2  501    0 -0.14460901760E+03  0.31356900043E+03  0.36158072957E+03  0.50000000000E+03  0.47000000000E+01 0. -1.
         -5    1    1    2    0  501  0.14460901760E+03 -0.31356900043E+03 -0.36158072957E+03  0.50000000000E+03  0.47000000000E+01 0.  1.
</event>
<event>
 4    1  0.4351282E-004  0.1000000E+04  0.7546771E-02  0.8684367E-01
         11   -1    0    0    0    0  0.00000000000E+00  0.00000000000E+00  0.50000000000E+03  0.50000000000E+03  0.00000000000E+00 0. -1.
        -11   -1    0    0    0    0 -0.00000000000E+00 -0.00000000000E+00 -0.50000000000E+03  0.50000000000E+03  0.00000000000E+00 0.  1.
          5    1    1    2  501    0 -0.11145061108E+03  0.29935388936E+03  0.38463478810E+03  0.50000000000E+03  0.47000000000E+01 0. -1.
         -5    1    1    2    0  501  0.11145061108E+03 -0.29935388936E+03 -0.38463478810E+03  0.50000000000E+03  0.47000000000E+01 0.  1.
</event>
<event>
 4    1  0.4351282E-004  0.1000000E+04  0.7546771E-02  0.8684367E-01
         11   -1    0    0    0    0  0.00000000000E+00  0.00000000000E+00  0.50000000000E+03  0.50000000000E+03  0.00000000000E+00 0. -1.
        -11   -1    0    0    0    0 -0.00000000000E+00 -0.00000000000E+00 -0.50000000000E+03  0.50000000000E+03  0.00000000000E+00 0.  1.
          5    1    1    2  501    0 -0.40862506157E+02  0.47087239845E+03  0.16305627853E+03  0.50000000000E+03  0.47000000000E+01 0. -1.
         -5    1    1    2    0  501  0.40862506157E+02 -0.47087239845E+03 -0.16305627853E+03  0.50000000000E+03  0.47000000000E+01 0.  1.
</event>
<event>
 4    1  0.4351282E-004  0.1000000E+04  0.7546771E-02  0.8684367E-01
         11   -1    0    0    0    0  0.00000000000E+00  0.00000000000E+00  0.50000000000E+03  0.50000000000E+03  0.00000000000E+00 0. -1.
        -11   -1    0    0    0    0 -0.00000000000E+00 -0.00000000000E+00 -0.50000000000E+03  0.50000000000E+03  0.00000000000E+00 0.  1.
          5    1    1    2  501    0 -0.14783573913E+03 -0.11900137806E+03  0.46255937592E+03  0.50000000000E+03  0.47000000000E+01 0. -1.
         -5    1    1    2    0  501  0.14783573913E+03  0.11900137806E+03 -0.46255937592E+03  0.50000000000E+03  0.47000000000E+01 0.  1.
</event>
<event>
 4    1  0.4351282E-004  0.1000000E+04  0.7546771E-02  0.8684367E-01
         11   -1    0    0    0    0  0.00000000000E+00  0.00000000000E+00  0.50000000000E+03  0.50000000000E+03  0.00000000000E+00 0. -1.
        -11   -1    0    0    0    0 -0.00000000000E+00 -0.00000000000E+00 -0.50000000000E+03  0.50000000000E+03  0.00000000000E+00 0.  1.
          5    1    1    2  501    0 -0.40473826347E+03  0.28668101174E+03  0.63078091174E+02  0.50000000000E+03  0.47000000000E+01 0. -1.
         -5    1    1    2    0  501  0.40473826347E+03 -0.28668101174E+03 -0.63078091174E+02  0.50000000000E+03  0.47000000000E+01 0.  1.
</event>
<event>
 4    1  0.4351282E-004  0.1000000E+04  0.7546771E-02  0.8684367E-01
         11   -1    0    0    0    0  0.00000000000E+00  0.00000000000E+00  0.50000000000E+03  0.50000000000E+03  0.00000000000E+00 0. -1.
        -11   -1    0    0    0    0 -0.00000000000E+00 -0.00000000000E+00 -0.50000000000E+03  0.50000000000E+03  0.00000000000E+00 0.  1.
          5    1    1    2  501    0 -0.34871754879E+02  0.62912941986E+02  0.49477654799E+03  0.50000000000E+03  0.47000000000E+01 0. -1.
         -5    1    1    2    0  501  0.34871754879E+02 -0.62912941986E+02 -0.49477654799E+03  0.50000000000E+03  0.47000000000E+01 0.  1.
</event>
<event>
 4    1  0.4351282E-004  0.1000000E+04  0.7546771E-02  0.8684367E-01
         11   -1    0    0    0    0  0.00000000000E+00  0.00000000000E+00  0.50000000000E+03  0.50000000000E+03  0.00000000000E+00 0. -1.
        -11   -1    0    0    0    0 -0.00000000000E+00 -0.00000000000E+00 -0.50000000000E+03  0.50000000000E+03  0.00000000000E+00 0.  1.
          5    1    1    2  501    0 -0.72501064668E+01  0.13311827233E+03  0.48187640690E+03  0.50000000000E+03  0.47000000000E+01 0. -1.
         -5    1    1    2    0  501  0.72501064668E+01 -0.13311827233E+03 -0.48187640690E+03  0.50000000000E+03  0.47000000000E+01 0.  1.
</event>
<event>
 4    1  0.4351282E-004  0.1000000E+04  0.7546771E-02  0.8684367E-01
         11   -1    0    0    0    0  0.00000000000E+00  0.00000000000E+00  0.50000000000E+03  0.50000000000E+03  0.00000000000E+00 0.  1.
        -11   -1    0    0    0    0 -0.00000000000E+00 -0.00000000000E+00 -0.50000000000E+03  0.50000000000E+03  0.00000000000E+00 0. -1.
          5    1    1    2  501    0  0.12964526700E+03 -0.33310012235E+02  0.48172653843E+03  0.50000000000E+03  0.47000000000E+01 0.  1.
         -5    1    1    2    0  501 -0.12964526700E+03  0.33310012235E+02 -0.48172653843E+03  0.50000000000E+03  0.47000000000E+01 0. -1.
</event>
<event>
 4    1  0.4351282E-004  0.1000000E+04  0.7546771E-02  0.8684367E-01
         11   -1    0    0    0    0  0.00000000000E+00  0.00000000000E+00  0.50000000000E+03  0.50000000000E+03  0.00000000000E+00 0. -1.
        -11   -1    0    0    0    0 -0.00000000000E+00 -0.00000000000E+00 -0.50000000000E+03  0.50000000000E+03  0.00000000000E+00 0.  1.
          5    1    1    2  501    0 -0.52141556342E+02 -0.44154817019E+03  0.22867964821E+03  0.50000000000E+03  0.47000000000E+01 0. -1.
         -5    1    1    2    0  501  0.52141556342E+02  0.44154817019E+03 -0.22867964821E+03  0.50000000000E+03  0.47000000000E+01 0.  1.
</event>
<event>
 4    1  0.4351282E-004  0.1000000E+04  0.7546771E-02  0.8684367E-01
         11   -1    0    0    0    0  0.00000000000E+00  0.00000000000E+00  0.50000000000E+03  0.50000000000E+03  0.00000000000E+00 0. -1.
        -11   -1    0    0    0    0 -0.00000000000E+00 -0.00000000000E+00 -0.50000000000E+03  0.50000000000E+03  0.00000000000E+00 0.  1.
          5    1    1    2  501    0 -0.14875783027E+02  0.18722925280E+02  0.49940571998E+03  0.50000000000E+03  0.47000000000E+01 0. -1.
         -5    1    1    2    0  501  0.14875783027E+02 -0.18722925280E+02 -0.49940571998E+03  0.50000000000E+03  0.47000000000E+01 0.  1.
</event>
<event>
 4    1  0.4351282E-004  0.1000000E+04  0.7546771E-02  0.8684367E-01
         11   -1    0    0    0    0  0.00000000000E+00  0.00000000000E+00  0.50000000000E+03  0.50000000000E+03  0.00000000000E+00 0.  1.
        -11   -1    0    0    0    0 -0.00000000000E+00 -0.00000000000E+00 -0.50000000000E+03  0.50000000000E+03  0.00000000000E+00 0. -1.
          5    1    1    2  501    0  0.15828521340E+03  0.19254616245E+03 -0.43341628551E+03  0.50000000000E+03  0.47000000000E+01 0. -1.
         -5    1    1    2    0  501 -0.15828521340E+03 -0.19254616245E+03  0.43341628551E+03  0.50000000000E+03  0.47000000000E+01 0.  1.
</event>
<event>
 4    1  0.4351282E-004  0.1000000E+04  0.7546771E-02  0.8684367E-01
         11   -1    0    0    0    0  0.00000000000E+00  0.00000000000E+00  0.50000000000E+03  0.50000000000E+03  0.00000000000E+00 0. -1.
        -11   -1    0    0    0    0 -0.00000000000E+00 -0.00000000000E+00 -0.50000000000E+03  0.50000000000E+03  0.00000000000E+00 0.  1.
          5    1    1    2  501    0  0.13421733254E+03 -0.45320438320E+03  0.16300124138E+03  0.50000000000E+03  0.47000000000E+01 0. -1.
         -5    1    1    2    0  501 -0.13421733254E+03  0.45320438320E+03 -0.16300124138E+03  0.50000000000E+03  0.47000000000E+01 0.  1.
</event>
<event>
 4    1  0.4351282E-004  0.1000000E+04  0.7546771E-02  0.8684367E-01
         11   -1    0    0    0    0  0.00000000000E+00  0.00000000000E+00  0.50000000000E+03  0.50000000000E+03  0.00000000000E+00 0. -1.
        -11   -1    0    0    0    0 -0.00000000000E+00 -0.00000000000E+00 -0.50000000000E+03  0.50000000000E+03  0.00000000000E+00 0.  1.
          5    1    1    2  501    0  0.21091238636E+03 -0.25611343089E+03  0.37403179785E+03  0.50000000000E+03  0.47000000000E+01 0. -1.
         -5    1    1    2    0  501 -0.21091238636E+03  0.25611343089E+03 -0.37403179785E+03  0.50000000000E+03  0.47000000000E+01 0.  1.
</event>
<event>
 4    1  0.4351282E-004  0.1000000E+04  0.7546771E-02  0.8684367E-01
         11   -1    0    0    0    0  0.00000000000E+00  0.00000000000E+00  0.50000000000E+03  0.50000000000E+03  0.00000000000E+00 0.  1.
        -11   -1    0    0    0    0 -0.00000000000E+00 -0.00000000000E+00 -0.50000000000E+03  0.50000000000E+03  0.00000000000E+00 0. -1.
          5    1    1    2  501    0  0.12704244414E+02 -0.33977762068E+03  0.36656197383E+03  0.50000000000E+03  0.47000000000E+01 0.  1.
         -5    1    1    2    0  501 -0.12704244414E+02  0.33977762068E+03 -0.36656197383E+03  0.50000000000E+03  0.47000000000E+01 0. -1.
</event>
<event>
 4    1  0.4351282E-004  0.1000000E+04  0.7546771E-02  0.8684367E-01
         11   -1    0    0    0    0  0.00000000000E+00  0.00000000000E+00  0.50000000000E+03  0.50000000000E+03  0.00000000000E+00 0.  1.
        -11   -1    0    0    0    0 -0.00000000000E+00 -0.00000000000E+00 -0.50000000000E+03  0.50000000000E+03  0.00000000000E+00 0. -1.
          5    1    1    2  501    0 -0.43212153674E+03 -0.14934131241E+03  0.20235132786E+03  0.50000000000E+03  0.47000000000E+01 0.  1.
         -5    1    1    2    0  501  0.43212153674E+03  0.14934131241E+03 -0.20235132786E+03  0.50000000000E+03  0.47000000000E+01 0. -1.
</event>
<event>
 4    1  0.4351282E-004  0.1000000E+04  0.7546771E-02  0.8684367E-01
         11   -1    0    0    0    0  0.00000000000E+00  0.00000000000E+00  0.50000000000E+03  0.50000000000E+03  0.00000000000E+00 0.  1.
        -11   -1    0    0    0    0 -0.00000000000E+00 -0.00000000000E+00 -0.50000000000E+03  0.50000000000E+03  0.00000000000E+00 0. -1.
          5    1    1    2  501    0  0.27715899190E+03 -0.41322843542E+03  0.49021050243E+02  0.50000000000E+03  0.47000000000E+01 0.  1.
         -5    1    1    2    0  501 -0.27715899190E+03  0.41322843542E+03 -0.49021050243E+02  0.50000000000E+03  0.47000000000E+01 0. -1.
</event>
<event>
 4    1  0.4351282E-004  0.1000000E+04  0.7546771E-02  0.8684367E-01
         11   -1    0    0    0    0  0.00000000000E+00  0.00000000000E+00  0.50000000000E+03  0.50000000000E+03  0.00000000000E+00 0. -1.
        -11   -1    0    0    0    0 -0.00000000000E+00 -0.00000000000E+00 -0.50000000000E+03  0.50000000000E+03  0.00000000000E+00 0.  1.
          5    1    1    2  501    0  0.21417979920E+03 -0.10487728883E+03  0.43943791132E+03  0.50000000000E+03  0.47000000000E+01 0. -1.
         -5    1    1    2    0  501 -0.21417979920E+03  0.10487728883E+03 -0.43943791132E+03  0.50000000000E+03  0.47000000000E+01 0.  1.
</event>
<event>
 4    1  0.4351282E-004  0.1000000E+04  0.7546771E-02  0.8684367E-01
         11   -1    0    0    0    0  0.00000000000E+00  0.00000000000E+00  0.50000000000E+03  0.50000000000E+03  0.00000000000E+00 0. -1.
        -11   -1    0    0    0    0 -0.00000000000E+00 -0.00000000000E+00 -0.50000000000E+03  0.50000000000E+03  0.00000000000E+00 0.  1.
          5    1    1    2  501    0 -0.24368174799E+03 -0.16362196414E+03  0.40475297225E+03  0.50000000000E+03  0.47000000000E+01 0. -1.
         -5    1    1    2    0  501  0.24368174799E+03  0.16362196414E+03 -0.40475297225E+03  0.50000000000E+03  0.47000000000E+01 0.  1.
</event>
<event>
 4    1  0.4351282E-004  0.1000000E+04  0.7546771E-02  0.8684367E-01
         11   -1    0    0    0    0  0.00000000000E+00  0.00000000000E+00  0.50000000000E+03  0.50000000000E+03  0.00000000000E+00 0. -1.
        -11   -1    0    0    0    0 -0.00000000000E+00 -0.00000000000E+00 -0.50000000000E+03  0.50000000000E+03  0.00000000000E+00 0.  1.
          5    1    1    2  501    0 -0.38883281591E+03  0.29868097912E+03 -0.97860226780E+02  0.50000000000E+03  0.47000000000E+01 0. -1.
         -5    1    1    2    0  501  0.38883281591E+03 -0.29868097912E+03  0.97860226780E+02  0.50000000000E+03  0.47000000000E+01 0.  1.
</event>
<event>
 4    1  0.4351282E-004  0.1000000E+04  0.7546771E-02  0.8684367E-01
         11   -1    0    0    0    0  0.00000000000E+00  0.00000000000E+00  0.50000000000E+03  0.50000000000E+03  0.00000000000E+00 0.  1.
        -11   -1    0    0    0    0 -0.00000000000E+00 -0.00000000000E+00 -0.50000000000E+03  0.50000000000E+03  0.00000000000E+00 0. -1.
          5    1    1    2  501    0  0.29521501049E+03  0.18198424405E+03 -0.36014961127E+03  0.50000000000E+03  0.47000000000E+01 0. -1.
         -5    1    1    2    0  501 -0.29521501049E+03 -0.18198424405E+03  0.36014961127E+03  0.50000000000E+03  0.47000000000E+01 0.  1.
</event>
<event>
 4    1  0.4351282E-004  0.1000000E+04  0.7546771E-02  0.8684367E-01
         11   -1    0    0    0    0  0.00000000000E+00  0.00000000000E+00  0.50000000000E+03  0.50000000000E+03  0.00000000000E+00 0. -1.
        -11   -1    0    0    0    0 -0.00000000000E+00 -0.00000000000E+00 -0.50000000000E+03  0.50000000000E+03  0.00000000000E+00 0.  1.
          5    1    1    2  501    0  0.89148461056E+02  0.40860424528E+03  0.27399458504E+03  0.50000000000E+03  0.47000000000E+01 0. -1.
         -5    1    1    2    0  501 -0.89148461056E+02 -0.40860424528E+03 -0.27399458504E+03  0.50000000000E+03  0.47000000000E+01 0.  1.
</event>
<event>
 4    1  0.4351282E-004  0.1000000E+04  0.7546771E-02  0.8684367E-01
         11   -1    0    0    0    0  0.00000000000E+00  0.00000000000E+00  0.50000000000E+03  0.50000000000E+03  0.00000000000E+00 0. -1.
        -11   -1    0    0    0    0 -0.00000000000E+00 -0.00000000000E+00 -0.50000000000E+03  0.50000000000E+03  0.00000000000E+00 0.  1.
          5    1    1    2  501    0  0.48196186469E+03 -0.13062556331E+03 -0.25052608514E+02  0.50000000000E+03  0.47000000000E+01 0. -1.
         -5    1    1    2    0  501 -0.48196186469E+03  0.13062556331E+03  0.25052608514E+02  0.50000000000E+03  0.47000000000E+01 0.  1.
</event>
<event>
 4    1  0.4351282E-004  0.1000000E+04  0.7546771E-02  0.8684367E-01
         11   -1    0    0    0    0  0.00000000000E+00  0.00000000000E+00  0.50000000000E+03  0.50000000000E+03  0.00000000000E+00 0. -1.
        -11   -1    0    0    0    0 -0.00000000000E+00 -0.00000000000E+00 -0.50000000000E+03  0.50000000000E+03  0.00000000000E+00 0.  1.
          5    1    1    2  501    0  0.27408358879E+03 -0.40047506475E+03  0.12031549723E+03  0.50000000000E+03  0.47000000000E+01 0. -1.
         -5    1    1    2    0  501 -0.27408358879E+03  0.40047506475E+03 -0.12031549723E+03  0.50000000000E+03  0.47000000000E+01 0.  1.
</event>
<event>
 4    1  0.4351282E-004  0.1000000E+04  0.7546771E-02  0.8684367E-01
         11   -1    0    0    0    0  0.00000000000E+00  0.00000000000E+00  0.50000000000E+03  0.50000000000E+03  0.00000000000E+00 0. -1.
        -11   -1    0    0    0    0 -0.00000000000E+00 -0.00000000000E+00 -0.50000000000E+03  0.50000000000E+03  0.00000000000E+00 0.  1.
          5    1    1    2  501    0 -0.26330516343E+03 -0.30678851701E+03  0.29415830218E+03  0.50000000000E+03  0.47000000000E+01 0. -1.
         -5    1    1    2    0  501  0.26330516343E+03  0.30678851701E+03 -0.29415830218E+03  0.50000000000E+03  0.47000000000E+01 0.  1.
</event>
<event>
 4    1  0.4351282E-004  0.1000000E+04  0.7546771E-02  0.8684367E-01
         11   -1    0    0    0    0  0.00000000000E+00  0.00000000000E+00  0.50000000000E+03  0.50000000000E+03  0.00000000000E+00 0.  1.
        -11   -1    0    0    0    0 -0.00000000000E+00 -0.00000000000E+00 -0.50000000000E+03  0.50000000000E+03  0.00000000000E+00 0. -1.
          5    1    1    2  501    0 -0.62213807297E+02 -0.40114480817E+03  0.29187359431E+03  0.50000000000E+03  0.47000000000E+01 0.  1.
         -5    1    1    2    0  501  0.62213807297E+02  0.40114480817E+03 -0.29187359431E+03  0.50000000000E+03  0.47000000000E+01 0. -1.
</event>
<event>
 4    1  0.4351282E-004  0.1000000E+04  0.7546771E-02  0.8684367E-01
         11   -1    0    0    0    0  0.00000000000E+00  0.00000000000E+00  0.50000000000E+03  0.50000000000E+03  0.00000000000E+00 0. -1.
        -11   -1    0    0    0    0 -0.00000000000E+00 -0.00000000000E+00 -0.50000000000E+03  0.50000000000E+03  0.00000000000E+00 0.  1.
          5    1    1    2  501    0  0.13505186653E+03  0.37972529537E+03  0.29588444265E+03  0.50000000000E+03  0.47000000000E+01 0. -1.
         -5    1    1    2    0  501 -0.13505186653E+03 -0.37972529537E+03 -0.29588444265E+03  0.50000000000E+03  0.47000000000E+01 0.  1.
</event>
<event>
 4    1  0.4351282E-004  0.1000000E+04  0.7546771E-02  0.8684367E-01
         11   -1    0    0    0    0  0.00000000000E+00  0.00000000000E+00  0.50000000000E+03  0.50000000000E+03  0.00000000000E+00 0. -1.
        -11   -1    0    0    0    0 -0.00000000000E+00 -0.00000000000E+00 -0.50000000000E+03  0.50000000000E+03  0.00000000000E+00 0.  1.
          5    1    1    2  501    0  0.41340468957E+03  0.15015717077E+03 -0.23775469861E+03  0.50000000000E+03  0.47000000000E+01 0. -1.
         -5    1    1    2    0  501 -0.41340468957E+03 -0.15015717077E+03  0.23775469861E+03  0.50000000000E+03  0.47000000000E+01 0.  1.
</event>
<event>
 4    1  0.4351282E-004  0.1000000E+04  0.7546771E-02  0.8684367E-01
         11   -1    0    0    0    0  0.00000000000E+00  0.00000000000E+00  0.50000000000E+03  0.50000000000E+03  0.00000000000E+00 0.  1.
        -11   -1    0    0    0    0 -0.00000000000E+00 -0.00000000000E+00 -0.50000000000E+03  0.50000000000E+03  0.00000000000E+00 0. -1.
          5    1    1    2  501    0  0.29240139626E+02 -0.40706280029E+03  0.28883005532E+03  0.50000000000E+03  0.47000000000E+01 0.  1.
         -5    1    1    2    0  501 -0.29240139626E+02  0.40706280029E+03 -0.28883005532E+03  0.50000000000E+03  0.47000000000E+01 0. -1.
</event>
<event>
 4    1  0.4351282E-004  0.1000000E+04  0.7546771E-02  0.8684367E-01
         11   -1    0    0    0    0  0.00000000000E+00  0.00000000000E+00  0.50000000000E+03  0.50000000000E+03  0.00000000000E+00 0. -1.
        -11   -1    0    0    0    0 -0.00000000000E+00 -0.00000000000E+00 -0.50000000000E+03  0.50000000000E+03  0.00000000000E+00 0.  1.
          5    1    1    2  501    0 -0.22485594262E+03 -0.28892643935E+03  0.34049849884E+03  0.50000000000E+03  0.47000000000E+01 0. -1.
         -5    1    1    2    0  501  0.22485594262E+03  0.28892643935E+03 -0.34049849884E+03  0.50000000000E+03  0.47000000000E+01 0.  1.
</event>
<event>
 4    1  0.4351282E-004  0.1000000E+04  0.7546771E-02  0.8684367E-01
         11   -1    0    0    0    0  0.00000000000E+00  0.00000000000E+00  0.50000000000E+03  0.50000000000E+03  0.00000000000E+00 0. -1.
        -11   -1    0    0    0    0 -0.00000000000E+00 -0.00000000000E+00 -0.50000000000E+03  0.50000000000E+03  0.00000000000E+00 0.  1.
          5    1    1    2  501    0  0.17803248833E+03  0.46278941153E+03  0.64096050410E+02  0.50000000000E+03  0.47000000000E+01 0. -1.
         -5    1    1    2    0  501 -0.17803248833E+03 -0.46278941153E+03 -0.64096050410E+02  0.50000000000E+03  0.47000000000E+01 0.  1.
</event>
<event>
 4    1  0.4351282E-004  0.1000000E+04  0.7546771E-02  0.8684367E-01
         11   -1    0    0    0    0  0.00000000000E+00  0.00000000000E+00  0.50000000000E+03  0.50000000000E+03  0.00000000000E+00 0. -1.
        -11   -1    0    0    0    0 -0.00000000000E+00 -0.00000000000E+00 -0.50000000000E+03  0.50000000000E+03  0.00000000000E+00 0.  1.
          5    1    1    2  501    0 -0.30985487864E+03 -0.13811413153E+03  0.36727694027E+03  0.50000000000E+03  0.47000000000E+01 0. -1.
         -5    1    1    2    0  501  0.30985487864E+03  0.13811413153E+03 -0.36727694027E+03  0.50000000000E+03  0.47000000000E+01 0.  1.
</event>
<event>
 4    1  0.4351282E-004  0.1000000E+04  0.7546771E-02  0.8684367E-01
         11   -1    0    0    0    0  0.00000000000E+00  0.00000000000E+00  0.50000000000E+03  0.50000000000E+03  0.00000000000E+00 0.  1.
        -11   -1    0    0    0    0 -0.00000000000E+00 -0.00000000000E+00 -0.50000000000E+03  0.50000000000E+03  0.00000000000E+00 0. -1.
          5    1    1    2  501    0 -0.37701248000E+03  0.83281507663E+02 -0.31765341239E+03  0.50000000000E+03  0.47000000000E+01 0. -1.
         -5    1    1    2    0  501  0.37701248000E+03 -0.83281507663E+02  0.31765341239E+03  0.50000000000E+03  0.47000000000E+01 0.  1.
</event>
<event>
 4    1  0.4351282E-004  0.1000000E+04  0.7546771E-02  0.8684367E-01
         11   -1    0    0    0    0  0.00000000000E+00  0.00000000000E+00  0.50000000000E+03  0.50000000000E+03  0.00000000000E+00 0. -1.
        -11   -1    0    0    0    0 -0.00000000000E+00 -0.00000000000E+00 -0.50000000000E+03  0.50000000000E+03  0.00000000000E+00 0.  1.
          5    1    1    2  501    0  0.11680218109E+03 -0.27873990544E+03  0.39829539993E+03  0.50000000000E+03  0.47000000000E+01 0. -1.
         -5    1    1    2    0  501 -0.11680218109E+03  0.27873990544E+03 -0.39829539993E+03  0.50000000000E+03  0.47000000000E+01 0.  1.
</event>
<event>
 4    1  0.4351282E-004  0.1000000E+04  0.7546771E-02  0.8684367E-01
         11   -1    0    0    0    0  0.00000000000E+00  0.00000000000E+00  0.50000000000E+03  0.50000000000E+03  0.00000000000E+00 0. -1.
        -11   -1    0    0    0    0 -0.00000000000E+00 -0.00000000000E+00 -0.50000000000E+03  0.50000000000E+03  0.00000000000E+00 0.  1.
          5    1    1    2  501    0 -0.16808897519E+03 -0.43685805960E+03 -0.17572433578E+03  0.50000000000E+03  0.47000000000E+01 0. -1.
         -5    1    1    2    0  501  0.16808897519E+03  0.43685805960E+03  0.17572433578E+03  0.50000000000E+03  0.47000000000E+01 0.  1.
</event>
<event>
 4    1  0.4351282E-004  0.1000000E+04  0.7546771E-02  0.8684367E-01
         11   -1    0    0    0    0  0.00000000000E+00  0.00000000000E+00  0.50000000000E+03  0.50000000000E+03  0.00000000000E+00 0. -1.
        -11   -1    0    0    0    0 -0.00000000000E+00 -0.00000000000E+00 -0.50000000000E+03  0.50000000000E+03  0.00000000000E+00 0.  1.
          5    1    1    2  501    0  0.45509213705E+03  0.19548848675E+03 -0.68215162160E+02  0.50000000000E+03  0.47000000000E+01 0. -1.
         -5    1    1    2    0  501 -0.45509213705E+03 -0.19548848675E+03  0.68215162160E+02  0.50000000000E+03  0.47000000000E+01 0.  1.
</event>
<event>
 4    1  0.4351282E-004  0.1000000E+04  0.7546771E-02  0.8684367E-01
         11   -1    0    0    0    0  0.00000000000E+00  0.00000000000E+00  0.50000000000E+03  0.50000000000E+03  0.00000000000E+00 0. -1.
        -11   -1    0    0    0    0 -0.00000000000E+00 -0.00000000000E+00 -0.50000000000E+03  0.50000000000E+03  0.00000000000E+00 0.  1.
          5    1    1    2  501    0  0.13011720867E+03 -0.15718975607E+03  0.45644145582E+03  0.50000000000E+03  0.47000000000E+01 0. -1.
         -5    1    1    2    0  501 -0.13011720867E+03  0.15718975607E+03 -0.45644145582E+03  0.50000000000E+03  0.47000000000E+01 0.  1.
</event>
<event>
 4    1  0.4351282E-004  0.1000000E+04  0.7546771E-02  0.8684367E-01
         11   -1    0    0    0    0  0.00000000000E+00  0.00000000000E+00  0.50000000000E+03  0.50000000000E+03  0.00000000000E+00 0.  1.
        -11   -1    0    0    0    0 -0.00000000000E+00 -0.00000000000E+00 -0.50000000000E+03  0.50000000000E+03  0.00000000000E+00 0. -1.
          5    1    1    2  501    0  0.36026183420E+03  0.21847463659E+03  0.26918052304E+03  0.50000000000E+03  0.47000000000E+01 0.  1.
         -5    1    1    2    0  501 -0.36026183420E+03 -0.21847463659E+03 -0.26918052304E+03  0.50000000000E+03  0.47000000000E+01 0. -1.
</event>
<event>
 4    1  0.4351282E-004  0.1000000E+04  0.7546771E-02  0.8684367E-01
         11   -1    0    0    0    0  0.00000000000E+00  0.00000000000E+00  0.50000000000E+03  0.50000000000E+03  0.00000000000E+00 0. -1.
        -11   -1    0    0    0    0 -0.00000000000E+00 -0.00000000000E+00 -0.50000000000E+03  0.50000000000E+03  0.00000000000E+00 0.  1.
          5    1    1    2  501    0 -0.36008004236E+03 -0.14441814506E+03  0.31537861765E+03  0.50000000000E+03  0.47000000000E+01 0. -1.
         -5    1    1    2    0  501  0.36008004236E+03  0.14441814506E+03 -0.31537861765E+03  0.50000000000E+03  0.47000000000E+01 0.  1.
</event>
<event>
 4    1  0.4351282E-004  0.1000000E+04  0.7546771E-02  0.8684367E-01
         11   -1    0    0    0    0  0.00000000000E+00  0.00000000000E+00  0.50000000000E+03  0.50000000000E+03  0.00000000000E+00 0. -1.
        -11   -1    0    0    0    0 -0.00000000000E+00 -0.00000000000E+00 -0.50000000000E+03  0.50000000000E+03  0.00000000000E+00 0.  1.
          5    1    1    2  501    0  0.20152595977E+03 -0.25980286452E+03  0.37665324786E+03  0.50000000000E+03  0.47000000000E+01 0. -1.
         -5    1    1    2    0  501 -0.20152595977E+03  0.25980286452E+03 -0.37665324786E+03  0.50000000000E+03  0.47000000000E+01 0.  1.
</event>
<event>
 4    1  0.4351282E-004  0.1000000E+04  0.7546771E-02  0.8684367E-01
         11   -1    0    0    0    0  0.00000000000E+00  0.00000000000E+00  0.50000000000E+03  0.50000000000E+03  0.00000000000E+00 0. -1.
        -11   -1    0    0    0    0 -0.00000000000E+00 -0.00000000000E+00 -0.50000000000E+03  0.50000000000E+03  0.00000000000E+00 0.  1.
          5    1    1    2  501    0  0.10599104043E+03  0.29798156240E+03  0.38723480967E+03  0.50000000000E+03  0.47000000000E+01 0. -1.
         -5    1    1    2    0  501 -0.10599104043E+03 -0.29798156240E+03 -0.38723480967E+03  0.50000000000E+03  0.47000000000E+01 0.  1.
</event>
<event>
 4    1  0.4351282E-004  0.1000000E+04  0.7546771E-02  0.8684367E-01
         11   -1    0    0    0    0  0.00000000000E+00  0.00000000000E+00  0.50000000000E+03  0.50000000000E+03  0.00000000000E+00 0. -1.
        -11   -1    0    0    0    0 -0.00000000000E+00 -0.00000000000E+00 -0.50000000000E+03  0.50000000000E+03  0.00000000000E+00 0.  1.
          5    1    1    2  501    0 -0.17683873355E+03  0.37963904517E+03  0.27309369766E+03  0.50000000000E+03  0.47000000000E+01 0. -1.
         -5    1    1    2    0  501  0.17683873355E+03 -0.37963904517E+03 -0.27309369766E+03  0.50000000000E+03  0.47000000000E+01 0.  1.
</event>
<event>
 4    1  0.4351282E-004  0.1000000E+04  0.7546771E-02  0.8684367E-01
         11   -1    0    0    0    0  0.00000000000E+00  0.00000000000E+00  0.50000000000E+03  0.50000000000E+03  0.00000000000E+00 0. -1.
        -11   -1    0    0    0    0 -0.00000000000E+00 -0.00000000000E+00 -0.50000000000E+03  0.50000000000E+03  0.00000000000E+00 0.  1.
          5    1    1    2  501    0 -0.13323242185E+03 -0.31238602359E+03  0.36693596721E+03  0.50000000000E+03  0.47000000000E+01 0. -1.
         -5    1    1    2    0  501  0.13323242185E+03  0.31238602359E+03 -0.36693596721E+03  0.50000000000E+03  0.47000000000E+01 0.  1.
</event>
<event>
 4    1  0.4351282E-004  0.1000000E+04  0.7546771E-02  0.8684367E-01
         11   -1    0    0    0    0  0.00000000000E+00  0.00000000000E+00  0.50000000000E+03  0.50000000000E+03  0.00000000000E+00 0. -1.
        -11   -1    0    0    0    0 -0.00000000000E+00 -0.00000000000E+00 -0.50000000000E+03  0.50000000000E+03  0.00000000000E+00 0.  1.
          5    1    1    2  501    0 -0.11828468016E+03 -0.13488988514E+03  0.46668122239E+03  0.50000000000E+03  0.47000000000E+01 0. -1.
         -5    1    1    2    0  501  0.11828468016E+03  0.13488988514E+03 -0.46668122239E+03  0.50000000000E+03  0.47000000000E+01 0.  1.
</event>
<event>
 4    1  0.4351282E-004  0.1000000E+04  0.7546771E-02  0.8684367E-01
         11   -1    0    0    0    0  0.00000000000E+00  0.00000000000E+00  0.50000000000E+03  0.50000000000E+03  0.00000000000E+00 0. -1.
        -11   -1    0    0    0    0 -0.00000000000E+00 -0.00000000000E+00 -0.50000000000E+03  0.50000000000E+03  0.00000000000E+00 0.  1.
          5    1    1    2  501    0  0.34633550982E+03 -0.24856164458E+03  0.26124075770E+03  0.50000000000E+03  0.47000000000E+01 0. -1.
         -5    1    1    2    0  501 -0.34633550982E+03  0.24856164458E+03 -0.26124075770E+03  0.50000000000E+03  0.47000000000E+01 0.  1.
</event>
<event>
 4    1  0.4351282E-004  0.1000000E+04  0.7546771E-02  0.8684367E-01
         11   -1    0    0    0    0  0.00000000000E+00  0.00000000000E+00  0.50000000000E+03  0.50000000000E+03  0.00000000000E+00 0. -1.
        -11   -1    0    0    0    0 -0.00000000000E+00 -0.00000000000E+00 -0.50000000000E+03  0.50000000000E+03  0.00000000000E+00 0.  1.
          5    1    1    2  501    0 -0.32322767975E+03 -0.28627227695E+03 -0.25209117496E+03  0.50000000000E+03  0.47000000000E+01 0. -1.
         -5    1    1    2    0  501  0.32322767975E+03  0.28627227695E+03  0.25209117496E+03  0.50000000000E+03  0.47000000000E+01 0.  1.
</event>
<event>
 4    1  0.4351282E-004  0.1000000E+04  0.7546771E-02  0.8684367E-01
         11   -1    0    0    0    0  0.00000000000E+00  0.00000000000E+00  0.50000000000E+03  0.50000000000E+03  0.00000000000E+00 0. -1.
        -11   -1    0    0    0    0 -0.00000000000E+00 -0.00000000000E+00 -0.50000000000E+03  0.50000000000E+03  0.00000000000E+00 0.  1.
          5    1    1    2  501    0 -0.45548154062E+03  0.17462197094E+03  0.10964325524E+03  0.50000000000E+03  0.47000000000E+01 0. -1.
         -5    1    1    2    0  501  0.45548154062E+03 -0.17462197094E+03 -0.10964325524E+03  0.50000000000E+03  0.47000000000E+01 0.  1.
</event>
<event>
 4    1  0.4351282E-004  0.1000000E+04  0.7546771E-02  0.8684367E-01
         11   -1    0    0    0    0  0.00000000000E+00  0.00000000000E+00  0.50000000000E+03  0.50000000000E+03  0.00000000000E+00 0. -1.
        -11   -1    0    0    0    0 -0.00000000000E+00 -0.00000000000E+00 -0.50000000000E+03  0.50000000000E+03  0.00000000000E+00 0.  1.
          5    1    1    2  501    0 -0.29731241284E+03 -0.39127415543E+03 -0.92129118424E+02  0.50000000000E+03  0.47000000000E+01 0. -1.
         -5    1    1    2    0  501  0.29731241284E+03  0.39127415543E+03  0.92129118424E+02  0.50000000000E+03  0.47000000000E+01 0.  1.
</event>
<event>
 4    1  0.4351282E-004  0.1000000E+04  0.7546771E-02  0.8684367E-01
         11   -1    0    0    0    0  0.00000000000E+00  0.00000000000E+00  0.50000000000E+03  0.50000000000E+03  0.00000000000E+00 0. -1.
        -11   -1    0    0    0    0 -0.00000000000E+00 -0.00000000000E+00 -0.50000000000E+03  0.50000000000E+03  0.00000000000E+00 0.  1.
          5    1    1    2  501    0  0.26010923960E+03  0.11072251575E+03  0.41238527857E+03  0.50000000000E+03  0.47000000000E+01 0. -1.
         -5    1    1    2    0  501 -0.26010923960E+03 -0.11072251575E+03 -0.41238527857E+03  0.50000000000E+03  0.47000000000E+01 0.  1.
</event>
<event>
 4    1  0.4351282E-004  0.1000000E+04  0.7546771E-02  0.8684367E-01
         11   -1    0    0    0    0  0.00000000000E+00  0.00000000000E+00  0.50000000000E+03  0.50000000000E+03  0.00000000000E+00 0. -1.
        -11   -1    0    0    0    0 -0.00000000000E+00 -0.00000000000E+00 -0.50000000000E+03  0.50000000000E+03  0.00000000000E+00 0.  1.
          5    1    1    2  501    0  0.19403476740E+03 -0.15563956841E+02  0.46052815580E+03  0.50000000000E+03  0.47000000000E+01 0. -1.
         -5    1    1    2    0  501 -0.19403476740E+03  0.15563956841E+02 -0.46052815580E+03  0.50000000000E+03  0.47000000000E+01 0.  1.
</event>
<event>
 4    1  0.4351282E-004  0.1000000E+04  0.7546771E-02  0.8684367E-01
         11   -1    0    0    0    0  0.00000000000E+00  0.00000000000E+00  0.50000000000E+03  0.50000000000E+03  0.00000000000E+00 0. -1.
        -11   -1    0    0    0    0 -0.00000000000E+00 -0.00000000000E+00 -0.50000000000E+03  0.50000000000E+03  0.00000000000E+00 0.  1.
          5    1    1    2  501    0 -0.17917927088E+03 -0.19313854408E+03  0.42493552650E+03  0.50000000000E+03  0.47000000000E+01 0. -1.
         -5    1    1    2    0  501  0.17917927088E+03  0.19313854408E+03 -0.42493552650E+03  0.50000000000E+03  0.47000000000E+01 0.  1.
</event>
<event>
 4    1  0.4351282E-004  0.1000000E+04  0.7546771E-02  0.8684367E-01
         11   -1    0    0    0    0  0.00000000000E+00  0.00000000000E+00  0.50000000000E+03  0.50000000000E+03  0.00000000000E+00 0. -1.
        -11   -1    0    0    0    0 -0.00000000000E+00 -0.00000000000E+00 -0.50000000000E+03  0.50000000000E+03  0.00000000000E+00 0.  1.
          5    1    1    2  501    0  0.29933886337E+03 -0.15079998032E+03  0.37098992009E+03  0.50000000000E+03  0.47000000000E+01 0. -1.
         -5    1    1    2    0  501 -0.29933886337E+03  0.15079998032E+03 -0.37098992009E+03  0.50000000000E+03  0.47000000000E+01 0.  1.
</event>
<event>
 4    1  0.4351282E-004  0.1000000E+04  0.7546771E-02  0.8684367E-01
         11   -1    0    0    0    0  0.00000000000E+00  0.00000000000E+00  0.50000000000E+03  0.50000000000E+03  0.00000000000E+00 0. -1.
        -11   -1    0    0    0    0 -0.00000000000E+00 -0.00000000000E+00 -0.50000000000E+03  0.50000000000E+03  0.00000000000E+00 0.  1.
          5    1    1    2  501    0 -0.14955393592E+03  0.46007424770E+03 -0.12626645182E+03  0.50000000000E+03  0.47000000000E+01 0.  1.
         -5    1    1    2    0  501  0.14955393592E+03 -0.46007424770E+03  0.12626645182E+03  0.50000000000E+03  0.47000000000E+01 0. -1.
</event>
<event>
 4    1  0.4351282E-004  0.1000000E+04  0.7546771E-02  0.8684367E-01
         11   -1    0    0    0    0  0.00000000000E+00  0.00000000000E+00  0.50000000000E+03  0.50000000000E+03  0.00000000000E+00 0. -1.
        -11   -1    0    0    0    0 -0.00000000000E+00 -0.00000000000E+00 -0.50000000000E+03  0.50000000000E+03  0.00000000000E+00 0.  1.
          5    1    1    2  501    0  0.12143026702E+03  0.24237368268E+03  0.42010427062E+03  0.50000000000E+03  0.47000000000E+01 0. -1.
         -5    1    1    2    0  501 -0.12143026702E+03 -0.24237368268E+03 -0.42010427062E+03  0.50000000000E+03  0.47000000000E+01 0.  1.
</event>
<event>
 4    1  0.4351282E-004  0.1000000E+04  0.7546771E-02  0.8684367E-01
         11   -1    0    0    0    0  0.00000000000E+00  0.00000000000E+00  0.50000000000E+03  0.50000000000E+03  0.00000000000E+00 0. -1.
        -11   -1    0    0    0    0 -0.00000000000E+00 -0.00000000000E+00 -0.50000000000E+03  0.50000000000E+03  0.00000000000E+00 0.  1.
          5    1    1    2  501    0 -0.35911722025E+03  0.25192737380E+03 -0.23988607807E+03  0.50000000000E+03  0.47000000000E+01 0.  1.
         -5    1    1    2    0  501  0.35911722025E+03 -0.25192737380E+03  0.23988607807E+03  0.50000000000E+03  0.47000000000E+01 0. -1.
</event>
<event>
 4    1  0.4351282E-004  0.1000000E+04  0.7546771E-02  0.8684367E-01
         11   -1    0    0    0    0  0.00000000000E+00  0.00000000000E+00  0.50000000000E+03  0.50000000000E+03  0.00000000000E+00 0. -1.
        -11   -1    0    0    0    0 -0.00000000000E+00 -0.00000000000E+00 -0.50000000000E+03  0.50000000000E+03  0.00000000000E+00 0.  1.
          5    1    1    2  501    0  0.30352776106E+03  0.36437010844E+03  0.15837686807E+03  0.50000000000E+03  0.47000000000E+01 0. -1.
         -5    1    1    2    0  501 -0.30352776106E+03 -0.36437010844E+03 -0.15837686807E+03  0.50000000000E+03  0.47000000000E+01 0.  1.
</event>
<event>
 4    1  0.4351282E-004  0.1000000E+04  0.7546771E-02  0.8684367E-01
         11   -1    0    0    0    0  0.00000000000E+00  0.00000000000E+00  0.50000000000E+03  0.50000000000E+03  0.00000000000E+00 0. -1.
        -11   -1    0    0    0    0 -0.00000000000E+00 -0.00000000000E+00 -0.50000000000E+03  0.50000000000E+03  0.00000000000E+00 0.  1.
          5    1    1    2  501    0  0.79387889692E+02 -0.49269598614E+03 -0.30432518921E+02  0.50000000000E+03  0.47000000000E+01 0. -1.
         -5    1    1    2    0  501 -0.79387889692E+02  0.49269598614E+03  0.30432518921E+02  0.50000000000E+03  0.47000000000E+01 0.  1.
</event>
<event>
 4    1  0.4351282E-004  0.1000000E+04  0.7546771E-02  0.8684367E-01
         11   -1    0    0    0    0  0.00000000000E+00  0.00000000000E+00  0.50000000000E+03  0.50000000000E+03  0.00000000000E+00 0. -1.
        -11   -1    0    0    0    0 -0.00000000000E+00 -0.00000000000E+00 -0.50000000000E+03  0.50000000000E+03  0.00000000000E+00 0.  1.
          5    1    1    2  501    0  0.18501747155E+03 -0.20187870778E+02  0.46404622086E+03  0.50000000000E+03  0.47000000000E+01 0. -1.
         -5    1    1    2    0  501 -0.18501747155E+03  0.20187870778E+02 -0.46404622086E+03  0.50000000000E+03  0.47000000000E+01 0.  1.
</event>
<event>
 4    1  0.4351282E-004  0.1000000E+04  0.7546771E-02  0.8684367E-01
         11   -1    0    0    0    0  0.00000000000E+00  0.00000000000E+00  0.50000000000E+03  0.50000000000E+03  0.00000000000E+00 0. -1.
        -11   -1    0    0    0    0 -0.00000000000E+00 -0.00000000000E+00 -0.50000000000E+03  0.50000000000E+03  0.00000000000E+00 0.  1.
          5    1    1    2  501    0 -0.34015958019E+02 -0.38049505257E+03  0.32255904819E+03  0.50000000000E+03  0.47000000000E+01 0. -1.
         -5    1    1    2    0  501  0.34015958019E+02  0.38049505257E+03 -0.32255904819E+03  0.50000000000E+03  0.47000000000E+01 0.  1.
</event>
<event>
 4    1  0.4351282E-004  0.1000000E+04  0.7546771E-02  0.8684367E-01
         11   -1    0    0    0    0  0.00000000000E+00  0.00000000000E+00  0.50000000000E+03  0.50000000000E+03  0.00000000000E+00 0. -1.
        -11   -1    0    0    0    0 -0.00000000000E+00 -0.00000000000E+00 -0.50000000000E+03  0.50000000000E+03  0.00000000000E+00 0.  1.
          5    1    1    2  501    0  0.29037022994E+03  0.12411671556E+03  0.38763137190E+03  0.50000000000E+03  0.47000000000E+01 0. -1.
         -5    1    1    2    0  501 -0.29037022994E+03 -0.12411671556E+03 -0.38763137190E+03  0.50000000000E+03  0.47000000000E+01 0.  1.
</event>
<event>
 4    1  0.4351282E-004  0.1000000E+04  0.7546771E-02  0.8684367E-01
         11   -1    0    0    0    0  0.00000000000E+00  0.00000000000E+00  0.50000000000E+03  0.50000000000E+03  0.00000000000E+00 0. -1.
        -11   -1    0    0    0    0 -0.00000000000E+00 -0.00000000000E+00 -0.50000000000E+03  0.50000000000E+03  0.00000000000E+00 0.  1.
          5    1    1    2  501    0  0.29082136688E+03 -0.31823489040E+03  0.25323387826E+03  0.50000000000E+03  0.47000000000E+01 0. -1.
         -5    1    1    2    0  501 -0.29082136688E+03  0.31823489040E+03 -0.25323387826E+03  0.50000000000E+03  0.47000000000E+01 0.  1.
</event>
<event>
 4    1  0.4351282E-004  0.1000000E+04  0.7546771E-02  0.8684367E-01
         11   -1    0    0    0    0  0.00000000000E+00  0.00000000000E+00  0.50000000000E+03  0.50000000000E+03  0.00000000000E+00 0.  1.
        -11   -1    0    0    0    0 -0.00000000000E+00 -0.00000000000E+00 -0.50000000000E+03  0.50000000000E+03  0.00000000000E+00 0. -1.
          5    1    1    2  501    0  0.34086160339E+03  0.35256532455E+03 -0.97411340505E+02  0.50000000000E+03  0.47000000000E+01 0.  1.
         -5    1    1    2    0  501 -0.34086160339E+03 -0.35256532455E+03  0.97411340505E+02  0.50000000000E+03  0.47000000000E+01 0. -1.
</event>
<event>
 4    1  0.4351282E-004  0.1000000E+04  0.7546771E-02  0.8684367E-01
         11   -1    0    0    0    0  0.00000000000E+00  0.00000000000E+00  0.50000000000E+03  0.50000000000E+03  0.00000000000E+00 0. -1.
        -11   -1    0    0    0    0 -0.00000000000E+00 -0.00000000000E+00 -0.50000000000E+03  0.50000000000E+03  0.00000000000E+00 0.  1.
          5    1    1    2  501    0 -0.40269246795E+03 -0.10590051131E+03  0.27677024400E+03  0.50000000000E+03  0.47000000000E+01 0. -1.
         -5    1    1    2    0  501  0.40269246795E+03  0.10590051131E+03 -0.27677024400E+03  0.50000000000E+03  0.47000000000E+01 0.  1.
</event>
<event>
 4    1  0.4351282E-004  0.1000000E+04  0.7546771E-02  0.8684367E-01
         11   -1    0    0    0    0  0.00000000000E+00  0.00000000000E+00  0.50000000000E+03  0.50000000000E+03  0.00000000000E+00 0.  1.
        -11   -1    0    0    0    0 -0.00000000000E+00 -0.00000000000E+00 -0.50000000000E+03  0.50000000000E+03  0.00000000000E+00 0. -1.
          5    1    1    2  501    0  0.14235223812E+03 -0.28824176379E+03 -0.38292353794E+03  0.50000000000E+03  0.47000000000E+01 0. -1.
         -5    1    1    2    0  501 -0.14235223812E+03  0.28824176379E+03  0.38292353794E+03  0.50000000000E+03  0.47000000000E+01 0.  1.
</event>
<event>
 4    1  0.4351282E-004  0.1000000E+04  0.7546771E-02  0.8684367E-01
         11   -1    0    0    0    0  0.00000000000E+00  0.00000000000E+00  0.50000000000E+03  0.50000000000E+03  0.00000000000E+00 0. -1.
        -11   -1    0    0    0    0 -0.00000000000E+00 -0.00000000000E+00 -0.50000000000E+03  0.50000000000E+03  0.00000000000E+00 0.  1.
          5    1    1    2  501    0  0.27767044038E+03 -0.33920270419E+03 -0.24045490639E+03  0.50000000000E+03  0.47000000000E+01 0. -1.
         -5    1    1    2    0  501 -0.27767044038E+03  0.33920270419E+03  0.24045490639E+03  0.50000000000E+03  0.47000000000E+01 0.  1.
</event>
<event>
 4    1  0.4351282E-004  0.1000000E+04  0.7546771E-02  0.8684367E-01
         11   -1    0    0    0    0  0.00000000000E+00  0.00000000000E+00  0.50000000000E+03  0.50000000000E+03  0.00000000000E+00 0. -1.
        -11   -1    0    0    0    0 -0.00000000000E+00 -0.00000000000E+00 -0.50000000000E+03  0.50000000000E+03  0.00000000000E+00 0.  1.
          5    1    1    2  501    0 -0.24028856049E-02 -0.17683848110E+03  0.46766019886E+03  0.50000000000E+03  0.47000000000E+01 0. -1.
         -5    1    1    2    0  501  0.24028856049E-02  0.17683848110E+03 -0.46766019886E+03  0.50000000000E+03  0.47000000000E+01 0.  1.
</event>
<event>
 4    1  0.4351282E-004  0.1000000E+04  0.7546771E-02  0.8684367E-01
         11   -1    0    0    0    0  0.00000000000E+00  0.00000000000E+00  0.50000000000E+03  0.50000000000E+03  0.00000000000E+00 0.  1.
        -11   -1    0    0    0    0 -0.00000000000E+00 -0.00000000000E+00 -0.50000000000E+03  0.50000000000E+03  0.00000000000E+00 0. -1.
          5    1    1    2  501    0  0.29813633113E+03  0.91907118128E+02 -0.39069901420E+03  0.50000000000E+03  0.47000000000E+01 0. -1.
         -5    1    1    2    0  501 -0.29813633113E+03 -0.91907118128E+02  0.39069901420E+03  0.50000000000E+03  0.47000000000E+01 0.  1.
</event>
<event>
 4    1  0.4351282E-004  0.1000000E+04  0.7546771E-02  0.8684367E-01
         11   -1    0    0    0    0  0.00000000000E+00  0.00000000000E+00  0.50000000000E+03  0.50000000000E+03  0.00000000000E+00 0. -1.
        -11   -1    0    0    0    0 -0.00000000000E+00 -0.00000000000E+00 -0.50000000000E+03  0.50000000000E+03  0.00000000000E+00 0.  1.
          5    1    1    2  501    0 -0.38138415182E+03 -0.10577915619E+03  0.30550746122E+03  0.50000000000E+03  0.47000000000E+01 0. -1.
         -5    1    1    2    0  501  0.38138415182E+03  0.10577915619E+03 -0.30550746122E+03  0.50000000000E+03  0.47000000000E+01 0.  1.
</event>
<event>
 4    1  0.4351282E-004  0.1000000E+04  0.7546771E-02  0.8684367E-01
         11   -1    0    0    0    0  0.00000000000E+00  0.00000000000E+00  0.50000000000E+03  0.50000000000E+03  0.00000000000E+00 0. -1.
        -11   -1    0    0    0    0 -0.00000000000E+00 -0.00000000000E+00 -0.50000000000E+03  0.50000000000E+03  0.00000000000E+00 0.  1.
          5    1    1    2  501    0 -0.48909445137E+02 -0.34291893116E+03  0.36054456427E+03  0.50000000000E+03  0.47000000000E+01 0. -1.
         -5    1    1    2    0  501  0.48909445137E+02  0.34291893116E+03 -0.36054456427E+03  0.50000000000E+03  0.47000000000E+01 0.  1.
</event>
<event>
 4    1  0.4351282E-004  0.1000000E+04  0.7546771E-02  0.8684367E-01
         11   -1    0    0    0    0  0.00000000000E+00  0.00000000000E+00  0.50000000000E+03  0.50000000000E+03  0.00000000000E+00 0. -1.
        -11   -1    0    0    0    0 -0.00000000000E+00 -0.00000000000E+00 -0.50000000000E+03  0.50000000000E+03  0.00000000000E+00 0.  1.
          5    1    1    2  501    0 -0.37427291158E+03  0.15271874037E+03  0.29423576260E+03  0.50000000000E+03  0.47000000000E+01 0. -1.
         -5    1    1    2    0  501  0.37427291158E+03 -0.15271874037E+03 -0.29423576260E+03  0.50000000000E+03  0.47000000000E+01 0.  1.
</event>
<event>
 4    1  0.4351282E-004  0.1000000E+04  0.7546771E-02  0.8684367E-01
         11   -1    0    0    0    0  0.00000000000E+00  0.00000000000E+00  0.50000000000E+03  0.50000000000E+03  0.00000000000E+00 0. -1.
        -11   -1    0    0    0    0 -0.00000000000E+00 -0.00000000000E+00 -0.50000000000E+03  0.50000000000E+03  0.00000000000E+00 0.  1.
          5    1    1    2  501    0 -0.18225950794E+03 -0.27889651476E+03  0.37279500509E+03  0.50000000000E+03  0.47000000000E+01 0. -1.
         -5    1    1    2    0  501  0.18225950794E+03  0.27889651476E+03 -0.37279500509E+03  0.50000000000E+03  0.47000000000E+01 0.  1.
</event>
<event>
 4    1  0.4351282E-004  0.1000000E+04  0.7546771E-02  0.8684367E-01
         11   -1    0    0    0    0  0.00000000000E+00  0.00000000000E+00  0.50000000000E+03  0.50000000000E+03  0.00000000000E+00 0. -1.
        -11   -1    0    0    0    0 -0.00000000000E+00 -0.00000000000E+00 -0.50000000000E+03  0.50000000000E+03  0.00000000000E+00 0.  1.
          5    1    1    2  501    0 -0.36217010286E+03  0.13391887156E+03  0.31761055152E+03  0.50000000000E+03  0.47000000000E+01 0. -1.
         -5    1    1    2    0  501  0.36217010286E+03 -0.13391887156E+03 -0.31761055152E+03  0.50000000000E+03  0.47000000000E+01 0.  1.
</event>
<event>
 4    1  0.4351282E-004  0.1000000E+04  0.7546771E-02  0.8684367E-01
         11   -1    0    0    0    0  0.00000000000E+00  0.00000000000E+00  0.50000000000E+03  0.50000000000E+03  0.00000000000E+00 0. -1.
        -11   -1    0    0    0    0 -0.00000000000E+00 -0.00000000000E+00 -0.50000000000E+03  0.50000000000E+03  0.00000000000E+00 0.  1.
          5    1    1    2  501    0  0.27199806493E+03 -0.24233518137E+03  0.34244506500E+03  0.50000000000E+03  0.47000000000E+01 0. -1.
         -5    1    1    2    0  501 -0.27199806493E+03  0.24233518137E+03 -0.34244506500E+03  0.50000000000E+03  0.47000000000E+01 0.  1.
</event>
<event>
 4    1  0.4351282E-004  0.1000000E+04  0.7546771E-02  0.8684367E-01
         11   -1    0    0    0    0  0.00000000000E+00  0.00000000000E+00  0.50000000000E+03  0.50000000000E+03  0.00000000000E+00 0. -1.
        -11   -1    0    0    0    0 -0.00000000000E+00 -0.00000000000E+00 -0.50000000000E+03  0.50000000000E+03  0.00000000000E+00 0.  1.
          5    1    1    2  501    0 -0.43285046651E+03  0.76868812506E+02  0.23813771080E+03  0.50000000000E+03  0.47000000000E+01 0. -1.
         -5    1    1    2    0  501  0.43285046651E+03 -0.76868812506E+02 -0.23813771080E+03  0.50000000000E+03  0.47000000000E+01 0.  1.
</event>
<event>
 4    1  0.4351282E-004  0.1000000E+04  0.7546771E-02  0.8684367E-01
         11   -1    0    0    0    0  0.00000000000E+00  0.00000000000E+00  0.50000000000E+03  0.50000000000E+03  0.00000000000E+00 0. -1.
        -11   -1    0    0    0    0 -0.00000000000E+00 -0.00000000000E+00 -0.50000000000E+03  0.50000000000E+03  0.00000000000E+00 0.  1.
          5    1    1    2  501    0 -0.15955434662E+03  0.31459675073E+03  0.35432923236E+03  0.50000000000E+03  0.47000000000E+01 0. -1.
         -5    1    1    2    0  501  0.15955434662E+03 -0.31459675073E+03 -0.35432923236E+03  0.50000000000E+03  0.47000000000E+01 0.  1.
</event>
<event>
 4    1  0.4351282E-004  0.1000000E+04  0.7546771E-02  0.8684367E-01
         11   -1    0    0    0    0  0.00000000000E+00  0.00000000000E+00  0.50000000000E+03  0.50000000000E+03  0.00000000000E+00 0. -1.
        -11   -1    0    0    0    0 -0.00000000000E+00 -0.00000000000E+00 -0.50000000000E+03  0.50000000000E+03  0.00000000000E+00 0.  1.
          5    1    1    2  501    0  0.31300696614E+02  0.21339541525E+03  0.45106604078E+03  0.50000000000E+03  0.47000000000E+01 0. -1.
         -5    1    1    2    0  501 -0.31300696614E+02 -0.21339541525E+03 -0.45106604078E+03  0.50000000000E+03  0.47000000000E+01 0.  1.
</event>
<event>
 4    1  0.4351282E-004  0.1000000E+04  0.7546771E-02  0.8684367E-01
         11   -1    0    0    0    0  0.00000000000E+00  0.00000000000E+00  0.50000000000E+03  0.50000000000E+03  0.00000000000E+00 0. -1.
        -11   -1    0    0    0    0 -0.00000000000E+00 -0.00000000000E+00 -0.50000000000E+03  0.50000000000E+03  0.00000000000E+00 0.  1.
          5    1    1    2  501    0  0.32485611298E+03  0.14808741580E+03 -0.35002361798E+03  0.50000000000E+03  0.47000000000E+01 0.  1.
         -5    1    1    2    0  501 -0.32485611298E+03 -0.14808741580E+03  0.35002361798E+03  0.50000000000E+03  0.47000000000E+01 0. -1.
</event>
<event>
 4    1  0.4351282E-004  0.1000000E+04  0.7546771E-02  0.8684367E-01
         11   -1    0    0    0    0  0.00000000000E+00  0.00000000000E+00  0.50000000000E+03  0.50000000000E+03  0.00000000000E+00 0.  1.
        -11   -1    0    0    0    0 -0.00000000000E+00 -0.00000000000E+00 -0.50000000000E+03  0.50000000000E+03  0.00000000000E+00 0. -1.
          5    1    1    2  501    0 -0.11951366300E+03  0.44918583688E+01  0.48546289000E+03  0.50000000000E+03  0.47000000000E+01 0.  1.
         -5    1    1    2    0  501  0.11951366300E+03 -0.44918583688E+01 -0.48546289000E+03  0.50000000000E+03  0.47000000000E+01 0. -1.
</event>
<event>
 4    1  0.4351282E-004  0.1000000E+04  0.7546771E-02  0.8684367E-01
         11   -1    0    0    0    0  0.00000000000E+00  0.00000000000E+00  0.50000000000E+03  0.50000000000E+03  0.00000000000E+00 0. -1.
        -11   -1    0    0    0    0 -0.00000000000E+00 -0.00000000000E+00 -0.50000000000E+03  0.50000000000E+03  0.00000000000E+00 0.  1.
          5    1    1    2  501    0 -0.24064892007E+03  0.43784112598E+03 -0.19004096152E+02  0.50000000000E+03  0.47000000000E+01 0. -1.
         -5    1    1    2    0  501  0.24064892007E+03 -0.43784112598E+03  0.19004096152E+02  0.50000000000E+03  0.47000000000E+01 0.  1.
</event>
<event>
 4    1  0.4351282E-004  0.1000000E+04  0.7546771E-02  0.8684367E-01
         11   -1    0    0    0    0  0.00000000000E+00  0.00000000000E+00  0.50000000000E+03  0.50000000000E+03  0.00000000000E+00 0. -1.
        -11   -1    0    0    0    0 -0.00000000000E+00 -0.00000000000E+00 -0.50000000000E+03  0.50000000000E+03  0.00000000000E+00 0.  1.
          5    1    1    2  501    0 -0.43089755346E+02 -0.22487510495E+03  0.44446863799E+03  0.50000000000E+03  0.47000000000E+01 0. -1.
         -5    1    1    2    0  501  0.43089755346E+02  0.22487510495E+03 -0.44446863799E+03  0.50000000000E+03  0.47000000000E+01 0.  1.
</event>
<event>
 4    1  0.4351282E-004  0.1000000E+04  0.7546771E-02  0.8684367E-01
         11   -1    0    0    0    0  0.00000000000E+00  0.00000000000E+00  0.50000000000E+03  0.50000000000E+03  0.00000000000E+00 0. -1.
        -11   -1    0    0    0    0 -0.00000000000E+00 -0.00000000000E+00 -0.50000000000E+03  0.50000000000E+03  0.00000000000E+00 0.  1.
          5    1    1    2  501    0  0.24487148681E+03 -0.40982499979E+03  0.14852385160E+03  0.50000000000E+03  0.47000000000E+01 0. -1.
         -5    1    1    2    0  501 -0.24487148681E+03  0.40982499979E+03 -0.14852385160E+03  0.50000000000E+03  0.47000000000E+01 0.  1.
</event>
<event>
 4    1  0.4351282E-004  0.1000000E+04  0.7546771E-02  0.8684367E-01
         11   -1    0    0    0    0  0.00000000000E+00  0.00000000000E+00  0.50000000000E+03  0.50000000000E+03  0.00000000000E+00 0. -1.
        -11   -1    0    0    0    0 -0.00000000000E+00 -0.00000000000E+00 -0.50000000000E+03  0.50000000000E+03  0.00000000000E+00 0.  1.
          5    1    1    2  501    0 -0.20054628922E+03  0.38639391661E+03  0.24588378778E+03  0.50000000000E+03  0.47000000000E+01 0. -1.
         -5    1    1    2    0  501  0.20054628922E+03 -0.38639391661E+03 -0.24588378778E+03  0.50000000000E+03  0.47000000000E+01 0.  1.
</event>
<event>
 4    1  0.4351282E-004  0.1000000E+04  0.7546771E-02  0.8684367E-01
         11   -1    0    0    0    0  0.00000000000E+00  0.00000000000E+00  0.50000000000E+03  0.50000000000E+03  0.00000000000E+00 0. -1.
        -11   -1    0    0    0    0 -0.00000000000E+00 -0.00000000000E+00 -0.50000000000E+03  0.50000000000E+03  0.00000000000E+00 0.  1.
          5    1    1    2  501    0  0.33966539115E+03  0.35949637031E+03  0.73264532965E+02  0.50000000000E+03  0.47000000000E+01 0. -1.
         -5    1    1    2    0  501 -0.33966539115E+03 -0.35949637031E+03 -0.73264532965E+02  0.50000000000E+03  0.47000000000E+01 0.  1.
</event>
<event>
 4    1  0.4351282E-004  0.1000000E+04  0.7546771E-02  0.8684367E-01
         11   -1    0    0    0    0  0.00000000000E+00  0.00000000000E+00  0.50000000000E+03  0.50000000000E+03  0.00000000000E+00 0. -1.
        -11   -1    0    0    0    0 -0.00000000000E+00 -0.00000000000E+00 -0.50000000000E+03  0.50000000000E+03  0.00000000000E+00 0.  1.
          5    1    1    2  501    0 -0.34216436222E+03 -0.75391653279E+02  0.35667570403E+03  0.50000000000E+03  0.47000000000E+01 0. -1.
         -5    1    1    2    0  501  0.34216436222E+03  0.75391653279E+02 -0.35667570403E+03  0.50000000000E+03  0.47000000000E+01 0.  1.
</event>
<event>
 4    1  0.4351282E-004  0.1000000E+04  0.7546771E-02  0.8684367E-01
         11   -1    0    0    0    0  0.00000000000E+00  0.00000000000E+00  0.50000000000E+03  0.50000000000E+03  0.00000000000E+00 0.  1.
        -11   -1    0    0    0    0 -0.00000000000E+00 -0.00000000000E+00 -0.50000000000E+03  0.50000000000E+03  0.00000000000E+00 0. -1.
          5    1    1    2  501    0  0.45914667449E+03  0.26723360889E+02 -0.19608187903E+03  0.50000000000E+03  0.47000000000E+01 0.  1.
         -5    1    1    2    0  501 -0.45914667449E+03 -0.26723360889E+02  0.19608187903E+03  0.50000000000E+03  0.47000000000E+01 0. -1.
</event>
<event>
 4    1  0.4351282E-004  0.1000000E+04  0.7546771E-02  0.8684367E-01
         11   -1    0    0    0    0  0.00000000000E+00  0.00000000000E+00  0.50000000000E+03  0.50000000000E+03  0.00000000000E+00 0. -1.
        -11   -1    0    0    0    0 -0.00000000000E+00 -0.00000000000E+00 -0.50000000000E+03  0.50000000000E+03  0.00000000000E+00 0.  1.
          5    1    1    2  501    0  0.70718305947E+02 -0.46970693469E+03 -0.15605200000E+03  0.50000000000E+03  0.47000000000E+01 0. -1.
         -5    1    1    2    0  501 -0.70718305947E+02  0.46970693469E+03  0.15605200000E+03  0.50000000000E+03  0.47000000000E+01 0.  1.
</event>
<event>
 4    1  0.4351282E-004  0.1000000E+04  0.7546771E-02  0.8684367E-01
         11   -1    0    0    0    0  0.00000000000E+00  0.00000000000E+00  0.50000000000E+03  0.50000000000E+03  0.00000000000E+00 0. -1.
        -11   -1    0    0    0    0 -0.00000000000E+00 -0.00000000000E+00 -0.50000000000E+03  0.50000000000E+03  0.00000000000E+00 0.  1.
          5    1    1    2  501    0  0.24894846924E+03 -0.43059738123E+03  0.50876958808E+02  0.50000000000E+03  0.47000000000E+01 0.  1.
         -5    1    1    2    0  501 -0.24894846924E+03  0.43059738123E+03 -0.50876958808E+02  0.50000000000E+03  0.47000000000E+01 0. -1.
</event>
<event>
 4    1  0.4351282E-004  0.1000000E+04  0.7546771E-02  0.8684367E-01
         11   -1    0    0    0    0  0.00000000000E+00  0.00000000000E+00  0.50000000000E+03  0.50000000000E+03  0.00000000000E+00 0.  1.
        -11   -1    0    0    0    0 -0.00000000000E+00 -0.00000000000E+00 -0.50000000000E+03  0.50000000000E+03  0.00000000000E+00 0. -1.
          5    1    1    2  501    0 -0.28197509094E+03  0.40539960364E+03 -0.78224800802E+02  0.50000000000E+03  0.47000000000E+01 0.  1.
         -5    1    1    2    0  501  0.28197509094E+03 -0.40539960364E+03  0.78224800802E+02  0.50000000000E+03  0.47000000000E+01 0. -1.
</event>
<event>
 4    1  0.4351282E-004  0.1000000E+04  0.7546771E-02  0.8684367E-01
         11   -1    0    0    0    0  0.00000000000E+00  0.00000000000E+00  0.50000000000E+03  0.50000000000E+03  0.00000000000E+00 0.  1.
        -11   -1    0    0    0    0 -0.00000000000E+00 -0.00000000000E+00 -0.50000000000E+03  0.50000000000E+03  0.00000000000E+00 0. -1.
          5    1    1    2  501    0  0.11608207537E+02  0.10724540171E+03  0.48820239996E+03  0.50000000000E+03  0.47000000000E+01 0.  1.
         -5    1    1    2    0  501 -0.11608207537E+02 -0.10724540171E+03 -0.48820239996E+03  0.50000000000E+03  0.47000000000E+01 0. -1.
</event>
<event>
 4    1  0.4351282E-004  0.1000000E+04  0.7546771E-02  0.8684367E-01
         11   -1    0    0    0    0  0.00000000000E+00  0.00000000000E+00  0.50000000000E+03  0.50000000000E+03  0.00000000000E+00 0. -1.
        -11   -1    0    0    0    0 -0.00000000000E+00 -0.00000000000E+00 -0.50000000000E+03  0.50000000000E+03  0.00000000000E+00 0.  1.
          5    1    1    2  501    0 -0.14895304681E+03 -0.37796063455E+03  0.29143894486E+03  0.50000000000E+03  0.47000000000E+01 0. -1.
         -5    1    1    2    0  501  0.14895304681E+03  0.37796063455E+03 -0.29143894486E+03  0.50000000000E+03  0.47000000000E+01 0.  1.
</event>
<event>
 4    1  0.4351282E-004  0.1000000E+04  0.7546771E-02  0.8684367E-01
         11   -1    0    0    0    0  0.00000000000E+00  0.00000000000E+00  0.50000000000E+03  0.50000000000E+03  0.00000000000E+00 0. -1.
        -11   -1    0    0    0    0 -0.00000000000E+00 -0.00000000000E+00 -0.50000000000E+03  0.50000000000E+03  0.00000000000E+00 0.  1.
          5    1    1    2  501    0  0.22245786981E+03 -0.64356750687E+02  0.44311241779E+03  0.50000000000E+03  0.47000000000E+01 0. -1.
         -5    1    1    2    0  501 -0.22245786981E+03  0.64356750687E+02 -0.44311241779E+03  0.50000000000E+03  0.47000000000E+01 0.  1.
</event>
<event>
 4    1  0.4351282E-004  0.1000000E+04  0.7546771E-02  0.8684367E-01
         11   -1    0    0    0    0  0.00000000000E+00  0.00000000000E+00  0.50000000000E+03  0.50000000000E+03  0.00000000000E+00 0. -1.
        -11   -1    0    0    0    0 -0.00000000000E+00 -0.00000000000E+00 -0.50000000000E+03  0.50000000000E+03  0.00000000000E+00 0.  1.
          5    1    1    2  501    0 -0.19864520681E+03  0.34931558160E+03  0.29748380840E+03  0.50000000000E+03  0.47000000000E+01 0. -1.
         -5    1    1    2    0  501  0.19864520681E+03 -0.34931558160E+03 -0.29748380840E+03  0.50000000000E+03  0.47000000000E+01 0.  1.
</event>
<event>
 4    1  0.4351282E-004  0.1000000E+04  0.7546771E-02  0.8684367E-01
         11   -1    0    0    0    0  0.00000000000E+00  0.00000000000E+00  0.50000000000E+03  0.50000000000E+03  0.00000000000E+00 0.  1.
        -11   -1    0    0    0    0 -0.00000000000E+00 -0.00000000000E+00 -0.50000000000E+03  0.50000000000E+03  0.00000000000E+00 0. -1.
          5    1    1    2  501    0  0.15923489851E+03 -0.47047564181E+03  0.57226109104E+02  0.50000000000E+03  0.47000000000E+01 0.  1.
         -5    1    1    2    0  501 -0.15923489851E+03  0.47047564181E+03 -0.57226109104E+02  0.50000000000E+03  0.47000000000E+01 0. -1.
</event>
<event>
 4    1  0.4351282E-004  0.1000000E+04  0.7546771E-02  0.8684367E-01
         11   -1    0    0    0    0  0.00000000000E+00  0.00000000000E+00  0.50000000000E+03  0.50000000000E+03  0.00000000000E+00 0. -1.
        -11   -1    0    0    0    0 -0.00000000000E+00 -0.00000000000E+00 -0.50000000000E+03  0.50000000000E+03  0.00000000000E+00 0.  1.
          5    1    1    2  501    0  0.30145608357E+03 -0.16223584317E+03  0.36439219375E+03  0.50000000000E+03  0.47000000000E+01 0. -1.
         -5    1    1    2    0  501 -0.30145608357E+03  0.16223584317E+03 -0.36439219375E+03  0.50000000000E+03  0.47000000000E+01 0.  1.
</event>
<event>
 4    1  0.4351282E-004  0.1000000E+04  0.7546771E-02  0.8684367E-01
         11   -1    0    0    0    0  0.00000000000E+00  0.00000000000E+00  0.50000000000E+03  0.50000000000E+03  0.00000000000E+00 0. -1.
        -11   -1    0    0    0    0 -0.00000000000E+00 -0.00000000000E+00 -0.50000000000E+03  0.50000000000E+03  0.00000000000E+00 0.  1.
          5    1    1    2  501    0  0.64525107345E+02 -0.43060576469E+03  0.24575006803E+03  0.50000000000E+03  0.47000000000E+01 0. -1.
         -5    1    1    2    0  501 -0.64525107345E+02  0.43060576469E+03 -0.24575006803E+03  0.50000000000E+03  0.47000000000E+01 0.  1.
</event>
<event>
 4    1  0.4351282E-004  0.1000000E+04  0.7546771E-02  0.8684367E-01
         11   -1    0    0    0    0  0.00000000000E+00  0.00000000000E+00  0.50000000000E+03  0.50000000000E+03  0.00000000000E+00 0. -1.
        -11   -1    0    0    0    0 -0.00000000000E+00 -0.00000000000E+00 -0.50000000000E+03  0.50000000000E+03  0.00000000000E+00 0.  1.
          5    1    1    2  501    0 -0.24896654849E+03  0.95459854151E+01  0.43347715268E+03  0.50000000000E+03  0.47000000000E+01 0. -1.
         -5    1    1    2    0  501  0.24896654849E+03 -0.95459854151E+01 -0.43347715268E+03  0.50000000000E+03  0.47000000000E+01 0.  1.
</event>
<event>
 4    1  0.4351282E-004  0.1000000E+04  0.7546771E-02  0.8684367E-01
         11   -1    0    0    0    0  0.00000000000E+00  0.00000000000E+00  0.50000000000E+03  0.50000000000E+03  0.00000000000E+00 0.  1.
        -11   -1    0    0    0    0 -0.00000000000E+00 -0.00000000000E+00 -0.50000000000E+03  0.50000000000E+03  0.00000000000E+00 0. -1.
          5    1    1    2  501    0 -0.22232661123E+02  0.25245533236E+03  0.43098715055E+03  0.50000000000E+03  0.47000000000E+01 0.  1.
         -5    1    1    2    0  501  0.22232661123E+02 -0.25245533236E+03 -0.43098715055E+03  0.50000000000E+03  0.47000000000E+01 0. -1.
</event>
<event>
 4    1  0.4351282E-004  0.1000000E+04  0.7546771E-02  0.8684367E-01
         11   -1    0    0    0    0  0.00000000000E+00  0.00000000000E+00  0.50000000000E+03  0.50000000000E+03  0.00000000000E+00 0. -1.
        -11   -1    0    0    0    0 -0.00000000000E+00 -0.00000000000E+00 -0.50000000000E+03  0.50000000000E+03  0.00000000000E+00 0.  1.
          5    1    1    2  501    0  0.40351876619E+03  0.27654691092E+03  0.10330692812E+03  0.50000000000E+03  0.47000000000E+01 0. -1.
         -5    1    1    2    0  501 -0.40351876619E+03 -0.27654691092E+03 -0.10330692812E+03  0.50000000000E+03  0.47000000000E+01 0.  1.
</event>
<event>
 4    1  0.4351282E-004  0.1000000E+04  0.7546771E-02  0.8684367E-01
         11   -1    0    0    0    0  0.00000000000E+00  0.00000000000E+00  0.50000000000E+03  0.50000000000E+03  0.00000000000E+00 0. -1.
        -11   -1    0    0    0    0 -0.00000000000E+00 -0.00000000000E+00 -0.50000000000E+03  0.50000000000E+03  0.00000000000E+00 0.  1.
          5    1    1    2  501    0  0.73424801197E+02 -0.26037778027E+02  0.49387118025E+03  0.50000000000E+03  0.47000000000E+01 0. -1.
         -5    1    1    2    0  501 -0.73424801197E+02  0.26037778027E+02 -0.49387118025E+03  0.50000000000E+03  0.47000000000E+01 0.  1.
</event>
<event>
 4    1  0.4351282E-004  0.1000000E+04  0.7546771E-02  0.8684367E-01
         11   -1    0    0    0    0  0.00000000000E+00  0.00000000000E+00  0.50000000000E+03  0.50000000000E+03  0.00000000000E+00 0.  1.
        -11   -1    0    0    0    0 -0.00000000000E+00 -0.00000000000E+00 -0.50000000000E+03  0.50000000000E+03  0.00000000000E+00 0. -1.
          5    1    1    2  501    0 -0.73572224392E+02 -0.41499941919E+03  0.26896193014E+03  0.50000000000E+03  0.47000000000E+01 0.  1.
         -5    1    1    2    0  501  0.73572224392E+02  0.41499941919E+03 -0.26896193014E+03  0.50000000000E+03  0.47000000000E+01 0. -1.
</event>
<event>
 4    1  0.4351282E-004  0.1000000E+04  0.7546771E-02  0.8684367E-01
         11   -1    0    0    0    0  0.00000000000E+00  0.00000000000E+00  0.50000000000E+03  0.50000000000E+03  0.00000000000E+00 0. -1.
        -11   -1    0    0    0    0 -0.00000000000E+00 -0.00000000000E+00 -0.50000000000E+03  0.50000000000E+03  0.00000000000E+00 0.  1.
          5    1    1    2  501    0  0.18854120487E+03  0.15496701330E+03  0.43636607207E+03  0.50000000000E+03  0.47000000000E+01 0. -1.
         -5    1    1    2    0  501 -0.18854120487E+03 -0.15496701330E+03 -0.43636607207E+03  0.50000000000E+03  0.47000000000E+01 0.  1.
</event>
<event>
 4    1  0.4351282E-004  0.1000000E+04  0.7546771E-02  0.8684367E-01
         11   -1    0    0    0    0  0.00000000000E+00  0.00000000000E+00  0.50000000000E+03  0.50000000000E+03  0.00000000000E+00 0. -1.
        -11   -1    0    0    0    0 -0.00000000000E+00 -0.00000000000E+00 -0.50000000000E+03  0.50000000000E+03  0.00000000000E+00 0.  1.
          5    1    1    2  501    0  0.32680569517E+03  0.39823745503E+02  0.37628448931E+03  0.50000000000E+03  0.47000000000E+01 0. -1.
         -5    1    1    2    0  501 -0.32680569517E+03 -0.39823745503E+02 -0.37628448931E+03  0.50000000000E+03  0.47000000000E+01 0.  1.
</event>
<event>
 4    1  0.4351282E-004  0.1000000E+04  0.7546771E-02  0.8684367E-01
         11   -1    0    0    0    0  0.00000000000E+00  0.00000000000E+00  0.50000000000E+03  0.50000000000E+03  0.00000000000E+00 0. -1.
        -11   -1    0    0    0    0 -0.00000000000E+00 -0.00000000000E+00 -0.50000000000E+03  0.50000000000E+03  0.00000000000E+00 0.  1.
          5    1    1    2  501    0  0.39235197506E+03 -0.28561555116E+03  0.12025637031E+03  0.50000000000E+03  0.47000000000E+01 0. -1.
         -5    1    1    2    0  501 -0.39235197506E+03  0.28561555116E+03 -0.12025637031E+03  0.50000000000E+03  0.47000000000E+01 0.  1.
</event>
<event>
 4    1  0.4351282E-004  0.1000000E+04  0.7546771E-02  0.8684367E-01
         11   -1    0    0    0    0  0.00000000000E+00  0.00000000000E+00  0.50000000000E+03  0.50000000000E+03  0.00000000000E+00 0. -1.
        -11   -1    0    0    0    0 -0.00000000000E+00 -0.00000000000E+00 -0.50000000000E+03  0.50000000000E+03  0.00000000000E+00 0.  1.
          5    1    1    2  501    0  0.30669063689E+03  0.19672239252E+03  0.34237269681E+03  0.50000000000E+03  0.47000000000E+01 0. -1.
         -5    1    1    2    0  501 -0.30669063689E+03 -0.19672239252E+03 -0.34237269681E+03  0.50000000000E+03  0.47000000000E+01 0.  1.
</event>
<event>
 4    1  0.4351282E-004  0.1000000E+04  0.7546771E-02  0.8684367E-01
         11   -1    0    0    0    0  0.00000000000E+00  0.00000000000E+00  0.50000000000E+03  0.50000000000E+03  0.00000000000E+00 0. -1.
        -11   -1    0    0    0    0 -0.00000000000E+00 -0.00000000000E+00 -0.50000000000E+03  0.50000000000E+03  0.00000000000E+00 0.  1.
          5    1    1    2  501    0  0.18470812578E+03 -0.40124044225E+03  0.23423690097E+03  0.50000000000E+03  0.47000000000E+01 0. -1.
         -5    1    1    2    0  501 -0.18470812578E+03  0.40124044225E+03 -0.23423690097E+03  0.50000000000E+03  0.47000000000E+01 0.  1.
</event>
<event>
 4    1  0.4351282E-004  0.1000000E+04  0.7546771E-02  0.8684367E-01
         11   -1    0    0    0    0  0.00000000000E+00  0.00000000000E+00  0.50000000000E+03  0.50000000000E+03  0.00000000000E+00 0. -1.
        -11   -1    0    0    0    0 -0.00000000000E+00 -0.00000000000E+00 -0.50000000000E+03  0.50000000000E+03  0.00000000000E+00 0.  1.
          5    1    1    2  501    0 -0.24367386616E+03  0.15008992568E+03  0.40996825628E+03  0.50000000000E+03  0.47000000000E+01 0. -1.
         -5    1    1    2    0  501  0.24367386616E+03 -0.15008992568E+03 -0.40996825628E+03  0.50000000000E+03  0.47000000000E+01 0.  1.
</event>
<event>
 4    1  0.4351282E-004  0.1000000E+04  0.7546771E-02  0.8684367E-01
         11   -1    0    0    0    0  0.00000000000E+00  0.00000000000E+00  0.50000000000E+03  0.50000000000E+03  0.00000000000E+00 0.  1.
        -11   -1    0    0    0    0 -0.00000000000E+00 -0.00000000000E+00 -0.50000000000E+03  0.50000000000E+03  0.00000000000E+00 0. -1.
          5    1    1    2  501    0 -0.43156059498E+02 -0.42567370811E+03  0.25868389735E+03  0.50000000000E+03  0.47000000000E+01 0.  1.
         -5    1    1    2    0  501  0.43156059498E+02  0.42567370811E+03 -0.25868389735E+03  0.50000000000E+03  0.47000000000E+01 0. -1.
</event>
<event>
 4    1  0.4351282E-004  0.1000000E+04  0.7546771E-02  0.8684367E-01
         11   -1    0    0    0    0  0.00000000000E+00  0.00000000000E+00  0.50000000000E+03  0.50000000000E+03  0.00000000000E+00 0. -1.
        -11   -1    0    0    0    0 -0.00000000000E+00 -0.00000000000E+00 -0.50000000000E+03  0.50000000000E+03  0.00000000000E+00 0.  1.
          5    1    1    2  501    0  0.36784955156E+03  0.24668160915E+03  0.23197586324E+03  0.50000000000E+03  0.47000000000E+01 0. -1.
         -5    1    1    2    0  501 -0.36784955156E+03 -0.24668160915E+03 -0.23197586324E+03  0.50000000000E+03  0.47000000000E+01 0.  1.
</event>
<event>
 4    1  0.4351282E-004  0.1000000E+04  0.7546771E-02  0.8684367E-01
         11   -1    0    0    0    0  0.00000000000E+00  0.00000000000E+00  0.50000000000E+03  0.50000000000E+03  0.00000000000E+00 0.  1.
        -11   -1    0    0    0    0 -0.00000000000E+00 -0.00000000000E+00 -0.50000000000E+03  0.50000000000E+03  0.00000000000E+00 0. -1.
          5    1    1    2  501    0  0.18405666325E+03  0.32130558741E+03  0.33595204153E+03  0.50000000000E+03  0.47000000000E+01 0.  1.
         -5    1    1    2    0  501 -0.18405666325E+03 -0.32130558741E+03 -0.33595204153E+03  0.50000000000E+03  0.47000000000E+01 0. -1.
</event>
<event>
 4    1  0.4351282E-004  0.1000000E+04  0.7546771E-02  0.8684367E-01
         11   -1    0    0    0    0  0.00000000000E+00  0.00000000000E+00  0.50000000000E+03  0.50000000000E+03  0.00000000000E+00 0. -1.
        -11   -1    0    0    0    0 -0.00000000000E+00 -0.00000000000E+00 -0.50000000000E+03  0.50000000000E+03  0.00000000000E+00 0.  1.
          5    1    1    2  501    0 -0.22097235671E+02 -0.95261135193E+02  0.49032126030E+03  0.50000000000E+03  0.47000000000E+01 0. -1.
         -5    1    1    2    0  501  0.22097235671E+02  0.95261135193E+02 -0.49032126030E+03  0.50000000000E+03  0.47000000000E+01 0.  1.
</event>
<event>
 4    1  0.4351282E-004  0.1000000E+04  0.7546771E-02  0.8684367E-01
         11   -1    0    0    0    0  0.00000000000E+00  0.00000000000E+00  0.50000000000E+03  0.50000000000E+03  0.00000000000E+00 0. -1.
        -11   -1    0    0    0    0 -0.00000000000E+00 -0.00000000000E+00 -0.50000000000E+03  0.50000000000E+03  0.00000000000E+00 0.  1.
          5    1    1    2  501    0  0.18747924981E+03 -0.42601244142E+03 -0.18260022083E+03  0.50000000000E+03  0.47000000000E+01 0. -1.
         -5    1    1    2    0  501 -0.18747924981E+03  0.42601244142E+03  0.18260022083E+03  0.50000000000E+03  0.47000000000E+01 0.  1.
</event>
<event>
 4    1  0.4351282E-004  0.1000000E+04  0.7546771E-02  0.8684367E-01
         11   -1    0    0    0    0  0.00000000000E+00  0.00000000000E+00  0.50000000000E+03  0.50000000000E+03  0.00000000000E+00 0.  1.
        -11   -1    0    0    0    0 -0.00000000000E+00 -0.00000000000E+00 -0.50000000000E+03  0.50000000000E+03  0.00000000000E+00 0. -1.
          5    1    1    2  501    0  0.27754403175E+03 -0.32846174490E+03  0.25506881930E+03  0.50000000000E+03  0.47000000000E+01 0.  1.
         -5    1    1    2    0  501 -0.27754403175E+03  0.32846174490E+03 -0.25506881930E+03  0.50000000000E+03  0.47000000000E+01 0. -1.
</event>
<event>
 4    1  0.4351282E-004  0.1000000E+04  0.7546771E-02  0.8684367E-01
         11   -1    0    0    0    0  0.00000000000E+00  0.00000000000E+00  0.50000000000E+03  0.50000000000E+03  0.00000000000E+00 0. -1.
        -11   -1    0    0    0    0 -0.00000000000E+00 -0.00000000000E+00 -0.50000000000E+03  0.50000000000E+03  0.00000000000E+00 0.  1.
          5    1    1    2  501    0  0.24140396027E+03  0.13572308634E+03  0.41627068333E+03  0.50000000000E+03  0.47000000000E+01 0. -1.
         -5    1    1    2    0  501 -0.24140396027E+03 -0.13572308634E+03 -0.41627068333E+03  0.50000000000E+03  0.47000000000E+01 0.  1.
</event>
<event>
 4    1  0.4351282E-004  0.1000000E+04  0.7546771E-02  0.8684367E-01
         11   -1    0    0    0    0  0.00000000000E+00  0.00000000000E+00  0.50000000000E+03  0.50000000000E+03  0.00000000000E+00 0. -1.
        -11   -1    0    0    0    0 -0.00000000000E+00 -0.00000000000E+00 -0.50000000000E+03  0.50000000000E+03  0.00000000000E+00 0.  1.
          5    1    1    2  501    0 -0.28907506174E+02 -0.49172385134E+03 -0.85731675063E+02  0.50000000000E+03  0.47000000000E+01 0. -1.
         -5    1    1    2    0  501  0.28907506174E+02  0.49172385134E+03  0.85731675063E+02  0.50000000000E+03  0.47000000000E+01 0.  1.
</event>
<event>
 4    1  0.4351282E-004  0.1000000E+04  0.7546771E-02  0.8684367E-01
         11   -1    0    0    0    0  0.00000000000E+00  0.00000000000E+00  0.50000000000E+03  0.50000000000E+03  0.00000000000E+00 0. -1.
        -11   -1    0    0    0    0 -0.00000000000E+00 -0.00000000000E+00 -0.50000000000E+03  0.50000000000E+03  0.00000000000E+00 0.  1.
          5    1    1    2  501    0  0.48620284449E+03 -0.89144954042E+02  0.75085825414E+02  0.50000000000E+03  0.47000000000E+01 0. -1.
         -5    1    1    2    0  501 -0.48620284449E+03  0.89144954042E+02 -0.75085825414E+02  0.50000000000E+03  0.47000000000E+01 0.  1.
</event>
<event>
 4    1  0.4351282E-004  0.1000000E+04  0.7546771E-02  0.8684367E-01
         11   -1    0    0    0    0  0.00000000000E+00  0.00000000000E+00  0.50000000000E+03  0.50000000000E+03  0.00000000000E+00 0.  1.
        -11   -1    0    0    0    0 -0.00000000000E+00 -0.00000000000E+00 -0.50000000000E+03  0.50000000000E+03  0.00000000000E+00 0. -1.
          5    1    1    2  501    0  0.35078257763E+03 -0.21860993533E+03  0.28131688433E+03  0.50000000000E+03  0.47000000000E+01 0.  1.
         -5    1    1    2    0  501 -0.35078257763E+03  0.21860993533E+03 -0.28131688433E+03  0.50000000000E+03  0.47000000000E+01 0. -1.
</event>
<event>
 4    1  0.4351282E-004  0.1000000E+04  0.7546771E-02  0.8684367E-01
         11   -1    0    0    0    0  0.00000000000E+00  0.00000000000E+00  0.50000000000E+03  0.50000000000E+03  0.00000000000E+00 0. -1.
        -11   -1    0    0    0    0 -0.00000000000E+00 -0.00000000000E+00 -0.50000000000E+03  0.50000000000E+03  0.00000000000E+00 0.  1.
          5    1    1    2  501    0  0.41974741614E+03 -0.13908056645E+03 -0.23333797951E+03  0.50000000000E+03  0.47000000000E+01 0. -1.
         -5    1    1    2    0  501 -0.41974741614E+03  0.13908056645E+03  0.23333797951E+03  0.50000000000E+03  0.47000000000E+01 0.  1.
</event>
<event>
 4    1  0.4351282E-004  0.1000000E+04  0.7546771E-02  0.8684367E-01
         11   -1    0    0    0    0  0.00000000000E+00  0.00000000000E+00  0.50000000000E+03  0.50000000000E+03  0.00000000000E+00 0.  1.
        -11   -1    0    0    0    0 -0.00000000000E+00 -0.00000000000E+00 -0.50000000000E+03  0.50000000000E+03  0.00000000000E+00 0. -1.
          5    1    1    2  501    0  0.42193044256E+03 -0.26720950595E+03  0.23488115650E+02  0.50000000000E+03  0.47000000000E+01 0.  1.
         -5    1    1    2    0  501 -0.42193044256E+03  0.26720950595E+03 -0.23488115650E+02  0.50000000000E+03  0.47000000000E+01 0. -1.
</event>
<event>
 4    1  0.4351282E-004  0.1000000E+04  0.7546771E-02  0.8684367E-01
         11   -1    0    0    0    0  0.00000000000E+00  0.00000000000E+00  0.50000000000E+03  0.50000000000E+03  0.00000000000E+00 0. -1.
        -11   -1    0    0    0    0 -0.00000000000E+00 -0.00000000000E+00 -0.50000000000E+03  0.50000000000E+03  0.00000000000E+00 0.  1.
          5    1    1    2  501    0 -0.28121735627E+03  0.39724688117E+03  0.11440989439E+03  0.50000000000E+03  0.47000000000E+01 0. -1.
         -5    1    1    2    0  501  0.28121735627E+03 -0.39724688117E+03 -0.11440989439E+03  0.50000000000E+03  0.47000000000E+01 0.  1.
</event>
<event>
 4    1  0.4351282E-004  0.1000000E+04  0.7546771E-02  0.8684367E-01
         11   -1    0    0    0    0  0.00000000000E+00  0.00000000000E+00  0.50000000000E+03  0.50000000000E+03  0.00000000000E+00 0. -1.
        -11   -1    0    0    0    0 -0.00000000000E+00 -0.00000000000E+00 -0.50000000000E+03  0.50000000000E+03  0.00000000000E+00 0.  1.
          5    1    1    2  501    0  0.20800449206E+03 -0.32955577789E+03  0.31321722580E+03  0.50000000000E+03  0.47000000000E+01 0. -1.
         -5    1    1    2    0  501 -0.20800449206E+03  0.32955577789E+03 -0.31321722580E+03  0.50000000000E+03  0.47000000000E+01 0.  1.
</event>
<event>
 4    1  0.4351282E-004  0.1000000E+04  0.7546771E-02  0.8684367E-01
         11   -1    0    0    0    0  0.00000000000E+00  0.00000000000E+00  0.50000000000E+03  0.50000000000E+03  0.00000000000E+00 0. -1.
        -11   -1    0    0    0    0 -0.00000000000E+00 -0.00000000000E+00 -0.50000000000E+03  0.50000000000E+03  0.00000000000E+00 0.  1.
          5    1    1    2  501    0  0.27825162285E+03  0.59116645853E+02  0.41116805149E+03  0.50000000000E+03  0.47000000000E+01 0. -1.
         -5    1    1    2    0  501 -0.27825162285E+03 -0.59116645853E+02 -0.41116805149E+03  0.50000000000E+03  0.47000000000E+01 0.  1.
</event>
<event>
 4    1  0.4351282E-004  0.1000000E+04  0.7546771E-02  0.8684367E-01
         11   -1    0    0    0    0  0.00000000000E+00  0.00000000000E+00  0.50000000000E+03  0.50000000000E+03  0.00000000000E+00 0. -1.
        -11   -1    0    0    0    0 -0.00000000000E+00 -0.00000000000E+00 -0.50000000000E+03  0.50000000000E+03  0.00000000000E+00 0.  1.
          5    1    1    2  501    0 -0.40724571038E+03  0.26356992296E+03  0.12107740122E+03  0.50000000000E+03  0.47000000000E+01 0. -1.
         -5    1    1    2    0  501  0.40724571038E+03 -0.26356992296E+03 -0.12107740122E+03  0.50000000000E+03  0.47000000000E+01 0.  1.
</event>
<event>
 4    1  0.4351282E-004  0.1000000E+04  0.7546771E-02  0.8684367E-01
         11   -1    0    0    0    0  0.00000000000E+00  0.00000000000E+00  0.50000000000E+03  0.50000000000E+03  0.00000000000E+00 0. -1.
        -11   -1    0    0    0    0 -0.00000000000E+00 -0.00000000000E+00 -0.50000000000E+03  0.50000000000E+03  0.00000000000E+00 0.  1.
          5    1    1    2  501    0 -0.31532230548E+03  0.29236408621E+03  0.25509409002E+03  0.50000000000E+03  0.47000000000E+01 0. -1.
         -5    1    1    2    0  501  0.31532230548E+03 -0.29236408621E+03 -0.25509409002E+03  0.50000000000E+03  0.47000000000E+01 0.  1.
</event>
<event>
 4    1  0.4351282E-004  0.1000000E+04  0.7546771E-02  0.8684367E-01
         11   -1    0    0    0    0  0.00000000000E+00  0.00000000000E+00  0.50000000000E+03  0.50000000000E+03  0.00000000000E+00 0. -1.
        -11   -1    0    0    0    0 -0.00000000000E+00 -0.00000000000E+00 -0.50000000000E+03  0.50000000000E+03  0.00000000000E+00 0.  1.
          5    1    1    2  501    0  0.34711575106E+03  0.69336348782E+02  0.35310201940E+03  0.50000000000E+03  0.47000000000E+01 0. -1.
         -5    1    1    2    0  501 -0.34711575106E+03 -0.69336348782E+02 -0.35310201940E+03  0.50000000000E+03  0.47000000000E+01 0.  1.
</event>
<event>
 4    1  0.4351282E-004  0.1000000E+04  0.7546771E-02  0.8684367E-01
         11   -1    0    0    0    0  0.00000000000E+00  0.00000000000E+00  0.50000000000E+03  0.50000000000E+03  0.00000000000E+00 0. -1.
        -11   -1    0    0    0    0 -0.00000000000E+00 -0.00000000000E+00 -0.50000000000E+03  0.50000000000E+03  0.00000000000E+00 0.  1.
          5    1    1    2  501    0  0.48842654077E+03  0.31214004513E+01  0.10680674664E+03  0.50000000000E+03  0.47000000000E+01 0. -1.
         -5    1    1    2    0  501 -0.48842654077E+03 -0.31214004513E+01 -0.10680674664E+03  0.50000000000E+03  0.47000000000E+01 0.  1.
</event>
<event>
 4    1  0.4351282E-004  0.1000000E+04  0.7546771E-02  0.8684367E-01
         11   -1    0    0    0    0  0.00000000000E+00  0.00000000000E+00  0.50000000000E+03  0.50000000000E+03  0.00000000000E+00 0.  1.
        -11   -1    0    0    0    0 -0.00000000000E+00 -0.00000000000E+00 -0.50000000000E+03  0.50000000000E+03  0.00000000000E+00 0. -1.
          5    1    1    2  501    0 -0.32496102503E+03 -0.64796694706E+02  0.37440570317E+03  0.50000000000E+03  0.47000000000E+01 0.  1.
         -5    1    1    2    0  501  0.32496102503E+03  0.64796694706E+02 -0.37440570317E+03  0.50000000000E+03  0.47000000000E+01 0. -1.
</event>
<event>
 4    1  0.4351282E-004  0.1000000E+04  0.7546771E-02  0.8684367E-01
         11   -1    0    0    0    0  0.00000000000E+00  0.00000000000E+00  0.50000000000E+03  0.50000000000E+03  0.00000000000E+00 0. -1.
        -11   -1    0    0    0    0 -0.00000000000E+00 -0.00000000000E+00 -0.50000000000E+03  0.50000000000E+03  0.00000000000E+00 0.  1.
          5    1    1    2  501    0  0.37963924862E+03  0.16607464621E+03  0.27976983896E+03  0.50000000000E+03  0.47000000000E+01 0. -1.
         -5    1    1    2    0  501 -0.37963924862E+03 -0.16607464621E+03 -0.27976983896E+03  0.50000000000E+03  0.47000000000E+01 0.  1.
</event>
<event>
 4    1  0.4351282E-004  0.1000000E+04  0.7546771E-02  0.8684367E-01
         11   -1    0    0    0    0  0.00000000000E+00  0.00000000000E+00  0.50000000000E+03  0.50000000000E+03  0.00000000000E+00 0. -1.
        -11   -1    0    0    0    0 -0.00000000000E+00 -0.00000000000E+00 -0.50000000000E+03  0.50000000000E+03  0.00000000000E+00 0.  1.
          5    1    1    2  501    0  0.14170211834E+03 -0.45360833633E+03  0.15536375660E+03  0.50000000000E+03  0.47000000000E+01 0. -1.
         -5    1    1    2    0  501 -0.14170211834E+03  0.45360833633E+03 -0.15536375660E+03  0.50000000000E+03  0.47000000000E+01 0.  1.
</event>
<event>
 4    1  0.4351282E-004  0.1000000E+04  0.7546771E-02  0.8684367E-01
         11   -1    0    0    0    0  0.00000000000E+00  0.00000000000E+00  0.50000000000E+03  0.50000000000E+03  0.00000000000E+00 0. -1.
        -11   -1    0    0    0    0 -0.00000000000E+00 -0.00000000000E+00 -0.50000000000E+03  0.50000000000E+03  0.00000000000E+00 0.  1.
          5    1    1    2  501    0 -0.41255041297E+03  0.14127854522E+03  0.24458217315E+03  0.50000000000E+03  0.47000000000E+01 0. -1.
         -5    1    1    2    0  501  0.41255041297E+03 -0.14127854522E+03 -0.24458217315E+03  0.50000000000E+03  0.47000000000E+01 0.  1.
</event>
<event>
 4    1  0.4351282E-004  0.1000000E+04  0.7546771E-02  0.8684367E-01
         11   -1    0    0    0    0  0.00000000000E+00  0.00000000000E+00  0.50000000000E+03  0.50000000000E+03  0.00000000000E+00 0. -1.
        -11   -1    0    0    0    0 -0.00000000000E+00 -0.00000000000E+00 -0.50000000000E+03  0.50000000000E+03  0.00000000000E+00 0.  1.
          5    1    1    2  501    0 -0.30734035824E+03  0.34128730458E+03  0.19759248449E+03  0.50000000000E+03  0.47000000000E+01 0. -1.
         -5    1    1    2    0  501  0.30734035824E+03 -0.34128730458E+03 -0.19759248449E+03  0.50000000000E+03  0.47000000000E+01 0.  1.
</event>
<event>
 4    1  0.4351282E-004  0.1000000E+04  0.7546771E-02  0.8684367E-01
         11   -1    0    0    0    0  0.00000000000E+00  0.00000000000E+00  0.50000000000E+03  0.50000000000E+03  0.00000000000E+00 0. -1.
        -11   -1    0    0    0    0 -0.00000000000E+00 -0.00000000000E+00 -0.50000000000E+03  0.50000000000E+03  0.00000000000E+00 0.  1.
          5    1    1    2  501    0  0.38679572268E+03  0.85865912646E+02  0.30494921538E+03  0.50000000000E+03  0.47000000000E+01 0. -1.
         -5    1    1    2    0  501 -0.38679572268E+03 -0.85865912646E+02 -0.30494921538E+03  0.50000000000E+03  0.47000000000E+01 0.  1.
</event>
<event>
 4    1  0.4351282E-004  0.1000000E+04  0.7546771E-02  0.8684367E-01
         11   -1    0    0    0    0  0.00000000000E+00  0.00000000000E+00  0.50000000000E+03  0.50000000000E+03  0.00000000000E+00 0. -1.
        -11   -1    0    0    0    0 -0.00000000000E+00 -0.00000000000E+00 -0.50000000000E+03  0.50000000000E+03  0.00000000000E+00 0.  1.
          5    1    1    2  501    0 -0.12306876113E+03  0.14817368129E+03  0.46138546814E+03  0.50000000000E+03  0.47000000000E+01 0. -1.
         -5    1    1    2    0  501  0.12306876113E+03 -0.14817368129E+03 -0.46138546814E+03  0.50000000000E+03  0.47000000000E+01 0.  1.
</event>
<event>
 4    1  0.4351282E-004  0.1000000E+04  0.7546771E-02  0.8684367E-01
         11   -1    0    0    0    0  0.00000000000E+00  0.00000000000E+00  0.50000000000E+03  0.50000000000E+03  0.00000000000E+00 0. -1.
        -11   -1    0    0    0    0 -0.00000000000E+00 -0.00000000000E+00 -0.50000000000E+03  0.50000000000E+03  0.00000000000E+00 0.  1.
          5    1    1    2  501    0 -0.24479815465E+03 -0.34080949773E+03  0.27184675782E+03  0.50000000000E+03  0.47000000000E+01 0. -1.
         -5    1    1    2    0  501  0.24479815465E+03  0.34080949773E+03 -0.27184675782E+03  0.50000000000E+03  0.47000000000E+01 0.  1.
</event>
<event>
 4    1  0.4351282E-004  0.1000000E+04  0.7546771E-02  0.8684367E-01
         11   -1    0    0    0    0  0.00000000000E+00  0.00000000000E+00  0.50000000000E+03  0.50000000000E+03  0.00000000000E+00 0. -1.
        -11   -1    0    0    0    0 -0.00000000000E+00 -0.00000000000E+00 -0.50000000000E+03  0.50000000000E+03  0.00000000000E+00 0.  1.
          5    1    1    2  501    0 -0.41479140642E+03 -0.12202022087E+03  0.25107183207E+03  0.50000000000E+03  0.47000000000E+01 0. -1.
         -5    1    1    2    0  501  0.41479140642E+03  0.12202022087E+03 -0.25107183207E+03  0.50000000000E+03  0.47000000000E+01 0.  1.
</event>
<event>
 4    1  0.4351282E-004  0.1000000E+04  0.7546771E-02  0.8684367E-01
         11   -1    0    0    0    0  0.00000000000E+00  0.00000000000E+00  0.50000000000E+03  0.50000000000E+03  0.00000000000E+00 0. -1.
        -11   -1    0    0    0    0 -0.00000000000E+00 -0.00000000000E+00 -0.50000000000E+03  0.50000000000E+03  0.00000000000E+00 0.  1.
          5    1    1    2  501    0 -0.27040718493E+02 -0.64485632985E+02  0.49506394807E+03  0.50000000000E+03  0.47000000000E+01 0. -1.
         -5    1    1    2    0  501  0.27040718493E+02  0.64485632985E+02 -0.49506394807E+03  0.50000000000E+03  0.47000000000E+01 0.  1.
</event>
<event>
 4    1  0.4351282E-004  0.1000000E+04  0.7546771E-02  0.8684367E-01
         11   -1    0    0    0    0  0.00000000000E+00  0.00000000000E+00  0.50000000000E+03  0.50000000000E+03  0.00000000000E+00 0. -1.
        -11   -1    0    0    0    0 -0.00000000000E+00 -0.00000000000E+00 -0.50000000000E+03  0.50000000000E+03  0.00000000000E+00 0.  1.
          5    1    1    2  501    0 -0.43653287790E+03  0.66001401667E+02 -0.23465031747E+03  0.50000000000E+03  0.47000000000E+01 0.  1.
         -5    1    1    2    0  501  0.43653287790E+03 -0.66001401667E+02  0.23465031747E+03  0.50000000000E+03  0.47000000000E+01 0. -1.
</event>
<event>
 4    1  0.4351282E-004  0.1000000E+04  0.7546771E-02  0.8684367E-01
         11   -1    0    0    0    0  0.00000000000E+00  0.00000000000E+00  0.50000000000E+03  0.50000000000E+03  0.00000000000E+00 0. -1.
        -11   -1    0    0    0    0 -0.00000000000E+00 -0.00000000000E+00 -0.50000000000E+03  0.50000000000E+03  0.00000000000E+00 0.  1.
          5    1    1    2  501    0 -0.70940794227E+02 -0.28122942113E+03  0.40725339336E+03  0.50000000000E+03  0.47000000000E+01 0. -1.
         -5    1    1    2    0  501  0.70940794227E+02  0.28122942113E+03 -0.40725339336E+03  0.50000000000E+03  0.47000000000E+01 0.  1.
</event>
<event>
 4    1  0.4351282E-004  0.1000000E+04  0.7546771E-02  0.8684367E-01
         11   -1    0    0    0    0  0.00000000000E+00  0.00000000000E+00  0.50000000000E+03  0.50000000000E+03  0.00000000000E+00 0. -1.
        -11   -1    0    0    0    0 -0.00000000000E+00 -0.00000000000E+00 -0.50000000000E+03  0.50000000000E+03  0.00000000000E+00 0.  1.
          5    1    1    2  501    0 -0.76193973283E+02 -0.20044339944E+03  0.45165787058E+03  0.50000000000E+03  0.47000000000E+01 0. -1.
         -5    1    1    2    0  501  0.76193973283E+02  0.20044339944E+03 -0.45165787058E+03  0.50000000000E+03  0.47000000000E+01 0.  1.
</event>
<event>
 4    1  0.4351282E-004  0.1000000E+04  0.7546771E-02  0.8684367E-01
         11   -1    0    0    0    0  0.00000000000E+00  0.00000000000E+00  0.50000000000E+03  0.50000000000E+03  0.00000000000E+00 0.  1.
        -11   -1    0    0    0    0 -0.00000000000E+00 -0.00000000000E+00 -0.50000000000E+03  0.50000000000E+03  0.00000000000E+00 0. -1.
          5    1    1    2  501    0 -0.36919412756E+03 -0.25606168204E+02 -0.33618139498E+03  0.50000000000E+03  0.47000000000E+01 0. -1.
         -5    1    1    2    0  501  0.36919412756E+03  0.25606168204E+02  0.33618139498E+03  0.50000000000E+03  0.47000000000E+01 0.  1.
</event>
<event>
 4    1  0.4351282E-004  0.1000000E+04  0.7546771E-02  0.8684367E-01
         11   -1    0    0    0    0  0.00000000000E+00  0.00000000000E+00  0.50000000000E+03  0.50000000000E+03  0.00000000000E+00 0. -1.
        -11   -1    0    0    0    0 -0.00000000000E+00 -0.00000000000E+00 -0.50000000000E+03  0.50000000000E+03  0.00000000000E+00 0.  1.
          5    1    1    2  501    0 -0.16827691270E+03  0.15756952418E+03  0.44365824201E+03  0.50000000000E+03  0.47000000000E+01 0. -1.
         -5    1    1    2    0  501  0.16827691270E+03 -0.15756952418E+03 -0.44365824201E+03  0.50000000000E+03  0.47000000000E+01 0.  1.
</event>
<event>
 4    1  0.4351282E-004  0.1000000E+04  0.7546771E-02  0.8684367E-01
         11   -1    0    0    0    0  0.00000000000E+00  0.00000000000E+00  0.50000000000E+03  0.50000000000E+03  0.00000000000E+00 0. -1.
        -11   -1    0    0    0    0 -0.00000000000E+00 -0.00000000000E+00 -0.50000000000E+03  0.50000000000E+03  0.00000000000E+00 0.  1.
          5    1    1    2  501    0 -0.21712596571E+03  0.12878343153E+03  0.43156581512E+03  0.50000000000E+03  0.47000000000E+01 0. -1.
         -5    1    1    2    0  501  0.21712596571E+03 -0.12878343153E+03 -0.43156581512E+03  0.50000000000E+03  0.47000000000E+01 0.  1.
</event>
<event>
 4    1  0.4351282E-004  0.1000000E+04  0.7546771E-02  0.8684367E-01
         11   -1    0    0    0    0  0.00000000000E+00  0.00000000000E+00  0.50000000000E+03  0.50000000000E+03  0.00000000000E+00 0. -1.
        -11   -1    0    0    0    0 -0.00000000000E+00 -0.00000000000E+00 -0.50000000000E+03  0.50000000000E+03  0.00000000000E+00 0.  1.
          5    1    1    2  501    0  0.28660619626E+03 -0.39711713064E+03  0.10066172472E+03  0.50000000000E+03  0.47000000000E+01 0. -1.
         -5    1    1    2    0  501 -0.28660619626E+03  0.39711713064E+03 -0.10066172472E+03  0.50000000000E+03  0.47000000000E+01 0.  1.
</event>
<event>
 4    1  0.4351282E-004  0.1000000E+04  0.7546771E-02  0.8684367E-01
         11   -1    0    0    0    0  0.00000000000E+00  0.00000000000E+00  0.50000000000E+03  0.50000000000E+03  0.00000000000E+00 0. -1.
        -11   -1    0    0    0    0 -0.00000000000E+00 -0.00000000000E+00 -0.50000000000E+03  0.50000000000E+03  0.00000000000E+00 0.  1.
          5    1    1    2  501    0  0.17419889820E+03 -0.22825111534E+03  0.40930927453E+03  0.50000000000E+03  0.47000000000E+01 0. -1.
         -5    1    1    2    0  501 -0.17419889820E+03  0.22825111534E+03 -0.40930927453E+03  0.50000000000E+03  0.47000000000E+01 0.  1.
</event>
<event>
 4    1  0.4351282E-004  0.1000000E+04  0.7546771E-02  0.8684367E-01
         11   -1    0    0    0    0  0.00000000000E+00  0.00000000000E+00  0.50000000000E+03  0.50000000000E+03  0.00000000000E+00 0. -1.
        -11   -1    0    0    0    0 -0.00000000000E+00 -0.00000000000E+00 -0.50000000000E+03  0.50000000000E+03  0.00000000000E+00 0.  1.
          5    1    1    2  501    0  0.10733962580E+03 -0.21020540367E+03  0.44076048258E+03  0.50000000000E+03  0.47000000000E+01 0. -1.
         -5    1    1    2    0  501 -0.10733962580E+03  0.21020540367E+03 -0.44076048258E+03  0.50000000000E+03  0.47000000000E+01 0.  1.
</event>
<event>
 4    1  0.4351282E-004  0.1000000E+04  0.7546771E-02  0.8684367E-01
         11   -1    0    0    0    0  0.00000000000E+00  0.00000000000E+00  0.50000000000E+03  0.50000000000E+03  0.00000000000E+00 0. -1.
        -11   -1    0    0    0    0 -0.00000000000E+00 -0.00000000000E+00 -0.50000000000E+03  0.50000000000E+03  0.00000000000E+00 0.  1.
          5    1    1    2  501    0  0.47348970648E+03 -0.10629727622E+03 -0.12035903343E+03  0.50000000000E+03  0.47000000000E+01 0. -1.
         -5    1    1    2    0  501 -0.47348970648E+03  0.10629727622E+03  0.12035903343E+03  0.50000000000E+03  0.47000000000E+01 0.  1.
</event>
<event>
 4    1  0.4351282E-004  0.1000000E+04  0.7546771E-02  0.8684367E-01
         11   -1    0    0    0    0  0.00000000000E+00  0.00000000000E+00  0.50000000000E+03  0.50000000000E+03  0.00000000000E+00 0. -1.
        -11   -1    0    0    0    0 -0.00000000000E+00 -0.00000000000E+00 -0.50000000000E+03  0.50000000000E+03  0.00000000000E+00 0.  1.
          5    1    1    2  501    0  0.38801794356E+03 -0.29959476693E+03 -0.98300361658E+02  0.50000000000E+03  0.47000000000E+01 0. -1.
         -5    1    1    2    0  501 -0.38801794356E+03  0.29959476693E+03  0.98300361658E+02  0.50000000000E+03  0.47000000000E+01 0.  1.
</event>
<event>
 4    1  0.4351282E-004  0.1000000E+04  0.7546771E-02  0.8684367E-01
         11   -1    0    0    0    0  0.00000000000E+00  0.00000000000E+00  0.50000000000E+03  0.50000000000E+03  0.00000000000E+00 0. -1.
        -11   -1    0    0    0    0 -0.00000000000E+00 -0.00000000000E+00 -0.50000000000E+03  0.50000000000E+03  0.00000000000E+00 0.  1.
          5    1    1    2  501    0  0.82365191625E+01 -0.48609209378E+03  0.11672423105E+03  0.50000000000E+03  0.47000000000E+01 0. -1.
         -5    1    1    2    0  501 -0.82365191625E+01  0.48609209378E+03 -0.11672423105E+03  0.50000000000E+03  0.47000000000E+01 0.  1.
</event>
<event>
 4    1  0.4351282E-004  0.1000000E+04  0.7546771E-02  0.8684367E-01
         11   -1    0    0    0    0  0.00000000000E+00  0.00000000000E+00  0.50000000000E+03  0.50000000000E+03  0.00000000000E+00 0. -1.
        -11   -1    0    0    0    0 -0.00000000000E+00 -0.00000000000E+00 -0.50000000000E+03  0.50000000000E+03  0.00000000000E+00 0.  1.
          5    1    1    2  501    0 -0.45077547287E+03  0.21574038793E+03  0.15344969055E+02  0.50000000000E+03  0.47000000000E+01 0. -1.
         -5    1    1    2    0  501  0.45077547287E+03 -0.21574038793E+03 -0.15344969055E+02  0.50000000000E+03  0.47000000000E+01 0.  1.
</event>
<event>
 4    1  0.4351282E-004  0.1000000E+04  0.7546771E-02  0.8684367E-01
         11   -1    0    0    0    0  0.00000000000E+00  0.00000000000E+00  0.50000000000E+03  0.50000000000E+03  0.00000000000E+00 0. -1.
        -11   -1    0    0    0    0 -0.00000000000E+00 -0.00000000000E+00 -0.50000000000E+03  0.50000000000E+03  0.00000000000E+00 0.  1.
          5    1    1    2  501    0 -0.31600349137E+03 -0.91414283542E+02  0.37651445152E+03  0.50000000000E+03  0.47000000000E+01 0. -1.
         -5    1    1    2    0  501  0.31600349137E+03  0.91414283542E+02 -0.37651445152E+03  0.50000000000E+03  0.47000000000E+01 0.  1.
</event>
<event>
 4    1  0.4351282E-004  0.1000000E+04  0.7546771E-02  0.8684367E-01
         11   -1    0    0    0    0  0.00000000000E+00  0.00000000000E+00  0.50000000000E+03  0.50000000000E+03  0.00000000000E+00 0. -1.
        -11   -1    0    0    0    0 -0.00000000000E+00 -0.00000000000E+00 -0.50000000000E+03  0.50000000000E+03  0.00000000000E+00 0.  1.
          5    1    1    2  501    0  0.89926600368E+02  0.21920787818E+03  0.44027153291E+03  0.50000000000E+03  0.47000000000E+01 0. -1.
         -5    1    1    2    0  501 -0.89926600368E+02 -0.21920787818E+03 -0.44027153291E+03  0.50000000000E+03  0.47000000000E+01 0.  1.
</event>
<event>
 4    1  0.4351282E-004  0.1000000E+04  0.7546771E-02  0.8684367E-01
         11   -1    0    0    0    0  0.00000000000E+00  0.00000000000E+00  0.50000000000E+03  0.50000000000E+03  0.00000000000E+00 0. -1.
        -11   -1    0    0    0    0 -0.00000000000E+00 -0.00000000000E+00 -0.50000000000E+03  0.50000000000E+03  0.00000000000E+00 0.  1.
          5    1    1    2  501    0  0.24720711204E+03 -0.43102256977E+03  0.55552660666E+02  0.50000000000E+03  0.47000000000E+01 0. -1.
         -5    1    1    2    0  501 -0.24720711204E+03  0.43102256977E+03 -0.55552660666E+02  0.50000000000E+03  0.47000000000E+01 0.  1.
</event>
<event>
 4    1  0.4351282E-004  0.1000000E+04  0.7546771E-02  0.8684367E-01
         11   -1    0    0    0    0  0.00000000000E+00  0.00000000000E+00  0.50000000000E+03  0.50000000000E+03  0.00000000000E+00 0. -1.
        -11   -1    0    0    0    0 -0.00000000000E+00 -0.00000000000E+00 -0.50000000000E+03  0.50000000000E+03  0.00000000000E+00 0.  1.
          5    1    1    2  501    0  0.40772266273E+02 -0.33944385814E+03  0.36481968077E+03  0.50000000000E+03  0.47000000000E+01 0. -1.
         -5    1    1    2    0  501 -0.40772266273E+02  0.33944385814E+03 -0.36481968077E+03  0.50000000000E+03  0.47000000000E+01 0.  1.
</event>
<event>
 4    1  0.4351282E-004  0.1000000E+04  0.7546771E-02  0.8684367E-01
         11   -1    0    0    0    0  0.00000000000E+00  0.00000000000E+00  0.50000000000E+03  0.50000000000E+03  0.00000000000E+00 0. -1.
        -11   -1    0    0    0    0 -0.00000000000E+00 -0.00000000000E+00 -0.50000000000E+03  0.50000000000E+03  0.00000000000E+00 0.  1.
          5    1    1    2  501    0  0.28017146118E+03  0.78094314674E+02  0.40667325995E+03  0.50000000000E+03  0.47000000000E+01 0. -1.
         -5    1    1    2    0  501 -0.28017146118E+03 -0.78094314674E+02 -0.40667325995E+03  0.50000000000E+03  0.47000000000E+01 0.  1.
</event>
<event>
 4    1  0.4351282E-004  0.1000000E+04  0.7546771E-02  0.8684367E-01
         11   -1    0    0    0    0  0.00000000000E+00  0.00000000000E+00  0.50000000000E+03  0.50000000000E+03  0.00000000000E+00 0. -1.
        -11   -1    0    0    0    0 -0.00000000000E+00 -0.00000000000E+00 -0.50000000000E+03  0.50000000000E+03  0.00000000000E+00 0.  1.
          5    1    1    2  501    0  0.32814683538E+03  0.93642085330E+02  0.36541582380E+03  0.50000000000E+03  0.47000000000E+01 0. -1.
         -5    1    1    2    0  501 -0.32814683538E+03 -0.93642085330E+02 -0.36541582380E+03  0.50000000000E+03  0.47000000000E+01 0.  1.
</event>
<event>
 4    1  0.4351282E-004  0.1000000E+04  0.7546771E-02  0.8684367E-01
         11   -1    0    0    0    0  0.00000000000E+00  0.00000000000E+00  0.50000000000E+03  0.50000000000E+03  0.00000000000E+00 0. -1.
        -11   -1    0    0    0    0 -0.00000000000E+00 -0.00000000000E+00 -0.50000000000E+03  0.50000000000E+03  0.00000000000E+00 0.  1.
          5    1    1    2  501    0 -0.22348953427E+03 -0.10210682588E+03  0.43543602765E+03  0.50000000000E+03  0.47000000000E+01 0. -1.
         -5    1    1    2    0  501  0.22348953427E+03  0.10210682588E+03 -0.43543602765E+03  0.50000000000E+03  0.47000000000E+01 0.  1.
</event>
<event>
 4    1  0.4351282E-004  0.1000000E+04  0.7546771E-02  0.8684367E-01
         11   -1    0    0    0    0  0.00000000000E+00  0.00000000000E+00  0.50000000000E+03  0.50000000000E+03  0.00000000000E+00 0. -1.
        -11   -1    0    0    0    0 -0.00000000000E+00 -0.00000000000E+00 -0.50000000000E+03  0.50000000000E+03  0.00000000000E+00 0.  1.
          5    1    1    2  501    0  0.32156505456E+03 -0.25380559023E+03  0.28662963569E+03  0.50000000000E+03  0.47000000000E+01 0. -1.
         -5    1    1    2    0  501 -0.32156505456E+03  0.25380559023E+03 -0.28662963569E+03  0.50000000000E+03  0.47000000000E+01 0.  1.
</event>
<event>
 4    1  0.4351282E-004  0.1000000E+04  0.7546771E-02  0.8684367E-01
         11   -1    0    0    0    0  0.00000000000E+00  0.00000000000E+00  0.50000000000E+03  0.50000000000E+03  0.00000000000E+00 0. -1.
        -11   -1    0    0    0    0 -0.00000000000E+00 -0.00000000000E+00 -0.50000000000E+03  0.50000000000E+03  0.00000000000E+00 0.  1.
          5    1    1    2  501    0 -0.29008640609E+03  0.40650136107E+03 -0.24174996471E+02  0.50000000000E+03  0.47000000000E+01 0. -1.
         -5    1    1    2    0  501  0.29008640609E+03 -0.40650136107E+03  0.24174996471E+02  0.50000000000E+03  0.47000000000E+01 0.  1.
</event>
<event>
 4    1  0.4351282E-004  0.1000000E+04  0.7546771E-02  0.8684367E-01
         11   -1    0    0    0    0  0.00000000000E+00  0.00000000000E+00  0.50000000000E+03  0.50000000000E+03  0.00000000000E+00 0. -1.
        -11   -1    0    0    0    0 -0.00000000000E+00 -0.00000000000E+00 -0.50000000000E+03  0.50000000000E+03  0.00000000000E+00 0.  1.
          5    1    1    2  501    0 -0.40830008625E+03 -0.18479522064E+03  0.22162959188E+03  0.50000000000E+03  0.47000000000E+01 0. -1.
         -5    1    1    2    0  501  0.40830008625E+03  0.18479522064E+03 -0.22162959188E+03  0.50000000000E+03  0.47000000000E+01 0.  1.
</event>
<event>
 4    1  0.4351282E-004  0.1000000E+04  0.7546771E-02  0.8684367E-01
         11   -1    0    0    0    0  0.00000000000E+00  0.00000000000E+00  0.50000000000E+03  0.50000000000E+03  0.00000000000E+00 0. -1.
        -11   -1    0    0    0    0 -0.00000000000E+00 -0.00000000000E+00 -0.50000000000E+03  0.50000000000E+03  0.00000000000E+00 0.  1.
          5    1    1    2  501    0 -0.20591420049E+03  0.37002199293E+03  0.26582132493E+03  0.50000000000E+03  0.47000000000E+01 0. -1.
         -5    1    1    2    0  501  0.20591420049E+03 -0.37002199293E+03 -0.26582132493E+03  0.50000000000E+03  0.47000000000E+01 0.  1.
</event>
<event>
 4    1  0.4351282E-004  0.1000000E+04  0.7546771E-02  0.8684367E-01
         11   -1    0    0    0    0  0.00000000000E+00  0.00000000000E+00  0.50000000000E+03  0.50000000000E+03  0.00000000000E+00 0. -1.
        -11   -1    0    0    0    0 -0.00000000000E+00 -0.00000000000E+00 -0.50000000000E+03  0.50000000000E+03  0.00000000000E+00 0.  1.
          5    1    1    2  501    0  0.47726164560E+03 -0.12465643287E+03  0.81608856050E+02  0.50000000000E+03  0.47000000000E+01 0. -1.
         -5    1    1    2    0  501 -0.47726164560E+03  0.12465643287E+03 -0.81608856050E+02  0.50000000000E+03  0.47000000000E+01 0.  1.
</event>
<event>
 4    1  0.4351282E-004  0.1000000E+04  0.7546771E-02  0.8684367E-01
         11   -1    0    0    0    0  0.00000000000E+00  0.00000000000E+00  0.50000000000E+03  0.50000000000E+03  0.00000000000E+00 0. -1.
        -11   -1    0    0    0    0 -0.00000000000E+00 -0.00000000000E+00 -0.50000000000E+03  0.50000000000E+03  0.00000000000E+00 0.  1.
          5    1    1    2  501    0 -0.45506072537E+03 -0.20297123972E+03  0.41234961810E+02  0.50000000000E+03  0.47000000000E+01 0. -1.
         -5    1    1    2    0  501  0.45506072537E+03  0.20297123972E+03 -0.41234961810E+02  0.50000000000E+03  0.47000000000E+01 0.  1.
</event>
<event>
 4    1  0.4351282E-004  0.1000000E+04  0.7546771E-02  0.8684367E-01
         11   -1    0    0    0    0  0.00000000000E+00  0.00000000000E+00  0.50000000000E+03  0.50000000000E+03  0.00000000000E+00 0.  1.
        -11   -1    0    0    0    0 -0.00000000000E+00 -0.00000000000E+00 -0.50000000000E+03  0.50000000000E+03  0.00000000000E+00 0. -1.
          5    1    1    2  501    0 -0.29541822686E+03 -0.28604833206E+03  0.28439819437E+03  0.50000000000E+03  0.47000000000E+01 0.  1.
         -5    1    1    2    0  501  0.29541822686E+03  0.28604833206E+03 -0.28439819437E+03  0.50000000000E+03  0.47000000000E+01 0. -1.
</event>
<event>
 4    1  0.4351282E-004  0.1000000E+04  0.7546771E-02  0.8684367E-01
         11   -1    0    0    0    0  0.00000000000E+00  0.00000000000E+00  0.50000000000E+03  0.50000000000E+03  0.00000000000E+00 0. -1.
        -11   -1    0    0    0    0 -0.00000000000E+00 -0.00000000000E+00 -0.50000000000E+03  0.50000000000E+03  0.00000000000E+00 0.  1.
          5    1    1    2  501    0 -0.49666367074E+03  0.52489344233E+02  0.23408906609E+02  0.50000000000E+03  0.47000000000E+01 0. -1.
         -5    1    1    2    0  501  0.49666367074E+03 -0.52489344233E+02 -0.23408906609E+02  0.50000000000E+03  0.47000000000E+01 0.  1.
</event>
<event>
 4    1  0.4351282E-004  0.1000000E+04  0.7546771E-02  0.8684367E-01
         11   -1    0    0    0    0  0.00000000000E+00  0.00000000000E+00  0.50000000000E+03  0.50000000000E+03  0.00000000000E+00 0. -1.
        -11   -1    0    0    0    0 -0.00000000000E+00 -0.00000000000E+00 -0.50000000000E+03  0.50000000000E+03  0.00000000000E+00 0.  1.
          5    1    1    2  501    0  0.70751342076E+02 -0.49272531786E+03 -0.46839286244E+02  0.50000000000E+03  0.47000000000E+01 0. -1.
         -5    1    1    2    0  501 -0.70751342076E+02  0.49272531786E+03  0.46839286244E+02  0.50000000000E+03  0.47000000000E+01 0.  1.
</event>
<event>
 4    1  0.4351282E-004  0.1000000E+04  0.7546771E-02  0.8684367E-01
         11   -1    0    0    0    0  0.00000000000E+00  0.00000000000E+00  0.50000000000E+03  0.50000000000E+03  0.00000000000E+00 0. -1.
        -11   -1    0    0    0    0 -0.00000000000E+00 -0.00000000000E+00 -0.50000000000E+03  0.50000000000E+03  0.00000000000E+00 0.  1.
          5    1    1    2  501    0 -0.26335197251E+03  0.13452625059E+03  0.40314555247E+03  0.50000000000E+03  0.47000000000E+01 0. -1.
         -5    1    1    2    0  501  0.26335197251E+03 -0.13452625059E+03 -0.40314555247E+03  0.50000000000E+03  0.47000000000E+01 0.  1.
</event>
<event>
 4    1  0.4351282E-004  0.1000000E+04  0.7546771E-02  0.8684367E-01
         11   -1    0    0    0    0  0.00000000000E+00  0.00000000000E+00  0.50000000000E+03  0.50000000000E+03  0.00000000000E+00 0. -1.
        -11   -1    0    0    0    0 -0.00000000000E+00 -0.00000000000E+00 -0.50000000000E+03  0.50000000000E+03  0.00000000000E+00 0.  1.
          5    1    1    2  501    0  0.38244805204E+03 -0.17682687797E+03  0.26915358574E+03  0.50000000000E+03  0.47000000000E+01 0. -1.
         -5    1    1    2    0  501 -0.38244805204E+03  0.17682687797E+03 -0.26915358574E+03  0.50000000000E+03  0.47000000000E+01 0.  1.
</event>
<event>
 4    1  0.4351282E-004  0.1000000E+04  0.7546771E-02  0.8684367E-01
         11   -1    0    0    0    0  0.00000000000E+00  0.00000000000E+00  0.50000000000E+03  0.50000000000E+03  0.00000000000E+00 0. -1.
        -11   -1    0    0    0    0 -0.00000000000E+00 -0.00000000000E+00 -0.50000000000E+03  0.50000000000E+03  0.00000000000E+00 0.  1.
          5    1    1    2  501    0  0.24501218415E+03 -0.31014775183E+03  0.30619489162E+03  0.50000000000E+03  0.47000000000E+01 0. -1.
         -5    1    1    2    0  501 -0.24501218415E+03  0.31014775183E+03 -0.30619489162E+03  0.50000000000E+03  0.47000000000E+01 0.  1.
</event>
<event>
 4    1  0.4351282E-004  0.1000000E+04  0.7546771E-02  0.8684367E-01
         11   -1    0    0    0    0  0.00000000000E+00  0.00000000000E+00  0.50000000000E+03  0.50000000000E+03  0.00000000000E+00 0. -1.
        -11   -1    0    0    0    0 -0.00000000000E+00 -0.00000000000E+00 -0.50000000000E+03  0.50000000000E+03  0.00000000000E+00 0.  1.
          5    1    1    2  501    0  0.45601226222E+03  0.18299572168E+03  0.92429933226E+02  0.50000000000E+03  0.47000000000E+01 0. -1.
         -5    1    1    2    0  501 -0.45601226222E+03 -0.18299572168E+03 -0.92429933226E+02  0.50000000000E+03  0.47000000000E+01 0.  1.
</event>
<event>
 4    1  0.4351282E-004  0.1000000E+04  0.7546771E-02  0.8684367E-01
         11   -1    0    0    0    0  0.00000000000E+00  0.00000000000E+00  0.50000000000E+03  0.50000000000E+03  0.00000000000E+00 0.  1.
        -11   -1    0    0    0    0 -0.00000000000E+00 -0.00000000000E+00 -0.50000000000E+03  0.50000000000E+03  0.00000000000E+00 0. -1.
          5    1    1    2  501    0  0.27570211339E+03 -0.37349269090E+03  0.18565953926E+03  0.50000000000E+03  0.47000000000E+01 0.  1.
         -5    1    1    2    0  501 -0.27570211339E+03  0.37349269090E+03 -0.18565953926E+03  0.50000000000E+03  0.47000000000E+01 0. -1.
</event>
<event>
 4    1  0.4351282E-004  0.1000000E+04  0.7546771E-02  0.8684367E-01
         11   -1    0    0    0    0  0.00000000000E+00  0.00000000000E+00  0.50000000000E+03  0.50000000000E+03  0.00000000000E+00 0.  1.
        -11   -1    0    0    0    0 -0.00000000000E+00 -0.00000000000E+00 -0.50000000000E+03  0.50000000000E+03  0.00000000000E+00 0. -1.
          5    1    1    2  501    0 -0.19387016984E+03  0.42656558545E+03 -0.17445362867E+03  0.50000000000E+03  0.47000000000E+01 0.  1.
         -5    1    1    2    0  501  0.19387016984E+03 -0.42656558545E+03  0.17445362867E+03  0.50000000000E+03  0.47000000000E+01 0. -1.
</event>
<event>
 4    1  0.4351282E-004  0.1000000E+04  0.7546771E-02  0.8684367E-01
         11   -1    0    0    0    0  0.00000000000E+00  0.00000000000E+00  0.50000000000E+03  0.50000000000E+03  0.00000000000E+00 0. -1.
        -11   -1    0    0    0    0 -0.00000000000E+00 -0.00000000000E+00 -0.50000000000E+03  0.50000000000E+03  0.00000000000E+00 0.  1.
          5    1    1    2  501    0 -0.42672053242E+03  0.97476489670E+02  0.24163160217E+03  0.50000000000E+03  0.47000000000E+01 0. -1.
         -5    1    1    2    0  501  0.42672053242E+03 -0.97476489670E+02 -0.24163160217E+03  0.50000000000E+03  0.47000000000E+01 0.  1.
</event>
<event>
 4    1  0.4351282E-004  0.1000000E+04  0.7546771E-02  0.8684367E-01
         11   -1    0    0    0    0  0.00000000000E+00  0.00000000000E+00  0.50000000000E+03  0.50000000000E+03  0.00000000000E+00 0. -1.
        -11   -1    0    0    0    0 -0.00000000000E+00 -0.00000000000E+00 -0.50000000000E+03  0.50000000000E+03  0.00000000000E+00 0.  1.
          5    1    1    2  501    0  0.16891521939E+03  0.18124982985E+03  0.43427417358E+03  0.50000000000E+03  0.47000000000E+01 0. -1.
         -5    1    1    2    0  501 -0.16891521939E+03 -0.18124982985E+03 -0.43427417358E+03  0.50000000000E+03  0.47000000000E+01 0.  1.
</event>
<event>
 4    1  0.4351282E-004  0.1000000E+04  0.7546771E-02  0.8684367E-01
         11   -1    0    0    0    0  0.00000000000E+00  0.00000000000E+00  0.50000000000E+03  0.50000000000E+03  0.00000000000E+00 0. -1.
        -11   -1    0    0    0    0 -0.00000000000E+00 -0.00000000000E+00 -0.50000000000E+03  0.50000000000E+03  0.00000000000E+00 0.  1.
          5    1    1    2  501    0  0.32992218107E+03 -0.15390329547E+03  0.34269963537E+03  0.50000000000E+03  0.47000000000E+01 0. -1.
         -5    1    1    2    0  501 -0.32992218107E+03  0.15390329547E+03 -0.34269963537E+03  0.50000000000E+03  0.47000000000E+01 0.  1.
</event>
<event>
 4    1  0.4351282E-004  0.1000000E+04  0.7546771E-02  0.8684367E-01
         11   -1    0    0    0    0  0.00000000000E+00  0.00000000000E+00  0.50000000000E+03  0.50000000000E+03  0.00000000000E+00 0. -1.
        -11   -1    0    0    0    0 -0.00000000000E+00 -0.00000000000E+00 -0.50000000000E+03  0.50000000000E+03  0.00000000000E+00 0.  1.
          5    1    1    2  501    0  0.71247574843E+02  0.27133119549E+03  0.41386117894E+03  0.50000000000E+03  0.47000000000E+01 0. -1.
         -5    1    1    2    0  501 -0.71247574843E+02 -0.27133119549E+03 -0.41386117894E+03  0.50000000000E+03  0.47000000000E+01 0.  1.
</event>
<event>
 4    1  0.4351282E-004  0.1000000E+04  0.7546771E-02  0.8684367E-01
         11   -1    0    0    0    0  0.00000000000E+00  0.00000000000E+00  0.50000000000E+03  0.50000000000E+03  0.00000000000E+00 0. -1.
        -11   -1    0    0    0    0 -0.00000000000E+00 -0.00000000000E+00 -0.50000000000E+03  0.50000000000E+03  0.00000000000E+00 0.  1.
          5    1    1    2  501    0  0.49295638248E+03  0.72757571340E+02  0.40966459319E+02  0.50000000000E+03  0.47000000000E+01 0. -1.
         -5    1    1    2    0  501 -0.49295638248E+03 -0.72757571340E+02 -0.40966459319E+02  0.50000000000E+03  0.47000000000E+01 0.  1.
</event>
<event>
 4    1  0.4351282E-004  0.1000000E+04  0.7546771E-02  0.8684367E-01
         11   -1    0    0    0    0  0.00000000000E+00  0.00000000000E+00  0.50000000000E+03  0.50000000000E+03  0.00000000000E+00 0. -1.
        -11   -1    0    0    0    0 -0.00000000000E+00 -0.00000000000E+00 -0.50000000000E+03  0.50000000000E+03  0.00000000000E+00 0.  1.
          5    1    1    2  501    0  0.34615578758E+03 -0.14115160635E+03  0.33200949497E+03  0.50000000000E+03  0.47000000000E+01 0. -1.
         -5    1    1    2    0  501 -0.34615578758E+03  0.14115160635E+03 -0.33200949497E+03  0.50000000000E+03  0.47000000000E+01 0.  1.
</event>
<event>
 4    1  0.4351282E-004  0.1000000E+04  0.7546771E-02  0.8684367E-01
         11   -1    0    0    0    0  0.00000000000E+00  0.00000000000E+00  0.50000000000E+03  0.50000000000E+03  0.00000000000E+00 0.  1.
        -11   -1    0    0    0    0 -0.00000000000E+00 -0.00000000000E+00 -0.50000000000E+03  0.50000000000E+03  0.00000000000E+00 0. -1.
          5    1    1    2  501    0  0.22290086827E+03  0.26843396402E+03  0.35810099118E+03  0.50000000000E+03  0.47000000000E+01 0.  1.
         -5    1    1    2    0  501 -0.22290086827E+03 -0.26843396402E+03 -0.35810099118E+03  0.50000000000E+03  0.47000000000E+01 0. -1.
</event>
<event>
 4    1  0.4351282E-004  0.1000000E+04  0.7546771E-02  0.8684367E-01
         11   -1    0    0    0    0  0.00000000000E+00  0.00000000000E+00  0.50000000000E+03  0.50000000000E+03  0.00000000000E+00 0. -1.
        -11   -1    0    0    0    0 -0.00000000000E+00 -0.00000000000E+00 -0.50000000000E+03  0.50000000000E+03  0.00000000000E+00 0.  1.
          5    1    1    2  501    0 -0.36863844999E+03 -0.31195285456E+03  0.12949524979E+03  0.50000000000E+03  0.47000000000E+01 0. -1.
         -5    1    1    2    0  501  0.36863844999E+03  0.31195285456E+03 -0.12949524979E+03  0.50000000000E+03  0.47000000000E+01 0.  1.
</event>
<event>
 4    1  0.4351282E-004  0.1000000E+04  0.7546771E-02  0.8684367E-01
         11   -1    0    0    0    0  0.00000000000E+00  0.00000000000E+00  0.50000000000E+03  0.50000000000E+03  0.00000000000E+00 0. -1.
        -11   -1    0    0    0    0 -0.00000000000E+00 -0.00000000000E+00 -0.50000000000E+03  0.50000000000E+03  0.00000000000E+00 0.  1.
          5    1    1    2  501    0  0.34413410421E+03 -0.35580358518E+03 -0.70380658502E+02  0.50000000000E+03  0.47000000000E+01 0. -1.
         -5    1    1    2    0  501 -0.34413410421E+03  0.35580358518E+03  0.70380658502E+02  0.50000000000E+03  0.47000000000E+01 0.  1.
</event>
<event>
 4    1  0.4351282E-004  0.1000000E+04  0.7546771E-02  0.8684367E-01
         11   -1    0    0    0    0  0.00000000000E+00  0.00000000000E+00  0.50000000000E+03  0.50000000000E+03  0.00000000000E+00 0. -1.
        -11   -1    0    0    0    0 -0.00000000000E+00 -0.00000000000E+00 -0.50000000000E+03  0.50000000000E+03  0.00000000000E+00 0.  1.
          5    1    1    2  501    0  0.89875865909E+02 -0.44211270456E+03 -0.21549152000E+03  0.50000000000E+03  0.47000000000E+01 0. -1.
         -5    1    1    2    0  501 -0.89875865909E+02  0.44211270456E+03  0.21549152000E+03  0.50000000000E+03  0.47000000000E+01 0.  1.
</event>
<event>
 4    1  0.4351282E-004  0.1000000E+04  0.7546771E-02  0.8684367E-01
         11   -1    0    0    0    0  0.00000000000E+00  0.00000000000E+00  0.50000000000E+03  0.50000000000E+03  0.00000000000E+00 0. -1.
        -11   -1    0    0    0    0 -0.00000000000E+00 -0.00000000000E+00 -0.50000000000E+03  0.50000000000E+03  0.00000000000E+00 0.  1.
          5    1    1    2  501    0 -0.26800822562E+03 -0.26974077250E+03  0.32463736177E+03  0.50000000000E+03  0.47000000000E+01 0. -1.
         -5    1    1    2    0  501  0.26800822562E+03  0.26974077250E+03 -0.32463736177E+03  0.50000000000E+03  0.47000000000E+01 0.  1.
</event>
<event>
 4    1  0.4351282E-004  0.1000000E+04  0.7546771E-02  0.8684367E-01
         11   -1    0    0    0    0  0.00000000000E+00  0.00000000000E+00  0.50000000000E+03  0.50000000000E+03  0.00000000000E+00 0. -1.
        -11   -1    0    0    0    0 -0.00000000000E+00 -0.00000000000E+00 -0.50000000000E+03  0.50000000000E+03  0.00000000000E+00 0.  1.
          5    1    1    2  501    0  0.34399817320E+03  0.22942039326E+03  0.28108619673E+03  0.50000000000E+03  0.47000000000E+01 0. -1.
         -5    1    1    2    0  501 -0.34399817320E+03 -0.22942039326E+03 -0.28108619673E+03  0.50000000000E+03  0.47000000000E+01 0.  1.
</event>
<event>
 4    1  0.4351282E-004  0.1000000E+04  0.7546771E-02  0.8684367E-01
         11   -1    0    0    0    0  0.00000000000E+00  0.00000000000E+00  0.50000000000E+03  0.50000000000E+03  0.00000000000E+00 0. -1.
        -11   -1    0    0    0    0 -0.00000000000E+00 -0.00000000000E+00 -0.50000000000E+03  0.50000000000E+03  0.00000000000E+00 0.  1.
          5    1    1    2  501    0 -0.43852352116E+03 -0.14738258645E+02 -0.23970359848E+03  0.50000000000E+03  0.47000000000E+01 0. -1.
         -5    1    1    2    0  501  0.43852352116E+03  0.14738258645E+02  0.23970359848E+03  0.50000000000E+03  0.47000000000E+01 0.  1.
</event>
<event>
 4    1  0.4351282E-004  0.1000000E+04  0.7546771E-02  0.8684367E-01
         11   -1    0    0    0    0  0.00000000000E+00  0.00000000000E+00  0.50000000000E+03  0.50000000000E+03  0.00000000000E+00 0. -1.
        -11   -1    0    0    0    0 -0.00000000000E+00 -0.00000000000E+00 -0.50000000000E+03  0.50000000000E+03  0.00000000000E+00 0.  1.
          5    1    1    2  501    0 -0.43684440499E+03  0.15343629670E+02  0.24271268788E+03  0.50000000000E+03  0.47000000000E+01 0. -1.
         -5    1    1    2    0  501  0.43684440499E+03 -0.15343629670E+02 -0.24271268788E+03  0.50000000000E+03  0.47000000000E+01 0.  1.
</event>
<event>
 4    1  0.4351282E-004  0.1000000E+04  0.7546771E-02  0.8684367E-01
         11   -1    0    0    0    0  0.00000000000E+00  0.00000000000E+00  0.50000000000E+03  0.50000000000E+03  0.00000000000E+00 0.  1.
        -11   -1    0    0    0    0 -0.00000000000E+00 -0.00000000000E+00 -0.50000000000E+03  0.50000000000E+03  0.00000000000E+00 0. -1.
          5    1    1    2  501    0  0.13358587896E+03 -0.45660187503E+03  0.15377727617E+03  0.50000000000E+03  0.47000000000E+01 0.  1.
         -5    1    1    2    0  501 -0.13358587896E+03  0.45660187503E+03 -0.15377727617E+03  0.50000000000E+03  0.47000000000E+01 0. -1.
</event>
<event>
 4    1  0.4351282E-004  0.1000000E+04  0.7546771E-02  0.8684367E-01
         11   -1    0    0    0    0  0.00000000000E+00  0.00000000000E+00  0.50000000000E+03  0.50000000000E+03  0.00000000000E+00 0.  1.
        -11   -1    0    0    0    0 -0.00000000000E+00 -0.00000000000E+00 -0.50000000000E+03  0.50000000000E+03  0.00000000000E+00 0. -1.
          5    1    1    2  501    0 -0.29243592896E+03  0.12145954167E+02  0.40535368908E+03  0.50000000000E+03  0.47000000000E+01 0.  1.
         -5    1    1    2    0  501  0.29243592896E+03 -0.12145954167E+02 -0.40535368908E+03  0.50000000000E+03  0.47000000000E+01 0. -1.
</event>
<event>
 4    1  0.4351282E-004  0.1000000E+04  0.7546771E-02  0.8684367E-01
         11   -1    0    0    0    0  0.00000000000E+00  0.00000000000E+00  0.50000000000E+03  0.50000000000E+03  0.00000000000E+00 0. -1.
        -11   -1    0    0    0    0 -0.00000000000E+00 -0.00000000000E+00 -0.50000000000E+03  0.50000000000E+03  0.00000000000E+00 0.  1.
          5    1    1    2  501    0  0.41188600212E+03  0.18304330872E+03  0.21638617884E+03  0.50000000000E+03  0.47000000000E+01 0. -1.
         -5    1    1    2    0  501 -0.41188600212E+03 -0.18304330872E+03 -0.21638617884E+03  0.50000000000E+03  0.47000000000E+01 0.  1.
</event>
<event>
 4    1  0.4351282E-004  0.1000000E+04  0.7546771E-02  0.8684367E-01
         11   -1    0    0    0    0  0.00000000000E+00  0.00000000000E+00  0.50000000000E+03  0.50000000000E+03  0.00000000000E+00 0. -1.
        -11   -1    0    0    0    0 -0.00000000000E+00 -0.00000000000E+00 -0.50000000000E+03  0.50000000000E+03  0.00000000000E+00 0.  1.
          5    1    1    2  501    0  0.96178291040E+02 -0.18668825669E+03  0.45373465941E+03  0.50000000000E+03  0.47000000000E+01 0. -1.
         -5    1    1    2    0  501 -0.96178291040E+02  0.18668825669E+03 -0.45373465941E+03  0.50000000000E+03  0.47000000000E+01 0.  1.
</event>
<event>
 4    1  0.4351282E-004  0.1000000E+04  0.7546771E-02  0.8684367E-01
         11   -1    0    0    0    0  0.00000000000E+00  0.00000000000E+00  0.50000000000E+03  0.50000000000E+03  0.00000000000E+00 0. -1.
        -11   -1    0    0    0    0 -0.00000000000E+00 -0.00000000000E+00 -0.50000000000E+03  0.50000000000E+03  0.00000000000E+00 0.  1.
          5    1    1    2  501    0  0.40364380654E+03 -0.28644863461E+03  0.70687814868E+02  0.50000000000E+03  0.47000000000E+01 0. -1.
         -5    1    1    2    0  501 -0.40364380654E+03  0.28644863461E+03 -0.70687814868E+02  0.50000000000E+03  0.47000000000E+01 0.  1.
</event>
<event>
 4    1  0.4351282E-004  0.1000000E+04  0.7546771E-02  0.8684367E-01
         11   -1    0    0    0    0  0.00000000000E+00  0.00000000000E+00  0.50000000000E+03  0.50000000000E+03  0.00000000000E+00 0. -1.
        -11   -1    0    0    0    0 -0.00000000000E+00 -0.00000000000E+00 -0.50000000000E+03  0.50000000000E+03  0.00000000000E+00 0.  1.
          5    1    1    2  501    0  0.21956983020E+03 -0.31319061226E+03  0.32199167700E+03  0.50000000000E+03  0.47000000000E+01 0. -1.
         -5    1    1    2    0  501 -0.21956983020E+03  0.31319061226E+03 -0.32199167700E+03  0.50000000000E+03  0.47000000000E+01 0.  1.
</event>
<event>
 4    1  0.4351282E-004  0.1000000E+04  0.7546771E-02  0.8684367E-01
         11   -1    0    0    0    0  0.00000000000E+00  0.00000000000E+00  0.50000000000E+03  0.50000000000E+03  0.00000000000E+00 0. -1.
        -11   -1    0    0    0    0 -0.00000000000E+00 -0.00000000000E+00 -0.50000000000E+03  0.50000000000E+03  0.00000000000E+00 0.  1.
          5    1    1    2  501    0 -0.36148518871E+02 -0.33992558214E+03 -0.36485859342E+03  0.50000000000E+03  0.47000000000E+01 0. -1.
         -5    1    1    2    0  501  0.36148518871E+02  0.33992558214E+03  0.36485859342E+03  0.50000000000E+03  0.47000000000E+01 0.  1.
</event>
<event>
 4    1  0.4351282E-004  0.1000000E+04  0.7546771E-02  0.8684367E-01
         11   -1    0    0    0    0  0.00000000000E+00  0.00000000000E+00  0.50000000000E+03  0.50000000000E+03  0.00000000000E+00 0. -1.
        -11   -1    0    0    0    0 -0.00000000000E+00 -0.00000000000E+00 -0.50000000000E+03  0.50000000000E+03  0.00000000000E+00 0.  1.
          5    1    1    2  501    0  0.11535887069E+03  0.32775821029E+03  0.35950632337E+03  0.50000000000E+03  0.47000000000E+01 0. -1.
         -5    1    1    2    0  501 -0.11535887069E+03 -0.32775821029E+03 -0.35950632337E+03  0.50000000000E+03  0.47000000000E+01 0.  1.
</event>
<event>
 4    1  0.4351282E-004  0.1000000E+04  0.7546771E-02  0.8684367E-01
         11   -1    0    0    0    0  0.00000000000E+00  0.00000000000E+00  0.50000000000E+03  0.50000000000E+03  0.00000000000E+00 0. -1.
        -11   -1    0    0    0    0 -0.00000000000E+00 -0.00000000000E+00 -0.50000000000E+03  0.50000000000E+03  0.00000000000E+00 0.  1.
          5    1    1    2  501    0  0.46062113767E+03 -0.83770879705E+02  0.17546657016E+03  0.50000000000E+03  0.47000000000E+01 0. -1.
         -5    1    1    2    0  501 -0.46062113767E+03  0.83770879705E+02 -0.17546657016E+03  0.50000000000E+03  0.47000000000E+01 0.  1.
</event>
<event>
 4    1  0.4351282E-004  0.1000000E+04  0.7546771E-02  0.8684367E-01
         11   -1    0    0    0    0  0.00000000000E+00  0.00000000000E+00  0.50000000000E+03  0.50000000000E+03  0.00000000000E+00 0. -1.
        -11   -1    0    0    0    0 -0.00000000000E+00 -0.00000000000E+00 -0.50000000000E+03  0.50000000000E+03  0.00000000000E+00 0.  1.
          5    1    1    2  501    0  0.24733640489E+03  0.28724757043E+03  0.32602368948E+03  0.50000000000E+03  0.47000000000E+01 0. -1.
         -5    1    1    2    0  501 -0.24733640489E+03 -0.28724757043E+03 -0.32602368948E+03  0.50000000000E+03  0.47000000000E+01 0.  1.
</event>
<event>
 4    1  0.4351282E-004  0.1000000E+04  0.7546771E-02  0.8684367E-01
         11   -1    0    0    0    0  0.00000000000E+00  0.00000000000E+00  0.50000000000E+03  0.50000000000E+03  0.00000000000E+00 0. -1.
        -11   -1    0    0    0    0 -0.00000000000E+00 -0.00000000000E+00 -0.50000000000E+03  0.50000000000E+03  0.00000000000E+00 0.  1.
          5    1    1    2  501    0  0.11521923658E+02 -0.33182013608E+03  0.37381887668E+03  0.50000000000E+03  0.47000000000E+01 0. -1.
         -5    1    1    2    0  501 -0.11521923658E+02  0.33182013608E+03 -0.37381887668E+03  0.50000000000E+03  0.47000000000E+01 0.  1.
</event>
<event>
 4    1  0.4351282E-004  0.1000000E+04  0.7546771E-02  0.8684367E-01
         11   -1    0    0    0    0  0.00000000000E+00  0.00000000000E+00  0.50000000000E+03  0.50000000000E+03  0.00000000000E+00 0. -1.
        -11   -1    0    0    0    0 -0.00000000000E+00 -0.00000000000E+00 -0.50000000000E+03  0.50000000000E+03  0.00000000000E+00 0.  1.
          5    1    1    2  501    0  0.39571920058E+03 -0.21029296640E+03 -0.22172300867E+03  0.50000000000E+03  0.47000000000E+01 0. -1.
         -5    1    1    2    0  501 -0.39571920058E+03  0.21029296640E+03  0.22172300867E+03  0.50000000000E+03  0.47000000000E+01 0.  1.
</event>
<event>
 4    1  0.4351282E-004  0.1000000E+04  0.7546771E-02  0.8684367E-01
         11   -1    0    0    0    0  0.00000000000E+00  0.00000000000E+00  0.50000000000E+03  0.50000000000E+03  0.00000000000E+00 0. -1.
        -11   -1    0    0    0    0 -0.00000000000E+00 -0.00000000000E+00 -0.50000000000E+03  0.50000000000E+03  0.00000000000E+00 0.  1.
          5    1    1    2  501    0 -0.70675110672E+02  0.29786152071E+01  0.49494854943E+03  0.50000000000E+03  0.47000000000E+01 0. -1.
         -5    1    1    2    0  501  0.70675110672E+02 -0.29786152071E+01 -0.49494854943E+03  0.50000000000E+03  0.47000000000E+01 0.  1.
</event>
<event>
 4    1  0.4351282E-004  0.1000000E+04  0.7546771E-02  0.8684367E-01
         11   -1    0    0    0    0  0.00000000000E+00  0.00000000000E+00  0.50000000000E+03  0.50000000000E+03  0.00000000000E+00 0. -1.
        -11   -1    0    0    0    0 -0.00000000000E+00 -0.00000000000E+00 -0.50000000000E+03  0.50000000000E+03  0.00000000000E+00 0.  1.
          5    1    1    2  501    0 -0.26027756397E+03  0.39646362226E+03  0.15827222094E+03  0.50000000000E+03  0.47000000000E+01 0. -1.
         -5    1    1    2    0  501  0.26027756397E+03 -0.39646362226E+03 -0.15827222094E+03  0.50000000000E+03  0.47000000000E+01 0.  1.
</event>
<event>
 4    1  0.4351282E-004  0.1000000E+04  0.7546771E-02  0.8684367E-01
         11   -1    0    0    0    0  0.00000000000E+00  0.00000000000E+00  0.50000000000E+03  0.50000000000E+03  0.00000000000E+00 0. -1.
        -11   -1    0    0    0    0 -0.00000000000E+00 -0.00000000000E+00 -0.50000000000E+03  0.50000000000E+03  0.00000000000E+00 0.  1.
          5    1    1    2  501    0  0.11670575310E+03  0.47956824104E+03  0.79824678995E+02  0.50000000000E+03  0.47000000000E+01 0. -1.
         -5    1    1    2    0  501 -0.11670575310E+03 -0.47956824104E+03 -0.79824678995E+02  0.50000000000E+03  0.47000000000E+01 0.  1.
</event>
<event>
 4    1  0.4351282E-004  0.1000000E+04  0.7546771E-02  0.8684367E-01
         11   -1    0    0    0    0  0.00000000000E+00  0.00000000000E+00  0.50000000000E+03  0.50000000000E+03  0.00000000000E+00 0. -1.
        -11   -1    0    0    0    0 -0.00000000000E+00 -0.00000000000E+00 -0.50000000000E+03  0.50000000000E+03  0.00000000000E+00 0.  1.
          5    1    1    2  501    0  0.90021707411E+02 -0.15261588891E+03  0.46752795921E+03  0.50000000000E+03  0.47000000000E+01 0. -1.
         -5    1    1    2    0  501 -0.90021707411E+02  0.15261588891E+03 -0.46752795921E+03  0.50000000000E+03  0.47000000000E+01 0.  1.
</event>
<event>
 4    1  0.4351282E-004  0.1000000E+04  0.7546771E-02  0.8684367E-01
         11   -1    0    0    0    0  0.00000000000E+00  0.00000000000E+00  0.50000000000E+03  0.50000000000E+03  0.00000000000E+00 0. -1.
        -11   -1    0    0    0    0 -0.00000000000E+00 -0.00000000000E+00 -0.50000000000E+03  0.50000000000E+03  0.00000000000E+00 0.  1.
          5    1    1    2  501    0 -0.26464395008E+02  0.28169605872E+02  0.49848171391E+03  0.50000000000E+03  0.47000000000E+01 0. -1.
         -5    1    1    2    0  501  0.26464395008E+02 -0.28169605872E+02 -0.49848171391E+03  0.50000000000E+03  0.47000000000E+01 0.  1.
</event>
<event>
 4    1  0.4351282E-004  0.1000000E+04  0.7546771E-02  0.8684367E-01
         11   -1    0    0    0    0  0.00000000000E+00  0.00000000000E+00  0.50000000000E+03  0.50000000000E+03  0.00000000000E+00 0. -1.
        -11   -1    0    0    0    0 -0.00000000000E+00 -0.00000000000E+00 -0.50000000000E+03  0.50000000000E+03  0.00000000000E+00 0.  1.
          5    1    1    2  501    0  0.17129626214E+03 -0.36817057005E+03  0.29169492955E+03  0.50000000000E+03  0.47000000000E+01 0. -1.
         -5    1    1    2    0  501 -0.17129626214E+03  0.36817057005E+03 -0.29169492955E+03  0.50000000000E+03  0.47000000000E+01 0.  1.
</event>
<event>
 4    1  0.4351282E-004  0.1000000E+04  0.7546771E-02  0.8684367E-01
         11   -1    0    0    0    0  0.00000000000E+00  0.00000000000E+00  0.50000000000E+03  0.50000000000E+03  0.00000000000E+00 0. -1.
        -11   -1    0    0    0    0 -0.00000000000E+00 -0.00000000000E+00 -0.50000000000E+03  0.50000000000E+03  0.00000000000E+00 0.  1.
          5    1    1    2  501    0  0.43748248539E+03 -0.15187940973E+03  0.18846652190E+03  0.50000000000E+03  0.47000000000E+01 0. -1.
         -5    1    1    2    0  501 -0.43748248539E+03  0.15187940973E+03 -0.18846652190E+03  0.50000000000E+03  0.47000000000E+01 0.  1.
</event>
<event>
 4    1  0.4351282E-004  0.1000000E+04  0.7546771E-02  0.8684367E-01
         11   -1    0    0    0    0  0.00000000000E+00  0.00000000000E+00  0.50000000000E+03  0.50000000000E+03  0.00000000000E+00 0. -1.
        -11   -1    0    0    0    0 -0.00000000000E+00 -0.00000000000E+00 -0.50000000000E+03  0.50000000000E+03  0.00000000000E+00 0.  1.
          5    1    1    2  501    0 -0.17029694315E+03 -0.45421338590E+03 -0.12110764312E+03  0.50000000000E+03  0.47000000000E+01 0. -1.
         -5    1    1    2    0  501  0.17029694315E+03  0.45421338590E+03  0.12110764312E+03  0.50000000000E+03  0.47000000000E+01 0.  1.
</event>
<event>
 4    1  0.4351282E-004  0.1000000E+04  0.7546771E-02  0.8684367E-01
         11   -1    0    0    0    0  0.00000000000E+00  0.00000000000E+00  0.50000000000E+03  0.50000000000E+03  0.00000000000E+00 0. -1.
        -11   -1    0    0    0    0 -0.00000000000E+00 -0.00000000000E+00 -0.50000000000E+03  0.50000000000E+03  0.00000000000E+00 0.  1.
          5    1    1    2  501    0  0.36750984692E+03  0.21961544838E+03  0.25823144125E+03  0.50000000000E+03  0.47000000000E+01 0. -1.
         -5    1    1    2    0  501 -0.36750984692E+03 -0.21961544838E+03 -0.25823144125E+03  0.50000000000E+03  0.47000000000E+01 0.  1.
</event>
<event>
 4    1  0.4351282E-004  0.1000000E+04  0.7546771E-02  0.8684367E-01
         11   -1    0    0    0    0  0.00000000000E+00  0.00000000000E+00  0.50000000000E+03  0.50000000000E+03  0.00000000000E+00 0. -1.
        -11   -1    0    0    0    0 -0.00000000000E+00 -0.00000000000E+00 -0.50000000000E+03  0.50000000000E+03  0.00000000000E+00 0.  1.
          5    1    1    2  501    0 -0.38769091382E+03  0.13711965028E+03  0.28437979332E+03  0.50000000000E+03  0.47000000000E+01 0. -1.
         -5    1    1    2    0  501  0.38769091382E+03 -0.13711965028E+03 -0.28437979332E+03  0.50000000000E+03  0.47000000000E+01 0.  1.
</event>
<event>
 4    1  0.4351282E-004  0.1000000E+04  0.7546771E-02  0.8684367E-01
         11   -1    0    0    0    0  0.00000000000E+00  0.00000000000E+00  0.50000000000E+03  0.50000000000E+03  0.00000000000E+00 0. -1.
        -11   -1    0    0    0    0 -0.00000000000E+00 -0.00000000000E+00 -0.50000000000E+03  0.50000000000E+03  0.00000000000E+00 0.  1.
          5    1    1    2  501    0 -0.47643378580E+03  0.13289951729E+03  0.72982710678E+02  0.50000000000E+03  0.47000000000E+01 0. -1.
         -5    1    1    2    0  501  0.47643378580E+03 -0.13289951729E+03 -0.72982710678E+02  0.50000000000E+03  0.47000000000E+01 0.  1.
</event>
<event>
 4    1  0.4351282E-004  0.1000000E+04  0.7546771E-02  0.8684367E-01
         11   -1    0    0    0    0  0.00000000000E+00  0.00000000000E+00  0.50000000000E+03  0.50000000000E+03  0.00000000000E+00 0.  1.
        -11   -1    0    0    0    0 -0.00000000000E+00 -0.00000000000E+00 -0.50000000000E+03  0.50000000000E+03  0.00000000000E+00 0. -1.
          5    1    1    2  501    0 -0.31191894016E+03 -0.38985035856E+03 -0.26479854633E+02  0.50000000000E+03  0.47000000000E+01 0.  1.
         -5    1    1    2    0  501  0.31191894016E+03  0.38985035856E+03  0.26479854633E+02  0.50000000000E+03  0.47000000000E+01 0. -1.
</event>
<event>
 4    1  0.4351282E-004  0.1000000E+04  0.7546771E-02  0.8684367E-01
         11   -1    0    0    0    0  0.00000000000E+00  0.00000000000E+00  0.50000000000E+03  0.50000000000E+03  0.00000000000E+00 0. -1.
        -11   -1    0    0    0    0 -0.00000000000E+00 -0.00000000000E+00 -0.50000000000E+03  0.50000000000E+03  0.00000000000E+00 0.  1.
          5    1    1    2  501    0  0.48829209342E+03 -0.57982877084E+02 -0.90480536430E+02  0.50000000000E+03  0.47000000000E+01 0. -1.
         -5    1    1    2    0  501 -0.48829209342E+03  0.57982877084E+02  0.90480536430E+02  0.50000000000E+03  0.47000000000E+01 0.  1.
</event>
<event>
 4    1  0.4351282E-004  0.1000000E+04  0.7546771E-02  0.8684367E-01
         11   -1    0    0    0    0  0.00000000000E+00  0.00000000000E+00  0.50000000000E+03  0.50000000000E+03  0.00000000000E+00 0. -1.
        -11   -1    0    0    0    0 -0.00000000000E+00 -0.00000000000E+00 -0.50000000000E+03  0.50000000000E+03  0.00000000000E+00 0.  1.
          5    1    1    2  501    0  0.28950184308E+03 -0.39888090871E+03 -0.84027456968E+02  0.50000000000E+03  0.47000000000E+01 0. -1.
         -5    1    1    2    0  501 -0.28950184308E+03  0.39888090871E+03  0.84027456968E+02  0.50000000000E+03  0.47000000000E+01 0.  1.
</event>
<event>
 4    1  0.4351282E-004  0.1000000E+04  0.7546771E-02  0.8684367E-01
         11   -1    0    0    0    0  0.00000000000E+00  0.00000000000E+00  0.50000000000E+03  0.50000000000E+03  0.00000000000E+00 0.  1.
        -11   -1    0    0    0    0 -0.00000000000E+00 -0.00000000000E+00 -0.50000000000E+03  0.50000000000E+03  0.00000000000E+00 0. -1.
          5    1    1    2  501    0  0.22143178582E+02  0.23680694608E+03  0.43978410604E+03  0.50000000000E+03  0.47000000000E+01 0.  1.
         -5    1    1    2    0  501 -0.22143178582E+02 -0.23680694608E+03 -0.43978410604E+03  0.50000000000E+03  0.47000000000E+01 0. -1.
</event>
<event>
 4    1  0.4351282E-004  0.1000000E+04  0.7546771E-02  0.8684367E-01
         11   -1    0    0    0    0  0.00000000000E+00  0.00000000000E+00  0.50000000000E+03  0.50000000000E+03  0.00000000000E+00 0. -1.
        -11   -1    0    0    0    0 -0.00000000000E+00 -0.00000000000E+00 -0.50000000000E+03  0.50000000000E+03  0.00000000000E+00 0.  1.
          5    1    1    2  501    0 -0.40992954317E+03  0.14993305071E+03  0.24383551821E+03  0.50000000000E+03  0.47000000000E+01 0. -1.
         -5    1    1    2    0  501  0.40992954317E+03 -0.14993305071E+03 -0.24383551821E+03  0.50000000000E+03  0.47000000000E+01 0.  1.
</event>
<event>
 4    1  0.4351282E-004  0.1000000E+04  0.7546771E-02  0.8684367E-01
         11   -1    0    0    0    0  0.00000000000E+00  0.00000000000E+00  0.50000000000E+03  0.50000000000E+03  0.00000000000E+00 0. -1.
        -11   -1    0    0    0    0 -0.00000000000E+00 -0.00000000000E+00 -0.50000000000E+03  0.50000000000E+03  0.00000000000E+00 0.  1.
          5    1    1    2  501    0  0.25252607236E+03  0.25664333288E+03  0.34690444284E+03  0.50000000000E+03  0.47000000000E+01 0. -1.
         -5    1    1    2    0  501 -0.25252607236E+03 -0.25664333288E+03 -0.34690444284E+03  0.50000000000E+03  0.47000000000E+01 0.  1.
</event>
<event>
 4    1  0.4351282E-004  0.1000000E+04  0.7546771E-02  0.8684367E-01
         11   -1    0    0    0    0  0.00000000000E+00  0.00000000000E+00  0.50000000000E+03  0.50000000000E+03  0.00000000000E+00 0. -1.
        -11   -1    0    0    0    0 -0.00000000000E+00 -0.00000000000E+00 -0.50000000000E+03  0.50000000000E+03  0.00000000000E+00 0.  1.
          5    1    1    2  501    0  0.30615655282E+03  0.68536579732E+02  0.38929270787E+03  0.50000000000E+03  0.47000000000E+01 0. -1.
         -5    1    1    2    0  501 -0.30615655282E+03 -0.68536579732E+02 -0.38929270787E+03  0.50000000000E+03  0.47000000000E+01 0.  1.
</event>
<event>
 4    1  0.4351282E-004  0.1000000E+04  0.7546771E-02  0.8684367E-01
         11   -1    0    0    0    0  0.00000000000E+00  0.00000000000E+00  0.50000000000E+03  0.50000000000E+03  0.00000000000E+00 0. -1.
        -11   -1    0    0    0    0 -0.00000000000E+00 -0.00000000000E+00 -0.50000000000E+03  0.50000000000E+03  0.00000000000E+00 0.  1.
          5    1    1    2  501    0  0.12420955886E+02  0.12277184827E+03  0.48451078742E+03  0.50000000000E+03  0.47000000000E+01 0. -1.
         -5    1    1    2    0  501 -0.12420955886E+02 -0.12277184827E+03 -0.48451078742E+03  0.50000000000E+03  0.47000000000E+01 0.  1.
</event>
<event>
 4    1  0.4351282E-004  0.1000000E+04  0.7546771E-02  0.8684367E-01
         11   -1    0    0    0    0  0.00000000000E+00  0.00000000000E+00  0.50000000000E+03  0.50000000000E+03  0.00000000000E+00 0. -1.
        -11   -1    0    0    0    0 -0.00000000000E+00 -0.00000000000E+00 -0.50000000000E+03  0.50000000000E+03  0.00000000000E+00 0.  1.
          5    1    1    2  501    0 -0.40795957620E+03 -0.36615036603E+02  0.28671629407E+03  0.50000000000E+03  0.47000000000E+01 0. -1.
         -5    1    1    2    0  501  0.40795957620E+03  0.36615036603E+02 -0.28671629407E+03  0.50000000000E+03  0.47000000000E+01 0.  1.
</event>
<event>
 4    1  0.4351282E-004  0.1000000E+04  0.7546771E-02  0.8684367E-01
         11   -1    0    0    0    0  0.00000000000E+00  0.00000000000E+00  0.50000000000E+03  0.50000000000E+03  0.00000000000E+00 0. -1.
        -11   -1    0    0    0    0 -0.00000000000E+00 -0.00000000000E+00 -0.50000000000E+03  0.50000000000E+03  0.00000000000E+00 0.  1.
          5    1    1    2  501    0  0.37094016979E+03 -0.15037760763E+03  0.29961287616E+03  0.50000000000E+03  0.47000000000E+01 0. -1.
         -5    1    1    2    0  501 -0.37094016979E+03  0.15037760763E+03 -0.29961287616E+03  0.50000000000E+03  0.47000000000E+01 0.  1.
</event>
<event>
 4    1  0.4351282E-004  0.1000000E+04  0.7546771E-02  0.8684367E-01
         11   -1    0    0    0    0  0.00000000000E+00  0.00000000000E+00  0.50000000000E+03  0.50000000000E+03  0.00000000000E+00 0. -1.
        -11   -1    0    0    0    0 -0.00000000000E+00 -0.00000000000E+00 -0.50000000000E+03  0.50000000000E+03  0.00000000000E+00 0.  1.
          5    1    1    2  501    0  0.39338524617E+03 -0.11446525724E+03  0.28657226485E+03  0.50000000000E+03  0.47000000000E+01 0. -1.
         -5    1    1    2    0  501 -0.39338524617E+03  0.11446525724E+03 -0.28657226485E+03  0.50000000000E+03  0.47000000000E+01 0.  1.
</event>
<event>
 4    1  0.4351282E-004  0.1000000E+04  0.7546771E-02  0.8684367E-01
         11   -1    0    0    0    0  0.00000000000E+00  0.00000000000E+00  0.50000000000E+03  0.50000000000E+03  0.00000000000E+00 0. -1.
        -11   -1    0    0    0    0 -0.00000000000E+00 -0.00000000000E+00 -0.50000000000E+03  0.50000000000E+03  0.00000000000E+00 0.  1.
          5    1    1    2  501    0 -0.18085032971E+03  0.35032667102E+03  0.30747730293E+03  0.50000000000E+03  0.47000000000E+01 0. -1.
         -5    1    1    2    0  501  0.18085032971E+03 -0.35032667102E+03 -0.30747730293E+03  0.50000000000E+03  0.47000000000E+01 0.  1.
</event>
<event>
 4    1  0.4351282E-004  0.1000000E+04  0.7546771E-02  0.8684367E-01
         11   -1    0    0    0    0  0.00000000000E+00  0.00000000000E+00  0.50000000000E+03  0.50000000000E+03  0.00000000000E+00 0. -1.
        -11   -1    0    0    0    0 -0.00000000000E+00 -0.00000000000E+00 -0.50000000000E+03  0.50000000000E+03  0.00000000000E+00 0.  1.
          5    1    1    2  501    0  0.23130254923E+03 -0.21009033494E+02  0.44275914585E+03  0.50000000000E+03  0.47000000000E+01 0. -1.
         -5    1    1    2    0  501 -0.23130254923E+03  0.21009033494E+02 -0.44275914585E+03  0.50000000000E+03  0.47000000000E+01 0.  1.
</event>
<event>
 4    1  0.4351282E-004  0.1000000E+04  0.7546771E-02  0.8684367E-01
         11   -1    0    0    0    0  0.00000000000E+00  0.00000000000E+00  0.50000000000E+03  0.50000000000E+03  0.00000000000E+00 0. -1.
        -11   -1    0    0    0    0 -0.00000000000E+00 -0.00000000000E+00 -0.50000000000E+03  0.50000000000E+03  0.00000000000E+00 0.  1.
          5    1    1    2  501    0 -0.40205810704E+03 -0.29601728259E+03 -0.26475592015E+02  0.50000000000E+03  0.47000000000E+01 0. -1.
         -5    1    1    2    0  501  0.40205810704E+03  0.29601728259E+03  0.26475592015E+02  0.50000000000E+03  0.47000000000E+01 0.  1.
</event>
<event>
 4    1  0.4351282E-004  0.1000000E+04  0.7546771E-02  0.8684367E-01
         11   -1    0    0    0    0  0.00000000000E+00  0.00000000000E+00  0.50000000000E+03  0.50000000000E+03  0.00000000000E+00 0. -1.
        -11   -1    0    0    0    0 -0.00000000000E+00 -0.00000000000E+00 -0.50000000000E+03  0.50000000000E+03  0.00000000000E+00 0.  1.
          5    1    1    2  501    0  0.32228733556E+03  0.35928390076E+03  0.13047552258E+03  0.50000000000E+03  0.47000000000E+01 0. -1.
         -5    1    1    2    0  501 -0.32228733556E+03 -0.35928390076E+03 -0.13047552258E+03  0.50000000000E+03  0.47000000000E+01 0.  1.
</event>
<event>
 4    1  0.4351282E-004  0.1000000E+04  0.7546771E-02  0.8684367E-01
         11   -1    0    0    0    0  0.00000000000E+00  0.00000000000E+00  0.50000000000E+03  0.50000000000E+03  0.00000000000E+00 0. -1.
        -11   -1    0    0    0    0 -0.00000000000E+00 -0.00000000000E+00 -0.50000000000E+03  0.50000000000E+03  0.00000000000E+00 0.  1.
          5    1    1    2  501    0 -0.27822436545E+03 -0.10209376846E+03  0.40267353391E+03  0.50000000000E+03  0.47000000000E+01 0. -1.
         -5    1    1    2    0  501  0.27822436545E+03  0.10209376846E+03 -0.40267353391E+03  0.50000000000E+03  0.47000000000E+01 0.  1.
</event>
<event>
 4    1  0.4351282E-004  0.1000000E+04  0.7546771E-02  0.8684367E-01
         11   -1    0    0    0    0  0.00000000000E+00  0.00000000000E+00  0.50000000000E+03  0.50000000000E+03  0.00000000000E+00 0. -1.
        -11   -1    0    0    0    0 -0.00000000000E+00 -0.00000000000E+00 -0.50000000000E+03  0.50000000000E+03  0.00000000000E+00 0.  1.
          5    1    1    2  501    0  0.12997251178E+03 -0.47239649039E+03 -0.99632384525E+02  0.50000000000E+03  0.47000000000E+01 0.  1.
         -5    1    1    2    0  501 -0.12997251178E+03  0.47239649039E+03  0.99632384525E+02  0.50000000000E+03  0.47000000000E+01 0. -1.
</event>
<event>
 4    1  0.4351282E-004  0.1000000E+04  0.7546771E-02  0.8684367E-01
         11   -1    0    0    0    0  0.00000000000E+00  0.00000000000E+00  0.50000000000E+03  0.50000000000E+03  0.00000000000E+00 0.  1.
        -11   -1    0    0    0    0 -0.00000000000E+00 -0.00000000000E+00 -0.50000000000E+03  0.50000000000E+03  0.00000000000E+00 0. -1.
          5    1    1    2  501    0 -0.45854396322E+01  0.30774837539E+03  0.39401500123E+03  0.50000000000E+03  0.47000000000E+01 0.  1.
         -5    1    1    2    0  501  0.45854396322E+01 -0.30774837539E+03 -0.39401500123E+03  0.50000000000E+03  0.47000000000E+01 0. -1.
</event>
<event>
 4    1  0.4351282E-004  0.1000000E+04  0.7546771E-02  0.8684367E-01
         11   -1    0    0    0    0  0.00000000000E+00  0.00000000000E+00  0.50000000000E+03  0.50000000000E+03  0.00000000000E+00 0. -1.
        -11   -1    0    0    0    0 -0.00000000000E+00 -0.00000000000E+00 -0.50000000000E+03  0.50000000000E+03  0.00000000000E+00 0.  1.
          5    1    1    2  501    0 -0.23929310546E+03 -0.42592399117E+03  0.10632719984E+03  0.50000000000E+03  0.47000000000E+01 0. -1.
         -5    1    1    2    0  501  0.23929310546E+03  0.42592399117E+03 -0.10632719984E+03  0.50000000000E+03  0.47000000000E+01 0.  1.
</event>
<event>
 4    1  0.4351282E-004  0.1000000E+04  0.7546771E-02  0.8684367E-01
         11   -1    0    0    0    0  0.00000000000E+00  0.00000000000E+00  0.50000000000E+03  0.50000000000E+03  0.00000000000E+00 0. -1.
        -11   -1    0    0    0    0 -0.00000000000E+00 -0.00000000000E+00 -0.50000000000E+03  0.50000000000E+03  0.00000000000E+00 0.  1.
          5    1    1    2  501    0 -0.48492613982E+03  0.64101147130E+02  0.10351614297E+03  0.50000000000E+03  0.47000000000E+01 0. -1.
         -5    1    1    2    0  501  0.48492613982E+03 -0.64101147130E+02 -0.10351614297E+03  0.50000000000E+03  0.47000000000E+01 0.  1.
</event>
<event>
 4    1  0.4351282E-004  0.1000000E+04  0.7546771E-02  0.8684367E-01
         11   -1    0    0    0    0  0.00000000000E+00  0.00000000000E+00  0.50000000000E+03  0.50000000000E+03  0.00000000000E+00 0. -1.
        -11   -1    0    0    0    0 -0.00000000000E+00 -0.00000000000E+00 -0.50000000000E+03  0.50000000000E+03  0.00000000000E+00 0.  1.
          5    1    1    2  501    0  0.30432980070E+03 -0.32042295569E+02  0.39539167125E+03  0.50000000000E+03  0.47000000000E+01 0. -1.
         -5    1    1    2    0  501 -0.30432980070E+03  0.32042295569E+02 -0.39539167125E+03  0.50000000000E+03  0.47000000000E+01 0.  1.
</event>
<event>
 4    1  0.4351282E-004  0.1000000E+04  0.7546771E-02  0.8684367E-01
         11   -1    0    0    0    0  0.00000000000E+00  0.00000000000E+00  0.50000000000E+03  0.50000000000E+03  0.00000000000E+00 0. -1.
        -11   -1    0    0    0    0 -0.00000000000E+00 -0.00000000000E+00 -0.50000000000E+03  0.50000000000E+03  0.00000000000E+00 0.  1.
          5    1    1    2  501    0  0.89255059563E+02 -0.48771578001E+03  0.64379828134E+02  0.50000000000E+03  0.47000000000E+01 0. -1.
         -5    1    1    2    0  501 -0.89255059563E+02  0.48771578001E+03 -0.64379828134E+02  0.50000000000E+03  0.47000000000E+01 0.  1.
</event>
<event>
 4    1  0.4351282E-004  0.1000000E+04  0.7546771E-02  0.8684367E-01
         11   -1    0    0    0    0  0.00000000000E+00  0.00000000000E+00  0.50000000000E+03  0.50000000000E+03  0.00000000000E+00 0. -1.
        -11   -1    0    0    0    0 -0.00000000000E+00 -0.00000000000E+00 -0.50000000000E+03  0.50000000000E+03  0.00000000000E+00 0.  1.
          5    1    1    2  501    0 -0.41147798325E+03  0.19423861040E+03  0.20720796685E+03  0.50000000000E+03  0.47000000000E+01 0. -1.
         -5    1    1    2    0  501  0.41147798325E+03 -0.19423861040E+03 -0.20720796685E+03  0.50000000000E+03  0.47000000000E+01 0.  1.
</event>
<event>
 4    1  0.4351282E-004  0.1000000E+04  0.7546771E-02  0.8684367E-01
         11   -1    0    0    0    0  0.00000000000E+00  0.00000000000E+00  0.50000000000E+03  0.50000000000E+03  0.00000000000E+00 0.  1.
        -11   -1    0    0    0    0 -0.00000000000E+00 -0.00000000000E+00 -0.50000000000E+03  0.50000000000E+03  0.00000000000E+00 0. -1.
          5    1    1    2  501    0 -0.38326567901E+03 -0.25203266404E+03  0.19890918920E+03  0.50000000000E+03  0.47000000000E+01 0.  1.
         -5    1    1    2    0  501  0.38326567901E+03  0.25203266404E+03 -0.19890918920E+03  0.50000000000E+03  0.47000000000E+01 0. -1.
</event>
<event>
 4    1  0.4351282E-004  0.1000000E+04  0.7546771E-02  0.8684367E-01
         11   -1    0    0    0    0  0.00000000000E+00  0.00000000000E+00  0.50000000000E+03  0.50000000000E+03  0.00000000000E+00 0. -1.
        -11   -1    0    0    0    0 -0.00000000000E+00 -0.00000000000E+00 -0.50000000000E+03  0.50000000000E+03  0.00000000000E+00 0.  1.
          5    1    1    2  501    0  0.18570643279E+03 -0.39659198382E+03  0.24125884271E+03  0.50000000000E+03  0.47000000000E+01 0. -1.
         -5    1    1    2    0  501 -0.18570643279E+03  0.39659198382E+03 -0.24125884271E+03  0.50000000000E+03  0.47000000000E+01 0.  1.
</event>
<event>
 4    1  0.4351282E-004  0.1000000E+04  0.7546771E-02  0.8684367E-01
         11   -1    0    0    0    0  0.00000000000E+00  0.00000000000E+00  0.50000000000E+03  0.50000000000E+03  0.00000000000E+00 0. -1.
        -11   -1    0    0    0    0 -0.00000000000E+00 -0.00000000000E+00 -0.50000000000E+03  0.50000000000E+03  0.00000000000E+00 0.  1.
          5    1    1    2  501    0  0.13023182856E+03 -0.20127450298E+03  0.43875523390E+03  0.50000000000E+03  0.47000000000E+01 0. -1.
         -5    1    1    2    0  501 -0.13023182856E+03  0.20127450298E+03 -0.43875523390E+03  0.50000000000E+03  0.47000000000E+01 0.  1.
</event>
<event>
 4    1  0.4351282E-004  0.1000000E+04  0.7546771E-02  0.8684367E-01
         11   -1    0    0    0    0  0.00000000000E+00  0.00000000000E+00  0.50000000000E+03  0.50000000000E+03  0.00000000000E+00 0. -1.
        -11   -1    0    0    0    0 -0.00000000000E+00 -0.00000000000E+00 -0.50000000000E+03  0.50000000000E+03  0.00000000000E+00 0.  1.
          5    1    1    2  501    0  0.24780907784E+03  0.13745250304E+03  0.41191671530E+03  0.50000000000E+03  0.47000000000E+01 0. -1.
         -5    1    1    2    0  501 -0.24780907784E+03 -0.13745250304E+03 -0.41191671530E+03  0.50000000000E+03  0.47000000000E+01 0.  1.
</event>
<event>
 4    1  0.4351282E-004  0.1000000E+04  0.7546771E-02  0.8684367E-01
         11   -1    0    0    0    0  0.00000000000E+00  0.00000000000E+00  0.50000000000E+03  0.50000000000E+03  0.00000000000E+00 0. -1.
        -11   -1    0    0    0    0 -0.00000000000E+00 -0.00000000000E+00 -0.50000000000E+03  0.50000000000E+03  0.00000000000E+00 0.  1.
          5    1    1    2  501    0  0.30087638440E+03 -0.97601918323E+02  0.38720172630E+03  0.50000000000E+03  0.47000000000E+01 0. -1.
         -5    1    1    2    0  501 -0.30087638440E+03  0.97601918323E+02 -0.38720172630E+03  0.50000000000E+03  0.47000000000E+01 0.  1.
</event>
<event>
 4    1  0.4351282E-004  0.1000000E+04  0.7546771E-02  0.8684367E-01
         11   -1    0    0    0    0  0.00000000000E+00  0.00000000000E+00  0.50000000000E+03  0.50000000000E+03  0.00000000000E+00 0. -1.
        -11   -1    0    0    0    0 -0.00000000000E+00 -0.00000000000E+00 -0.50000000000E+03  0.50000000000E+03  0.00000000000E+00 0.  1.
          5    1    1    2  501    0 -0.50491655880E+02  0.40884183779E+03  0.28333170377E+03  0.50000000000E+03  0.47000000000E+01 0. -1.
         -5    1    1    2    0  501  0.50491655880E+02 -0.40884183779E+03 -0.28333170377E+03  0.50000000000E+03  0.47000000000E+01 0.  1.
</event>
<event>
 4    1  0.4351282E-004  0.1000000E+04  0.7546771E-02  0.8684367E-01
         11   -1    0    0    0    0  0.00000000000E+00  0.00000000000E+00  0.50000000000E+03  0.50000000000E+03  0.00000000000E+00 0. -1.
        -11   -1    0    0    0    0 -0.00000000000E+00 -0.00000000000E+00 -0.50000000000E+03  0.50000000000E+03  0.00000000000E+00 0.  1.
          5    1    1    2  501    0 -0.32267483194E+03  0.29069934463E+03  0.24769488057E+03  0.50000000000E+03  0.47000000000E+01 0. -1.
         -5    1    1    2    0  501  0.32267483194E+03 -0.29069934463E+03 -0.24769488057E+03  0.50000000000E+03  0.47000000000E+01 0.  1.
</event>
<event>
 4    1  0.4351282E-004  0.1000000E+04  0.7546771E-02  0.8684367E-01
         11   -1    0    0    0    0  0.00000000000E+00  0.00000000000E+00  0.50000000000E+03  0.50000000000E+03  0.00000000000E+00 0. -1.
        -11   -1    0    0    0    0 -0.00000000000E+00 -0.00000000000E+00 -0.50000000000E+03  0.50000000000E+03  0.00000000000E+00 0.  1.
          5    1    1    2  501    0  0.16745629806E+03  0.15104010267E+03  0.44623221043E+03  0.50000000000E+03  0.47000000000E+01 0. -1.
         -5    1    1    2    0  501 -0.16745629806E+03 -0.15104010267E+03 -0.44623221043E+03  0.50000000000E+03  0.47000000000E+01 0.  1.
</event>
<event>
 4    1  0.4351282E-004  0.1000000E+04  0.7546771E-02  0.8684367E-01
         11   -1    0    0    0    0  0.00000000000E+00  0.00000000000E+00  0.50000000000E+03  0.50000000000E+03  0.00000000000E+00 0. -1.
        -11   -1    0    0    0    0 -0.00000000000E+00 -0.00000000000E+00 -0.50000000000E+03  0.50000000000E+03  0.00000000000E+00 0.  1.
          5    1    1    2  501    0 -0.35677504972E+03 -0.22483378434E+03  0.26858749659E+03  0.50000000000E+03  0.47000000000E+01 0. -1.
         -5    1    1    2    0  501  0.35677504972E+03  0.22483378434E+03 -0.26858749659E+03  0.50000000000E+03  0.47000000000E+01 0.  1.
</event>
<event>
 4    1  0.4351282E-004  0.1000000E+04  0.7546771E-02  0.8684367E-01
         11   -1    0    0    0    0  0.00000000000E+00  0.00000000000E+00  0.50000000000E+03  0.50000000000E+03  0.00000000000E+00 0. -1.
        -11   -1    0    0    0    0 -0.00000000000E+00 -0.00000000000E+00 -0.50000000000E+03  0.50000000000E+03  0.00000000000E+00 0.  1.
          5    1    1    2  501    0 -0.20631290912E+03  0.42129419509E+03  0.17298582231E+03  0.50000000000E+03  0.47000000000E+01 0. -1.
         -5    1    1    2    0  501  0.20631290912E+03 -0.42129419509E+03 -0.17298582231E+03  0.50000000000E+03  0.47000000000E+01 0.  1.
</event>
<event>
 4    1  0.4351282E-004  0.1000000E+04  0.7546771E-02  0.8684367E-01
         11   -1    0    0    0    0  0.00000000000E+00  0.00000000000E+00  0.50000000000E+03  0.50000000000E+03  0.00000000000E+00 0. -1.
        -11   -1    0    0    0    0 -0.00000000000E+00 -0.00000000000E+00 -0.50000000000E+03  0.50000000000E+03  0.00000000000E+00 0.  1.
          5    1    1    2  501    0  0.43403636595E+03  0.23969551951E+03  0.64314857971E+02  0.50000000000E+03  0.47000000000E+01 0. -1.
         -5    1    1    2    0  501 -0.43403636595E+03 -0.23969551951E+03 -0.64314857971E+02  0.50000000000E+03  0.47000000000E+01 0.  1.
</event>
<event>
 4    1  0.4351282E-004  0.1000000E+04  0.7546771E-02  0.8684367E-01
         11   -1    0    0    0    0  0.00000000000E+00  0.00000000000E+00  0.50000000000E+03  0.50000000000E+03  0.00000000000E+00 0. -1.
        -11   -1    0    0    0    0 -0.00000000000E+00 -0.00000000000E+00 -0.50000000000E+03  0.50000000000E+03  0.00000000000E+00 0.  1.
          5    1    1    2  501    0 -0.48900344836E+03 -0.10853948029E+02 -0.10361336451E+03  0.50000000000E+03  0.47000000000E+01 0. -1.
         -5    1    1    2    0  501  0.48900344836E+03  0.10853948029E+02  0.10361336451E+03  0.50000000000E+03  0.47000000000E+01 0.  1.
</event>
<event>
 4    1  0.4351282E-004  0.1000000E+04  0.7546771E-02  0.8684367E-01
         11   -1    0    0    0    0  0.00000000000E+00  0.00000000000E+00  0.50000000000E+03  0.50000000000E+03  0.00000000000E+00 0. -1.
        -11   -1    0    0    0    0 -0.00000000000E+00 -0.00000000000E+00 -0.50000000000E+03  0.50000000000E+03  0.00000000000E+00 0.  1.
          5    1    1    2  501    0 -0.22460567759E+02  0.47108874406E+03  0.16597839652E+03  0.50000000000E+03  0.47000000000E+01 0. -1.
         -5    1    1    2    0  501  0.22460567759E+02 -0.47108874406E+03 -0.16597839652E+03  0.50000000000E+03  0.47000000000E+01 0.  1.
</event>
<event>
 4    1  0.4351282E-004  0.1000000E+04  0.7546771E-02  0.8684367E-01
         11   -1    0    0    0    0  0.00000000000E+00  0.00000000000E+00  0.50000000000E+03  0.50000000000E+03  0.00000000000E+00 0. -1.
        -11   -1    0    0    0    0 -0.00000000000E+00 -0.00000000000E+00 -0.50000000000E+03  0.50000000000E+03  0.00000000000E+00 0.  1.
          5    1    1    2  501    0 -0.37208086878E+02  0.42501919047E+03  0.26067634340E+03  0.50000000000E+03  0.47000000000E+01 0. -1.
         -5    1    1    2    0  501  0.37208086878E+02 -0.42501919047E+03 -0.26067634340E+03  0.50000000000E+03  0.47000000000E+01 0.  1.
</event>
<event>
 4    1  0.4351282E-004  0.1000000E+04  0.7546771E-02  0.8684367E-01
         11   -1    0    0    0    0  0.00000000000E+00  0.00000000000E+00  0.50000000000E+03  0.50000000000E+03  0.00000000000E+00 0.  1.
        -11   -1    0    0    0    0 -0.00000000000E+00 -0.00000000000E+00 -0.50000000000E+03  0.50000000000E+03  0.00000000000E+00 0. -1.
          5    1    1    2  501    0  0.28576116159E+02  0.42745700394E+03  0.25776311871E+03  0.50000000000E+03  0.47000000000E+01 0.  1.
         -5    1    1    2    0  501 -0.28576116159E+02 -0.42745700394E+03 -0.25776311871E+03  0.50000000000E+03  0.47000000000E+01 0. -1.
</event>
<event>
 4    1  0.4351282E-004  0.1000000E+04  0.7546771E-02  0.8684367E-01
         11   -1    0    0    0    0  0.00000000000E+00  0.00000000000E+00  0.50000000000E+03  0.50000000000E+03  0.00000000000E+00 0. -1.
        -11   -1    0    0    0    0 -0.00000000000E+00 -0.00000000000E+00 -0.50000000000E+03  0.50000000000E+03  0.00000000000E+00 0.  1.
          5    1    1    2  501    0 -0.46132609024E+03  0.26638253466E+02  0.19090980048E+03  0.50000000000E+03  0.47000000000E+01 0. -1.
         -5    1    1    2    0  501  0.46132609024E+03 -0.26638253466E+02 -0.19090980048E+03  0.50000000000E+03  0.47000000000E+01 0.  1.
</event>
<event>
 4    1  0.4351282E-004  0.1000000E+04  0.7546771E-02  0.8684367E-01
         11   -1    0    0    0    0  0.00000000000E+00  0.00000000000E+00  0.50000000000E+03  0.50000000000E+03  0.00000000000E+00 0. -1.
        -11   -1    0    0    0    0 -0.00000000000E+00 -0.00000000000E+00 -0.50000000000E+03  0.50000000000E+03  0.00000000000E+00 0.  1.
          5    1    1    2  501    0 -0.14270794975E+03  0.44623912994E+03  0.17459378566E+03  0.50000000000E+03  0.47000000000E+01 0.  1.
         -5    1    1    2    0  501  0.14270794975E+03 -0.44623912994E+03 -0.17459378566E+03  0.50000000000E+03  0.47000000000E+01 0. -1.
</event>
<event>
 4    1  0.4351282E-004  0.1000000E+04  0.7546771E-02  0.8684367E-01
         11   -1    0    0    0    0  0.00000000000E+00  0.00000000000E+00  0.50000000000E+03  0.50000000000E+03  0.00000000000E+00 0. -1.
        -11   -1    0    0    0    0 -0.00000000000E+00 -0.00000000000E+00 -0.50000000000E+03  0.50000000000E+03  0.00000000000E+00 0.  1.
          5    1    1    2  501    0  0.54213698716E+02 -0.36139972454E+03  0.34121697492E+03  0.50000000000E+03  0.47000000000E+01 0. -1.
         -5    1    1    2    0  501 -0.54213698716E+02  0.36139972454E+03 -0.34121697492E+03  0.50000000000E+03  0.47000000000E+01 0.  1.
</event>
<event>
 4    1  0.4351282E-004  0.1000000E+04  0.7546771E-02  0.8684367E-01
         11   -1    0    0    0    0  0.00000000000E+00  0.00000000000E+00  0.50000000000E+03  0.50000000000E+03  0.00000000000E+00 0. -1.
        -11   -1    0    0    0    0 -0.00000000000E+00 -0.00000000000E+00 -0.50000000000E+03  0.50000000000E+03  0.00000000000E+00 0.  1.
          5    1    1    2  501    0  0.62976724405E+02 -0.13783289124E+03  0.47645979503E+03  0.50000000000E+03  0.47000000000E+01 0. -1.
         -5    1    1    2    0  501 -0.62976724405E+02  0.13783289124E+03 -0.47645979503E+03  0.50000000000E+03  0.47000000000E+01 0.  1.
</event>
<event>
 4    1  0.4351282E-004  0.1000000E+04  0.7546771E-02  0.8684367E-01
         11   -1    0    0    0    0  0.00000000000E+00  0.00000000000E+00  0.50000000000E+03  0.50000000000E+03  0.00000000000E+00 0.  1.
        -11   -1    0    0    0    0 -0.00000000000E+00 -0.00000000000E+00 -0.50000000000E+03  0.50000000000E+03  0.00000000000E+00 0. -1.
          5    1    1    2  501    0  0.24745937197E+02  0.29155620722E+03  0.40541401878E+03  0.50000000000E+03  0.47000000000E+01 0.  1.
         -5    1    1    2    0  501 -0.24745937197E+02 -0.29155620722E+03 -0.40541401878E+03  0.50000000000E+03  0.47000000000E+01 0. -1.
</event>
<event>
 4    1  0.4351282E-004  0.1000000E+04  0.7546771E-02  0.8684367E-01
         11   -1    0    0    0    0  0.00000000000E+00  0.00000000000E+00  0.50000000000E+03  0.50000000000E+03  0.00000000000E+00 0. -1.
        -11   -1    0    0    0    0 -0.00000000000E+00 -0.00000000000E+00 -0.50000000000E+03  0.50000000000E+03  0.00000000000E+00 0.  1.
          5    1    1    2  501    0 -0.26885362452E+03 -0.40586446312E+03 -0.11388448601E+03  0.50000000000E+03  0.47000000000E+01 0. -1.
         -5    1    1    2    0  501  0.26885362452E+03  0.40586446312E+03  0.11388448601E+03  0.50000000000E+03  0.47000000000E+01 0.  1.
</event>
<event>
 4    1  0.4351282E-004  0.1000000E+04  0.7546771E-02  0.8684367E-01
         11   -1    0    0    0    0  0.00000000000E+00  0.00000000000E+00  0.50000000000E+03  0.50000000000E+03  0.00000000000E+00 0.  1.
        -11   -1    0    0    0    0 -0.00000000000E+00 -0.00000000000E+00 -0.50000000000E+03  0.50000000000E+03  0.00000000000E+00 0. -1.
          5    1    1    2  501    0  0.24898540931E+03  0.16122116236E+03  0.40248218937E+03  0.50000000000E+03  0.47000000000E+01 0.  1.
         -5    1    1    2    0  501 -0.24898540931E+03 -0.16122116236E+03 -0.40248218937E+03  0.50000000000E+03  0.47000000000E+01 0. -1.
</event>
<event>
 4    1  0.4351282E-004  0.1000000E+04  0.7546771E-02  0.8684367E-01
         11   -1    0    0    0    0  0.00000000000E+00  0.00000000000E+00  0.50000000000E+03  0.50000000000E+03  0.00000000000E+00 0. -1.
        -11   -1    0    0    0    0 -0.00000000000E+00 -0.00000000000E+00 -0.50000000000E+03  0.50000000000E+03  0.00000000000E+00 0.  1.
          5    1    1    2  501    0 -0.42480698528E+03  0.13126804766E+03  0.22866052332E+03  0.50000000000E+03  0.47000000000E+01 0. -1.
         -5    1    1    2    0  501  0.42480698528E+03 -0.13126804766E+03 -0.22866052332E+03  0.50000000000E+03  0.47000000000E+01 0.  1.
</event>
<event>
 4    1  0.4351282E-004  0.1000000E+04  0.7546771E-02  0.8684367E-01
         11   -1    0    0    0    0  0.00000000000E+00  0.00000000000E+00  0.50000000000E+03  0.50000000000E+03  0.00000000000E+00 0. -1.
        -11   -1    0    0    0    0 -0.00000000000E+00 -0.00000000000E+00 -0.50000000000E+03  0.50000000000E+03  0.00000000000E+00 0.  1.
          5    1    1    2  501    0 -0.25388139115E+03  0.17320845724E+03  0.39436148338E+03  0.50000000000E+03  0.47000000000E+01 0. -1.
         -5    1    1    2    0  501  0.25388139115E+03 -0.17320845724E+03 -0.39436148338E+03  0.50000000000E+03  0.47000000000E+01 0.  1.
</event>
<event>
 4    1  0.4351282E-004  0.1000000E+04  0.7546771E-02  0.8684367E-01
         11   -1    0    0    0    0  0.00000000000E+00  0.00000000000E+00  0.50000000000E+03  0.50000000000E+03  0.00000000000E+00 0. -1.
        -11   -1    0    0    0    0 -0.00000000000E+00 -0.00000000000E+00 -0.50000000000E+03  0.50000000000E+03  0.00000000000E+00 0.  1.
          5    1    1    2  501    0 -0.11443458363E+03 -0.38148728605E+03  0.30224176854E+03  0.50000000000E+03  0.47000000000E+01 0. -1.
         -5    1    1    2    0  501  0.11443458363E+03  0.38148728605E+03 -0.30224176854E+03  0.50000000000E+03  0.47000000000E+01 0.  1.
</event>
<event>
 4    1  0.4351282E-004  0.1000000E+04  0.7546771E-02  0.8684367E-01
         11   -1    0    0    0    0  0.00000000000E+00  0.00000000000E+00  0.50000000000E+03  0.50000000000E+03  0.00000000000E+00 0. -1.
        -11   -1    0    0    0    0 -0.00000000000E+00 -0.00000000000E+00 -0.50000000000E+03  0.50000000000E+03  0.00000000000E+00 0.  1.
          5    1    1    2  501    0  0.40034732713E+03  0.24711603750E+03  0.16921463197E+03  0.50000000000E+03  0.47000000000E+01 0. -1.
         -5    1    1    2    0  501 -0.40034732713E+03 -0.24711603750E+03 -0.16921463197E+03  0.50000000000E+03  0.47000000000E+01 0.  1.
</event>
<event>
 4    1  0.4351282E-004  0.1000000E+04  0.7546771E-02  0.8684367E-01
         11   -1    0    0    0    0  0.00000000000E+00  0.00000000000E+00  0.50000000000E+03  0.50000000000E+03  0.00000000000E+00 0. -1.
        -11   -1    0    0    0    0 -0.00000000000E+00 -0.00000000000E+00 -0.50000000000E+03  0.50000000000E+03  0.00000000000E+00 0.  1.
          5    1    1    2  501    0 -0.40867113830E+03  0.13733720409E+03  0.25318827598E+03  0.50000000000E+03  0.47000000000E+01 0. -1.
         -5    1    1    2    0  501  0.40867113830E+03 -0.13733720409E+03 -0.25318827598E+03  0.50000000000E+03  0.47000000000E+01 0.  1.
</event>
<event>
 4    1  0.4351282E-004  0.1000000E+04  0.7546771E-02  0.8684367E-01
         11   -1    0    0    0    0  0.00000000000E+00  0.00000000000E+00  0.50000000000E+03  0.50000000000E+03  0.00000000000E+00 0. -1.
        -11   -1    0    0    0    0 -0.00000000000E+00 -0.00000000000E+00 -0.50000000000E+03  0.50000000000E+03  0.00000000000E+00 0.  1.
          5    1    1    2  501    0 -0.27085133350E+03 -0.32088742258E+03  0.27138298983E+03  0.50000000000E+03  0.47000000000E+01 0. -1.
         -5    1    1    2    0  501  0.27085133350E+03  0.32088742258E+03 -0.27138298983E+03  0.50000000000E+03  0.47000000000E+01 0.  1.
</event>
<event>
 4    1  0.4351282E-004  0.1000000E+04  0.7546771E-02  0.8684367E-01
         11   -1    0    0    0    0  0.00000000000E+00  0.00000000000E+00  0.50000000000E+03  0.50000000000E+03  0.00000000000E+00 0.  1.
        -11   -1    0    0    0    0 -0.00000000000E+00 -0.00000000000E+00 -0.50000000000E+03  0.50000000000E+03  0.00000000000E+00 0. -1.
          5    1    1    2  501    0 -0.43884409424E+03  0.20741857581E+03 -0.11988037940E+03  0.50000000000E+03  0.47000000000E+01 0. -1.
         -5    1    1    2    0  501  0.43884409424E+03 -0.20741857581E+03  0.11988037940E+03  0.50000000000E+03  0.47000000000E+01 0.  1.
</event>
<event>
 4    1  0.4351282E-004  0.1000000E+04  0.7546771E-02  0.8684367E-01
         11   -1    0    0    0    0  0.00000000000E+00  0.00000000000E+00  0.50000000000E+03  0.50000000000E+03  0.00000000000E+00 0. -1.
        -11   -1    0    0    0    0 -0.00000000000E+00 -0.00000000000E+00 -0.50000000000E+03  0.50000000000E+03  0.00000000000E+00 0.  1.
          5    1    1    2  501    0  0.41780577820E+03  0.21301645361E+03  0.17332118217E+03  0.50000000000E+03  0.47000000000E+01 0. -1.
         -5    1    1    2    0  501 -0.41780577820E+03 -0.21301645361E+03 -0.17332118217E+03  0.50000000000E+03  0.47000000000E+01 0.  1.
</event>
<event>
 4    1  0.4351282E-004  0.1000000E+04  0.7546771E-02  0.8684367E-01
         11   -1    0    0    0    0  0.00000000000E+00  0.00000000000E+00  0.50000000000E+03  0.50000000000E+03  0.00000000000E+00 0. -1.
        -11   -1    0    0    0    0 -0.00000000000E+00 -0.00000000000E+00 -0.50000000000E+03  0.50000000000E+03  0.00000000000E+00 0.  1.
          5    1    1    2  501    0 -0.97704679160E+02  0.30655639132E+03  0.38269424429E+03  0.50000000000E+03  0.47000000000E+01 0. -1.
         -5    1    1    2    0  501  0.97704679160E+02 -0.30655639132E+03 -0.38269424429E+03  0.50000000000E+03  0.47000000000E+01 0.  1.
</event>
<event>
 4    1  0.4351282E-004  0.1000000E+04  0.7546771E-02  0.8684367E-01
         11   -1    0    0    0    0  0.00000000000E+00  0.00000000000E+00  0.50000000000E+03  0.50000000000E+03  0.00000000000E+00 0. -1.
        -11   -1    0    0    0    0 -0.00000000000E+00 -0.00000000000E+00 -0.50000000000E+03  0.50000000000E+03  0.00000000000E+00 0.  1.
          5    1    1    2  501    0 -0.25656431012E+03 -0.11436061052E+03  0.41361130973E+03  0.50000000000E+03  0.47000000000E+01 0. -1.
         -5    1    1    2    0  501  0.25656431012E+03  0.11436061052E+03 -0.41361130973E+03  0.50000000000E+03  0.47000000000E+01 0.  1.
</event>
<event>
 4    1  0.4351282E-004  0.1000000E+04  0.7546771E-02  0.8684367E-01
         11   -1    0    0    0    0  0.00000000000E+00  0.00000000000E+00  0.50000000000E+03  0.50000000000E+03  0.00000000000E+00 0. -1.
        -11   -1    0    0    0    0 -0.00000000000E+00 -0.00000000000E+00 -0.50000000000E+03  0.50000000000E+03  0.00000000000E+00 0.  1.
          5    1    1    2  501    0  0.15762136383E+03 -0.44024700105E+03  0.17696325531E+03  0.50000000000E+03  0.47000000000E+01 0. -1.
         -5    1    1    2    0  501 -0.15762136383E+03  0.44024700105E+03 -0.17696325531E+03  0.50000000000E+03  0.47000000000E+01 0.  1.
</event>
<event>
 4    1  0.4351282E-004  0.1000000E+04  0.7546771E-02  0.8684367E-01
         11   -1    0    0    0    0  0.00000000000E+00  0.00000000000E+00  0.50000000000E+03  0.50000000000E+03  0.00000000000E+00 0. -1.
        -11   -1    0    0    0    0 -0.00000000000E+00 -0.00000000000E+00 -0.50000000000E+03  0.50000000000E+03  0.00000000000E+00 0.  1.
          5    1    1    2  501    0 -0.63825159196E+02  0.40870949490E+03  0.28082166553E+03  0.50000000000E+03  0.47000000000E+01 0. -1.
         -5    1    1    2    0  501  0.63825159196E+02 -0.40870949490E+03 -0.28082166553E+03  0.50000000000E+03  0.47000000000E+01 0.  1.
</event>
<event>
 4    1  0.4351282E-004  0.1000000E+04  0.7546771E-02  0.8684367E-01
         11   -1    0    0    0    0  0.00000000000E+00  0.00000000000E+00  0.50000000000E+03  0.50000000000E+03  0.00000000000E+00 0. -1.
        -11   -1    0    0    0    0 -0.00000000000E+00 -0.00000000000E+00 -0.50000000000E+03  0.50000000000E+03  0.00000000000E+00 0.  1.
          5    1    1    2  501    0  0.16803748394E+03  0.18081662807E+03  0.43479496433E+03  0.50000000000E+03  0.47000000000E+01 0. -1.
         -5    1    1    2    0  501 -0.16803748394E+03 -0.18081662807E+03 -0.43479496433E+03  0.50000000000E+03  0.47000000000E+01 0.  1.
</event>
<event>
 4    1  0.4351282E-004  0.1000000E+04  0.7546771E-02  0.8684367E-01
         11   -1    0    0    0    0  0.00000000000E+00  0.00000000000E+00  0.50000000000E+03  0.50000000000E+03  0.00000000000E+00 0. -1.
        -11   -1    0    0    0    0 -0.00000000000E+00 -0.00000000000E+00 -0.50000000000E+03  0.50000000000E+03  0.00000000000E+00 0.  1.
          5    1    1    2  501    0  0.81337448970E+02 -0.11184113095E+03  0.48047236218E+03  0.50000000000E+03  0.47000000000E+01 0. -1.
         -5    1    1    2    0  501 -0.81337448970E+02  0.11184113095E+03 -0.48047236218E+03  0.50000000000E+03  0.47000000000E+01 0.  1.
</event>
<event>
 4    1  0.4351282E-004  0.1000000E+04  0.7546771E-02  0.8684367E-01
         11   -1    0    0    0    0  0.00000000000E+00  0.00000000000E+00  0.50000000000E+03  0.50000000000E+03  0.00000000000E+00 0. -1.
        -11   -1    0    0    0    0 -0.00000000000E+00 -0.00000000000E+00 -0.50000000000E+03  0.50000000000E+03  0.00000000000E+00 0.  1.
          5    1    1    2  501    0  0.26424711551E+03 -0.33828328437E+03 -0.25635091468E+03  0.50000000000E+03  0.47000000000E+01 0. -1.
         -5    1    1    2    0  501 -0.26424711551E+03  0.33828328437E+03  0.25635091468E+03  0.50000000000E+03  0.47000000000E+01 0.  1.
</event>
<event>
 4    1  0.4351282E-004  0.1000000E+04  0.7546771E-02  0.8684367E-01
         11   -1    0    0    0    0  0.00000000000E+00  0.00000000000E+00  0.50000000000E+03  0.50000000000E+03  0.00000000000E+00 0. -1.
        -11   -1    0    0    0    0 -0.00000000000E+00 -0.00000000000E+00 -0.50000000000E+03  0.50000000000E+03  0.00000000000E+00 0.  1.
          5    1    1    2  501    0  0.61144165553E+02 -0.25444580439E+03  0.42602421721E+03  0.50000000000E+03  0.47000000000E+01 0. -1.
         -5    1    1    2    0  501 -0.61144165553E+02  0.25444580439E+03 -0.42602421721E+03  0.50000000000E+03  0.47000000000E+01 0.  1.
</event>
<event>
 4    1  0.4351282E-004  0.1000000E+04  0.7546771E-02  0.8684367E-01
         11   -1    0    0    0    0  0.00000000000E+00  0.00000000000E+00  0.50000000000E+03  0.50000000000E+03  0.00000000000E+00 0. -1.
        -11   -1    0    0    0    0 -0.00000000000E+00 -0.00000000000E+00 -0.50000000000E+03  0.50000000000E+03  0.00000000000E+00 0.  1.
          5    1    1    2  501    0  0.25769810304E+03  0.42716781053E+03  0.33124905043E+02  0.50000000000E+03  0.47000000000E+01 0. -1.
         -5    1    1    2    0  501 -0.25769810304E+03 -0.42716781053E+03 -0.33124905043E+02  0.50000000000E+03  0.47000000000E+01 0.  1.
</event>
<event>
 4    1  0.4351282E-004  0.1000000E+04  0.7546771E-02  0.8684367E-01
         11   -1    0    0    0    0  0.00000000000E+00  0.00000000000E+00  0.50000000000E+03  0.50000000000E+03  0.00000000000E+00 0. -1.
        -11   -1    0    0    0    0 -0.00000000000E+00 -0.00000000000E+00 -0.50000000000E+03  0.50000000000E+03  0.00000000000E+00 0.  1.
          5    1    1    2  501    0 -0.27143045772E+03  0.35906642244E+03  0.21765734745E+03  0.50000000000E+03  0.47000000000E+01 0. -1.
         -5    1    1    2    0  501  0.27143045772E+03 -0.35906642244E+03 -0.21765734745E+03  0.50000000000E+03  0.47000000000E+01 0.  1.
</event>
<event>
 4    1  0.4351282E-004  0.1000000E+04  0.7546771E-02  0.8684367E-01
         11   -1    0    0    0    0  0.00000000000E+00  0.00000000000E+00  0.50000000000E+03  0.50000000000E+03  0.00000000000E+00 0. -1.
        -11   -1    0    0    0    0 -0.00000000000E+00 -0.00000000000E+00 -0.50000000000E+03  0.50000000000E+03  0.00000000000E+00 0.  1.
          5    1    1    2  501    0  0.59258771642E+02  0.31230291504E+03  0.38591864071E+03  0.50000000000E+03  0.47000000000E+01 0. -1.
         -5    1    1    2    0  501 -0.59258771642E+02 -0.31230291504E+03 -0.38591864071E+03  0.50000000000E+03  0.47000000000E+01 0.  1.
</event>
<event>
 4    1  0.4351282E-004  0.1000000E+04  0.7546771E-02  0.8684367E-01
         11   -1    0    0    0    0  0.00000000000E+00  0.00000000000E+00  0.50000000000E+03  0.50000000000E+03  0.00000000000E+00 0.  1.
        -11   -1    0    0    0    0 -0.00000000000E+00 -0.00000000000E+00 -0.50000000000E+03  0.50000000000E+03  0.00000000000E+00 0. -1.
          5    1    1    2  501    0 -0.14547186668E+02  0.13354246145E+03  0.48159391644E+03  0.50000000000E+03  0.47000000000E+01 0.  1.
         -5    1    1    2    0  501  0.14547186668E+02 -0.13354246145E+03 -0.48159391644E+03  0.50000000000E+03  0.47000000000E+01 0. -1.
</event>
<event>
 4    1  0.4351282E-004  0.1000000E+04  0.7546771E-02  0.8684367E-01
         11   -1    0    0    0    0  0.00000000000E+00  0.00000000000E+00  0.50000000000E+03  0.50000000000E+03  0.00000000000E+00 0. -1.
        -11   -1    0    0    0    0 -0.00000000000E+00 -0.00000000000E+00 -0.50000000000E+03  0.50000000000E+03  0.00000000000E+00 0.  1.
          5    1    1    2  501    0  0.43291917596E+03  0.23171535320E+03  0.94164176723E+02  0.50000000000E+03  0.47000000000E+01 0. -1.
         -5    1    1    2    0  501 -0.43291917596E+03 -0.23171535320E+03 -0.94164176723E+02  0.50000000000E+03  0.47000000000E+01 0.  1.
</event>
<event>
 4    1  0.4351282E-004  0.1000000E+04  0.7546771E-02  0.8684367E-01
         11   -1    0    0    0    0  0.00000000000E+00  0.00000000000E+00  0.50000000000E+03  0.50000000000E+03  0.00000000000E+00 0. -1.
        -11   -1    0    0    0    0 -0.00000000000E+00 -0.00000000000E+00 -0.50000000000E+03  0.50000000000E+03  0.00000000000E+00 0.  1.
          5    1    1    2  501    0 -0.24964678186E+03 -0.19076777646E+03  0.38892422112E+03  0.50000000000E+03  0.47000000000E+01 0. -1.
         -5    1    1    2    0  501  0.24964678186E+03  0.19076777646E+03 -0.38892422112E+03  0.50000000000E+03  0.47000000000E+01 0.  1.
</event>
<event>
 4    1  0.4351282E-004  0.1000000E+04  0.7546771E-02  0.8684367E-01
         11   -1    0    0    0    0  0.00000000000E+00  0.00000000000E+00  0.50000000000E+03  0.50000000000E+03  0.00000000000E+00 0. -1.
        -11   -1    0    0    0    0 -0.00000000000E+00 -0.00000000000E+00 -0.50000000000E+03  0.50000000000E+03  0.00000000000E+00 0.  1.
          5    1    1    2  501    0 -0.46604706602E+03 -0.18073420287E+03 -0.10639086623E+02  0.50000000000E+03  0.47000000000E+01 0. -1.
         -5    1    1    2    0  501  0.46604706602E+03  0.18073420287E+03  0.10639086623E+02  0.50000000000E+03  0.47000000000E+01 0.  1.
</event>
<event>
 4    1  0.4351282E-004  0.1000000E+04  0.7546771E-02  0.8684367E-01
         11   -1    0    0    0    0  0.00000000000E+00  0.00000000000E+00  0.50000000000E+03  0.50000000000E+03  0.00000000000E+00 0. -1.
        -11   -1    0    0    0    0 -0.00000000000E+00 -0.00000000000E+00 -0.50000000000E+03  0.50000000000E+03  0.00000000000E+00 0.  1.
          5    1    1    2  501    0 -0.81655002359E+02 -0.49089943285E+03  0.48250569042E+02  0.50000000000E+03  0.47000000000E+01 0. -1.
         -5    1    1    2    0  501  0.81655002359E+02  0.49089943285E+03 -0.48250569042E+02  0.50000000000E+03  0.47000000000E+01 0.  1.
</event>
<event>
 4    1  0.4351282E-004  0.1000000E+04  0.7546771E-02  0.8684367E-01
         11   -1    0    0    0    0  0.00000000000E+00  0.00000000000E+00  0.50000000000E+03  0.50000000000E+03  0.00000000000E+00 0. -1.
        -11   -1    0    0    0    0 -0.00000000000E+00 -0.00000000000E+00 -0.50000000000E+03  0.50000000000E+03  0.00000000000E+00 0.  1.
          5    1    1    2  501    0  0.36599562368E+03  0.22852182944E+02  0.33985716291E+03  0.50000000000E+03  0.47000000000E+01 0. -1.
         -5    1    1    2    0  501 -0.36599562368E+03 -0.22852182944E+02 -0.33985716291E+03  0.50000000000E+03  0.47000000000E+01 0.  1.
</event>
<event>
 4    1  0.4351282E-004  0.1000000E+04  0.7546771E-02  0.8684367E-01
         11   -1    0    0    0    0  0.00000000000E+00  0.00000000000E+00  0.50000000000E+03  0.50000000000E+03  0.00000000000E+00 0.  1.
        -11   -1    0    0    0    0 -0.00000000000E+00 -0.00000000000E+00 -0.50000000000E+03  0.50000000000E+03  0.00000000000E+00 0. -1.
          5    1    1    2  501    0  0.15457507989E+03 -0.44461056060E+03  0.16854051169E+03  0.50000000000E+03  0.47000000000E+01 0.  1.
         -5    1    1    2    0  501 -0.15457507989E+03  0.44461056060E+03 -0.16854051169E+03  0.50000000000E+03  0.47000000000E+01 0. -1.
</event>
<event>
 4    1  0.4351282E-004  0.1000000E+04  0.7546771E-02  0.8684367E-01
         11   -1    0    0    0    0  0.00000000000E+00  0.00000000000E+00  0.50000000000E+03  0.50000000000E+03  0.00000000000E+00 0. -1.
        -11   -1    0    0    0    0 -0.00000000000E+00 -0.00000000000E+00 -0.50000000000E+03  0.50000000000E+03  0.00000000000E+00 0.  1.
          5    1    1    2  501    0 -0.25704023322E+03 -0.32771947941E+03  0.27660110507E+03  0.50000000000E+03  0.47000000000E+01 0. -1.
         -5    1    1    2    0  501  0.25704023322E+03  0.32771947941E+03 -0.27660110507E+03  0.50000000000E+03  0.47000000000E+01 0.  1.
</event>
<event>
 4    1  0.4351282E-004  0.1000000E+04  0.7546771E-02  0.8684367E-01
         11   -1    0    0    0    0  0.00000000000E+00  0.00000000000E+00  0.50000000000E+03  0.50000000000E+03  0.00000000000E+00 0. -1.
        -11   -1    0    0    0    0 -0.00000000000E+00 -0.00000000000E+00 -0.50000000000E+03  0.50000000000E+03  0.00000000000E+00 0.  1.
          5    1    1    2  501    0  0.14741197925E+03  0.32916498126E+03  0.34626295424E+03  0.50000000000E+03  0.47000000000E+01 0. -1.
         -5    1    1    2    0  501 -0.14741197925E+03 -0.32916498126E+03 -0.34626295424E+03  0.50000000000E+03  0.47000000000E+01 0.  1.
</event>
<event>
 4    1  0.4351282E-004  0.1000000E+04  0.7546771E-02  0.8684367E-01
         11   -1    0    0    0    0  0.00000000000E+00  0.00000000000E+00  0.50000000000E+03  0.50000000000E+03  0.00000000000E+00 0. -1.
        -11   -1    0    0    0    0 -0.00000000000E+00 -0.00000000000E+00 -0.50000000000E+03  0.50000000000E+03  0.00000000000E+00 0.  1.
          5    1    1    2  501    0  0.33583730540E+03 -0.15431131150E+01  0.37039010935E+03  0.50000000000E+03  0.47000000000E+01 0. -1.
         -5    1    1    2    0  501 -0.33583730540E+03  0.15431131150E+01 -0.37039010935E+03  0.50000000000E+03  0.47000000000E+01 0.  1.
</event>
<event>
 4    1  0.4351282E-004  0.1000000E+04  0.7546771E-02  0.8684367E-01
         11   -1    0    0    0    0  0.00000000000E+00  0.00000000000E+00  0.50000000000E+03  0.50000000000E+03  0.00000000000E+00 0. -1.
        -11   -1    0    0    0    0 -0.00000000000E+00 -0.00000000000E+00 -0.50000000000E+03  0.50000000000E+03  0.00000000000E+00 0.  1.
          5    1    1    2  501    0 -0.25063820439E+03  0.11802241562E+02  0.43245705867E+03  0.50000000000E+03  0.47000000000E+01 0. -1.
         -5    1    1    2    0  501  0.25063820439E+03 -0.11802241562E+02 -0.43245705867E+03  0.50000000000E+03  0.47000000000E+01 0.  1.
</event>
<event>
 4    1  0.4351282E-004  0.1000000E+04  0.7546771E-02  0.8684367E-01
         11   -1    0    0    0    0  0.00000000000E+00  0.00000000000E+00  0.50000000000E+03  0.50000000000E+03  0.00000000000E+00 0. -1.
        -11   -1    0    0    0    0 -0.00000000000E+00 -0.00000000000E+00 -0.50000000000E+03  0.50000000000E+03  0.00000000000E+00 0.  1.
          5    1    1    2  501    0  0.11727000441E+03 -0.14405889439E+02  0.48581696802E+03  0.50000000000E+03  0.47000000000E+01 0. -1.
         -5    1    1    2    0  501 -0.11727000441E+03  0.14405889439E+02 -0.48581696802E+03  0.50000000000E+03  0.47000000000E+01 0.  1.
</event>
<event>
 4    1  0.4351282E-004  0.1000000E+04  0.7546771E-02  0.8684367E-01
         11   -1    0    0    0    0  0.00000000000E+00  0.00000000000E+00  0.50000000000E+03  0.50000000000E+03  0.00000000000E+00 0.  1.
        -11   -1    0    0    0    0 -0.00000000000E+00 -0.00000000000E+00 -0.50000000000E+03  0.50000000000E+03  0.00000000000E+00 0. -1.
          5    1    1    2  501    0 -0.29909055657E+02  0.49088576688E+03  0.90080643094E+02  0.50000000000E+03  0.47000000000E+01 0.  1.
         -5    1    1    2    0  501  0.29909055657E+02 -0.49088576688E+03 -0.90080643094E+02  0.50000000000E+03  0.47000000000E+01 0. -1.
</event>
<event>
 4    1  0.4351282E-004  0.1000000E+04  0.7546771E-02  0.8684367E-01
         11   -1    0    0    0    0  0.00000000000E+00  0.00000000000E+00  0.50000000000E+03  0.50000000000E+03  0.00000000000E+00 0. -1.
        -11   -1    0    0    0    0 -0.00000000000E+00 -0.00000000000E+00 -0.50000000000E+03  0.50000000000E+03  0.00000000000E+00 0.  1.
          5    1    1    2  501    0  0.32673519859E+03 -0.34079771596E+03 -0.16455678899E+03  0.50000000000E+03  0.47000000000E+01 0. -1.
         -5    1    1    2    0  501 -0.32673519859E+03  0.34079771596E+03  0.16455678899E+03  0.50000000000E+03  0.47000000000E+01 0.  1.
</event>
<event>
 4    1  0.4351282E-004  0.1000000E+04  0.7546771E-02  0.8684367E-01
         11   -1    0    0    0    0  0.00000000000E+00  0.00000000000E+00  0.50000000000E+03  0.50000000000E+03  0.00000000000E+00 0. -1.
        -11   -1    0    0    0    0 -0.00000000000E+00 -0.00000000000E+00 -0.50000000000E+03  0.50000000000E+03  0.00000000000E+00 0.  1.
          5    1    1    2  501    0  0.27064998909E+03  0.39790137207E+03  0.13565025438E+03  0.50000000000E+03  0.47000000000E+01 0. -1.
         -5    1    1    2    0  501 -0.27064998909E+03 -0.39790137207E+03 -0.13565025438E+03  0.50000000000E+03  0.47000000000E+01 0.  1.
</event>
<event>
 4    1  0.4351282E-004  0.1000000E+04  0.7546771E-02  0.8684367E-01
         11   -1    0    0    0    0  0.00000000000E+00  0.00000000000E+00  0.50000000000E+03  0.50000000000E+03  0.00000000000E+00 0. -1.
        -11   -1    0    0    0    0 -0.00000000000E+00 -0.00000000000E+00 -0.50000000000E+03  0.50000000000E+03  0.00000000000E+00 0.  1.
          5    1    1    2  501    0  0.21174277378E+03 -0.44637683351E+03 -0.76750441446E+02  0.50000000000E+03  0.47000000000E+01 0. -1.
         -5    1    1    2    0  501 -0.21174277378E+03  0.44637683351E+03  0.76750441446E+02  0.50000000000E+03  0.47000000000E+01 0.  1.
</event>
<event>
 4    1  0.4351282E-004  0.1000000E+04  0.7546771E-02  0.8684367E-01
         11   -1    0    0    0    0  0.00000000000E+00  0.00000000000E+00  0.50000000000E+03  0.50000000000E+03  0.00000000000E+00 0.  1.
        -11   -1    0    0    0    0 -0.00000000000E+00 -0.00000000000E+00 -0.50000000000E+03  0.50000000000E+03  0.00000000000E+00 0. -1.
          5    1    1    2  501    0  0.93739728791E+02  0.42611023552E+03 -0.24417379145E+03  0.50000000000E+03  0.47000000000E+01 0.  1.
         -5    1    1    2    0  501 -0.93739728791E+02 -0.42611023552E+03  0.24417379145E+03  0.50000000000E+03  0.47000000000E+01 0. -1.
</event>
<event>
 4    1  0.4351282E-004  0.1000000E+04  0.7546771E-02  0.8684367E-01
         11   -1    0    0    0    0  0.00000000000E+00  0.00000000000E+00  0.50000000000E+03  0.50000000000E+03  0.00000000000E+00 0. -1.
        -11   -1    0    0    0    0 -0.00000000000E+00 -0.00000000000E+00 -0.50000000000E+03  0.50000000000E+03  0.00000000000E+00 0.  1.
          5    1    1    2  501    0 -0.66385278001E+02  0.85801368681E+02  0.48806662455E+03  0.50000000000E+03  0.47000000000E+01 0. -1.
         -5    1    1    2    0  501  0.66385278001E+02 -0.85801368681E+02 -0.48806662455E+03  0.50000000000E+03  0.47000000000E+01 0.  1.
</event>
<event>
 4    1  0.4351282E-004  0.1000000E+04  0.7546771E-02  0.8684367E-01
         11   -1    0    0    0    0  0.00000000000E+00  0.00000000000E+00  0.50000000000E+03  0.50000000000E+03  0.00000000000E+00 0. -1.
        -11   -1    0    0    0    0 -0.00000000000E+00 -0.00000000000E+00 -0.50000000000E+03  0.50000000000E+03  0.00000000000E+00 0.  1.
          5    1    1    2  501    0  0.46122880497E+03  0.17482541429E+03 -0.81743342165E+02  0.50000000000E+03  0.47000000000E+01 0. -1.
         -5    1    1    2    0  501 -0.46122880497E+03 -0.17482541429E+03  0.81743342165E+02  0.50000000000E+03  0.47000000000E+01 0.  1.
</event>
<event>
 4    1  0.4351282E-004  0.1000000E+04  0.7546771E-02  0.8684367E-01
         11   -1    0    0    0    0  0.00000000000E+00  0.00000000000E+00  0.50000000000E+03  0.50000000000E+03  0.00000000000E+00 0. -1.
        -11   -1    0    0    0    0 -0.00000000000E+00 -0.00000000000E+00 -0.50000000000E+03  0.50000000000E+03  0.00000000000E+00 0.  1.
          5    1    1    2  501    0  0.57809223930E+02  0.67105221804E+02  0.49207000806E+03  0.50000000000E+03  0.47000000000E+01 0. -1.
         -5    1    1    2    0  501 -0.57809223930E+02 -0.67105221804E+02 -0.49207000806E+03  0.50000000000E+03  0.47000000000E+01 0.  1.
</event>
<event>
 4    1  0.4351282E-004  0.1000000E+04  0.7546771E-02  0.8684367E-01
         11   -1    0    0    0    0  0.00000000000E+00  0.00000000000E+00  0.50000000000E+03  0.50000000000E+03  0.00000000000E+00 0. -1.
        -11   -1    0    0    0    0 -0.00000000000E+00 -0.00000000000E+00 -0.50000000000E+03  0.50000000000E+03  0.00000000000E+00 0.  1.
          5    1    1    2  501    0 -0.80789407941E+02  0.11578302830E+03 -0.47963034925E+03  0.50000000000E+03  0.47000000000E+01 0. -1.
         -5    1    1    2    0  501  0.80789407941E+02 -0.11578302830E+03  0.47963034925E+03  0.50000000000E+03  0.47000000000E+01 0.  1.
</event>
<event>
 4    1  0.4351282E-004  0.1000000E+04  0.7546771E-02  0.8684367E-01
         11   -1    0    0    0    0  0.00000000000E+00  0.00000000000E+00  0.50000000000E+03  0.50000000000E+03  0.00000000000E+00 0.  1.
        -11   -1    0    0    0    0 -0.00000000000E+00 -0.00000000000E+00 -0.50000000000E+03  0.50000000000E+03  0.00000000000E+00 0. -1.
          5    1    1    2  501    0  0.46873847383E+03  0.27739107208E+02  0.17173437361E+03  0.50000000000E+03  0.47000000000E+01 0.  1.
         -5    1    1    2    0  501 -0.46873847383E+03 -0.27739107208E+02 -0.17173437361E+03  0.50000000000E+03  0.47000000000E+01 0. -1.
</event>
<event>
 4    1  0.4351282E-004  0.1000000E+04  0.7546771E-02  0.8684367E-01
         11   -1    0    0    0    0  0.00000000000E+00  0.00000000000E+00  0.50000000000E+03  0.50000000000E+03  0.00000000000E+00 0. -1.
        -11   -1    0    0    0    0 -0.00000000000E+00 -0.00000000000E+00 -0.50000000000E+03  0.50000000000E+03  0.00000000000E+00 0.  1.
          5    1    1    2  501    0 -0.18072428111E+03 -0.28433827556E+02  0.46530437529E+03  0.50000000000E+03  0.47000000000E+01 0. -1.
         -5    1    1    2    0  501  0.18072428111E+03  0.28433827556E+02 -0.46530437529E+03  0.50000000000E+03  0.47000000000E+01 0.  1.
</event>
<event>
 4    1  0.4351282E-004  0.1000000E+04  0.7546771E-02  0.8684367E-01
         11   -1    0    0    0    0  0.00000000000E+00  0.00000000000E+00  0.50000000000E+03  0.50000000000E+03  0.00000000000E+00 0. -1.
        -11   -1    0    0    0    0 -0.00000000000E+00 -0.00000000000E+00 -0.50000000000E+03  0.50000000000E+03  0.00000000000E+00 0.  1.
          5    1    1    2  501    0 -0.12880378814E+03  0.27897136960E+03  0.39441408330E+03  0.50000000000E+03  0.47000000000E+01 0. -1.
         -5    1    1    2    0  501  0.12880378814E+03 -0.27897136960E+03 -0.39441408330E+03  0.50000000000E+03  0.47000000000E+01 0.  1.
</event>
<event>
 4    1  0.4351282E-004  0.1000000E+04  0.7546771E-02  0.8684367E-01
         11   -1    0    0    0    0  0.00000000000E+00  0.00000000000E+00  0.50000000000E+03  0.50000000000E+03  0.00000000000E+00 0.  1.
        -11   -1    0    0    0    0 -0.00000000000E+00 -0.00000000000E+00 -0.50000000000E+03  0.50000000000E+03  0.00000000000E+00 0. -1.
          5    1    1    2  501    0 -0.25760754939E+03  0.35571466219E+03  0.23892119957E+03  0.50000000000E+03  0.47000000000E+01 0.  1.
         -5    1    1    2    0  501  0.25760754939E+03 -0.35571466219E+03 -0.23892119957E+03  0.50000000000E+03  0.47000000000E+01 0. -1.
</event>
<event>
 4    1  0.4351282E-004  0.1000000E+04  0.7546771E-02  0.8684367E-01
         11   -1    0    0    0    0  0.00000000000E+00  0.00000000000E+00  0.50000000000E+03  0.50000000000E+03  0.00000000000E+00 0. -1.
        -11   -1    0    0    0    0 -0.00000000000E+00 -0.00000000000E+00 -0.50000000000E+03  0.50000000000E+03  0.00000000000E+00 0.  1.
          5    1    1    2  501    0 -0.13630184384E+03  0.51068825416E+02  0.47832174573E+03  0.50000000000E+03  0.47000000000E+01 0. -1.
         -5    1    1    2    0  501  0.13630184384E+03 -0.51068825416E+02 -0.47832174573E+03  0.50000000000E+03  0.47000000000E+01 0.  1.
</event>
<event>
 4    1  0.4351282E-004  0.1000000E+04  0.7546771E-02  0.8684367E-01
         11   -1    0    0    0    0  0.00000000000E+00  0.00000000000E+00  0.50000000000E+03  0.50000000000E+03  0.00000000000E+00 0.  1.
        -11   -1    0    0    0    0 -0.00000000000E+00 -0.00000000000E+00 -0.50000000000E+03  0.50000000000E+03  0.00000000000E+00 0. -1.
          5    1    1    2  501    0 -0.37502394423E+03  0.28243790863E+03 -0.17194120805E+03  0.50000000000E+03  0.47000000000E+01 0. -1.
         -5    1    1    2    0  501  0.37502394423E+03 -0.28243790863E+03  0.17194120805E+03  0.50000000000E+03  0.47000000000E+01 0.  1.
</event>
<event>
 4    1  0.4351282E-004  0.1000000E+04  0.7546771E-02  0.8684367E-01
         11   -1    0    0    0    0  0.00000000000E+00  0.00000000000E+00  0.50000000000E+03  0.50000000000E+03  0.00000000000E+00 0. -1.
        -11   -1    0    0    0    0 -0.00000000000E+00 -0.00000000000E+00 -0.50000000000E+03  0.50000000000E+03  0.00000000000E+00 0.  1.
          5    1    1    2  501    0 -0.13657121567E+03  0.24461732476E+03  0.41411179346E+03  0.50000000000E+03  0.47000000000E+01 0. -1.
         -5    1    1    2    0  501  0.13657121567E+03 -0.24461732476E+03 -0.41411179346E+03  0.50000000000E+03  0.47000000000E+01 0.  1.
</event>
<event>
 4    1  0.4351282E-004  0.1000000E+04  0.7546771E-02  0.8684367E-01
         11   -1    0    0    0    0  0.00000000000E+00  0.00000000000E+00  0.50000000000E+03  0.50000000000E+03  0.00000000000E+00 0.  1.
        -11   -1    0    0    0    0 -0.00000000000E+00 -0.00000000000E+00 -0.50000000000E+03  0.50000000000E+03  0.00000000000E+00 0. -1.
          5    1    1    2  501    0  0.68596628305E+02 -0.25404340004E+03  0.42512864345E+03  0.50000000000E+03  0.47000000000E+01 0.  1.
         -5    1    1    2    0  501 -0.68596628305E+02  0.25404340004E+03 -0.42512864345E+03  0.50000000000E+03  0.47000000000E+01 0. -1.
</event>
<event>
 4    1  0.4351282E-004  0.1000000E+04  0.7546771E-02  0.8684367E-01
         11   -1    0    0    0    0  0.00000000000E+00  0.00000000000E+00  0.50000000000E+03  0.50000000000E+03  0.00000000000E+00 0. -1.
        -11   -1    0    0    0    0 -0.00000000000E+00 -0.00000000000E+00 -0.50000000000E+03  0.50000000000E+03  0.00000000000E+00 0.  1.
          5    1    1    2  501    0  0.35035708612E+03 -0.72316056201E+02  0.34928242186E+03  0.50000000000E+03  0.47000000000E+01 0. -1.
         -5    1    1    2    0  501 -0.35035708612E+03  0.72316056201E+02 -0.34928242186E+03  0.50000000000E+03  0.47000000000E+01 0.  1.
</event>
<event>
 4    1  0.4351282E-004  0.1000000E+04  0.7546771E-02  0.8684367E-01
         11   -1    0    0    0    0  0.00000000000E+00  0.00000000000E+00  0.50000000000E+03  0.50000000000E+03  0.00000000000E+00 0. -1.
        -11   -1    0    0    0    0 -0.00000000000E+00 -0.00000000000E+00 -0.50000000000E+03  0.50000000000E+03  0.00000000000E+00 0.  1.
          5    1    1    2  501    0  0.27420548009E+03  0.26031667876E+03  0.32714597880E+03  0.50000000000E+03  0.47000000000E+01 0. -1.
         -5    1    1    2    0  501 -0.27420548009E+03 -0.26031667876E+03 -0.32714597880E+03  0.50000000000E+03  0.47000000000E+01 0.  1.
</event>
<event>
 4    1  0.4351282E-004  0.1000000E+04  0.7546771E-02  0.8684367E-01
         11   -1    0    0    0    0  0.00000000000E+00  0.00000000000E+00  0.50000000000E+03  0.50000000000E+03  0.00000000000E+00 0. -1.
        -11   -1    0    0    0    0 -0.00000000000E+00 -0.00000000000E+00 -0.50000000000E+03  0.50000000000E+03  0.00000000000E+00 0.  1.
          5    1    1    2  501    0 -0.83723783601E+02 -0.34191676848E+03  0.35505092803E+03  0.50000000000E+03  0.47000000000E+01 0. -1.
         -5    1    1    2    0  501  0.83723783601E+02  0.34191676848E+03 -0.35505092803E+03  0.50000000000E+03  0.47000000000E+01 0.  1.
</event>
<event>
 4    1  0.4351282E-004  0.1000000E+04  0.7546771E-02  0.8684367E-01
         11   -1    0    0    0    0  0.00000000000E+00  0.00000000000E+00  0.50000000000E+03  0.50000000000E+03  0.00000000000E+00 0. -1.
        -11   -1    0    0    0    0 -0.00000000000E+00 -0.00000000000E+00 -0.50000000000E+03  0.50000000000E+03  0.00000000000E+00 0.  1.
          5    1    1    2  501    0 -0.28834401551E+03  0.14741362455E+03  0.38092632098E+03  0.50000000000E+03  0.47000000000E+01 0. -1.
         -5    1    1    2    0  501  0.28834401551E+03 -0.14741362455E+03 -0.38092632098E+03  0.50000000000E+03  0.47000000000E+01 0.  1.
</event>
<event>
 4    1  0.4351282E-004  0.1000000E+04  0.7546771E-02  0.8684367E-01
         11   -1    0    0    0    0  0.00000000000E+00  0.00000000000E+00  0.50000000000E+03  0.50000000000E+03  0.00000000000E+00 0.  1.
        -11   -1    0    0    0    0 -0.00000000000E+00 -0.00000000000E+00 -0.50000000000E+03  0.50000000000E+03  0.00000000000E+00 0. -1.
          5    1    1    2  501    0  0.36656627295E+01  0.52606037684E+02 -0.49718917699E+03  0.50000000000E+03  0.47000000000E+01 0. -1.
         -5    1    1    2    0  501 -0.36656627295E+01 -0.52606037684E+02  0.49718917699E+03  0.50000000000E+03  0.47000000000E+01 0.  1.
</event>
<event>
 4    1  0.4351282E-004  0.1000000E+04  0.7546771E-02  0.8684367E-01
         11   -1    0    0    0    0  0.00000000000E+00  0.00000000000E+00  0.50000000000E+03  0.50000000000E+03  0.00000000000E+00 0.  1.
        -11   -1    0    0    0    0 -0.00000000000E+00 -0.00000000000E+00 -0.50000000000E+03  0.50000000000E+03  0.00000000000E+00 0. -1.
          5    1    1    2  501    0 -0.10936589174E+03 -0.40648216134E+03  0.26979485584E+03  0.50000000000E+03  0.47000000000E+01 0.  1.
         -5    1    1    2    0  501  0.10936589174E+03  0.40648216134E+03 -0.26979485584E+03  0.50000000000E+03  0.47000000000E+01 0. -1.
</event>
<event>
 4    1  0.4351282E-004  0.1000000E+04  0.7546771E-02  0.8684367E-01
         11   -1    0    0    0    0  0.00000000000E+00  0.00000000000E+00  0.50000000000E+03  0.50000000000E+03  0.00000000000E+00 0. -1.
        -11   -1    0    0    0    0 -0.00000000000E+00 -0.00000000000E+00 -0.50000000000E+03  0.50000000000E+03  0.00000000000E+00 0.  1.
          5    1    1    2  501    0 -0.43378628201E+03 -0.10567681357E+03  0.22503284785E+03  0.50000000000E+03  0.47000000000E+01 0. -1.
         -5    1    1    2    0  501  0.43378628201E+03  0.10567681357E+03 -0.22503284785E+03  0.50000000000E+03  0.47000000000E+01 0.  1.
</event>
<event>
 4    1  0.4351282E-004  0.1000000E+04  0.7546771E-02  0.8684367E-01
         11   -1    0    0    0    0  0.00000000000E+00  0.00000000000E+00  0.50000000000E+03  0.50000000000E+03  0.00000000000E+00 0.  1.
        -11   -1    0    0    0    0 -0.00000000000E+00 -0.00000000000E+00 -0.50000000000E+03  0.50000000000E+03  0.00000000000E+00 0. -1.
          5    1    1    2  501    0 -0.30449328990E+03 -0.11876461089E+03  0.37836056032E+03  0.50000000000E+03  0.47000000000E+01 0.  1.
         -5    1    1    2    0  501  0.30449328990E+03  0.11876461089E+03 -0.37836056032E+03  0.50000000000E+03  0.47000000000E+01 0. -1.
</event>
<event>
 4    1  0.4351282E-004  0.1000000E+04  0.7546771E-02  0.8684367E-01
         11   -1    0    0    0    0  0.00000000000E+00  0.00000000000E+00  0.50000000000E+03  0.50000000000E+03  0.00000000000E+00 0. -1.
        -11   -1    0    0    0    0 -0.00000000000E+00 -0.00000000000E+00 -0.50000000000E+03  0.50000000000E+03  0.00000000000E+00 0.  1.
          5    1    1    2  501    0  0.76672763321E+02 -0.52408748003E+02  0.49127641964E+03  0.50000000000E+03  0.47000000000E+01 0. -1.
         -5    1    1    2    0  501 -0.76672763321E+02  0.52408748003E+02 -0.49127641964E+03  0.50000000000E+03  0.47000000000E+01 0.  1.
</event>
<event>
 4    1  0.4351282E-004  0.1000000E+04  0.7546771E-02  0.8684367E-01
         11   -1    0    0    0    0  0.00000000000E+00  0.00000000000E+00  0.50000000000E+03  0.50000000000E+03  0.00000000000E+00 0.  1.
        -11   -1    0    0    0    0 -0.00000000000E+00 -0.00000000000E+00 -0.50000000000E+03  0.50000000000E+03  0.00000000000E+00 0. -1.
          5    1    1    2  501    0  0.38947206640E+03  0.69894687862E+02  0.30562092877E+03  0.50000000000E+03  0.47000000000E+01 0.  1.
         -5    1    1    2    0  501 -0.38947206640E+03 -0.69894687862E+02 -0.30562092877E+03  0.50000000000E+03  0.47000000000E+01 0. -1.
</event>
<event>
 4    1  0.4351282E-004  0.1000000E+04  0.7546771E-02  0.8684367E-01
         11   -1    0    0    0    0  0.00000000000E+00  0.00000000000E+00  0.50000000000E+03  0.50000000000E+03  0.00000000000E+00 0. -1.
        -11   -1    0    0    0    0 -0.00000000000E+00 -0.00000000000E+00 -0.50000000000E+03  0.50000000000E+03  0.00000000000E+00 0.  1.
          5    1    1    2  501    0  0.17960168586E+03  0.17270582944E+03 -0.43346723165E+03  0.50000000000E+03  0.47000000000E+01 0.  1.
         -5    1    1    2    0  501 -0.17960168586E+03 -0.17270582944E+03  0.43346723165E+03  0.50000000000E+03  0.47000000000E+01 0. -1.
</event>
<event>
 4    1  0.4351282E-004  0.1000000E+04  0.7546771E-02  0.8684367E-01
         11   -1    0    0    0    0  0.00000000000E+00  0.00000000000E+00  0.50000000000E+03  0.50000000000E+03  0.00000000000E+00 0.  1.
        -11   -1    0    0    0    0 -0.00000000000E+00 -0.00000000000E+00 -0.50000000000E+03  0.50000000000E+03  0.00000000000E+00 0. -1.
          5    1    1    2  501    0  0.27294393659E+03  0.96174155837E+02 -0.40771319482E+03  0.50000000000E+03  0.47000000000E+01 0. -1.
         -5    1    1    2    0  501 -0.27294393659E+03 -0.96174155837E+02  0.40771319482E+03  0.50000000000E+03  0.47000000000E+01 0.  1.
</event>
<event>
 4    1  0.4351282E-004  0.1000000E+04  0.7546771E-02  0.8684367E-01
         11   -1    0    0    0    0  0.00000000000E+00  0.00000000000E+00  0.50000000000E+03  0.50000000000E+03  0.00000000000E+00 0. -1.
        -11   -1    0    0    0    0 -0.00000000000E+00 -0.00000000000E+00 -0.50000000000E+03  0.50000000000E+03  0.00000000000E+00 0.  1.
          5    1    1    2  501    0 -0.42942355193E+02 -0.30416656812E-01  0.49813036768E+03  0.50000000000E+03  0.47000000000E+01 0. -1.
         -5    1    1    2    0  501  0.42942355193E+02  0.30416656812E-01 -0.49813036768E+03  0.50000000000E+03  0.47000000000E+01 0.  1.
</event>
<event>
 4    1  0.4351282E-004  0.1000000E+04  0.7546771E-02  0.8684367E-01
         11   -1    0    0    0    0  0.00000000000E+00  0.00000000000E+00  0.50000000000E+03  0.50000000000E+03  0.00000000000E+00 0. -1.
        -11   -1    0    0    0    0 -0.00000000000E+00 -0.00000000000E+00 -0.50000000000E+03  0.50000000000E+03  0.00000000000E+00 0.  1.
          5    1    1    2  501    0 -0.41491246042E+03  0.14708422655E+03  0.23704807633E+03  0.50000000000E+03  0.47000000000E+01 0. -1.
         -5    1    1    2    0  501  0.41491246042E+03 -0.14708422655E+03 -0.23704807633E+03  0.50000000000E+03  0.47000000000E+01 0.  1.
</event>
<event>
 4    1  0.4351282E-004  0.1000000E+04  0.7546771E-02  0.8684367E-01
         11   -1    0    0    0    0  0.00000000000E+00  0.00000000000E+00  0.50000000000E+03  0.50000000000E+03  0.00000000000E+00 0. -1.
        -11   -1    0    0    0    0 -0.00000000000E+00 -0.00000000000E+00 -0.50000000000E+03  0.50000000000E+03  0.00000000000E+00 0.  1.
          5    1    1    2  501    0  0.49854772826E+03 -0.37719031006E+02  0.23124329972E+01  0.50000000000E+03  0.47000000000E+01 0.  1.
         -5    1    1    2    0  501 -0.49854772826E+03  0.37719031006E+02 -0.23124329972E+01  0.50000000000E+03  0.47000000000E+01 0. -1.
</event>
<event>
 4    1  0.4351282E-004  0.1000000E+04  0.7546771E-02  0.8684367E-01
         11   -1    0    0    0    0  0.00000000000E+00  0.00000000000E+00  0.50000000000E+03  0.50000000000E+03  0.00000000000E+00 0. -1.
        -11   -1    0    0    0    0 -0.00000000000E+00 -0.00000000000E+00 -0.50000000000E+03  0.50000000000E+03  0.00000000000E+00 0.  1.
          5    1    1    2  501    0 -0.38047201255E+03  0.17316645379E+03  0.27428513804E+03  0.50000000000E+03  0.47000000000E+01 0. -1.
         -5    1    1    2    0  501  0.38047201255E+03 -0.17316645379E+03 -0.27428513804E+03  0.50000000000E+03  0.47000000000E+01 0.  1.
</event>
<event>
 4    1  0.4351282E-004  0.1000000E+04  0.7546771E-02  0.8684367E-01
         11   -1    0    0    0    0  0.00000000000E+00  0.00000000000E+00  0.50000000000E+03  0.50000000000E+03  0.00000000000E+00 0. -1.
        -11   -1    0    0    0    0 -0.00000000000E+00 -0.00000000000E+00 -0.50000000000E+03  0.50000000000E+03  0.00000000000E+00 0.  1.
          5    1    1    2  501    0 -0.44832941106E+03  0.20622520777E+03  0.80310726923E+02  0.50000000000E+03  0.47000000000E+01 0. -1.
         -5    1    1    2    0  501  0.44832941106E+03 -0.20622520777E+03 -0.80310726923E+02  0.50000000000E+03  0.47000000000E+01 0.  1.
</event>
<event>
 4    1  0.4351282E-004  0.1000000E+04  0.7546771E-02  0.8684367E-01
         11   -1    0    0    0    0  0.00000000000E+00  0.00000000000E+00  0.50000000000E+03  0.50000000000E+03  0.00000000000E+00 0. -1.
        -11   -1    0    0    0    0 -0.00000000000E+00 -0.00000000000E+00 -0.50000000000E+03  0.50000000000E+03  0.00000000000E+00 0.  1.
          5    1    1    2  501    0 -0.60598382651E+02 -0.44534441490E+03  0.21902990239E+03  0.50000000000E+03  0.47000000000E+01 0. -1.
         -5    1    1    2    0  501  0.60598382651E+02  0.44534441490E+03 -0.21902990239E+03  0.50000000000E+03  0.47000000000E+01 0.  1.
</event>
<event>
 4    1  0.4351282E-004  0.1000000E+04  0.7546771E-02  0.8684367E-01
         11   -1    0    0    0    0  0.00000000000E+00  0.00000000000E+00  0.50000000000E+03  0.50000000000E+03  0.00000000000E+00 0. -1.
        -11   -1    0    0    0    0 -0.00000000000E+00 -0.00000000000E+00 -0.50000000000E+03  0.50000000000E+03  0.00000000000E+00 0.  1.
          5    1    1    2  501    0  0.46189110646E+03  0.16960234848E+03  0.88710535825E+02  0.50000000000E+03  0.47000000000E+01 0. -1.
         -5    1    1    2    0  501 -0.46189110646E+03 -0.16960234848E+03 -0.88710535825E+02  0.50000000000E+03  0.47000000000E+01 0.  1.
</event>
<event>
 4    1  0.4351282E-004  0.1000000E+04  0.7546771E-02  0.8684367E-01
         11   -1    0    0    0    0  0.00000000000E+00  0.00000000000E+00  0.50000000000E+03  0.50000000000E+03  0.00000000000E+00 0. -1.
        -11   -1    0    0    0    0 -0.00000000000E+00 -0.00000000000E+00 -0.50000000000E+03  0.50000000000E+03  0.00000000000E+00 0.  1.
          5    1    1    2  501    0  0.11546312281E+03 -0.48432063815E+02  0.48404598177E+03  0.50000000000E+03  0.47000000000E+01 0. -1.
         -5    1    1    2    0  501 -0.11546312281E+03  0.48432063815E+02 -0.48404598177E+03  0.50000000000E+03  0.47000000000E+01 0.  1.
</event>
<event>
 4    1  0.4351282E-004  0.1000000E+04  0.7546771E-02  0.8684367E-01
         11   -1    0    0    0    0  0.00000000000E+00  0.00000000000E+00  0.50000000000E+03  0.50000000000E+03  0.00000000000E+00 0. -1.
        -11   -1    0    0    0    0 -0.00000000000E+00 -0.00000000000E+00 -0.50000000000E+03  0.50000000000E+03  0.00000000000E+00 0.  1.
          5    1    1    2  501    0 -0.78943824147E+02  0.36455492661E+03  0.33293466043E+03  0.50000000000E+03  0.47000000000E+01 0. -1.
         -5    1    1    2    0  501  0.78943824147E+02 -0.36455492661E+03 -0.33293466043E+03  0.50000000000E+03  0.47000000000E+01 0.  1.
</event>
<event>
 4    1  0.4351282E-004  0.1000000E+04  0.7546771E-02  0.8684367E-01
         11   -1    0    0    0    0  0.00000000000E+00  0.00000000000E+00  0.50000000000E+03  0.50000000000E+03  0.00000000000E+00 0.  1.
        -11   -1    0    0    0    0 -0.00000000000E+00 -0.00000000000E+00 -0.50000000000E+03  0.50000000000E+03  0.00000000000E+00 0. -1.
          5    1    1    2  501    0  0.20877914463E+03 -0.45093566053E+03 -0.55192470753E+02  0.50000000000E+03  0.47000000000E+01 0. -1.
         -5    1    1    2    0  501 -0.20877914463E+03  0.45093566053E+03  0.55192470753E+02  0.50000000000E+03  0.47000000000E+01 0.  1.
</event>
<event>
 4    1  0.4351282E-004  0.1000000E+04  0.7546771E-02  0.8684367E-01
         11   -1    0    0    0    0  0.00000000000E+00  0.00000000000E+00  0.50000000000E+03  0.50000000000E+03  0.00000000000E+00 0. -1.
        -11   -1    0    0    0    0 -0.00000000000E+00 -0.00000000000E+00 -0.50000000000E+03  0.50000000000E+03  0.00000000000E+00 0.  1.
          5    1    1    2  501    0  0.81266082135E+02  0.11052660321E+03  0.48078852303E+03  0.50000000000E+03  0.47000000000E+01 0. -1.
         -5    1    1    2    0  501 -0.81266082135E+02 -0.11052660321E+03 -0.48078852303E+03  0.50000000000E+03  0.47000000000E+01 0.  1.
</event>
<event>
 4    1  0.4351282E-004  0.1000000E+04  0.7546771E-02  0.8684367E-01
         11   -1    0    0    0    0  0.00000000000E+00  0.00000000000E+00  0.50000000000E+03  0.50000000000E+03  0.00000000000E+00 0. -1.
        -11   -1    0    0    0    0 -0.00000000000E+00 -0.00000000000E+00 -0.50000000000E+03  0.50000000000E+03  0.00000000000E+00 0.  1.
          5    1    1    2  501    0  0.43211779482E+02 -0.66029681826E+02  0.49371118403E+03  0.50000000000E+03  0.47000000000E+01 0. -1.
         -5    1    1    2    0  501 -0.43211779482E+02  0.66029681826E+02 -0.49371118403E+03  0.50000000000E+03  0.47000000000E+01 0.  1.
</event>
<event>
 4    1  0.4351282E-004  0.1000000E+04  0.7546771E-02  0.8684367E-01
         11   -1    0    0    0    0  0.00000000000E+00  0.00000000000E+00  0.50000000000E+03  0.50000000000E+03  0.00000000000E+00 0. -1.
        -11   -1    0    0    0    0 -0.00000000000E+00 -0.00000000000E+00 -0.50000000000E+03  0.50000000000E+03  0.00000000000E+00 0.  1.
          5    1    1    2  501    0 -0.18941293925E+03 -0.27291580981E+03  0.37365439808E+03  0.50000000000E+03  0.47000000000E+01 0. -1.
         -5    1    1    2    0  501  0.18941293925E+03  0.27291580981E+03 -0.37365439808E+03  0.50000000000E+03  0.47000000000E+01 0.  1.
</event>
<event>
 4    1  0.4351282E-004  0.1000000E+04  0.7546771E-02  0.8684367E-01
         11   -1    0    0    0    0  0.00000000000E+00  0.00000000000E+00  0.50000000000E+03  0.50000000000E+03  0.00000000000E+00 0. -1.
        -11   -1    0    0    0    0 -0.00000000000E+00 -0.00000000000E+00 -0.50000000000E+03  0.50000000000E+03  0.00000000000E+00 0.  1.
          5    1    1    2  501    0  0.26708938844E+03 -0.57306419652E+02  0.41875666305E+03  0.50000000000E+03  0.47000000000E+01 0. -1.
         -5    1    1    2    0  501 -0.26708938844E+03  0.57306419652E+02 -0.41875666305E+03  0.50000000000E+03  0.47000000000E+01 0.  1.
</event>
<event>
 4    1  0.4351282E-004  0.1000000E+04  0.7546771E-02  0.8684367E-01
         11   -1    0    0    0    0  0.00000000000E+00  0.00000000000E+00  0.50000000000E+03  0.50000000000E+03  0.00000000000E+00 0. -1.
        -11   -1    0    0    0    0 -0.00000000000E+00 -0.00000000000E+00 -0.50000000000E+03  0.50000000000E+03  0.00000000000E+00 0.  1.
          5    1    1    2  501    0  0.22597881561E+03 -0.31200494472E+03  0.31869169956E+03  0.50000000000E+03  0.47000000000E+01 0. -1.
         -5    1    1    2    0  501 -0.22597881561E+03  0.31200494472E+03 -0.31869169956E+03  0.50000000000E+03  0.47000000000E+01 0.  1.
</event>
<event>
 4    1  0.4351282E-004  0.1000000E+04  0.7546771E-02  0.8684367E-01
         11   -1    0    0    0    0  0.00000000000E+00  0.00000000000E+00  0.50000000000E+03  0.50000000000E+03  0.00000000000E+00 0. -1.
        -11   -1    0    0    0    0 -0.00000000000E+00 -0.00000000000E+00 -0.50000000000E+03  0.50000000000E+03  0.00000000000E+00 0.  1.
          5    1    1    2  501    0  0.44414741938E+03  0.19685384481E+03 -0.11815051264E+03  0.50000000000E+03  0.47000000000E+01 0. -1.
         -5    1    1    2    0  501 -0.44414741938E+03 -0.19685384481E+03  0.11815051264E+03  0.50000000000E+03  0.47000000000E+01 0.  1.
</event>
<event>
 4    1  0.4351282E-004  0.1000000E+04  0.7546771E-02  0.8684367E-01
         11   -1    0    0    0    0  0.00000000000E+00  0.00000000000E+00  0.50000000000E+03  0.50000000000E+03  0.00000000000E+00 0. -1.
        -11   -1    0    0    0    0 -0.00000000000E+00 -0.00000000000E+00 -0.50000000000E+03  0.50000000000E+03  0.00000000000E+00 0.  1.
          5    1    1    2  501    0 -0.22309754874E+03 -0.23790099877E+03  0.37895713284E+03  0.50000000000E+03  0.47000000000E+01 0. -1.
         -5    1    1    2    0  501  0.22309754874E+03  0.23790099877E+03 -0.37895713284E+03  0.50000000000E+03  0.47000000000E+01 0.  1.
</event>
<event>
 4    1  0.4351282E-004  0.1000000E+04  0.7546771E-02  0.8684367E-01
         11   -1    0    0    0    0  0.00000000000E+00  0.00000000000E+00  0.50000000000E+03  0.50000000000E+03  0.00000000000E+00 0. -1.
        -11   -1    0    0    0    0 -0.00000000000E+00 -0.00000000000E+00 -0.50000000000E+03  0.50000000000E+03  0.00000000000E+00 0.  1.
          5    1    1    2  501    0 -0.34088110393E+03 -0.72110285511E+02  0.35857787119E+03  0.50000000000E+03  0.47000000000E+01 0. -1.
         -5    1    1    2    0  501  0.34088110393E+03  0.72110285511E+02 -0.35857787119E+03  0.50000000000E+03  0.47000000000E+01 0.  1.
</event>
<event>
 4    1  0.4351282E-004  0.1000000E+04  0.7546771E-02  0.8684367E-01
         11   -1    0    0    0    0  0.00000000000E+00  0.00000000000E+00  0.50000000000E+03  0.50000000000E+03  0.00000000000E+00 0. -1.
        -11   -1    0    0    0    0 -0.00000000000E+00 -0.00000000000E+00 -0.50000000000E+03  0.50000000000E+03  0.00000000000E+00 0.  1.
          5    1    1    2  501    0  0.13007654114E+03 -0.12158412508E+03  0.46719942634E+03  0.50000000000E+03  0.47000000000E+01 0. -1.
         -5    1    1    2    0  501 -0.13007654114E+03  0.12158412508E+03 -0.46719942634E+03  0.50000000000E+03  0.47000000000E+01 0.  1.
</event>
<event>
 4    1  0.4351282E-004  0.1000000E+04  0.7546771E-02  0.8684367E-01
         11   -1    0    0    0    0  0.00000000000E+00  0.00000000000E+00  0.50000000000E+03  0.50000000000E+03  0.00000000000E+00 0. -1.
        -11   -1    0    0    0    0 -0.00000000000E+00 -0.00000000000E+00 -0.50000000000E+03  0.50000000000E+03  0.00000000000E+00 0.  1.
          5    1    1    2  501    0  0.20321201769E+02 -0.13289818565E+03  0.48156311218E+03  0.50000000000E+03  0.47000000000E+01 0. -1.
         -5    1    1    2    0  501 -0.20321201769E+02  0.13289818565E+03 -0.48156311218E+03  0.50000000000E+03  0.47000000000E+01 0.  1.
</event>
<event>
 4    1  0.4351282E-004  0.1000000E+04  0.7546771E-02  0.8684367E-01
         11   -1    0    0    0    0  0.00000000000E+00  0.00000000000E+00  0.50000000000E+03  0.50000000000E+03  0.00000000000E+00 0. -1.
        -11   -1    0    0    0    0 -0.00000000000E+00 -0.00000000000E+00 -0.50000000000E+03  0.50000000000E+03  0.00000000000E+00 0.  1.
          5    1    1    2  501    0 -0.18432949708E+03 -0.31207267019E+03  0.34439976049E+03  0.50000000000E+03  0.47000000000E+01 0. -1.
         -5    1    1    2    0  501  0.18432949708E+03  0.31207267019E+03 -0.34439976049E+03  0.50000000000E+03  0.47000000000E+01 0.  1.
</event>
<event>
 4    1  0.4351282E-004  0.1000000E+04  0.7546771E-02  0.8684367E-01
         11   -1    0    0    0    0  0.00000000000E+00  0.00000000000E+00  0.50000000000E+03  0.50000000000E+03  0.00000000000E+00 0.  1.
        -11   -1    0    0    0    0 -0.00000000000E+00 -0.00000000000E+00 -0.50000000000E+03  0.50000000000E+03  0.00000000000E+00 0. -1.
          5    1    1    2  501    0 -0.20897608833E+03  0.39613977232E+03 -0.22221652795E+03  0.50000000000E+03  0.47000000000E+01 0.  1.
         -5    1    1    2    0  501  0.20897608833E+03 -0.39613977232E+03  0.22221652795E+03  0.50000000000E+03  0.47000000000E+01 0. -1.
</event>
<event>
 4    1  0.4351282E-004  0.1000000E+04  0.7546771E-02  0.8684367E-01
         11   -1    0    0    0    0  0.00000000000E+00  0.00000000000E+00  0.50000000000E+03  0.50000000000E+03  0.00000000000E+00 0. -1.
        -11   -1    0    0    0    0 -0.00000000000E+00 -0.00000000000E+00 -0.50000000000E+03  0.50000000000E+03  0.00000000000E+00 0.  1.
          5    1    1    2  501    0  0.46538669298E+03 -0.92033235393E+02  0.15787026186E+03  0.50000000000E+03  0.47000000000E+01 0. -1.
         -5    1    1    2    0  501 -0.46538669298E+03  0.92033235393E+02 -0.15787026186E+03  0.50000000000E+03  0.47000000000E+01 0.  1.
</event>
<event>
 4    1  0.4351282E-004  0.1000000E+04  0.7546771E-02  0.8684367E-01
         11   -1    0    0    0    0  0.00000000000E+00  0.00000000000E+00  0.50000000000E+03  0.50000000000E+03  0.00000000000E+00 0. -1.
        -11   -1    0    0    0    0 -0.00000000000E+00 -0.00000000000E+00 -0.50000000000E+03  0.50000000000E+03  0.00000000000E+00 0.  1.
          5    1    1    2  501    0 -0.26878403787E+03 -0.35245118320E+03 -0.23132491099E+03  0.50000000000E+03  0.47000000000E+01 0. -1.
         -5    1    1    2    0  501  0.26878403787E+03  0.35245118320E+03  0.23132491099E+03  0.50000000000E+03  0.47000000000E+01 0.  1.
</event>
<event>
 4    1  0.4351282E-004  0.1000000E+04  0.7546771E-02  0.8684367E-01
         11   -1    0    0    0    0  0.00000000000E+00  0.00000000000E+00  0.50000000000E+03  0.50000000000E+03  0.00000000000E+00 0. -1.
        -11   -1    0    0    0    0 -0.00000000000E+00 -0.00000000000E+00 -0.50000000000E+03  0.50000000000E+03  0.00000000000E+00 0.  1.
          5    1    1    2  501    0 -0.25075725765E+03 -0.64487191543E+02  0.42771498672E+03  0.50000000000E+03  0.47000000000E+01 0. -1.
         -5    1    1    2    0  501  0.25075725765E+03  0.64487191543E+02 -0.42771498672E+03  0.50000000000E+03  0.47000000000E+01 0.  1.
</event>
<event>
 4    1  0.4351282E-004  0.1000000E+04  0.7546771E-02  0.8684367E-01
         11   -1    0    0    0    0  0.00000000000E+00  0.00000000000E+00  0.50000000000E+03  0.50000000000E+03  0.00000000000E+00 0.  1.
        -11   -1    0    0    0    0 -0.00000000000E+00 -0.00000000000E+00 -0.50000000000E+03  0.50000000000E+03  0.00000000000E+00 0. -1.
          5    1    1    2  501    0 -0.33592330190E+03 -0.31553516682E+03  0.19383241147E+03  0.50000000000E+03  0.47000000000E+01 0. -1.
         -5    1    1    2    0  501  0.33592330190E+03  0.31553516682E+03 -0.19383241147E+03  0.50000000000E+03  0.47000000000E+01 0.  1.
</event>
<event>
 4    1  0.4351282E-004  0.1000000E+04  0.7546771E-02  0.8684367E-01
         11   -1    0    0    0    0  0.00000000000E+00  0.00000000000E+00  0.50000000000E+03  0.50000000000E+03  0.00000000000E+00 0. -1.
        -11   -1    0    0    0    0 -0.00000000000E+00 -0.00000000000E+00 -0.50000000000E+03  0.50000000000E+03  0.00000000000E+00 0.  1.
          5    1    1    2  501    0 -0.11598866779E+03 -0.92954563445E+02  0.47737195988E+03  0.50000000000E+03  0.47000000000E+01 0. -1.
         -5    1    1    2    0  501  0.11598866779E+03  0.92954563445E+02 -0.47737195988E+03  0.50000000000E+03  0.47000000000E+01 0.  1.
</event>
<event>
 4    1  0.4351282E-004  0.1000000E+04  0.7546771E-02  0.8684367E-01
         11   -1    0    0    0    0  0.00000000000E+00  0.00000000000E+00  0.50000000000E+03  0.50000000000E+03  0.00000000000E+00 0. -1.
        -11   -1    0    0    0    0 -0.00000000000E+00 -0.00000000000E+00 -0.50000000000E+03  0.50000000000E+03  0.00000000000E+00 0.  1.
          5    1    1    2  501    0 -0.20496246543E+03  0.44204941098E+03 -0.11207415407E+03  0.50000000000E+03  0.47000000000E+01 0.  1.
         -5    1    1    2    0  501  0.20496246543E+03 -0.44204941098E+03  0.11207415407E+03  0.50000000000E+03  0.47000000000E+01 0. -1.
</event>
<event>
 4    1  0.4351282E-004  0.1000000E+04  0.7546771E-02  0.8684367E-01
         11   -1    0    0    0    0  0.00000000000E+00  0.00000000000E+00  0.50000000000E+03  0.50000000000E+03  0.00000000000E+00 0.  1.
        -11   -1    0    0    0    0 -0.00000000000E+00 -0.00000000000E+00 -0.50000000000E+03  0.50000000000E+03  0.00000000000E+00 0. -1.
          5    1    1    2  501    0 -0.14662236502E+02  0.47179246714E+03 -0.16484779882E+03  0.50000000000E+03  0.47000000000E+01 0.  1.
         -5    1    1    2    0  501  0.14662236502E+02 -0.47179246714E+03  0.16484779882E+03  0.50000000000E+03  0.47000000000E+01 0. -1.
</event>
<event>
 4    1  0.4351282E-004  0.1000000E+04  0.7546771E-02  0.8684367E-01
         11   -1    0    0    0    0  0.00000000000E+00  0.00000000000E+00  0.50000000000E+03  0.50000000000E+03  0.00000000000E+00 0. -1.
        -11   -1    0    0    0    0 -0.00000000000E+00 -0.00000000000E+00 -0.50000000000E+03  0.50000000000E+03  0.00000000000E+00 0.  1.
          5    1    1    2  501    0  0.16433397078E+03  0.11338510773E+03  0.45838419845E+03  0.50000000000E+03  0.47000000000E+01 0. -1.
         -5    1    1    2    0  501 -0.16433397078E+03 -0.11338510773E+03 -0.45838419845E+03  0.50000000000E+03  0.47000000000E+01 0.  1.
</event>
<event>
 4    1  0.4351282E-004  0.1000000E+04  0.7546771E-02  0.8684367E-01
         11   -1    0    0    0    0  0.00000000000E+00  0.00000000000E+00  0.50000000000E+03  0.50000000000E+03  0.00000000000E+00 0. -1.
        -11   -1    0    0    0    0 -0.00000000000E+00 -0.00000000000E+00 -0.50000000000E+03  0.50000000000E+03  0.00000000000E+00 0.  1.
          5    1    1    2  501    0  0.16924080804E+03 -0.23617660430E+03  0.40688581995E+03  0.50000000000E+03  0.47000000000E+01 0. -1.
         -5    1    1    2    0  501 -0.16924080804E+03  0.23617660430E+03 -0.40688581995E+03  0.50000000000E+03  0.47000000000E+01 0.  1.
</event>
<event>
 4    1  0.4351282E-004  0.1000000E+04  0.7546771E-02  0.8684367E-01
         11   -1    0    0    0    0  0.00000000000E+00  0.00000000000E+00  0.50000000000E+03  0.50000000000E+03  0.00000000000E+00 0. -1.
        -11   -1    0    0    0    0 -0.00000000000E+00 -0.00000000000E+00 -0.50000000000E+03  0.50000000000E+03  0.00000000000E+00 0.  1.
          5    1    1    2  501    0 -0.24508760068E+03  0.42099593004E+03 -0.11257177657E+03  0.50000000000E+03  0.47000000000E+01 0. -1.
         -5    1    1    2    0  501  0.24508760068E+03 -0.42099593004E+03  0.11257177657E+03  0.50000000000E+03  0.47000000000E+01 0.  1.
</event>
<event>
 4    1  0.4351282E-004  0.1000000E+04  0.7546771E-02  0.8684367E-01
         11   -1    0    0    0    0  0.00000000000E+00  0.00000000000E+00  0.50000000000E+03  0.50000000000E+03  0.00000000000E+00 0. -1.
        -11   -1    0    0    0    0 -0.00000000000E+00 -0.00000000000E+00 -0.50000000000E+03  0.50000000000E+03  0.00000000000E+00 0.  1.
          5    1    1    2  501    0 -0.44249577343E+03 -0.21337885714E+03  0.92977759832E+02  0.50000000000E+03  0.47000000000E+01 0. -1.
         -5    1    1    2    0  501  0.44249577343E+03  0.21337885714E+03 -0.92977759832E+02  0.50000000000E+03  0.47000000000E+01 0.  1.
</event>
<event>
 4    1  0.4351282E-004  0.1000000E+04  0.7546771E-02  0.8684367E-01
         11   -1    0    0    0    0  0.00000000000E+00  0.00000000000E+00  0.50000000000E+03  0.50000000000E+03  0.00000000000E+00 0. -1.
        -11   -1    0    0    0    0 -0.00000000000E+00 -0.00000000000E+00 -0.50000000000E+03  0.50000000000E+03  0.00000000000E+00 0.  1.
          5    1    1    2  501    0 -0.11060730972E+03  0.36370837786E+03  0.32474628391E+03  0.50000000000E+03  0.47000000000E+01 0. -1.
         -5    1    1    2    0  501  0.11060730972E+03 -0.36370837786E+03 -0.32474628391E+03  0.50000000000E+03  0.47000000000E+01 0.  1.
</event>
<event>
 4    1  0.4351282E-004  0.1000000E+04  0.7546771E-02  0.8684367E-01
         11   -1    0    0    0    0  0.00000000000E+00  0.00000000000E+00  0.50000000000E+03  0.50000000000E+03  0.00000000000E+00 0. -1.
        -11   -1    0    0    0    0 -0.00000000000E+00 -0.00000000000E+00 -0.50000000000E+03  0.50000000000E+03  0.00000000000E+00 0.  1.
          5    1    1    2  501    0 -0.37151502507E+02  0.37949764761E+03  0.32338709208E+03  0.50000000000E+03  0.47000000000E+01 0. -1.
         -5    1    1    2    0  501  0.37151502507E+02 -0.37949764761E+03 -0.32338709208E+03  0.50000000000E+03  0.47000000000E+01 0.  1.
</event>
<event>
 4    1  0.4351282E-004  0.1000000E+04  0.7546771E-02  0.8684367E-01
         11   -1    0    0    0    0  0.00000000000E+00  0.00000000000E+00  0.50000000000E+03  0.50000000000E+03  0.00000000000E+00 0. -1.
        -11   -1    0    0    0    0 -0.00000000000E+00 -0.00000000000E+00 -0.50000000000E+03  0.50000000000E+03  0.00000000000E+00 0.  1.
          5    1    1    2  501    0  0.28115223720E+02  0.45611978697E+03  0.20283536214E+03  0.50000000000E+03  0.47000000000E+01 0. -1.
         -5    1    1    2    0  501 -0.28115223720E+02 -0.45611978697E+03 -0.20283536214E+03  0.50000000000E+03  0.47000000000E+01 0.  1.
</event>
<event>
 4    1  0.4351282E-004  0.1000000E+04  0.7546771E-02  0.8684367E-01
         11   -1    0    0    0    0  0.00000000000E+00  0.00000000000E+00  0.50000000000E+03  0.50000000000E+03  0.00000000000E+00 0. -1.
        -11   -1    0    0    0    0 -0.00000000000E+00 -0.00000000000E+00 -0.50000000000E+03  0.50000000000E+03  0.00000000000E+00 0.  1.
          5    1    1    2  501    0 -0.28933357308E+03  0.12176022911E+03  0.38915092201E+03  0.50000000000E+03  0.47000000000E+01 0. -1.
         -5    1    1    2    0  501  0.28933357308E+03 -0.12176022911E+03 -0.38915092201E+03  0.50000000000E+03  0.47000000000E+01 0.  1.
</event>
<event>
 4    1  0.4351282E-004  0.1000000E+04  0.7546771E-02  0.8684367E-01
         11   -1    0    0    0    0  0.00000000000E+00  0.00000000000E+00  0.50000000000E+03  0.50000000000E+03  0.00000000000E+00 0. -1.
        -11   -1    0    0    0    0 -0.00000000000E+00 -0.00000000000E+00 -0.50000000000E+03  0.50000000000E+03  0.00000000000E+00 0.  1.
          5    1    1    2  501    0  0.37063620326E+03  0.22821456492E+03  0.24601794079E+03  0.50000000000E+03  0.47000000000E+01 0. -1.
         -5    1    1    2    0  501 -0.37063620326E+03 -0.22821456492E+03 -0.24601794079E+03  0.50000000000E+03  0.47000000000E+01 0.  1.
</event>
<event>
 4    1  0.4351282E-004  0.1000000E+04  0.7546771E-02  0.8684367E-01
         11   -1    0    0    0    0  0.00000000000E+00  0.00000000000E+00  0.50000000000E+03  0.50000000000E+03  0.00000000000E+00 0. -1.
        -11   -1    0    0    0    0 -0.00000000000E+00 -0.00000000000E+00 -0.50000000000E+03  0.50000000000E+03  0.00000000000E+00 0.  1.
          5    1    1    2  501    0  0.12658374030E+03 -0.17713410257E+03  0.45008663210E+03  0.50000000000E+03  0.47000000000E+01 0. -1.
         -5    1    1    2    0  501 -0.12658374030E+03  0.17713410257E+03 -0.45008663210E+03  0.50000000000E+03  0.47000000000E+01 0.  1.
</event>
<event>
 4    1  0.4351282E-004  0.1000000E+04  0.7546771E-02  0.8684367E-01
         11   -1    0    0    0    0  0.00000000000E+00  0.00000000000E+00  0.50000000000E+03  0.50000000000E+03  0.00000000000E+00 0. -1.
        -11   -1    0    0    0    0 -0.00000000000E+00 -0.00000000000E+00 -0.50000000000E+03  0.50000000000E+03  0.00000000000E+00 0.  1.
          5    1    1    2  501    0  0.19616183102E+03  0.38395958778E+03  0.25312740073E+03  0.50000000000E+03  0.47000000000E+01 0. -1.
         -5    1    1    2    0  501 -0.19616183102E+03 -0.38395958778E+03 -0.25312740073E+03  0.50000000000E+03  0.47000000000E+01 0.  1.
</event>
<event>
 4    1  0.4351282E-004  0.1000000E+04  0.7546771E-02  0.8684367E-01
         11   -1    0    0    0    0  0.00000000000E+00  0.00000000000E+00  0.50000000000E+03  0.50000000000E+03  0.00000000000E+00 0. -1.
        -11   -1    0    0    0    0 -0.00000000000E+00 -0.00000000000E+00 -0.50000000000E+03  0.50000000000E+03  0.00000000000E+00 0.  1.
          5    1    1    2  501    0 -0.27981917120E+02  0.30631686887E+03  0.39416354240E+03  0.50000000000E+03  0.47000000000E+01 0. -1.
         -5    1    1    2    0  501  0.27981917120E+02 -0.30631686887E+03 -0.39416354240E+03  0.50000000000E+03  0.47000000000E+01 0.  1.
</event>
<event>
 4    1  0.4351282E-004  0.1000000E+04  0.7546771E-02  0.8684367E-01
         11   -1    0    0    0    0  0.00000000000E+00  0.00000000000E+00  0.50000000000E+03  0.50000000000E+03  0.00000000000E+00 0. -1.
        -11   -1    0    0    0    0 -0.00000000000E+00 -0.00000000000E+00 -0.50000000000E+03  0.50000000000E+03  0.00000000000E+00 0.  1.
          5    1    1    2  501    0 -0.12031943069E+02  0.49973352367E+03 -0.99773576627E+01  0.50000000000E+03  0.47000000000E+01 0. -1.
         -5    1    1    2    0  501  0.12031943069E+02 -0.49973352367E+03  0.99773576627E+01  0.50000000000E+03  0.47000000000E+01 0.  1.
</event>
<event>
 4    1  0.4351282E-004  0.1000000E+04  0.7546771E-02  0.8684367E-01
         11   -1    0    0    0    0  0.00000000000E+00  0.00000000000E+00  0.50000000000E+03  0.50000000000E+03  0.00000000000E+00 0. -1.
        -11   -1    0    0    0    0 -0.00000000000E+00 -0.00000000000E+00 -0.50000000000E+03  0.50000000000E+03  0.00000000000E+00 0.  1.
          5    1    1    2  501    0  0.46383439005E+03 -0.18203691991E+03  0.41208353455E+02  0.50000000000E+03  0.47000000000E+01 0. -1.
         -5    1    1    2    0  501 -0.46383439005E+03  0.18203691991E+03 -0.41208353455E+02  0.50000000000E+03  0.47000000000E+01 0.  1.
</event>
<event>
 4    1  0.4351282E-004  0.1000000E+04  0.7546771E-02  0.8684367E-01
         11   -1    0    0    0    0  0.00000000000E+00  0.00000000000E+00  0.50000000000E+03  0.50000000000E+03  0.00000000000E+00 0. -1.
        -11   -1    0    0    0    0 -0.00000000000E+00 -0.00000000000E+00 -0.50000000000E+03  0.50000000000E+03  0.00000000000E+00 0.  1.
          5    1    1    2  501    0  0.19249087053E+03 -0.18607771327E+03  0.42225615376E+03  0.50000000000E+03  0.47000000000E+01 0. -1.
         -5    1    1    2    0  501 -0.19249087053E+03  0.18607771327E+03 -0.42225615376E+03  0.50000000000E+03  0.47000000000E+01 0.  1.
</event>
<event>
 4    1  0.4351282E-004  0.1000000E+04  0.7546771E-02  0.8684367E-01
         11   -1    0    0    0    0  0.00000000000E+00  0.00000000000E+00  0.50000000000E+03  0.50000000000E+03  0.00000000000E+00 0.  1.
        -11   -1    0    0    0    0 -0.00000000000E+00 -0.00000000000E+00 -0.50000000000E+03  0.50000000000E+03  0.00000000000E+00 0. -1.
          5    1    1    2  501    0  0.23246054135E+03 -0.31515582189E+03 -0.31083245429E+03  0.50000000000E+03  0.47000000000E+01 0. -1.
         -5    1    1    2    0  501 -0.23246054135E+03  0.31515582189E+03  0.31083245429E+03  0.50000000000E+03  0.47000000000E+01 0.  1.
</event>
<event>
 4    1  0.4351282E-004  0.1000000E+04  0.7546771E-02  0.8684367E-01
         11   -1    0    0    0    0  0.00000000000E+00  0.00000000000E+00  0.50000000000E+03  0.50000000000E+03  0.00000000000E+00 0. -1.
        -11   -1    0    0    0    0 -0.00000000000E+00 -0.00000000000E+00 -0.50000000000E+03  0.50000000000E+03  0.00000000000E+00 0.  1.
          5    1    1    2  501    0 -0.27181727524E+03  0.18873415499E+03  0.37479687515E+03  0.50000000000E+03  0.47000000000E+01 0. -1.
         -5    1    1    2    0  501  0.27181727524E+03 -0.18873415499E+03 -0.37479687515E+03  0.50000000000E+03  0.47000000000E+01 0.  1.
</event>
<event>
 4    1  0.4351282E-004  0.1000000E+04  0.7546771E-02  0.8684367E-01
         11   -1    0    0    0    0  0.00000000000E+00  0.00000000000E+00  0.50000000000E+03  0.50000000000E+03  0.00000000000E+00 0. -1.
        -11   -1    0    0    0    0 -0.00000000000E+00 -0.00000000000E+00 -0.50000000000E+03  0.50000000000E+03  0.00000000000E+00 0.  1.
          5    1    1    2  501    0  0.48861875010E+03  0.97095569424E+02 -0.42450882756E+02  0.50000000000E+03  0.47000000000E+01 0. -1.
         -5    1    1    2    0  501 -0.48861875010E+03 -0.97095569424E+02  0.42450882756E+02  0.50000000000E+03  0.47000000000E+01 0.  1.
</event>
<event>
 4    1  0.4351282E-004  0.1000000E+04  0.7546771E-02  0.8684367E-01
         11   -1    0    0    0    0  0.00000000000E+00  0.00000000000E+00  0.50000000000E+03  0.50000000000E+03  0.00000000000E+00 0. -1.
        -11   -1    0    0    0    0 -0.00000000000E+00 -0.00000000000E+00 -0.50000000000E+03  0.50000000000E+03  0.00000000000E+00 0.  1.
          5    1    1    2  501    0 -0.44098017965E+03 -0.63677959646E+02  0.22684688362E+03  0.50000000000E+03  0.47000000000E+01 0. -1.
         -5    1    1    2    0  501  0.44098017965E+03  0.63677959646E+02 -0.22684688362E+03  0.50000000000E+03  0.47000000000E+01 0.  1.
</event>
<event>
 4    1  0.4351282E-004  0.1000000E+04  0.7546771E-02  0.8684367E-01
         11   -1    0    0    0    0  0.00000000000E+00  0.00000000000E+00  0.50000000000E+03  0.50000000000E+03  0.00000000000E+00 0. -1.
        -11   -1    0    0    0    0 -0.00000000000E+00 -0.00000000000E+00 -0.50000000000E+03  0.50000000000E+03  0.00000000000E+00 0.  1.
          5    1    1    2  501    0  0.19778154062E+03 -0.42341021973E+03  0.17771932370E+03  0.50000000000E+03  0.47000000000E+01 0. -1.
         -5    1    1    2    0  501 -0.19778154062E+03  0.42341021973E+03 -0.17771932370E+03  0.50000000000E+03  0.47000000000E+01 0.  1.
</event>
<event>
 4    1  0.4351282E-004  0.1000000E+04  0.7546771E-02  0.8684367E-01
         11   -1    0    0    0    0  0.00000000000E+00  0.00000000000E+00  0.50000000000E+03  0.50000000000E+03  0.00000000000E+00 0. -1.
        -11   -1    0    0    0    0 -0.00000000000E+00 -0.00000000000E+00 -0.50000000000E+03  0.50000000000E+03  0.00000000000E+00 0.  1.
          5    1    1    2  501    0 -0.23298251081E+02  0.23817042105E+03  0.43898741672E+03  0.50000000000E+03  0.47000000000E+01 0. -1.
         -5    1    1    2    0  501  0.23298251081E+02 -0.23817042105E+03 -0.43898741672E+03  0.50000000000E+03  0.47000000000E+01 0.  1.
</event>
<event>
 4    1  0.4351282E-004  0.1000000E+04  0.7546771E-02  0.8684367E-01
         11   -1    0    0    0    0  0.00000000000E+00  0.00000000000E+00  0.50000000000E+03  0.50000000000E+03  0.00000000000E+00 0. -1.
        -11   -1    0    0    0    0 -0.00000000000E+00 -0.00000000000E+00 -0.50000000000E+03  0.50000000000E+03  0.00000000000E+00 0.  1.
          5    1    1    2  501    0 -0.35738032074E+03 -0.31270716841E+03  0.15643351040E+03  0.50000000000E+03  0.47000000000E+01 0. -1.
         -5    1    1    2    0  501  0.35738032074E+03  0.31270716841E+03 -0.15643351040E+03  0.50000000000E+03  0.47000000000E+01 0.  1.
</event>
<event>
 4    1  0.4351282E-004  0.1000000E+04  0.7546771E-02  0.8684367E-01
         11   -1    0    0    0    0  0.00000000000E+00  0.00000000000E+00  0.50000000000E+03  0.50000000000E+03  0.00000000000E+00 0. -1.
        -11   -1    0    0    0    0 -0.00000000000E+00 -0.00000000000E+00 -0.50000000000E+03  0.50000000000E+03  0.00000000000E+00 0.  1.
          5    1    1    2  501    0 -0.35461601757E+03  0.12089253859E+03  0.33107459008E+03  0.50000000000E+03  0.47000000000E+01 0. -1.
         -5    1    1    2    0  501  0.35461601757E+03 -0.12089253859E+03 -0.33107459008E+03  0.50000000000E+03  0.47000000000E+01 0.  1.
</event>
<event>
 4    1  0.4351282E-004  0.1000000E+04  0.7546771E-02  0.8684367E-01
         11   -1    0    0    0    0  0.00000000000E+00  0.00000000000E+00  0.50000000000E+03  0.50000000000E+03  0.00000000000E+00 0. -1.
        -11   -1    0    0    0    0 -0.00000000000E+00 -0.00000000000E+00 -0.50000000000E+03  0.50000000000E+03  0.00000000000E+00 0.  1.
          5    1    1    2  501    0  0.36635895845E+03 -0.18357884891E+03  0.28645737867E+03  0.50000000000E+03  0.47000000000E+01 0. -1.
         -5    1    1    2    0  501 -0.36635895845E+03  0.18357884891E+03 -0.28645737867E+03  0.50000000000E+03  0.47000000000E+01 0.  1.
</event>
<event>
 4    1  0.4351282E-004  0.1000000E+04  0.7546771E-02  0.8684367E-01
         11   -1    0    0    0    0  0.00000000000E+00  0.00000000000E+00  0.50000000000E+03  0.50000000000E+03  0.00000000000E+00 0. -1.
        -11   -1    0    0    0    0 -0.00000000000E+00 -0.00000000000E+00 -0.50000000000E+03  0.50000000000E+03  0.00000000000E+00 0.  1.
          5    1    1    2  501    0 -0.41553680211E+03 -0.24224500918E+03  0.13647135824E+03  0.50000000000E+03  0.47000000000E+01 0. -1.
         -5    1    1    2    0  501  0.41553680211E+03  0.24224500918E+03 -0.13647135824E+03  0.50000000000E+03  0.47000000000E+01 0.  1.
</event>
<event>
 4    1  0.4351282E-004  0.1000000E+04  0.7546771E-02  0.8684367E-01
         11   -1    0    0    0    0  0.00000000000E+00  0.00000000000E+00  0.50000000000E+03  0.50000000000E+03  0.00000000000E+00 0. -1.
        -11   -1    0    0    0    0 -0.00000000000E+00 -0.00000000000E+00 -0.50000000000E+03  0.50000000000E+03  0.00000000000E+00 0.  1.
          5    1    1    2  501    0 -0.22924664921E+03  0.26799816039E+03  0.35440213015E+03  0.50000000000E+03  0.47000000000E+01 0. -1.
         -5    1    1    2    0  501  0.22924664921E+03 -0.26799816039E+03 -0.35440213015E+03  0.50000000000E+03  0.47000000000E+01 0.  1.
</event>
<event>
 4    1  0.4351282E-004  0.1000000E+04  0.7546771E-02  0.8684367E-01
         11   -1    0    0    0    0  0.00000000000E+00  0.00000000000E+00  0.50000000000E+03  0.50000000000E+03  0.00000000000E+00 0. -1.
        -11   -1    0    0    0    0 -0.00000000000E+00 -0.00000000000E+00 -0.50000000000E+03  0.50000000000E+03  0.00000000000E+00 0.  1.
          5    1    1    2  501    0  0.11908736800E+03 -0.25219489856E+03  0.41496245845E+03  0.50000000000E+03  0.47000000000E+01 0. -1.
         -5    1    1    2    0  501 -0.11908736800E+03  0.25219489856E+03 -0.41496245845E+03  0.50000000000E+03  0.47000000000E+01 0.  1.
</event>
<event>
 4    1  0.4351282E-004  0.1000000E+04  0.7546771E-02  0.8684367E-01
         11   -1    0    0    0    0  0.00000000000E+00  0.00000000000E+00  0.50000000000E+03  0.50000000000E+03  0.00000000000E+00 0. -1.
        -11   -1    0    0    0    0 -0.00000000000E+00 -0.00000000000E+00 -0.50000000000E+03  0.50000000000E+03  0.00000000000E+00 0.  1.
          5    1    1    2  501    0 -0.75125745618E+02  0.27313691132E+03  0.41198332493E+03  0.50000000000E+03  0.47000000000E+01 0. -1.
         -5    1    1    2    0  501  0.75125745618E+02 -0.27313691132E+03 -0.41198332493E+03  0.50000000000E+03  0.47000000000E+01 0.  1.
</event>
<event>
 4    1  0.4351282E-004  0.1000000E+04  0.7546771E-02  0.8684367E-01
         11   -1    0    0    0    0  0.00000000000E+00  0.00000000000E+00  0.50000000000E+03  0.50000000000E+03  0.00000000000E+00 0. -1.
        -11   -1    0    0    0    0 -0.00000000000E+00 -0.00000000000E+00 -0.50000000000E+03  0.50000000000E+03  0.00000000000E+00 0.  1.
          5    1    1    2  501    0  0.42465964823E+03  0.46060965175E+02  0.25984703318E+03  0.50000000000E+03  0.47000000000E+01 0. -1.
         -5    1    1    2    0  501 -0.42465964823E+03 -0.46060965175E+02 -0.25984703318E+03  0.50000000000E+03  0.47000000000E+01 0.  1.
</event>
<event>
 4    1  0.4351282E-004  0.1000000E+04  0.7546771E-02  0.8684367E-01
         11   -1    0    0    0    0  0.00000000000E+00  0.00000000000E+00  0.50000000000E+03  0.50000000000E+03  0.00000000000E+00 0. -1.
        -11   -1    0    0    0    0 -0.00000000000E+00 -0.00000000000E+00 -0.50000000000E+03  0.50000000000E+03  0.00000000000E+00 0.  1.
          5    1    1    2  501    0 -0.43581924178E+03 -0.81040306373E+02  0.23124006408E+03  0.50000000000E+03  0.47000000000E+01 0. -1.
         -5    1    1    2    0  501  0.43581924178E+03  0.81040306373E+02 -0.23124006408E+03  0.50000000000E+03  0.47000000000E+01 0.  1.
</event>
<event>
 4    1  0.4351282E-004  0.1000000E+04  0.7546771E-02  0.8684367E-01
         11   -1    0    0    0    0  0.00000000000E+00  0.00000000000E+00  0.50000000000E+03  0.50000000000E+03  0.00000000000E+00 0. -1.
        -11   -1    0    0    0    0 -0.00000000000E+00 -0.00000000000E+00 -0.50000000000E+03  0.50000000000E+03  0.00000000000E+00 0.  1.
          5    1    1    2  501    0  0.44792247186E+03  0.98044463793E+02  0.19932549341E+03  0.50000000000E+03  0.47000000000E+01 0. -1.
         -5    1    1    2    0  501 -0.44792247186E+03 -0.98044463793E+02 -0.19932549341E+03  0.50000000000E+03  0.47000000000E+01 0.  1.
</event>
<event>
 4    1  0.4351282E-004  0.1000000E+04  0.7546771E-02  0.8684367E-01
         11   -1    0    0    0    0  0.00000000000E+00  0.00000000000E+00  0.50000000000E+03  0.50000000000E+03  0.00000000000E+00 0. -1.
        -11   -1    0    0    0    0 -0.00000000000E+00 -0.00000000000E+00 -0.50000000000E+03  0.50000000000E+03  0.00000000000E+00 0.  1.
          5    1    1    2  501    0  0.29961904978E+03 -0.28817214082E+02  0.39921911676E+03  0.50000000000E+03  0.47000000000E+01 0. -1.
         -5    1    1    2    0  501 -0.29961904978E+03  0.28817214082E+02 -0.39921911676E+03  0.50000000000E+03  0.47000000000E+01 0.  1.
</event>
<event>
 4    1  0.4351282E-004  0.1000000E+04  0.7546771E-02  0.8684367E-01
         11   -1    0    0    0    0  0.00000000000E+00  0.00000000000E+00  0.50000000000E+03  0.50000000000E+03  0.00000000000E+00 0. -1.
        -11   -1    0    0    0    0 -0.00000000000E+00 -0.00000000000E+00 -0.50000000000E+03  0.50000000000E+03  0.00000000000E+00 0.  1.
          5    1    1    2  501    0 -0.22840501459E+03  0.19443052982E+03  0.40000728542E+03  0.50000000000E+03  0.47000000000E+01 0. -1.
         -5    1    1    2    0  501  0.22840501459E+03 -0.19443052982E+03 -0.40000728542E+03  0.50000000000E+03  0.47000000000E+01 0.  1.
</event>
<event>
 4    1  0.4351282E-004  0.1000000E+04  0.7546771E-02  0.8684367E-01
         11   -1    0    0    0    0  0.00000000000E+00  0.00000000000E+00  0.50000000000E+03  0.50000000000E+03  0.00000000000E+00 0. -1.
        -11   -1    0    0    0    0 -0.00000000000E+00 -0.00000000000E+00 -0.50000000000E+03  0.50000000000E+03  0.00000000000E+00 0.  1.
          5    1    1    2  501    0  0.23774992378E+03 -0.40420252080E+03  0.17341627928E+03  0.50000000000E+03  0.47000000000E+01 0. -1.
         -5    1    1    2    0  501 -0.23774992378E+03  0.40420252080E+03 -0.17341627928E+03  0.50000000000E+03  0.47000000000E+01 0.  1.
</event>
<event>
 4    1  0.4351282E-004  0.1000000E+04  0.7546771E-02  0.8684367E-01
         11   -1    0    0    0    0  0.00000000000E+00  0.00000000000E+00  0.50000000000E+03  0.50000000000E+03  0.00000000000E+00 0. -1.
        -11   -1    0    0    0    0 -0.00000000000E+00 -0.00000000000E+00 -0.50000000000E+03  0.50000000000E+03  0.00000000000E+00 0.  1.
          5    1    1    2  501    0 -0.22629419983E+03 -0.14291196222E+03  0.42230914764E+03  0.50000000000E+03  0.47000000000E+01 0. -1.
         -5    1    1    2    0  501  0.22629419983E+03  0.14291196222E+03 -0.42230914764E+03  0.50000000000E+03  0.47000000000E+01 0.  1.
</event>
<event>
 4    1  0.4351282E-004  0.1000000E+04  0.7546771E-02  0.8684367E-01
         11   -1    0    0    0    0  0.00000000000E+00  0.00000000000E+00  0.50000000000E+03  0.50000000000E+03  0.00000000000E+00 0. -1.
        -11   -1    0    0    0    0 -0.00000000000E+00 -0.00000000000E+00 -0.50000000000E+03  0.50000000000E+03  0.00000000000E+00 0.  1.
          5    1    1    2  501    0  0.19192106190E+02 -0.37089497202E+03  0.33473346530E+03  0.50000000000E+03  0.47000000000E+01 0. -1.
         -5    1    1    2    0  501 -0.19192106190E+02  0.37089497202E+03 -0.33473346530E+03  0.50000000000E+03  0.47000000000E+01 0.  1.
</event>
<event>
 4    1  0.4351282E-004  0.1000000E+04  0.7546771E-02  0.8684367E-01
         11   -1    0    0    0    0  0.00000000000E+00  0.00000000000E+00  0.50000000000E+03  0.50000000000E+03  0.00000000000E+00 0.  1.
        -11   -1    0    0    0    0 -0.00000000000E+00 -0.00000000000E+00 -0.50000000000E+03  0.50000000000E+03  0.00000000000E+00 0. -1.
          5    1    1    2  501    0 -0.19378913412E+03  0.11639216066E+03 -0.44595576735E+03  0.50000000000E+03  0.47000000000E+01 0. -1.
         -5    1    1    2    0  501  0.19378913412E+03 -0.11639216066E+03  0.44595576735E+03  0.50000000000E+03  0.47000000000E+01 0.  1.
</event>
<event>
 4    1  0.4351282E-004  0.1000000E+04  0.7546771E-02  0.8684367E-01
         11   -1    0    0    0    0  0.00000000000E+00  0.00000000000E+00  0.50000000000E+03  0.50000000000E+03  0.00000000000E+00 0. -1.
        -11   -1    0    0    0    0 -0.00000000000E+00 -0.00000000000E+00 -0.50000000000E+03  0.50000000000E+03  0.00000000000E+00 0.  1.
          5    1    1    2  501    0  0.43589712189E+03  0.47251997890E+02  0.24028911299E+03  0.50000000000E+03  0.47000000000E+01 0. -1.
         -5    1    1    2    0  501 -0.43589712189E+03 -0.47251997890E+02 -0.24028911299E+03  0.50000000000E+03  0.47000000000E+01 0.  1.
</event>
<event>
 4    1  0.4351282E-004  0.1000000E+04  0.7546771E-02  0.8684367E-01
         11   -1    0    0    0    0  0.00000000000E+00  0.00000000000E+00  0.50000000000E+03  0.50000000000E+03  0.00000000000E+00 0. -1.
        -11   -1    0    0    0    0 -0.00000000000E+00 -0.00000000000E+00 -0.50000000000E+03  0.50000000000E+03  0.00000000000E+00 0.  1.
          5    1    1    2  501    0  0.53619193211E+02  0.48974274705E+03 -0.85175899334E+02  0.50000000000E+03  0.47000000000E+01 0. -1.
         -5    1    1    2    0  501 -0.53619193211E+02 -0.48974274705E+03  0.85175899334E+02  0.50000000000E+03  0.47000000000E+01 0.  1.
</event>
<event>
 4    1  0.4351282E-004  0.1000000E+04  0.7546771E-02  0.8684367E-01
         11   -1    0    0    0    0  0.00000000000E+00  0.00000000000E+00  0.50000000000E+03  0.50000000000E+03  0.00000000000E+00 0. -1.
        -11   -1    0    0    0    0 -0.00000000000E+00 -0.00000000000E+00 -0.50000000000E+03  0.50000000000E+03  0.00000000000E+00 0.  1.
          5    1    1    2  501    0  0.52421755669E+02  0.49510898212E+03  0.45792634353E+02  0.50000000000E+03  0.47000000000E+01 0. -1.
         -5    1    1    2    0  501 -0.52421755669E+02 -0.49510898212E+03 -0.45792634353E+02  0.50000000000E+03  0.47000000000E+01 0.  1.
</event>
<event>
 4    1  0.4351282E-004  0.1000000E+04  0.7546771E-02  0.8684367E-01
         11   -1    0    0    0    0  0.00000000000E+00  0.00000000000E+00  0.50000000000E+03  0.50000000000E+03  0.00000000000E+00 0.  1.
        -11   -1    0    0    0    0 -0.00000000000E+00 -0.00000000000E+00 -0.50000000000E+03  0.50000000000E+03  0.00000000000E+00 0. -1.
          5    1    1    2  501    0 -0.32771122296E+03  0.16121444596E+03 -0.34145741573E+03  0.50000000000E+03  0.47000000000E+01 0. -1.
         -5    1    1    2    0  501  0.32771122296E+03 -0.16121444596E+03  0.34145741573E+03  0.50000000000E+03  0.47000000000E+01 0.  1.
</event>
<event>
 4    1  0.4351282E-004  0.1000000E+04  0.7546771E-02  0.8684367E-01
         11   -1    0    0    0    0  0.00000000000E+00  0.00000000000E+00  0.50000000000E+03  0.50000000000E+03  0.00000000000E+00 0. -1.
        -11   -1    0    0    0    0 -0.00000000000E+00 -0.00000000000E+00 -0.50000000000E+03  0.50000000000E+03  0.00000000000E+00 0.  1.
          5    1    1    2  501    0 -0.14504756127E+03  0.83655774850E+02  0.47110596080E+03  0.50000000000E+03  0.47000000000E+01 0. -1.
         -5    1    1    2    0  501  0.14504756127E+03 -0.83655774850E+02 -0.47110596080E+03  0.50000000000E+03  0.47000000000E+01 0.  1.
</event>
<event>
 4    1  0.4351282E-004  0.1000000E+04  0.7546771E-02  0.8684367E-01
         11   -1    0    0    0    0  0.00000000000E+00  0.00000000000E+00  0.50000000000E+03  0.50000000000E+03  0.00000000000E+00 0. -1.
        -11   -1    0    0    0    0 -0.00000000000E+00 -0.00000000000E+00 -0.50000000000E+03  0.50000000000E+03  0.00000000000E+00 0.  1.
          5    1    1    2  501    0 -0.14749625789E+03 -0.21187549458E+03  0.42817232361E+03  0.50000000000E+03  0.47000000000E+01 0. -1.
         -5    1    1    2    0  501  0.14749625789E+03  0.21187549458E+03 -0.42817232361E+03  0.50000000000E+03  0.47000000000E+01 0.  1.
</event>
<event>
 4    1  0.4351282E-004  0.1000000E+04  0.7546771E-02  0.8684367E-01
         11   -1    0    0    0    0  0.00000000000E+00  0.00000000000E+00  0.50000000000E+03  0.50000000000E+03  0.00000000000E+00 0.  1.
        -11   -1    0    0    0    0 -0.00000000000E+00 -0.00000000000E+00 -0.50000000000E+03  0.50000000000E+03  0.00000000000E+00 0. -1.
          5    1    1    2  501    0  0.77259223276E+02  0.45975814378E+03  0.18064155571E+03  0.50000000000E+03  0.47000000000E+01 0.  1.
         -5    1    1    2    0  501 -0.77259223276E+02 -0.45975814378E+03 -0.18064155571E+03  0.50000000000E+03  0.47000000000E+01 0. -1.
</event>
<event>
 4    1  0.4351282E-004  0.1000000E+04  0.7546771E-02  0.8684367E-01
         11   -1    0    0    0    0  0.00000000000E+00  0.00000000000E+00  0.50000000000E+03  0.50000000000E+03  0.00000000000E+00 0. -1.
        -11   -1    0    0    0    0 -0.00000000000E+00 -0.00000000000E+00 -0.50000000000E+03  0.50000000000E+03  0.00000000000E+00 0.  1.
          5    1    1    2  501    0 -0.49907132511E+03 -0.15499102293E+02  0.25797292170E+02  0.50000000000E+03  0.47000000000E+01 0. -1.
         -5    1    1    2    0  501  0.49907132511E+03  0.15499102293E+02 -0.25797292170E+02  0.50000000000E+03  0.47000000000E+01 0.  1.
</event>
<event>
 4    1  0.4351282E-004  0.1000000E+04  0.7546771E-02  0.8684367E-01
         11   -1    0    0    0    0  0.00000000000E+00  0.00000000000E+00  0.50000000000E+03  0.50000000000E+03  0.00000000000E+00 0.  1.
        -11   -1    0    0    0    0 -0.00000000000E+00 -0.00000000000E+00 -0.50000000000E+03  0.50000000000E+03  0.00000000000E+00 0. -1.
          5    1    1    2  501    0  0.46439325323E+03 -0.39630466602E+02 -0.18095922875E+03  0.50000000000E+03  0.47000000000E+01 0.  1.
         -5    1    1    2    0  501 -0.46439325323E+03  0.39630466602E+02  0.18095922875E+03  0.50000000000E+03  0.47000000000E+01 0. -1.
</event>
<event>
 4    1  0.4351282E-004  0.1000000E+04  0.7546771E-02  0.8684367E-01
         11   -1    0    0    0    0  0.00000000000E+00  0.00000000000E+00  0.50000000000E+03  0.50000000000E+03  0.00000000000E+00 0. -1.
        -11   -1    0    0    0    0 -0.00000000000E+00 -0.00000000000E+00 -0.50000000000E+03  0.50000000000E+03  0.00000000000E+00 0.  1.
          5    1    1    2  501    0 -0.73118349752E+02 -0.37705016376E+03  0.32010121983E+03  0.50000000000E+03  0.47000000000E+01 0. -1.
         -5    1    1    2    0  501  0.73118349752E+02  0.37705016376E+03 -0.32010121983E+03  0.50000000000E+03  0.47000000000E+01 0.  1.
</event>
<event>
 4    1  0.4351282E-004  0.1000000E+04  0.7546771E-02  0.8684367E-01
         11   -1    0    0    0    0  0.00000000000E+00  0.00000000000E+00  0.50000000000E+03  0.50000000000E+03  0.00000000000E+00 0. -1.
        -11   -1    0    0    0    0 -0.00000000000E+00 -0.00000000000E+00 -0.50000000000E+03  0.50000000000E+03  0.00000000000E+00 0.  1.
          5    1    1    2  501    0  0.20997069715E+03 -0.11409454672E+03  0.43917268898E+03  0.50000000000E+03  0.47000000000E+01 0. -1.
         -5    1    1    2    0  501 -0.20997069715E+03  0.11409454672E+03 -0.43917268898E+03  0.50000000000E+03  0.47000000000E+01 0.  1.
</event>
<event>
 4    1  0.4351282E-004  0.1000000E+04  0.7546771E-02  0.8684367E-01
         11   -1    0    0    0    0  0.00000000000E+00  0.00000000000E+00  0.50000000000E+03  0.50000000000E+03  0.00000000000E+00 0. -1.
        -11   -1    0    0    0    0 -0.00000000000E+00 -0.00000000000E+00 -0.50000000000E+03  0.50000000000E+03  0.00000000000E+00 0.  1.
          5    1    1    2  501    0  0.26130772926E+03  0.37431104392E+03  0.20392994639E+03  0.50000000000E+03  0.47000000000E+01 0. -1.
         -5    1    1    2    0  501 -0.26130772926E+03 -0.37431104392E+03 -0.20392994639E+03  0.50000000000E+03  0.47000000000E+01 0.  1.
</event>
<event>
 4    1  0.4351282E-004  0.1000000E+04  0.7546771E-02  0.8684367E-01
         11   -1    0    0    0    0  0.00000000000E+00  0.00000000000E+00  0.50000000000E+03  0.50000000000E+03  0.00000000000E+00 0. -1.
        -11   -1    0    0    0    0 -0.00000000000E+00 -0.00000000000E+00 -0.50000000000E+03  0.50000000000E+03  0.00000000000E+00 0.  1.
          5    1    1    2  501    0  0.47434999454E+03 -0.34809192620E+02  0.15413731796E+03  0.50000000000E+03  0.47000000000E+01 0. -1.
         -5    1    1    2    0  501 -0.47434999454E+03  0.34809192620E+02 -0.15413731796E+03  0.50000000000E+03  0.47000000000E+01 0.  1.
</event>
<event>
 4    1  0.4351282E-004  0.1000000E+04  0.7546771E-02  0.8684367E-01
         11   -1    0    0    0    0  0.00000000000E+00  0.00000000000E+00  0.50000000000E+03  0.50000000000E+03  0.00000000000E+00 0. -1.
        -11   -1    0    0    0    0 -0.00000000000E+00 -0.00000000000E+00 -0.50000000000E+03  0.50000000000E+03  0.00000000000E+00 0.  1.
          5    1    1    2  501    0  0.35098208534E+03 -0.31166870902E+03  0.17219785594E+03  0.50000000000E+03  0.47000000000E+01 0. -1.
         -5    1    1    2    0  501 -0.35098208534E+03  0.31166870902E+03 -0.17219785594E+03  0.50000000000E+03  0.47000000000E+01 0.  1.
</event>
<event>
 4    1  0.4351282E-004  0.1000000E+04  0.7546771E-02  0.8684367E-01
         11   -1    0    0    0    0  0.00000000000E+00  0.00000000000E+00  0.50000000000E+03  0.50000000000E+03  0.00000000000E+00 0. -1.
        -11   -1    0    0    0    0 -0.00000000000E+00 -0.00000000000E+00 -0.50000000000E+03  0.50000000000E+03  0.00000000000E+00 0.  1.
          5    1    1    2  501    0 -0.13241193765E+03  0.57590883776E+02  0.47867345746E+03  0.50000000000E+03  0.47000000000E+01 0. -1.
         -5    1    1    2    0  501  0.13241193765E+03 -0.57590883776E+02 -0.47867345746E+03  0.50000000000E+03  0.47000000000E+01 0.  1.
</event>
<event>
 4    1  0.4351282E-004  0.1000000E+04  0.7546771E-02  0.8684367E-01
         11   -1    0    0    0    0  0.00000000000E+00  0.00000000000E+00  0.50000000000E+03  0.50000000000E+03  0.00000000000E+00 0. -1.
        -11   -1    0    0    0    0 -0.00000000000E+00 -0.00000000000E+00 -0.50000000000E+03  0.50000000000E+03  0.00000000000E+00 0.  1.
          5    1    1    2  501    0  0.18540554542E+03  0.21760589566E+03  0.41018333450E+03  0.50000000000E+03  0.47000000000E+01 0. -1.
         -5    1    1    2    0  501 -0.18540554542E+03 -0.21760589566E+03 -0.41018333450E+03  0.50000000000E+03  0.47000000000E+01 0.  1.
</event>
<event>
 4    1  0.4351282E-004  0.1000000E+04  0.7546771E-02  0.8684367E-01
         11   -1    0    0    0    0  0.00000000000E+00  0.00000000000E+00  0.50000000000E+03  0.50000000000E+03  0.00000000000E+00 0. -1.
        -11   -1    0    0    0    0 -0.00000000000E+00 -0.00000000000E+00 -0.50000000000E+03  0.50000000000E+03  0.00000000000E+00 0.  1.
          5    1    1    2  501    0  0.30567443828E+02 -0.45040282546E+02  0.49700594999E+03  0.50000000000E+03  0.47000000000E+01 0. -1.
         -5    1    1    2    0  501 -0.30567443828E+02  0.45040282546E+02 -0.49700594999E+03  0.50000000000E+03  0.47000000000E+01 0.  1.
</event>
<event>
 4    1  0.4351282E-004  0.1000000E+04  0.7546771E-02  0.8684367E-01
         11   -1    0    0    0    0  0.00000000000E+00  0.00000000000E+00  0.50000000000E+03  0.50000000000E+03  0.00000000000E+00 0. -1.
        -11   -1    0    0    0    0 -0.00000000000E+00 -0.00000000000E+00 -0.50000000000E+03  0.50000000000E+03  0.00000000000E+00 0.  1.
          5    1    1    2  501    0  0.49125376814E+03  0.30106245260E+02  0.87984426392E+02  0.50000000000E+03  0.47000000000E+01 0. -1.
         -5    1    1    2    0  501 -0.49125376814E+03 -0.30106245260E+02 -0.87984426392E+02  0.50000000000E+03  0.47000000000E+01 0.  1.
</event>
<event>
 4    1  0.4351282E-004  0.1000000E+04  0.7546771E-02  0.8684367E-01
         11   -1    0    0    0    0  0.00000000000E+00  0.00000000000E+00  0.50000000000E+03  0.50000000000E+03  0.00000000000E+00 0. -1.
        -11   -1    0    0    0    0 -0.00000000000E+00 -0.00000000000E+00 -0.50000000000E+03  0.50000000000E+03  0.00000000000E+00 0.  1.
          5    1    1    2  501    0 -0.23953817118E+03  0.52644350494E+02  0.43569249122E+03  0.50000000000E+03  0.47000000000E+01 0. -1.
         -5    1    1    2    0  501  0.23953817118E+03 -0.52644350494E+02 -0.43569249122E+03  0.50000000000E+03  0.47000000000E+01 0.  1.
</event>
<event>
 4    1  0.4351282E-004  0.1000000E+04  0.7546771E-02  0.8684367E-01
         11   -1    0    0    0    0  0.00000000000E+00  0.00000000000E+00  0.50000000000E+03  0.50000000000E+03  0.00000000000E+00 0. -1.
        -11   -1    0    0    0    0 -0.00000000000E+00 -0.00000000000E+00 -0.50000000000E+03  0.50000000000E+03  0.00000000000E+00 0.  1.
          5    1    1    2  501    0 -0.20333327123E+03  0.75271603100E+02  0.45051934096E+03  0.50000000000E+03  0.47000000000E+01 0. -1.
         -5    1    1    2    0  501  0.20333327123E+03 -0.75271603100E+02 -0.45051934096E+03  0.50000000000E+03  0.47000000000E+01 0.  1.
</event>
<event>
 4    1  0.4351282E-004  0.1000000E+04  0.7546771E-02  0.8684367E-01
         11   -1    0    0    0    0  0.00000000000E+00  0.00000000000E+00  0.50000000000E+03  0.50000000000E+03  0.00000000000E+00 0. -1.
        -11   -1    0    0    0    0 -0.00000000000E+00 -0.00000000000E+00 -0.50000000000E+03  0.50000000000E+03  0.00000000000E+00 0.  1.
          5    1    1    2  501    0  0.14080646909E+03 -0.18825851420E+03  0.44125976487E+03  0.50000000000E+03  0.47000000000E+01 0. -1.
         -5    1    1    2    0  501 -0.14080646909E+03  0.18825851420E+03 -0.44125976487E+03  0.50000000000E+03  0.47000000000E+01 0.  1.
</event>
<event>
 4    1  0.4351282E-004  0.1000000E+04  0.7546771E-02  0.8684367E-01
         11   -1    0    0    0    0  0.00000000000E+00  0.00000000000E+00  0.50000000000E+03  0.50000000000E+03  0.00000000000E+00 0. -1.
        -11   -1    0    0    0    0 -0.00000000000E+00 -0.00000000000E+00 -0.50000000000E+03  0.50000000000E+03  0.00000000000E+00 0.  1.
          5    1    1    2  501    0  0.11941293129E+03  0.37802317599E+03  0.30465872752E+03  0.50000000000E+03  0.47000000000E+01 0. -1.
         -5    1    1    2    0  501 -0.11941293129E+03 -0.37802317599E+03 -0.30465872752E+03  0.50000000000E+03  0.47000000000E+01 0.  1.
</event>
<event>
 4    1  0.4351282E-004  0.1000000E+04  0.7546771E-02  0.8684367E-01
         11   -1    0    0    0    0  0.00000000000E+00  0.00000000000E+00  0.50000000000E+03  0.50000000000E+03  0.00000000000E+00 0. -1.
        -11   -1    0    0    0    0 -0.00000000000E+00 -0.00000000000E+00 -0.50000000000E+03  0.50000000000E+03  0.00000000000E+00 0.  1.
          5    1    1    2  501    0  0.28675653950E+03  0.15212239901E+03  0.38027276102E+03  0.50000000000E+03  0.47000000000E+01 0. -1.
         -5    1    1    2    0  501 -0.28675653950E+03 -0.15212239901E+03 -0.38027276102E+03  0.50000000000E+03  0.47000000000E+01 0.  1.
</event>
<event>
 4    1  0.4351282E-004  0.1000000E+04  0.7546771E-02  0.8684367E-01
         11   -1    0    0    0    0  0.00000000000E+00  0.00000000000E+00  0.50000000000E+03  0.50000000000E+03  0.00000000000E+00 0. -1.
        -11   -1    0    0    0    0 -0.00000000000E+00 -0.00000000000E+00 -0.50000000000E+03  0.50000000000E+03  0.00000000000E+00 0.  1.
          5    1    1    2  501    0 -0.17776488917E+03 -0.38962903230E+03  0.25800537081E+03  0.50000000000E+03  0.47000000000E+01 0. -1.
         -5    1    1    2    0  501  0.17776488917E+03  0.38962903230E+03 -0.25800537081E+03  0.50000000000E+03  0.47000000000E+01 0.  1.
</event>
<event>
 4    1  0.4351282E-004  0.1000000E+04  0.7546771E-02  0.8684367E-01
         11   -1    0    0    0    0  0.00000000000E+00  0.00000000000E+00  0.50000000000E+03  0.50000000000E+03  0.00000000000E+00 0. -1.
        -11   -1    0    0    0    0 -0.00000000000E+00 -0.00000000000E+00 -0.50000000000E+03  0.50000000000E+03  0.00000000000E+00 0.  1.
          5    1    1    2  501    0 -0.24236972069E+02 -0.35794518308E+03  0.34823228611E+03  0.50000000000E+03  0.47000000000E+01 0. -1.
         -5    1    1    2    0  501  0.24236972069E+02  0.35794518308E+03 -0.34823228611E+03  0.50000000000E+03  0.47000000000E+01 0.  1.
</event>
<event>
 4    1  0.4351282E-004  0.1000000E+04  0.7546771E-02  0.8684367E-01
         11   -1    0    0    0    0  0.00000000000E+00  0.00000000000E+00  0.50000000000E+03  0.50000000000E+03  0.00000000000E+00 0.  1.
        -11   -1    0    0    0    0 -0.00000000000E+00 -0.00000000000E+00 -0.50000000000E+03  0.50000000000E+03  0.00000000000E+00 0. -1.
          5    1    1    2  501    0  0.28947911623E+03  0.38746342194E+03  0.12669588756E+03  0.50000000000E+03  0.47000000000E+01 0.  1.
         -5    1    1    2    0  501 -0.28947911623E+03 -0.38746342194E+03 -0.12669588756E+03  0.50000000000E+03  0.47000000000E+01 0. -1.
</event>
<event>
 4    1  0.4351282E-004  0.1000000E+04  0.7546771E-02  0.8684367E-01
         11   -1    0    0    0    0  0.00000000000E+00  0.00000000000E+00  0.50000000000E+03  0.50000000000E+03  0.00000000000E+00 0. -1.
        -11   -1    0    0    0    0 -0.00000000000E+00 -0.00000000000E+00 -0.50000000000E+03  0.50000000000E+03  0.00000000000E+00 0.  1.
          5    1    1    2  501    0  0.11038668538E+03 -0.36031119679E+03  0.32858565270E+03  0.50000000000E+03  0.47000000000E+01 0. -1.
         -5    1    1    2    0  501 -0.11038668538E+03  0.36031119679E+03 -0.32858565270E+03  0.50000000000E+03  0.47000000000E+01 0.  1.
</event>
<event>
 4    1  0.4351282E-004  0.1000000E+04  0.7546771E-02  0.8684367E-01
         11   -1    0    0    0    0  0.00000000000E+00  0.00000000000E+00  0.50000000000E+03  0.50000000000E+03  0.00000000000E+00 0. -1.
        -11   -1    0    0    0    0 -0.00000000000E+00 -0.00000000000E+00 -0.50000000000E+03  0.50000000000E+03  0.00000000000E+00 0.  1.
          5    1    1    2  501    0 -0.16060000400E+03 -0.31635418417E+03  0.35228621726E+03  0.50000000000E+03  0.47000000000E+01 0. -1.
         -5    1    1    2    0  501  0.16060000400E+03  0.31635418417E+03 -0.35228621726E+03  0.50000000000E+03  0.47000000000E+01 0.  1.
</event>
<event>
 4    1  0.4351282E-004  0.1000000E+04  0.7546771E-02  0.8684367E-01
         11   -1    0    0    0    0  0.00000000000E+00  0.00000000000E+00  0.50000000000E+03  0.50000000000E+03  0.00000000000E+00 0. -1.
        -11   -1    0    0    0    0 -0.00000000000E+00 -0.00000000000E+00 -0.50000000000E+03  0.50000000000E+03  0.00000000000E+00 0.  1.
          5    1    1    2  501    0 -0.30405056204E+03  0.11934606730E+03  0.37853359421E+03  0.50000000000E+03  0.47000000000E+01 0. -1.
         -5    1    1    2    0  501  0.30405056204E+03 -0.11934606730E+03 -0.37853359421E+03  0.50000000000E+03  0.47000000000E+01 0.  1.
</event>
<event>
 4    1  0.4351282E-004  0.1000000E+04  0.7546771E-02  0.8684367E-01
         11   -1    0    0    0    0  0.00000000000E+00  0.00000000000E+00  0.50000000000E+03  0.50000000000E+03  0.00000000000E+00 0. -1.
        -11   -1    0    0    0    0 -0.00000000000E+00 -0.00000000000E+00 -0.50000000000E+03  0.50000000000E+03  0.00000000000E+00 0.  1.
          5    1    1    2  501    0 -0.27789633525E+03  0.39058577566E+03  0.14210661034E+03  0.50000000000E+03  0.47000000000E+01 0. -1.
         -5    1    1    2    0  501  0.27789633525E+03 -0.39058577566E+03 -0.14210661034E+03  0.50000000000E+03  0.47000000000E+01 0.  1.
</event>
<event>
 4    1  0.4351282E-004  0.1000000E+04  0.7546771E-02  0.8684367E-01
         11   -1    0    0    0    0  0.00000000000E+00  0.00000000000E+00  0.50000000000E+03  0.50000000000E+03  0.00000000000E+00 0. -1.
        -11   -1    0    0    0    0 -0.00000000000E+00 -0.00000000000E+00 -0.50000000000E+03  0.50000000000E+03  0.00000000000E+00 0.  1.
          5    1    1    2  501    0 -0.18028347275E+03  0.45372271930E+03 -0.10775654710E+03  0.50000000000E+03  0.47000000000E+01 0. -1.
         -5    1    1    2    0  501  0.18028347275E+03 -0.45372271930E+03  0.10775654710E+03  0.50000000000E+03  0.47000000000E+01 0.  1.
</event>
<event>
 4    1  0.4351282E-004  0.1000000E+04  0.7546771E-02  0.8684367E-01
         11   -1    0    0    0    0  0.00000000000E+00  0.00000000000E+00  0.50000000000E+03  0.50000000000E+03  0.00000000000E+00 0. -1.
        -11   -1    0    0    0    0 -0.00000000000E+00 -0.00000000000E+00 -0.50000000000E+03  0.50000000000E+03  0.00000000000E+00 0.  1.
          5    1    1    2  501    0  0.81117922191E+02 -0.32975152450E+03  0.36696283843E+03  0.50000000000E+03  0.47000000000E+01 0. -1.
         -5    1    1    2    0  501 -0.81117922191E+02  0.32975152450E+03 -0.36696283843E+03  0.50000000000E+03  0.47000000000E+01 0.  1.
</event>
<event>
 4    1  0.4351282E-004  0.1000000E+04  0.7546771E-02  0.8684367E-01
         11   -1    0    0    0    0  0.00000000000E+00  0.00000000000E+00  0.50000000000E+03  0.50000000000E+03  0.00000000000E+00 0. -1.
        -11   -1    0    0    0    0 -0.00000000000E+00 -0.00000000000E+00 -0.50000000000E+03  0.50000000000E+03  0.00000000000E+00 0.  1.
          5    1    1    2  501    0 -0.30236443324E+02  0.29756411493E+03  0.40064855547E+03  0.50000000000E+03  0.47000000000E+01 0. -1.
         -5    1    1    2    0  501  0.30236443324E+02 -0.29756411493E+03 -0.40064855547E+03  0.50000000000E+03  0.47000000000E+01 0.  1.
</event>
<event>
 4    1  0.4351282E-004  0.1000000E+04  0.7546771E-02  0.8684367E-01
         11   -1    0    0    0    0  0.00000000000E+00  0.00000000000E+00  0.50000000000E+03  0.50000000000E+03  0.00000000000E+00 0.  1.
        -11   -1    0    0    0    0 -0.00000000000E+00 -0.00000000000E+00 -0.50000000000E+03  0.50000000000E+03  0.00000000000E+00 0. -1.
          5    1    1    2  501    0  0.24522654360E+03  0.78300716935E+01 -0.43563808637E+03  0.50000000000E+03  0.47000000000E+01 0. -1.
         -5    1    1    2    0  501 -0.24522654360E+03 -0.78300716935E+01  0.43563808637E+03  0.50000000000E+03  0.47000000000E+01 0.  1.
</event>
<event>
 4    1  0.4351282E-004  0.1000000E+04  0.7546771E-02  0.8684367E-01
         11   -1    0    0    0    0  0.00000000000E+00  0.00000000000E+00  0.50000000000E+03  0.50000000000E+03  0.00000000000E+00 0. -1.
        -11   -1    0    0    0    0 -0.00000000000E+00 -0.00000000000E+00 -0.50000000000E+03  0.50000000000E+03  0.00000000000E+00 0.  1.
          5    1    1    2  501    0  0.45386464276E+03  0.11579179811E+03  0.17486296219E+03  0.50000000000E+03  0.47000000000E+01 0. -1.
         -5    1    1    2    0  501 -0.45386464276E+03 -0.11579179811E+03 -0.17486296219E+03  0.50000000000E+03  0.47000000000E+01 0.  1.
</event>
<event>
 4    1  0.4351282E-004  0.1000000E+04  0.7546771E-02  0.8684367E-01
         11   -1    0    0    0    0  0.00000000000E+00  0.00000000000E+00  0.50000000000E+03  0.50000000000E+03  0.00000000000E+00 0. -1.
        -11   -1    0    0    0    0 -0.00000000000E+00 -0.00000000000E+00 -0.50000000000E+03  0.50000000000E+03  0.00000000000E+00 0.  1.
          5    1    1    2  501    0 -0.27226637222E+03 -0.36759218745E+03  0.20180415329E+03  0.50000000000E+03  0.47000000000E+01 0. -1.
         -5    1    1    2    0  501  0.27226637222E+03  0.36759218745E+03 -0.20180415329E+03  0.50000000000E+03  0.47000000000E+01 0.  1.
</event>
<event>
 4    1  0.4351282E-004  0.1000000E+04  0.7546771E-02  0.8684367E-01
         11   -1    0    0    0    0  0.00000000000E+00  0.00000000000E+00  0.50000000000E+03  0.50000000000E+03  0.00000000000E+00 0. -1.
        -11   -1    0    0    0    0 -0.00000000000E+00 -0.00000000000E+00 -0.50000000000E+03  0.50000000000E+03  0.00000000000E+00 0.  1.
          5    1    1    2  501    0 -0.66841629516E+02 -0.22784822661E+03  0.43999465019E+03  0.50000000000E+03  0.47000000000E+01 0. -1.
         -5    1    1    2    0  501  0.66841629516E+02  0.22784822661E+03 -0.43999465019E+03  0.50000000000E+03  0.47000000000E+01 0.  1.
</event>
<event>
 4    1  0.4351282E-004  0.1000000E+04  0.7546771E-02  0.8684367E-01
         11   -1    0    0    0    0  0.00000000000E+00  0.00000000000E+00  0.50000000000E+03  0.50000000000E+03  0.00000000000E+00 0. -1.
        -11   -1    0    0    0    0 -0.00000000000E+00 -0.00000000000E+00 -0.50000000000E+03  0.50000000000E+03  0.00000000000E+00 0.  1.
          5    1    1    2  501    0  0.15310924977E+01 -0.41649653573E+03  0.27659754425E+03  0.50000000000E+03  0.47000000000E+01 0. -1.
         -5    1    1    2    0  501 -0.15310924977E+01  0.41649653573E+03 -0.27659754425E+03  0.50000000000E+03  0.47000000000E+01 0.  1.
</event>
<event>
 4    1  0.4351282E-004  0.1000000E+04  0.7546771E-02  0.8684367E-01
         11   -1    0    0    0    0  0.00000000000E+00  0.00000000000E+00  0.50000000000E+03  0.50000000000E+03  0.00000000000E+00 0. -1.
        -11   -1    0    0    0    0 -0.00000000000E+00 -0.00000000000E+00 -0.50000000000E+03  0.50000000000E+03  0.00000000000E+00 0.  1.
          5    1    1    2  501    0 -0.18012306542E+03 -0.36004386653E+03  0.29648272374E+03  0.50000000000E+03  0.47000000000E+01 0. -1.
         -5    1    1    2    0  501  0.18012306542E+03  0.36004386653E+03 -0.29648272374E+03  0.50000000000E+03  0.47000000000E+01 0.  1.
</event>
<event>
 4    1  0.4351282E-004  0.1000000E+04  0.7546771E-02  0.8684367E-01
         11   -1    0    0    0    0  0.00000000000E+00  0.00000000000E+00  0.50000000000E+03  0.50000000000E+03  0.00000000000E+00 0.  1.
        -11   -1    0    0    0    0 -0.00000000000E+00 -0.00000000000E+00 -0.50000000000E+03  0.50000000000E+03  0.00000000000E+00 0. -1.
          5    1    1    2  501    0  0.27750418519E+02 -0.23801030958E+03 -0.43881535616E+03  0.50000000000E+03  0.47000000000E+01 0. -1.
         -5    1    1    2    0  501 -0.27750418519E+02  0.23801030958E+03  0.43881535616E+03  0.50000000000E+03  0.47000000000E+01 0.  1.
</event>
<event>
 4    1  0.4351282E-004  0.1000000E+04  0.7546771E-02  0.8684367E-01
         11   -1    0    0    0    0  0.00000000000E+00  0.00000000000E+00  0.50000000000E+03  0.50000000000E+03  0.00000000000E+00 0.  1.
        -11   -1    0    0    0    0 -0.00000000000E+00 -0.00000000000E+00 -0.50000000000E+03  0.50000000000E+03  0.00000000000E+00 0. -1.
          5    1    1    2  501    0 -0.36301807139E+03 -0.25731695589E+03 -0.22799950452E+03  0.50000000000E+03  0.47000000000E+01 0. -1.
         -5    1    1    2    0  501  0.36301807139E+03  0.25731695589E+03  0.22799950452E+03  0.50000000000E+03  0.47000000000E+01 0.  1.
</event>
<event>
 4    1  0.4351282E-004  0.1000000E+04  0.7546771E-02  0.8684367E-01
         11   -1    0    0    0    0  0.00000000000E+00  0.00000000000E+00  0.50000000000E+03  0.50000000000E+03  0.00000000000E+00 0. -1.
        -11   -1    0    0    0    0 -0.00000000000E+00 -0.00000000000E+00 -0.50000000000E+03  0.50000000000E+03  0.00000000000E+00 0.  1.
          5    1    1    2  501    0  0.88960852564E+02 -0.23817414042E+03  0.43050778802E+03  0.50000000000E+03  0.47000000000E+01 0. -1.
         -5    1    1    2    0  501 -0.88960852564E+02  0.23817414042E+03 -0.43050778802E+03  0.50000000000E+03  0.47000000000E+01 0.  1.
</event>
<event>
 4    1  0.4351282E-004  0.1000000E+04  0.7546771E-02  0.8684367E-01
         11   -1    0    0    0    0  0.00000000000E+00  0.00000000000E+00  0.50000000000E+03  0.50000000000E+03  0.00000000000E+00 0. -1.
        -11   -1    0    0    0    0 -0.00000000000E+00 -0.00000000000E+00 -0.50000000000E+03  0.50000000000E+03  0.00000000000E+00 0.  1.
          5    1    1    2  501    0  0.34056784276E+02  0.23806088615E+03  0.43834354099E+03  0.50000000000E+03  0.47000000000E+01 0. -1.
         -5    1    1    2    0  501 -0.34056784276E+02 -0.23806088615E+03 -0.43834354099E+03  0.50000000000E+03  0.47000000000E+01 0.  1.
</event>
<event>
 4    1  0.4351282E-004  0.1000000E+04  0.7546771E-02  0.8684367E-01
         11   -1    0    0    0    0  0.00000000000E+00  0.00000000000E+00  0.50000000000E+03  0.50000000000E+03  0.00000000000E+00 0. -1.
        -11   -1    0    0    0    0 -0.00000000000E+00 -0.00000000000E+00 -0.50000000000E+03  0.50000000000E+03  0.00000000000E+00 0.  1.
          5    1    1    2  501    0  0.22789880043E+03  0.44368696651E+03  0.34379099966E+02  0.50000000000E+03  0.47000000000E+01 0. -1.
         -5    1    1    2    0  501 -0.22789880043E+03 -0.44368696651E+03 -0.34379099966E+02  0.50000000000E+03  0.47000000000E+01 0.  1.
</event>
<event>
 4    1  0.4351282E-004  0.1000000E+04  0.7546771E-02  0.8684367E-01
         11   -1    0    0    0    0  0.00000000000E+00  0.00000000000E+00  0.50000000000E+03  0.50000000000E+03  0.00000000000E+00 0.  1.
        -11   -1    0    0    0    0 -0.00000000000E+00 -0.00000000000E+00 -0.50000000000E+03  0.50000000000E+03  0.00000000000E+00 0. -1.
          5    1    1    2  501    0  0.20608587803E+03 -0.27269986882E+03 -0.36488532777E+03  0.50000000000E+03  0.47000000000E+01 0. -1.
         -5    1    1    2    0  501 -0.20608587803E+03  0.27269986882E+03  0.36488532777E+03  0.50000000000E+03  0.47000000000E+01 0.  1.
</event>
<event>
 4    1  0.4351282E-004  0.1000000E+04  0.7546771E-02  0.8684367E-01
         11   -1    0    0    0    0  0.00000000000E+00  0.00000000000E+00  0.50000000000E+03  0.50000000000E+03  0.00000000000E+00 0.  1.
        -11   -1    0    0    0    0 -0.00000000000E+00 -0.00000000000E+00 -0.50000000000E+03  0.50000000000E+03  0.00000000000E+00 0. -1.
          5    1    1    2  501    0 -0.19701734132E+03 -0.79420193210E+02  0.45260856171E+03  0.50000000000E+03  0.47000000000E+01 0.  1.
         -5    1    1    2    0  501  0.19701734132E+03  0.79420193210E+02 -0.45260856171E+03  0.50000000000E+03  0.47000000000E+01 0. -1.
</event>
<event>
 4    1  0.4351282E-004  0.1000000E+04  0.7546771E-02  0.8684367E-01
         11   -1    0    0    0    0  0.00000000000E+00  0.00000000000E+00  0.50000000000E+03  0.50000000000E+03  0.00000000000E+00 0. -1.
        -11   -1    0    0    0    0 -0.00000000000E+00 -0.00000000000E+00 -0.50000000000E+03  0.50000000000E+03  0.00000000000E+00 0.  1.
          5    1    1    2  501    0 -0.42501561947E+03  0.23574854605E+03  0.11731264315E+03  0.50000000000E+03  0.47000000000E+01 0. -1.
         -5    1    1    2    0  501  0.42501561947E+03 -0.23574854605E+03 -0.11731264315E+03  0.50000000000E+03  0.47000000000E+01 0.  1.
</event>
<event>
 4    1  0.4351282E-004  0.1000000E+04  0.7546771E-02  0.8684367E-01
         11   -1    0    0    0    0  0.00000000000E+00  0.00000000000E+00  0.50000000000E+03  0.50000000000E+03  0.00000000000E+00 0. -1.
        -11   -1    0    0    0    0 -0.00000000000E+00 -0.00000000000E+00 -0.50000000000E+03  0.50000000000E+03  0.00000000000E+00 0.  1.
          5    1    1    2  501    0 -0.33540389365E+03 -0.27001793211E+03  0.25411110654E+03  0.50000000000E+03  0.47000000000E+01 0. -1.
         -5    1    1    2    0  501  0.33540389365E+03  0.27001793211E+03 -0.25411110654E+03  0.50000000000E+03  0.47000000000E+01 0.  1.
</event>
<event>
 4    1  0.4351282E-004  0.1000000E+04  0.7546771E-02  0.8684367E-01
         11   -1    0    0    0    0  0.00000000000E+00  0.00000000000E+00  0.50000000000E+03  0.50000000000E+03  0.00000000000E+00 0. -1.
        -11   -1    0    0    0    0 -0.00000000000E+00 -0.00000000000E+00 -0.50000000000E+03  0.50000000000E+03  0.00000000000E+00 0.  1.
          5    1    1    2  501    0 -0.24069663152E+02 -0.50218905438E+02  0.49686680595E+03  0.50000000000E+03  0.47000000000E+01 0. -1.
         -5    1    1    2    0  501  0.24069663152E+02  0.50218905438E+02 -0.49686680595E+03  0.50000000000E+03  0.47000000000E+01 0.  1.
</event>
<event>
 4    1  0.4351282E-004  0.1000000E+04  0.7546771E-02  0.8684367E-01
         11   -1    0    0    0    0  0.00000000000E+00  0.00000000000E+00  0.50000000000E+03  0.50000000000E+03  0.00000000000E+00 0.  1.
        -11   -1    0    0    0    0 -0.00000000000E+00 -0.00000000000E+00 -0.50000000000E+03  0.50000000000E+03  0.00000000000E+00 0. -1.
          5    1    1    2  501    0 -0.13301891666E+03  0.23491443293E+03  0.42083142351E+03  0.50000000000E+03  0.47000000000E+01 0.  1.
         -5    1    1    2    0  501  0.13301891666E+03 -0.23491443293E+03 -0.42083142351E+03  0.50000000000E+03  0.47000000000E+01 0. -1.
</event>
<event>
 4    1  0.4351282E-004  0.1000000E+04  0.7546771E-02  0.8684367E-01
         11   -1    0    0    0    0  0.00000000000E+00  0.00000000000E+00  0.50000000000E+03  0.50000000000E+03  0.00000000000E+00 0.  1.
        -11   -1    0    0    0    0 -0.00000000000E+00 -0.00000000000E+00 -0.50000000000E+03  0.50000000000E+03  0.00000000000E+00 0. -1.
          5    1    1    2  501    0  0.37180665163E+03 -0.74564366711E+02  0.32584947295E+03  0.50000000000E+03  0.47000000000E+01 0.  1.
         -5    1    1    2    0  501 -0.37180665163E+03  0.74564366711E+02 -0.32584947295E+03  0.50000000000E+03  0.47000000000E+01 0. -1.
</event>
<event>
 4    1  0.4351282E-004  0.1000000E+04  0.7546771E-02  0.8684367E-01
         11   -1    0    0    0    0  0.00000000000E+00  0.00000000000E+00  0.50000000000E+03  0.50000000000E+03  0.00000000000E+00 0.  1.
        -11   -1    0    0    0    0 -0.00000000000E+00 -0.00000000000E+00 -0.50000000000E+03  0.50000000000E+03  0.00000000000E+00 0. -1.
          5    1    1    2  501    0  0.23939361423E+02  0.44234436605E+03  0.23181086860E+03  0.50000000000E+03  0.47000000000E+01 0.  1.
         -5    1    1    2    0  501 -0.23939361423E+02 -0.44234436605E+03 -0.23181086860E+03  0.50000000000E+03  0.47000000000E+01 0. -1.
</event>
<event>
 4    1  0.4351282E-004  0.1000000E+04  0.7546771E-02  0.8684367E-01
         11   -1    0    0    0    0  0.00000000000E+00  0.00000000000E+00  0.50000000000E+03  0.50000000000E+03  0.00000000000E+00 0. -1.
        -11   -1    0    0    0    0 -0.00000000000E+00 -0.00000000000E+00 -0.50000000000E+03  0.50000000000E+03  0.00000000000E+00 0.  1.
          5    1    1    2  501    0  0.86879040453E+02 -0.11387502361E+03  0.47902235994E+03  0.50000000000E+03  0.47000000000E+01 0. -1.
         -5    1    1    2    0  501 -0.86879040453E+02  0.11387502361E+03 -0.47902235994E+03  0.50000000000E+03  0.47000000000E+01 0.  1.
</event>
<event>
 4    1  0.4351282E-004  0.1000000E+04  0.7546771E-02  0.8684367E-01
         11   -1    0    0    0    0  0.00000000000E+00  0.00000000000E+00  0.50000000000E+03  0.50000000000E+03  0.00000000000E+00 0. -1.
        -11   -1    0    0    0    0 -0.00000000000E+00 -0.00000000000E+00 -0.50000000000E+03  0.50000000000E+03  0.00000000000E+00 0.  1.
          5    1    1    2  501    0 -0.35691487400E+03  0.28846148232E+03  0.19844307983E+03  0.50000000000E+03  0.47000000000E+01 0. -1.
         -5    1    1    2    0  501  0.35691487400E+03 -0.28846148232E+03 -0.19844307983E+03  0.50000000000E+03  0.47000000000E+01 0.  1.
</event>
<event>
 4    1  0.4351282E-004  0.1000000E+04  0.7546771E-02  0.8684367E-01
         11   -1    0    0    0    0  0.00000000000E+00  0.00000000000E+00  0.50000000000E+03  0.50000000000E+03  0.00000000000E+00 0. -1.
        -11   -1    0    0    0    0 -0.00000000000E+00 -0.00000000000E+00 -0.50000000000E+03  0.50000000000E+03  0.00000000000E+00 0.  1.
          5    1    1    2  501    0 -0.45275113429E+03  0.62620088800E+02  0.20266485852E+03  0.50000000000E+03  0.47000000000E+01 0. -1.
         -5    1    1    2    0  501  0.45275113429E+03 -0.62620088800E+02 -0.20266485852E+03  0.50000000000E+03  0.47000000000E+01 0.  1.
</event>
<event>
 4    1  0.4351282E-004  0.1000000E+04  0.7546771E-02  0.8684367E-01
         11   -1    0    0    0    0  0.00000000000E+00  0.00000000000E+00  0.50000000000E+03  0.50000000000E+03  0.00000000000E+00 0. -1.
        -11   -1    0    0    0    0 -0.00000000000E+00 -0.00000000000E+00 -0.50000000000E+03  0.50000000000E+03  0.00000000000E+00 0.  1.
          5    1    1    2  501    0 -0.97615920866E+02  0.48766773023E+03  0.51275987374E+02  0.50000000000E+03  0.47000000000E+01 0.  1.
         -5    1    1    2    0  501  0.97615920866E+02 -0.48766773023E+03 -0.51275987374E+02  0.50000000000E+03  0.47000000000E+01 0. -1.
</event>
<event>
 4    1  0.4351282E-004  0.1000000E+04  0.7546771E-02  0.8684367E-01
         11   -1    0    0    0    0  0.00000000000E+00  0.00000000000E+00  0.50000000000E+03  0.50000000000E+03  0.00000000000E+00 0.  1.
        -11   -1    0    0    0    0 -0.00000000000E+00 -0.00000000000E+00 -0.50000000000E+03  0.50000000000E+03  0.00000000000E+00 0. -1.
          5    1    1    2  501    0 -0.32855853322E+03 -0.28135767334E+03  0.25072905676E+03  0.50000000000E+03  0.47000000000E+01 0.  1.
         -5    1    1    2    0  501  0.32855853322E+03  0.28135767334E+03 -0.25072905676E+03  0.50000000000E+03  0.47000000000E+01 0. -1.
</event>
<event>
 4    1  0.4351282E-004  0.1000000E+04  0.7546771E-02  0.8684367E-01
         11   -1    0    0    0    0  0.00000000000E+00  0.00000000000E+00  0.50000000000E+03  0.50000000000E+03  0.00000000000E+00 0.  1.
        -11   -1    0    0    0    0 -0.00000000000E+00 -0.00000000000E+00 -0.50000000000E+03  0.50000000000E+03  0.00000000000E+00 0. -1.
          5    1    1    2  501    0  0.37748232060E+03 -0.27201563885E+03  0.18300956220E+03  0.50000000000E+03  0.47000000000E+01 0.  1.
         -5    1    1    2    0  501 -0.37748232060E+03  0.27201563885E+03 -0.18300956220E+03  0.50000000000E+03  0.47000000000E+01 0. -1.
</event>
<event>
 4    1  0.4351282E-004  0.1000000E+04  0.7546771E-02  0.8684367E-01
         11   -1    0    0    0    0  0.00000000000E+00  0.00000000000E+00  0.50000000000E+03  0.50000000000E+03  0.00000000000E+00 0. -1.
        -11   -1    0    0    0    0 -0.00000000000E+00 -0.00000000000E+00 -0.50000000000E+03  0.50000000000E+03  0.00000000000E+00 0.  1.
          5    1    1    2  501    0 -0.73838327508E+02 -0.39170500167E+03  0.30181617428E+03  0.50000000000E+03  0.47000000000E+01 0. -1.
         -5    1    1    2    0  501  0.73838327508E+02  0.39170500167E+03 -0.30181617428E+03  0.50000000000E+03  0.47000000000E+01 0.  1.
</event>
<event>
 4    1  0.4351282E-004  0.1000000E+04  0.7546771E-02  0.8684367E-01
         11   -1    0    0    0    0  0.00000000000E+00  0.00000000000E+00  0.50000000000E+03  0.50000000000E+03  0.00000000000E+00 0.  1.
        -11   -1    0    0    0    0 -0.00000000000E+00 -0.00000000000E+00 -0.50000000000E+03  0.50000000000E+03  0.00000000000E+00 0. -1.
          5    1    1    2  501    0 -0.47644803446E+03  0.15035570194E+03 -0.19192273165E+02  0.50000000000E+03  0.47000000000E+01 0. -1.
         -5    1    1    2    0  501  0.47644803446E+03 -0.15035570194E+03  0.19192273165E+02  0.50000000000E+03  0.47000000000E+01 0.  1.
</event>
<event>
 4    1  0.4351282E-004  0.1000000E+04  0.7546771E-02  0.8684367E-01
         11   -1    0    0    0    0  0.00000000000E+00  0.00000000000E+00  0.50000000000E+03  0.50000000000E+03  0.00000000000E+00 0. -1.
        -11   -1    0    0    0    0 -0.00000000000E+00 -0.00000000000E+00 -0.50000000000E+03  0.50000000000E+03  0.00000000000E+00 0.  1.
          5    1    1    2  501    0  0.41673033940E+03  0.27585906909E+03  0.14680198267E+02  0.50000000000E+03  0.47000000000E+01 0. -1.
         -5    1    1    2    0  501 -0.41673033940E+03 -0.27585906909E+03 -0.14680198267E+02  0.50000000000E+03  0.47000000000E+01 0.  1.
</event>
<event>
 4    1  0.4351282E-004  0.1000000E+04  0.7546771E-02  0.8684367E-01
         11   -1    0    0    0    0  0.00000000000E+00  0.00000000000E+00  0.50000000000E+03  0.50000000000E+03  0.00000000000E+00 0. -1.
        -11   -1    0    0    0    0 -0.00000000000E+00 -0.00000000000E+00 -0.50000000000E+03  0.50000000000E+03  0.00000000000E+00 0.  1.
          5    1    1    2  501    0  0.12363400615E+03  0.66353233572E+02  0.47988518514E+03  0.50000000000E+03  0.47000000000E+01 0. -1.
         -5    1    1    2    0  501 -0.12363400615E+03 -0.66353233572E+02 -0.47988518514E+03  0.50000000000E+03  0.47000000000E+01 0.  1.
</event>
<event>
 4    1  0.4351282E-004  0.1000000E+04  0.7546771E-02  0.8684367E-01
         11   -1    0    0    0    0  0.00000000000E+00  0.00000000000E+00  0.50000000000E+03  0.50000000000E+03  0.00000000000E+00 0. -1.
        -11   -1    0    0    0    0 -0.00000000000E+00 -0.00000000000E+00 -0.50000000000E+03  0.50000000000E+03  0.00000000000E+00 0.  1.
          5    1    1    2  501    0  0.33781502810E+03 -0.34720980289E+03 -0.12371042625E+03  0.50000000000E+03  0.47000000000E+01 0. -1.
         -5    1    1    2    0  501 -0.33781502810E+03  0.34720980289E+03  0.12371042625E+03  0.50000000000E+03  0.47000000000E+01 0.  1.
</event>
<event>
 4    1  0.4351282E-004  0.1000000E+04  0.7546771E-02  0.8684367E-01
         11   -1    0    0    0    0  0.00000000000E+00  0.00000000000E+00  0.50000000000E+03  0.50000000000E+03  0.00000000000E+00 0. -1.
        -11   -1    0    0    0    0 -0.00000000000E+00 -0.00000000000E+00 -0.50000000000E+03  0.50000000000E+03  0.00000000000E+00 0.  1.
          5    1    1    2  501    0 -0.10564194828E+03  0.22471301841E+03  0.43396053752E+03  0.50000000000E+03  0.47000000000E+01 0. -1.
         -5    1    1    2    0  501  0.10564194828E+03 -0.22471301841E+03 -0.43396053752E+03  0.50000000000E+03  0.47000000000E+01 0.  1.
</event>
<event>
 4    1  0.4351282E-004  0.1000000E+04  0.7546771E-02  0.8684367E-01
         11   -1    0    0    0    0  0.00000000000E+00  0.00000000000E+00  0.50000000000E+03  0.50000000000E+03  0.00000000000E+00 0. -1.
        -11   -1    0    0    0    0 -0.00000000000E+00 -0.00000000000E+00 -0.50000000000E+03  0.50000000000E+03  0.00000000000E+00 0.  1.
          5    1    1    2  501    0  0.24301230506E+03 -0.27261952637E+03  0.34146965228E+03  0.50000000000E+03  0.47000000000E+01 0. -1.
         -5    1    1    2    0  501 -0.24301230506E+03  0.27261952637E+03 -0.34146965228E+03  0.50000000000E+03  0.47000000000E+01 0.  1.
</event>
<event>
 4    1  0.4351282E-004  0.1000000E+04  0.7546771E-02  0.8684367E-01
         11   -1    0    0    0    0  0.00000000000E+00  0.00000000000E+00  0.50000000000E+03  0.50000000000E+03  0.00000000000E+00 0. -1.
        -11   -1    0    0    0    0 -0.00000000000E+00 -0.00000000000E+00 -0.50000000000E+03  0.50000000000E+03  0.00000000000E+00 0.  1.
          5    1    1    2  501    0 -0.41287981340E+03 -0.13563691111E+03  0.24720598300E+03  0.50000000000E+03  0.47000000000E+01 0. -1.
         -5    1    1    2    0  501  0.41287981340E+03  0.13563691111E+03 -0.24720598300E+03  0.50000000000E+03  0.47000000000E+01 0.  1.
</event>
<event>
 4    1  0.4351282E-004  0.1000000E+04  0.7546771E-02  0.8684367E-01
         11   -1    0    0    0    0  0.00000000000E+00  0.00000000000E+00  0.50000000000E+03  0.50000000000E+03  0.00000000000E+00 0.  1.
        -11   -1    0    0    0    0 -0.00000000000E+00 -0.00000000000E+00 -0.50000000000E+03  0.50000000000E+03  0.00000000000E+00 0. -1.
          5    1    1    2  501    0 -0.54308852910E+02  0.43776248919E+03  0.23535603147E+03  0.50000000000E+03  0.47000000000E+01 0.  1.
         -5    1    1    2    0  501  0.54308852910E+02 -0.43776248919E+03 -0.23535603147E+03  0.50000000000E+03  0.47000000000E+01 0. -1.
</event>
<event>
 4    1  0.4351282E-004  0.1000000E+04  0.7546771E-02  0.8684367E-01
         11   -1    0    0    0    0  0.00000000000E+00  0.00000000000E+00  0.50000000000E+03  0.50000000000E+03  0.00000000000E+00 0. -1.
        -11   -1    0    0    0    0 -0.00000000000E+00 -0.00000000000E+00 -0.50000000000E+03  0.50000000000E+03  0.00000000000E+00 0.  1.
          5    1    1    2  501    0  0.46131862211E+02  0.12303480240E+03 -0.48240252765E+03  0.50000000000E+03  0.47000000000E+01 0.  1.
         -5    1    1    2    0  501 -0.46131862211E+02 -0.12303480240E+03  0.48240252765E+03  0.50000000000E+03  0.47000000000E+01 0. -1.
</event>
<event>
 4    1  0.4351282E-004  0.1000000E+04  0.7546771E-02  0.8684367E-01
         11   -1    0    0    0    0  0.00000000000E+00  0.00000000000E+00  0.50000000000E+03  0.50000000000E+03  0.00000000000E+00 0. -1.
        -11   -1    0    0    0    0 -0.00000000000E+00 -0.00000000000E+00 -0.50000000000E+03  0.50000000000E+03  0.00000000000E+00 0.  1.
          5    1    1    2  501    0 -0.45024957903E+03 -0.21735783914E+03 -0.29658637047E+01  0.50000000000E+03  0.47000000000E+01 0. -1.
         -5    1    1    2    0  501  0.45024957903E+03  0.21735783914E+03  0.29658637047E+01  0.50000000000E+03  0.47000000000E+01 0.  1.
</event>
<event>
 4    1  0.4351282E-004  0.1000000E+04  0.7546771E-02  0.8684367E-01
         11   -1    0    0    0    0  0.00000000000E+00  0.00000000000E+00  0.50000000000E+03  0.50000000000E+03  0.00000000000E+00 0.  1.
        -11   -1    0    0    0    0 -0.00000000000E+00 -0.00000000000E+00 -0.50000000000E+03  0.50000000000E+03  0.00000000000E+00 0. -1.
          5    1    1    2  501    0  0.34771829167E+03 -0.17335635923E+03  0.31467041861E+03  0.50000000000E+03  0.47000000000E+01 0. -1.
         -5    1    1    2    0  501 -0.34771829167E+03  0.17335635923E+03 -0.31467041861E+03  0.50000000000E+03  0.47000000000E+01 0.  1.
</event>
<event>
 4    1  0.4351282E-004  0.1000000E+04  0.7546771E-02  0.8684367E-01
         11   -1    0    0    0    0  0.00000000000E+00  0.00000000000E+00  0.50000000000E+03  0.50000000000E+03  0.00000000000E+00 0. -1.
        -11   -1    0    0    0    0 -0.00000000000E+00 -0.00000000000E+00 -0.50000000000E+03  0.50000000000E+03  0.00000000000E+00 0.  1.
          5    1    1    2  501    0  0.12114160732E+03 -0.15448245940E+03  0.45982365176E+03  0.50000000000E+03  0.47000000000E+01 0. -1.
         -5    1    1    2    0  501 -0.12114160732E+03  0.15448245940E+03 -0.45982365176E+03  0.50000000000E+03  0.47000000000E+01 0.  1.
</event>
<event>
 4    1  0.4351282E-004  0.1000000E+04  0.7546771E-02  0.8684367E-01
         11   -1    0    0    0    0  0.00000000000E+00  0.00000000000E+00  0.50000000000E+03  0.50000000000E+03  0.00000000000E+00 0. -1.
        -11   -1    0    0    0    0 -0.00000000000E+00 -0.00000000000E+00 -0.50000000000E+03  0.50000000000E+03  0.00000000000E+00 0.  1.
          5    1    1    2  501    0 -0.27062590917E+03  0.28439571149E+03  0.30961041095E+03  0.50000000000E+03  0.47000000000E+01 0. -1.
         -5    1    1    2    0  501  0.27062590917E+03 -0.28439571149E+03 -0.30961041095E+03  0.50000000000E+03  0.47000000000E+01 0.  1.
</event>
<event>
 4    1  0.4351282E-004  0.1000000E+04  0.7546771E-02  0.8684367E-01
         11   -1    0    0    0    0  0.00000000000E+00  0.00000000000E+00  0.50000000000E+03  0.50000000000E+03  0.00000000000E+00 0. -1.
        -11   -1    0    0    0    0 -0.00000000000E+00 -0.00000000000E+00 -0.50000000000E+03  0.50000000000E+03  0.00000000000E+00 0.  1.
          5    1    1    2  501    0 -0.17523712951E+03  0.23498109033E+03  0.40503548688E+03  0.50000000000E+03  0.47000000000E+01 0. -1.
         -5    1    1    2    0  501  0.17523712951E+03 -0.23498109033E+03 -0.40503548688E+03  0.50000000000E+03  0.47000000000E+01 0.  1.
</event>
<event>
 4    1  0.4351282E-004  0.1000000E+04  0.7546771E-02  0.8684367E-01
         11   -1    0    0    0    0  0.00000000000E+00  0.00000000000E+00  0.50000000000E+03  0.50000000000E+03  0.00000000000E+00 0. -1.
        -11   -1    0    0    0    0 -0.00000000000E+00 -0.00000000000E+00 -0.50000000000E+03  0.50000000000E+03  0.00000000000E+00 0.  1.
          5    1    1    2  501    0  0.52108388176E+02 -0.44549146843E+03  0.22090716928E+03  0.50000000000E+03  0.47000000000E+01 0. -1.
         -5    1    1    2    0  501 -0.52108388176E+02  0.44549146843E+03 -0.22090716928E+03  0.50000000000E+03  0.47000000000E+01 0.  1.
</event>
<event>
 4    1  0.4351282E-004  0.1000000E+04  0.7546771E-02  0.8684367E-01
         11   -1    0    0    0    0  0.00000000000E+00  0.00000000000E+00  0.50000000000E+03  0.50000000000E+03  0.00000000000E+00 0. -1.
        -11   -1    0    0    0    0 -0.00000000000E+00 -0.00000000000E+00 -0.50000000000E+03  0.50000000000E+03  0.00000000000E+00 0.  1.
          5    1    1    2  501    0 -0.96077341156E+02 -0.34957119326E+03  0.34430660080E+03  0.50000000000E+03  0.47000000000E+01 0. -1.
         -5    1    1    2    0  501  0.96077341156E+02  0.34957119326E+03 -0.34430660080E+03  0.50000000000E+03  0.47000000000E+01 0.  1.
</event>
<event>
 4    1  0.4351282E-004  0.1000000E+04  0.7546771E-02  0.8684367E-01
         11   -1    0    0    0    0  0.00000000000E+00  0.00000000000E+00  0.50000000000E+03  0.50000000000E+03  0.00000000000E+00 0. -1.
        -11   -1    0    0    0    0 -0.00000000000E+00 -0.00000000000E+00 -0.50000000000E+03  0.50000000000E+03  0.00000000000E+00 0.  1.
          5    1    1    2  501    0 -0.11874170313E+03  0.48170333205E+03  0.61969491094E+02  0.50000000000E+03  0.47000000000E+01 0. -1.
         -5    1    1    2    0  501  0.11874170313E+03 -0.48170333205E+03 -0.61969491094E+02  0.50000000000E+03  0.47000000000E+01 0.  1.
</event>
<event>
 4    1  0.4351282E-004  0.1000000E+04  0.7546771E-02  0.8684367E-01
         11   -1    0    0    0    0  0.00000000000E+00  0.00000000000E+00  0.50000000000E+03  0.50000000000E+03  0.00000000000E+00 0. -1.
        -11   -1    0    0    0    0 -0.00000000000E+00 -0.00000000000E+00 -0.50000000000E+03  0.50000000000E+03  0.00000000000E+00 0.  1.
          5    1    1    2  501    0 -0.42840182492E+03  0.25725968756E+03  0.16347463448E+02  0.50000000000E+03  0.47000000000E+01 0. -1.
         -5    1    1    2    0  501  0.42840182492E+03 -0.25725968756E+03 -0.16347463448E+02  0.50000000000E+03  0.47000000000E+01 0.  1.
</event>
<event>
 4    1  0.4351282E-004  0.1000000E+04  0.7546771E-02  0.8684367E-01
         11   -1    0    0    0    0  0.00000000000E+00  0.00000000000E+00  0.50000000000E+03  0.50000000000E+03  0.00000000000E+00 0. -1.
        -11   -1    0    0    0    0 -0.00000000000E+00 -0.00000000000E+00 -0.50000000000E+03  0.50000000000E+03  0.00000000000E+00 0.  1.
          5    1    1    2  501    0  0.42270885167E+03 -0.25044775464E+03  0.92580013590E+02  0.50000000000E+03  0.47000000000E+01 0.  1.
         -5    1    1    2    0  501 -0.42270885167E+03  0.25044775464E+03 -0.92580013590E+02  0.50000000000E+03  0.47000000000E+01 0. -1.
</event>
<event>
 4    1  0.4351282E-004  0.1000000E+04  0.7546771E-02  0.8684367E-01
         11   -1    0    0    0    0  0.00000000000E+00  0.00000000000E+00  0.50000000000E+03  0.50000000000E+03  0.00000000000E+00 0.  1.
        -11   -1    0    0    0    0 -0.00000000000E+00 -0.00000000000E+00 -0.50000000000E+03  0.50000000000E+03  0.00000000000E+00 0. -1.
          5    1    1    2  501    0  0.28259732713E+03 -0.38467901552E+03  0.14879084555E+03  0.50000000000E+03  0.47000000000E+01 0.  1.
         -5    1    1    2    0  501 -0.28259732713E+03  0.38467901552E+03 -0.14879084555E+03  0.50000000000E+03  0.47000000000E+01 0. -1.
</event>
<event>
 4    1  0.4351282E-004  0.1000000E+04  0.7546771E-02  0.8684367E-01
         11   -1    0    0    0    0  0.00000000000E+00  0.00000000000E+00  0.50000000000E+03  0.50000000000E+03  0.00000000000E+00 0. -1.
        -11   -1    0    0    0    0 -0.00000000000E+00 -0.00000000000E+00 -0.50000000000E+03  0.50000000000E+03  0.00000000000E+00 0.  1.
          5    1    1    2  501    0  0.17078441870E+03 -0.30329205633E+03  0.35892132968E+03  0.50000000000E+03  0.47000000000E+01 0. -1.
         -5    1    1    2    0  501 -0.17078441870E+03  0.30329205633E+03 -0.35892132968E+03  0.50000000000E+03  0.47000000000E+01 0.  1.
</event>
<event>
 4    1  0.4351282E-004  0.1000000E+04  0.7546771E-02  0.8684367E-01
         11   -1    0    0    0    0  0.00000000000E+00  0.00000000000E+00  0.50000000000E+03  0.50000000000E+03  0.00000000000E+00 0. -1.
        -11   -1    0    0    0    0 -0.00000000000E+00 -0.00000000000E+00 -0.50000000000E+03  0.50000000000E+03  0.00000000000E+00 0.  1.
          5    1    1    2  501    0  0.30094129481E+02  0.18006551427E+03  0.46545532970E+03  0.50000000000E+03  0.47000000000E+01 0. -1.
         -5    1    1    2    0  501 -0.30094129481E+02 -0.18006551427E+03 -0.46545532970E+03  0.50000000000E+03  0.47000000000E+01 0.  1.
</event>
<event>
 4    1  0.4351282E-004  0.1000000E+04  0.7546771E-02  0.8684367E-01
         11   -1    0    0    0    0  0.00000000000E+00  0.00000000000E+00  0.50000000000E+03  0.50000000000E+03  0.00000000000E+00 0.  1.
        -11   -1    0    0    0    0 -0.00000000000E+00 -0.00000000000E+00 -0.50000000000E+03  0.50000000000E+03  0.00000000000E+00 0. -1.
          5    1    1    2  501    0 -0.98070086973E+01  0.19815677573E+03  0.45892877967E+03  0.50000000000E+03  0.47000000000E+01 0.  1.
         -5    1    1    2    0  501  0.98070086973E+01 -0.19815677573E+03 -0.45892877967E+03  0.50000000000E+03  0.47000000000E+01 0. -1.
</event>
<event>
 4    1  0.4351282E-004  0.1000000E+04  0.7546771E-02  0.8684367E-01
         11   -1    0    0    0    0  0.00000000000E+00  0.00000000000E+00  0.50000000000E+03  0.50000000000E+03  0.00000000000E+00 0. -1.
        -11   -1    0    0    0    0 -0.00000000000E+00 -0.00000000000E+00 -0.50000000000E+03  0.50000000000E+03  0.00000000000E+00 0.  1.
          5    1    1    2  501    0  0.37439303346E+02  0.12254275702E+02  0.49842355612E+03  0.50000000000E+03  0.47000000000E+01 0. -1.
         -5    1    1    2    0  501 -0.37439303346E+02 -0.12254275702E+02 -0.49842355612E+03  0.50000000000E+03  0.47000000000E+01 0.  1.
</event>
<event>
 4    1  0.4351282E-004  0.1000000E+04  0.7546771E-02  0.8684367E-01
         11   -1    0    0    0    0  0.00000000000E+00  0.00000000000E+00  0.50000000000E+03  0.50000000000E+03  0.00000000000E+00 0. -1.
        -11   -1    0    0    0    0 -0.00000000000E+00 -0.00000000000E+00 -0.50000000000E+03  0.50000000000E+03  0.00000000000E+00 0.  1.
          5    1    1    2  501    0  0.14081074860E+03 -0.11474825582E+02  0.47960251402E+03  0.50000000000E+03  0.47000000000E+01 0. -1.
         -5    1    1    2    0  501 -0.14081074860E+03  0.11474825582E+02 -0.47960251402E+03  0.50000000000E+03  0.47000000000E+01 0.  1.
</event>
<event>
 4    1  0.4351282E-004  0.1000000E+04  0.7546771E-02  0.8684367E-01
         11   -1    0    0    0    0  0.00000000000E+00  0.00000000000E+00  0.50000000000E+03  0.50000000000E+03  0.00000000000E+00 0.  1.
        -11   -1    0    0    0    0 -0.00000000000E+00 -0.00000000000E+00 -0.50000000000E+03  0.50000000000E+03  0.00000000000E+00 0. -1.
          5    1    1    2  501    0 -0.32836323662E+03 -0.33003895605E+03 -0.18229037914E+03  0.50000000000E+03  0.47000000000E+01 0.  1.
         -5    1    1    2    0  501  0.32836323662E+03  0.33003895605E+03  0.18229037914E+03  0.50000000000E+03  0.47000000000E+01 0. -1.
</event>
<event>
 4    1  0.4351282E-004  0.1000000E+04  0.7546771E-02  0.8684367E-01
         11   -1    0    0    0    0  0.00000000000E+00  0.00000000000E+00  0.50000000000E+03  0.50000000000E+03  0.00000000000E+00 0. -1.
        -11   -1    0    0    0    0 -0.00000000000E+00 -0.00000000000E+00 -0.50000000000E+03  0.50000000000E+03  0.00000000000E+00 0.  1.
          5    1    1    2  501    0 -0.32667251701E+03  0.33757559637E+03  0.17118905738E+03  0.50000000000E+03  0.47000000000E+01 0. -1.
         -5    1    1    2    0  501  0.32667251701E+03 -0.33757559637E+03 -0.17118905738E+03  0.50000000000E+03  0.47000000000E+01 0.  1.
</event>
<event>
 4    1  0.4351282E-004  0.1000000E+04  0.7546771E-02  0.8684367E-01
         11   -1    0    0    0    0  0.00000000000E+00  0.00000000000E+00  0.50000000000E+03  0.50000000000E+03  0.00000000000E+00 0. -1.
        -11   -1    0    0    0    0 -0.00000000000E+00 -0.00000000000E+00 -0.50000000000E+03  0.50000000000E+03  0.00000000000E+00 0.  1.
          5    1    1    2  501    0  0.26647819047E+03  0.39304257983E+03  0.15647624243E+03  0.50000000000E+03  0.47000000000E+01 0. -1.
         -5    1    1    2    0  501 -0.26647819047E+03 -0.39304257983E+03 -0.15647624243E+03  0.50000000000E+03  0.47000000000E+01 0.  1.
</event>
<event>
 4    1  0.4351282E-004  0.1000000E+04  0.7546771E-02  0.8684367E-01
         11   -1    0    0    0    0  0.00000000000E+00  0.00000000000E+00  0.50000000000E+03  0.50000000000E+03  0.00000000000E+00 0. -1.
        -11   -1    0    0    0    0 -0.00000000000E+00 -0.00000000000E+00 -0.50000000000E+03  0.50000000000E+03  0.00000000000E+00 0.  1.
          5    1    1    2  501    0  0.16248597264E+02  0.28476995429E+03  0.41063361555E+03  0.50000000000E+03  0.47000000000E+01 0. -1.
         -5    1    1    2    0  501 -0.16248597264E+02 -0.28476995429E+03 -0.41063361555E+03  0.50000000000E+03  0.47000000000E+01 0.  1.
</event>
<event>
 4    1  0.4351282E-004  0.1000000E+04  0.7546771E-02  0.8684367E-01
         11   -1    0    0    0    0  0.00000000000E+00  0.00000000000E+00  0.50000000000E+03  0.50000000000E+03  0.00000000000E+00 0. -1.
        -11   -1    0    0    0    0 -0.00000000000E+00 -0.00000000000E+00 -0.50000000000E+03  0.50000000000E+03  0.00000000000E+00 0.  1.
          5    1    1    2  501    0  0.31278592206E+03 -0.23059068841E+03  0.31459626727E+03  0.50000000000E+03  0.47000000000E+01 0. -1.
         -5    1    1    2    0  501 -0.31278592206E+03  0.23059068841E+03 -0.31459626727E+03  0.50000000000E+03  0.47000000000E+01 0.  1.
</event>
<event>
 4    1  0.4351282E-004  0.1000000E+04  0.7546771E-02  0.8684367E-01
         11   -1    0    0    0    0  0.00000000000E+00  0.00000000000E+00  0.50000000000E+03  0.50000000000E+03  0.00000000000E+00 0.  1.
        -11   -1    0    0    0    0 -0.00000000000E+00 -0.00000000000E+00 -0.50000000000E+03  0.50000000000E+03  0.00000000000E+00 0. -1.
          5    1    1    2  501    0 -0.25863929406E+03  0.15277910080E+03  0.39967758497E+03  0.50000000000E+03  0.47000000000E+01 0.  1.
         -5    1    1    2    0  501  0.25863929406E+03 -0.15277910080E+03 -0.39967758497E+03  0.50000000000E+03  0.47000000000E+01 0. -1.
</event>
<event>
 4    1  0.4351282E-004  0.1000000E+04  0.7546771E-02  0.8684367E-01
         11   -1    0    0    0    0  0.00000000000E+00  0.00000000000E+00  0.50000000000E+03  0.50000000000E+03  0.00000000000E+00 0. -1.
        -11   -1    0    0    0    0 -0.00000000000E+00 -0.00000000000E+00 -0.50000000000E+03  0.50000000000E+03  0.00000000000E+00 0.  1.
          5    1    1    2  501    0 -0.24728958402E+03  0.15865377520E+03  0.40454264454E+03  0.50000000000E+03  0.47000000000E+01 0. -1.
         -5    1    1    2    0  501  0.24728958402E+03 -0.15865377520E+03 -0.40454264454E+03  0.50000000000E+03  0.47000000000E+01 0.  1.
</event>
<event>
 4    1  0.4351282E-004  0.1000000E+04  0.7546771E-02  0.8684367E-01
         11   -1    0    0    0    0  0.00000000000E+00  0.00000000000E+00  0.50000000000E+03  0.50000000000E+03  0.00000000000E+00 0. -1.
        -11   -1    0    0    0    0 -0.00000000000E+00 -0.00000000000E+00 -0.50000000000E+03  0.50000000000E+03  0.00000000000E+00 0.  1.
          5    1    1    2  501    0  0.28296258596E+03 -0.16901778569E+03  0.37595621164E+03  0.50000000000E+03  0.47000000000E+01 0. -1.
         -5    1    1    2    0  501 -0.28296258596E+03  0.16901778569E+03 -0.37595621164E+03  0.50000000000E+03  0.47000000000E+01 0.  1.
</event>
<event>
 4    1  0.4351282E-004  0.1000000E+04  0.7546771E-02  0.8684367E-01
         11   -1    0    0    0    0  0.00000000000E+00  0.00000000000E+00  0.50000000000E+03  0.50000000000E+03  0.00000000000E+00 0. -1.
        -11   -1    0    0    0    0 -0.00000000000E+00 -0.00000000000E+00 -0.50000000000E+03  0.50000000000E+03  0.00000000000E+00 0.  1.
          5    1    1    2  501    0 -0.21811743049E+03 -0.64775945318E+01  0.44984523704E+03  0.50000000000E+03  0.47000000000E+01 0. -1.
         -5    1    1    2    0  501  0.21811743049E+03  0.64775945318E+01 -0.44984523704E+03  0.50000000000E+03  0.47000000000E+01 0.  1.
</event>
<event>
 4    1  0.4351282E-004  0.1000000E+04  0.7546771E-02  0.8684367E-01
         11   -1    0    0    0    0  0.00000000000E+00  0.00000000000E+00  0.50000000000E+03  0.50000000000E+03  0.00000000000E+00 0. -1.
        -11   -1    0    0    0    0 -0.00000000000E+00 -0.00000000000E+00 -0.50000000000E+03  0.50000000000E+03  0.00000000000E+00 0.  1.
          5    1    1    2  501    0 -0.49171257689E+03  0.36275151480E+02  0.82950377440E+02  0.50000000000E+03  0.47000000000E+01 0. -1.
         -5    1    1    2    0  501  0.49171257689E+03 -0.36275151480E+02 -0.82950377440E+02  0.50000000000E+03  0.47000000000E+01 0.  1.
</event>
<event>
 4    1  0.4351282E-004  0.1000000E+04  0.7546771E-02  0.8684367E-01
         11   -1    0    0    0    0  0.00000000000E+00  0.00000000000E+00  0.50000000000E+03  0.50000000000E+03  0.00000000000E+00 0. -1.
        -11   -1    0    0    0    0 -0.00000000000E+00 -0.00000000000E+00 -0.50000000000E+03  0.50000000000E+03  0.00000000000E+00 0.  1.
          5    1    1    2  501    0  0.24313909593E+03 -0.16653405537E+03  0.40389070110E+03  0.50000000000E+03  0.47000000000E+01 0. -1.
         -5    1    1    2    0  501 -0.24313909593E+03  0.16653405537E+03 -0.40389070110E+03  0.50000000000E+03  0.47000000000E+01 0.  1.
</event>
<event>
 4    1  0.4351282E-004  0.1000000E+04  0.7546771E-02  0.8684367E-01
         11   -1    0    0    0    0  0.00000000000E+00  0.00000000000E+00  0.50000000000E+03  0.50000000000E+03  0.00000000000E+00 0. -1.
        -11   -1    0    0    0    0 -0.00000000000E+00 -0.00000000000E+00 -0.50000000000E+03  0.50000000000E+03  0.00000000000E+00 0.  1.
          5    1    1    2  501    0  0.90960693376E+02 -0.44456462502E+03  0.20991988101E+03  0.50000000000E+03  0.47000000000E+01 0. -1.
         -5    1    1    2    0  501 -0.90960693376E+02  0.44456462502E+03 -0.20991988101E+03  0.50000000000E+03  0.47000000000E+01 0.  1.
</event>
<event>
 4    1  0.4351282E-004  0.1000000E+04  0.7546771E-02  0.8684367E-01
         11   -1    0    0    0    0  0.00000000000E+00  0.00000000000E+00  0.50000000000E+03  0.50000000000E+03  0.00000000000E+00 0. -1.
        -11   -1    0    0    0    0 -0.00000000000E+00 -0.00000000000E+00 -0.50000000000E+03  0.50000000000E+03  0.00000000000E+00 0.  1.
          5    1    1    2  501    0 -0.40372379911E+02  0.10981286058E+03  0.48609578952E+03  0.50000000000E+03  0.47000000000E+01 0. -1.
         -5    1    1    2    0  501  0.40372379911E+02 -0.10981286058E+03 -0.48609578952E+03  0.50000000000E+03  0.47000000000E+01 0.  1.
</event>
<event>
 4    1  0.4351282E-004  0.1000000E+04  0.7546771E-02  0.8684367E-01
         11   -1    0    0    0    0  0.00000000000E+00  0.00000000000E+00  0.50000000000E+03  0.50000000000E+03  0.00000000000E+00 0. -1.
        -11   -1    0    0    0    0 -0.00000000000E+00 -0.00000000000E+00 -0.50000000000E+03  0.50000000000E+03  0.00000000000E+00 0.  1.
          5    1    1    2  501    0 -0.32046199563E+03  0.12461783656E+03  0.36297715378E+03  0.50000000000E+03  0.47000000000E+01 0. -1.
         -5    1    1    2    0  501  0.32046199563E+03 -0.12461783656E+03 -0.36297715378E+03  0.50000000000E+03  0.47000000000E+01 0.  1.
</event>
<event>
 4    1  0.4351282E-004  0.1000000E+04  0.7546771E-02  0.8684367E-01
         11   -1    0    0    0    0  0.00000000000E+00  0.00000000000E+00  0.50000000000E+03  0.50000000000E+03  0.00000000000E+00 0. -1.
        -11   -1    0    0    0    0 -0.00000000000E+00 -0.00000000000E+00 -0.50000000000E+03  0.50000000000E+03  0.00000000000E+00 0.  1.
          5    1    1    2  501    0  0.19892809076E+03  0.12095851863E+03  0.44246419231E+03  0.50000000000E+03  0.47000000000E+01 0. -1.
         -5    1    1    2    0  501 -0.19892809076E+03 -0.12095851863E+03 -0.44246419231E+03  0.50000000000E+03  0.47000000000E+01 0.  1.
</event>
<event>
 4    1  0.4351282E-004  0.1000000E+04  0.7546771E-02  0.8684367E-01
         11   -1    0    0    0    0  0.00000000000E+00  0.00000000000E+00  0.50000000000E+03  0.50000000000E+03  0.00000000000E+00 0.  1.
        -11   -1    0    0    0    0 -0.00000000000E+00 -0.00000000000E+00 -0.50000000000E+03  0.50000000000E+03  0.00000000000E+00 0. -1.
          5    1    1    2  501    0 -0.31836968030E+03 -0.17368029824E+03  0.34417119383E+03  0.50000000000E+03  0.47000000000E+01 0.  1.
         -5    1    1    2    0  501  0.31836968030E+03  0.17368029824E+03 -0.34417119383E+03  0.50000000000E+03  0.47000000000E+01 0. -1.
</event>
<event>
 4    1  0.4351282E-004  0.1000000E+04  0.7546771E-02  0.8684367E-01
         11   -1    0    0    0    0  0.00000000000E+00  0.00000000000E+00  0.50000000000E+03  0.50000000000E+03  0.00000000000E+00 0. -1.
        -11   -1    0    0    0    0 -0.00000000000E+00 -0.00000000000E+00 -0.50000000000E+03  0.50000000000E+03  0.00000000000E+00 0.  1.
          5    1    1    2  501    0 -0.44261741528E+03 -0.21274613683E+03  0.93844632001E+02  0.50000000000E+03  0.47000000000E+01 0. -1.
         -5    1    1    2    0  501  0.44261741528E+03  0.21274613683E+03 -0.93844632001E+02  0.50000000000E+03  0.47000000000E+01 0.  1.
</event>
<event>
 4    1  0.4351282E-004  0.1000000E+04  0.7546771E-02  0.8684367E-01
         11   -1    0    0    0    0  0.00000000000E+00  0.00000000000E+00  0.50000000000E+03  0.50000000000E+03  0.00000000000E+00 0. -1.
        -11   -1    0    0    0    0 -0.00000000000E+00 -0.00000000000E+00 -0.50000000000E+03  0.50000000000E+03  0.00000000000E+00 0.  1.
          5    1    1    2  501    0 -0.10438828570E+03  0.33930182371E+03  0.35207281666E+03  0.50000000000E+03  0.47000000000E+01 0. -1.
         -5    1    1    2    0  501  0.10438828570E+03 -0.33930182371E+03 -0.35207281666E+03  0.50000000000E+03  0.47000000000E+01 0.  1.
</event>
<event>
 4    1  0.4351282E-004  0.1000000E+04  0.7546771E-02  0.8684367E-01
         11   -1    0    0    0    0  0.00000000000E+00  0.00000000000E+00  0.50000000000E+03  0.50000000000E+03  0.00000000000E+00 0. -1.
        -11   -1    0    0    0    0 -0.00000000000E+00 -0.00000000000E+00 -0.50000000000E+03  0.50000000000E+03  0.00000000000E+00 0.  1.
          5    1    1    2  501    0 -0.17927733409E+03  0.14006894424E+03  0.44521706879E+03  0.50000000000E+03  0.47000000000E+01 0. -1.
         -5    1    1    2    0  501  0.17927733409E+03 -0.14006894424E+03 -0.44521706879E+03  0.50000000000E+03  0.47000000000E+01 0.  1.
</event>
<event>
 4    1  0.4351282E-004  0.1000000E+04  0.7546771E-02  0.8684367E-01
         11   -1    0    0    0    0  0.00000000000E+00  0.00000000000E+00  0.50000000000E+03  0.50000000000E+03  0.00000000000E+00 0.  1.
        -11   -1    0    0    0    0 -0.00000000000E+00 -0.00000000000E+00 -0.50000000000E+03  0.50000000000E+03  0.00000000000E+00 0. -1.
          5    1    1    2  501    0  0.13965335932E+03  0.26367376178E+03  0.40118698456E+03  0.50000000000E+03  0.47000000000E+01 0.  1.
         -5    1    1    2    0  501 -0.13965335932E+03 -0.26367376178E+03 -0.40118698456E+03  0.50000000000E+03  0.47000000000E+01 0. -1.
</event>
<event>
 4    1  0.4351282E-004  0.1000000E+04  0.7546771E-02  0.8684367E-01
         11   -1    0    0    0    0  0.00000000000E+00  0.00000000000E+00  0.50000000000E+03  0.50000000000E+03  0.00000000000E+00 0. -1.
        -11   -1    0    0    0    0 -0.00000000000E+00 -0.00000000000E+00 -0.50000000000E+03  0.50000000000E+03  0.00000000000E+00 0.  1.
          5    1    1    2  501    0 -0.35666963929E+03  0.10702539167E+03  0.33363189887E+03  0.50000000000E+03  0.47000000000E+01 0. -1.
         -5    1    1    2    0  501  0.35666963929E+03 -0.10702539167E+03 -0.33363189887E+03  0.50000000000E+03  0.47000000000E+01 0.  1.
</event>
<event>
 4    1  0.4351282E-004  0.1000000E+04  0.7546771E-02  0.8684367E-01
         11   -1    0    0    0    0  0.00000000000E+00  0.00000000000E+00  0.50000000000E+03  0.50000000000E+03  0.00000000000E+00 0.  1.
        -11   -1    0    0    0    0 -0.00000000000E+00 -0.00000000000E+00 -0.50000000000E+03  0.50000000000E+03  0.00000000000E+00 0. -1.
          5    1    1    2  501    0  0.15814826677E+02  0.24189801683E+03  0.43727925941E+03  0.50000000000E+03  0.47000000000E+01 0.  1.
         -5    1    1    2    0  501 -0.15814826677E+02 -0.24189801683E+03 -0.43727925941E+03  0.50000000000E+03  0.47000000000E+01 0. -1.
</event>
<event>
 4    1  0.4351282E-004  0.1000000E+04  0.7546771E-02  0.8684367E-01
         11   -1    0    0    0    0  0.00000000000E+00  0.00000000000E+00  0.50000000000E+03  0.50000000000E+03  0.00000000000E+00 0. -1.
        -11   -1    0    0    0    0 -0.00000000000E+00 -0.00000000000E+00 -0.50000000000E+03  0.50000000000E+03  0.00000000000E+00 0.  1.
          5    1    1    2  501    0 -0.88232083117E+02 -0.26497131473E+03  0.41470858669E+03  0.50000000000E+03  0.47000000000E+01 0. -1.
         -5    1    1    2    0  501  0.88232083117E+02  0.26497131473E+03 -0.41470858669E+03  0.50000000000E+03  0.47000000000E+01 0.  1.
</event>
<event>
 4    1  0.4351282E-004  0.1000000E+04  0.7546771E-02  0.8684367E-01
         11   -1    0    0    0    0  0.00000000000E+00  0.00000000000E+00  0.50000000000E+03  0.50000000000E+03  0.00000000000E+00 0.  1.
        -11   -1    0    0    0    0 -0.00000000000E+00 -0.00000000000E+00 -0.50000000000E+03  0.50000000000E+03  0.00000000000E+00 0. -1.
          5    1    1    2  501    0  0.14881111964E+03 -0.32985392903E+03  0.34500658860E+03  0.50000000000E+03  0.47000000000E+01 0.  1.
         -5    1    1    2    0  501 -0.14881111964E+03  0.32985392903E+03 -0.34500658860E+03  0.50000000000E+03  0.47000000000E+01 0. -1.
</event>
<event>
 4    1  0.4351282E-004  0.1000000E+04  0.7546771E-02  0.8684367E-01
         11   -1    0    0    0    0  0.00000000000E+00  0.00000000000E+00  0.50000000000E+03  0.50000000000E+03  0.00000000000E+00 0. -1.
        -11   -1    0    0    0    0 -0.00000000000E+00 -0.00000000000E+00 -0.50000000000E+03  0.50000000000E+03  0.00000000000E+00 0.  1.
          5    1    1    2  501    0  0.46838337208E+02 -0.11975577228E+03  0.48315901645E+03  0.50000000000E+03  0.47000000000E+01 0. -1.
         -5    1    1    2    0  501 -0.46838337208E+02  0.11975577228E+03 -0.48315901645E+03  0.50000000000E+03  0.47000000000E+01 0.  1.
</event>
<event>
 4    1  0.4351282E-004  0.1000000E+04  0.7546771E-02  0.8684367E-01
         11   -1    0    0    0    0  0.00000000000E+00  0.00000000000E+00  0.50000000000E+03  0.50000000000E+03  0.00000000000E+00 0. -1.
        -11   -1    0    0    0    0 -0.00000000000E+00 -0.00000000000E+00 -0.50000000000E+03  0.50000000000E+03  0.00000000000E+00 0.  1.
          5    1    1    2  501    0  0.34712538489E+03  0.71084275897E+02  0.35274481270E+03  0.50000000000E+03  0.47000000000E+01 0. -1.
         -5    1    1    2    0  501 -0.34712538489E+03 -0.71084275897E+02 -0.35274481270E+03  0.50000000000E+03  0.47000000000E+01 0.  1.
</event>
<event>
 4    1  0.4351282E-004  0.1000000E+04  0.7546771E-02  0.8684367E-01
         11   -1    0    0    0    0  0.00000000000E+00  0.00000000000E+00  0.50000000000E+03  0.50000000000E+03  0.00000000000E+00 0. -1.
        -11   -1    0    0    0    0 -0.00000000000E+00 -0.00000000000E+00 -0.50000000000E+03  0.50000000000E+03  0.00000000000E+00 0.  1.
          5    1    1    2  501    0 -0.23573453196E+03 -0.10490170892E+03  0.42825549840E+03  0.50000000000E+03  0.47000000000E+01 0. -1.
         -5    1    1    2    0  501  0.23573453196E+03  0.10490170892E+03 -0.42825549840E+03  0.50000000000E+03  0.47000000000E+01 0.  1.
</event>
<event>
 4    1  0.4351282E-004  0.1000000E+04  0.7546771E-02  0.8684367E-01
         11   -1    0    0    0    0  0.00000000000E+00  0.00000000000E+00  0.50000000000E+03  0.50000000000E+03  0.00000000000E+00 0. -1.
        -11   -1    0    0    0    0 -0.00000000000E+00 -0.00000000000E+00 -0.50000000000E+03  0.50000000000E+03  0.00000000000E+00 0.  1.
          5    1    1    2  501    0  0.13797663852E+03 -0.39633196073E+03  0.27177441773E+03  0.50000000000E+03  0.47000000000E+01 0. -1.
         -5    1    1    2    0  501 -0.13797663852E+03  0.39633196073E+03 -0.27177441773E+03  0.50000000000E+03  0.47000000000E+01 0.  1.
</event>
<event>
 4    1  0.4351282E-004  0.1000000E+04  0.7546771E-02  0.8684367E-01
         11   -1    0    0    0    0  0.00000000000E+00  0.00000000000E+00  0.50000000000E+03  0.50000000000E+03  0.00000000000E+00 0. -1.
        -11   -1    0    0    0    0 -0.00000000000E+00 -0.00000000000E+00 -0.50000000000E+03  0.50000000000E+03  0.00000000000E+00 0.  1.
          5    1    1    2  501    0  0.15863286644E+03  0.37722394533E+03  0.28725531981E+03  0.50000000000E+03  0.47000000000E+01 0. -1.
         -5    1    1    2    0  501 -0.15863286644E+03 -0.37722394533E+03 -0.28725531981E+03  0.50000000000E+03  0.47000000000E+01 0.  1.
</event>
<event>
 4    1  0.4351282E-004  0.1000000E+04  0.7546771E-02  0.8684367E-01
         11   -1    0    0    0    0  0.00000000000E+00  0.00000000000E+00  0.50000000000E+03  0.50000000000E+03  0.00000000000E+00 0. -1.
        -11   -1    0    0    0    0 -0.00000000000E+00 -0.00000000000E+00 -0.50000000000E+03  0.50000000000E+03  0.00000000000E+00 0.  1.
          5    1    1    2  501    0  0.13993162185E+03  0.19184446870E+03  0.43999176247E+03  0.50000000000E+03  0.47000000000E+01 0. -1.
         -5    1    1    2    0  501 -0.13993162185E+03 -0.19184446870E+03 -0.43999176247E+03  0.50000000000E+03  0.47000000000E+01 0.  1.
</event>
<event>
 4    1  0.4351282E-004  0.1000000E+04  0.7546771E-02  0.8684367E-01
         11   -1    0    0    0    0  0.00000000000E+00  0.00000000000E+00  0.50000000000E+03  0.50000000000E+03  0.00000000000E+00 0. -1.
        -11   -1    0    0    0    0 -0.00000000000E+00 -0.00000000000E+00 -0.50000000000E+03  0.50000000000E+03  0.00000000000E+00 0.  1.
          5    1    1    2  501    0  0.44521034698E+03 -0.12666677819E+03  0.18900048741E+03  0.50000000000E+03  0.47000000000E+01 0. -1.
         -5    1    1    2    0  501 -0.44521034698E+03  0.12666677819E+03 -0.18900048741E+03  0.50000000000E+03  0.47000000000E+01 0.  1.
</event>
<event>
 4    1  0.4351282E-004  0.1000000E+04  0.7546771E-02  0.8684367E-01
         11   -1    0    0    0    0  0.00000000000E+00  0.00000000000E+00  0.50000000000E+03  0.50000000000E+03  0.00000000000E+00 0. -1.
        -11   -1    0    0    0    0 -0.00000000000E+00 -0.00000000000E+00 -0.50000000000E+03  0.50000000000E+03  0.00000000000E+00 0.  1.
          5    1    1    2  501    0  0.23085195394E+03  0.24427835410E+03  0.37015317246E+03  0.50000000000E+03  0.47000000000E+01 0. -1.
         -5    1    1    2    0  501 -0.23085195394E+03 -0.24427835410E+03 -0.37015317246E+03  0.50000000000E+03  0.47000000000E+01 0.  1.
</event>
<event>
 4    1  0.4351282E-004  0.1000000E+04  0.7546771E-02  0.8684367E-01
         11   -1    0    0    0    0  0.00000000000E+00  0.00000000000E+00  0.50000000000E+03  0.50000000000E+03  0.00000000000E+00 0. -1.
        -11   -1    0    0    0    0 -0.00000000000E+00 -0.00000000000E+00 -0.50000000000E+03  0.50000000000E+03  0.00000000000E+00 0.  1.
          5    1    1    2  501    0 -0.42510456970E+03  0.23018850408E+03  0.12758239459E+03  0.50000000000E+03  0.47000000000E+01 0. -1.
         -5    1    1    2    0  501  0.42510456970E+03 -0.23018850408E+03 -0.12758239459E+03  0.50000000000E+03  0.47000000000E+01 0.  1.
</event>
<event>
 4    1  0.4351282E-004  0.1000000E+04  0.7546771E-02  0.8684367E-01
         11   -1    0    0    0    0  0.00000000000E+00  0.00000000000E+00  0.50000000000E+03  0.50000000000E+03  0.00000000000E+00 0. -1.
        -11   -1    0    0    0    0 -0.00000000000E+00 -0.00000000000E+00 -0.50000000000E+03  0.50000000000E+03  0.00000000000E+00 0.  1.
          5    1    1    2  501    0 -0.46983326018E+03  0.23321221279E+02  0.16938340612E+03  0.50000000000E+03  0.47000000000E+01 0. -1.
         -5    1    1    2    0  501  0.46983326018E+03 -0.23321221279E+02 -0.16938340612E+03  0.50000000000E+03  0.47000000000E+01 0.  1.
</event>
<event>
 4    1  0.4351282E-004  0.1000000E+04  0.7546771E-02  0.8684367E-01
         11   -1    0    0    0    0  0.00000000000E+00  0.00000000000E+00  0.50000000000E+03  0.50000000000E+03  0.00000000000E+00 0. -1.
        -11   -1    0    0    0    0 -0.00000000000E+00 -0.00000000000E+00 -0.50000000000E+03  0.50000000000E+03  0.00000000000E+00 0.  1.
          5    1    1    2  501    0  0.48098712315E+03  0.10548930793E+03  0.86610064529E+02  0.50000000000E+03  0.47000000000E+01 0. -1.
         -5    1    1    2    0  501 -0.48098712315E+03 -0.10548930793E+03 -0.86610064529E+02  0.50000000000E+03  0.47000000000E+01 0.  1.
</event>
<event>
 4    1  0.4351282E-004  0.1000000E+04  0.7546771E-02  0.8684367E-01
         11   -1    0    0    0    0  0.00000000000E+00  0.00000000000E+00  0.50000000000E+03  0.50000000000E+03  0.00000000000E+00 0. -1.
        -11   -1    0    0    0    0 -0.00000000000E+00 -0.00000000000E+00 -0.50000000000E+03  0.50000000000E+03  0.00000000000E+00 0.  1.
          5    1    1    2  501    0  0.52348123518E+02 -0.22172248750E+03  0.44505811138E+03  0.50000000000E+03  0.47000000000E+01 0. -1.
         -5    1    1    2    0  501 -0.52348123518E+02  0.22172248750E+03 -0.44505811138E+03  0.50000000000E+03  0.47000000000E+01 0.  1.
</event>
<event>
 4    1  0.4351282E-004  0.1000000E+04  0.7546771E-02  0.8684367E-01
         11   -1    0    0    0    0  0.00000000000E+00  0.00000000000E+00  0.50000000000E+03  0.50000000000E+03  0.00000000000E+00 0. -1.
        -11   -1    0    0    0    0 -0.00000000000E+00 -0.00000000000E+00 -0.50000000000E+03  0.50000000000E+03  0.00000000000E+00 0.  1.
          5    1    1    2  501    0 -0.59852159957E+02 -0.39637693152E+03  0.29879919194E+03  0.50000000000E+03  0.47000000000E+01 0. -1.
         -5    1    1    2    0  501  0.59852159957E+02  0.39637693152E+03 -0.29879919194E+03  0.50000000000E+03  0.47000000000E+01 0.  1.
</event>
<event>
 4    1  0.4351282E-004  0.1000000E+04  0.7546771E-02  0.8684367E-01
         11   -1    0    0    0    0  0.00000000000E+00  0.00000000000E+00  0.50000000000E+03  0.50000000000E+03  0.00000000000E+00 0. -1.
        -11   -1    0    0    0    0 -0.00000000000E+00 -0.00000000000E+00 -0.50000000000E+03  0.50000000000E+03  0.00000000000E+00 0.  1.
          5    1    1    2  501    0 -0.29633194407E+03 -0.38719821496E+02  0.40083171575E+03  0.50000000000E+03  0.47000000000E+01 0. -1.
         -5    1    1    2    0  501  0.29633194407E+03  0.38719821496E+02 -0.40083171575E+03  0.50000000000E+03  0.47000000000E+01 0.  1.
</event>
<event>
 4    1  0.4351282E-004  0.1000000E+04  0.7546771E-02  0.8684367E-01
         11   -1    0    0    0    0  0.00000000000E+00  0.00000000000E+00  0.50000000000E+03  0.50000000000E+03  0.00000000000E+00 0. -1.
        -11   -1    0    0    0    0 -0.00000000000E+00 -0.00000000000E+00 -0.50000000000E+03  0.50000000000E+03  0.00000000000E+00 0.  1.
          5    1    1    2  501    0  0.78441582502E+02  0.43765805757E+03  0.22864875415E+03  0.50000000000E+03  0.47000000000E+01 0. -1.
         -5    1    1    2    0  501 -0.78441582502E+02 -0.43765805757E+03 -0.22864875415E+03  0.50000000000E+03  0.47000000000E+01 0.  1.
</event>
<event>
 4    1  0.4351282E-004  0.1000000E+04  0.7546771E-02  0.8684367E-01
         11   -1    0    0    0    0  0.00000000000E+00  0.00000000000E+00  0.50000000000E+03  0.50000000000E+03  0.00000000000E+00 0. -1.
        -11   -1    0    0    0    0 -0.00000000000E+00 -0.00000000000E+00 -0.50000000000E+03  0.50000000000E+03  0.00000000000E+00 0.  1.
          5    1    1    2  501    0  0.16605314409E+03 -0.17000348914E+03  0.43988984646E+03  0.50000000000E+03  0.47000000000E+01 0. -1.
         -5    1    1    2    0  501 -0.16605314409E+03  0.17000348914E+03 -0.43988984646E+03  0.50000000000E+03  0.47000000000E+01 0.  1.
</event>
<event>
 4    1  0.4351282E-004  0.1000000E+04  0.7546771E-02  0.8684367E-01
         11   -1    0    0    0    0  0.00000000000E+00  0.00000000000E+00  0.50000000000E+03  0.50000000000E+03  0.00000000000E+00 0. -1.
        -11   -1    0    0    0    0 -0.00000000000E+00 -0.00000000000E+00 -0.50000000000E+03  0.50000000000E+03  0.00000000000E+00 0.  1.
          5    1    1    2  501    0 -0.29424899888E+03  0.38372187272E+03  0.12709429985E+03  0.50000000000E+03  0.47000000000E+01 0. -1.
         -5    1    1    2    0  501  0.29424899888E+03 -0.38372187272E+03 -0.12709429985E+03  0.50000000000E+03  0.47000000000E+01 0.  1.
</event>
<event>
 4    1  0.4351282E-004  0.1000000E+04  0.7546771E-02  0.8684367E-01
         11   -1    0    0    0    0  0.00000000000E+00  0.00000000000E+00  0.50000000000E+03  0.50000000000E+03  0.00000000000E+00 0.  1.
        -11   -1    0    0    0    0 -0.00000000000E+00 -0.00000000000E+00 -0.50000000000E+03  0.50000000000E+03  0.00000000000E+00 0. -1.
          5    1    1    2  501    0  0.63467677531E+02 -0.34745494346E+03  0.35387119998E+03  0.50000000000E+03  0.47000000000E+01 0.  1.
         -5    1    1    2    0  501 -0.63467677531E+02  0.34745494346E+03 -0.35387119998E+03  0.50000000000E+03  0.47000000000E+01 0. -1.
</event>
<event>
 4    1  0.4351282E-004  0.1000000E+04  0.7546771E-02  0.8684367E-01
         11   -1    0    0    0    0  0.00000000000E+00  0.00000000000E+00  0.50000000000E+03  0.50000000000E+03  0.00000000000E+00 0. -1.
        -11   -1    0    0    0    0 -0.00000000000E+00 -0.00000000000E+00 -0.50000000000E+03  0.50000000000E+03  0.00000000000E+00 0.  1.
          5    1    1    2  501    0 -0.27402392845E+03 -0.32015658819E+03  0.26905121385E+03  0.50000000000E+03  0.47000000000E+01 0. -1.
         -5    1    1    2    0  501  0.27402392845E+03  0.32015658819E+03 -0.26905121385E+03  0.50000000000E+03  0.47000000000E+01 0.  1.
</event>
<event>
 4    1  0.4351282E-004  0.1000000E+04  0.7546771E-02  0.8684367E-01
         11   -1    0    0    0    0  0.00000000000E+00  0.00000000000E+00  0.50000000000E+03  0.50000000000E+03  0.00000000000E+00 0. -1.
        -11   -1    0    0    0    0 -0.00000000000E+00 -0.00000000000E+00 -0.50000000000E+03  0.50000000000E+03  0.00000000000E+00 0.  1.
          5    1    1    2  501    0  0.47224244521E+03 -0.43177429610E+02 -0.15843198072E+03  0.50000000000E+03  0.47000000000E+01 0. -1.
         -5    1    1    2    0  501 -0.47224244521E+03  0.43177429610E+02  0.15843198072E+03  0.50000000000E+03  0.47000000000E+01 0.  1.
</event>
<event>
 4    1  0.4351282E-004  0.1000000E+04  0.7546771E-02  0.8684367E-01
         11   -1    0    0    0    0  0.00000000000E+00  0.00000000000E+00  0.50000000000E+03  0.50000000000E+03  0.00000000000E+00 0.  1.
        -11   -1    0    0    0    0 -0.00000000000E+00 -0.00000000000E+00 -0.50000000000E+03  0.50000000000E+03  0.00000000000E+00 0. -1.
          5    1    1    2  501    0 -0.67659248100E+01 -0.26295489277E+03  0.42519037693E+03  0.50000000000E+03  0.47000000000E+01 0.  1.
         -5    1    1    2    0  501  0.67659248100E+01  0.26295489277E+03 -0.42519037693E+03  0.50000000000E+03  0.47000000000E+01 0. -1.
</event>
<event>
 4    1  0.4351282E-004  0.1000000E+04  0.7546771E-02  0.8684367E-01
         11   -1    0    0    0    0  0.00000000000E+00  0.00000000000E+00  0.50000000000E+03  0.50000000000E+03  0.00000000000E+00 0. -1.
        -11   -1    0    0    0    0 -0.00000000000E+00 -0.00000000000E+00 -0.50000000000E+03  0.50000000000E+03  0.00000000000E+00 0.  1.
          5    1    1    2  501    0  0.27944173089E+03 -0.35551400793E+03 -0.21330733509E+03  0.50000000000E+03  0.47000000000E+01 0. -1.
         -5    1    1    2    0  501 -0.27944173089E+03  0.35551400793E+03  0.21330733509E+03  0.50000000000E+03  0.47000000000E+01 0.  1.
</event>
<event>
 4    1  0.4351282E-004  0.1000000E+04  0.7546771E-02  0.8684367E-01
         11   -1    0    0    0    0  0.00000000000E+00  0.00000000000E+00  0.50000000000E+03  0.50000000000E+03  0.00000000000E+00 0. -1.
        -11   -1    0    0    0    0 -0.00000000000E+00 -0.00000000000E+00 -0.50000000000E+03  0.50000000000E+03  0.00000000000E+00 0.  1.
          5    1    1    2  501    0  0.28049659075E+03 -0.27228796956E+03  0.31170311870E+03  0.50000000000E+03  0.47000000000E+01 0. -1.
         -5    1    1    2    0  501 -0.28049659075E+03  0.27228796956E+03 -0.31170311870E+03  0.50000000000E+03  0.47000000000E+01 0.  1.
</event>
<event>
 4    1  0.4351282E-004  0.1000000E+04  0.7546771E-02  0.8684367E-01
         11   -1    0    0    0    0  0.00000000000E+00  0.00000000000E+00  0.50000000000E+03  0.50000000000E+03  0.00000000000E+00 0.  1.
        -11   -1    0    0    0    0 -0.00000000000E+00 -0.00000000000E+00 -0.50000000000E+03  0.50000000000E+03  0.00000000000E+00 0. -1.
          5    1    1    2  501    0 -0.21368176772E+03 -0.33334765079E+02  0.45078465544E+03  0.50000000000E+03  0.47000000000E+01 0.  1.
         -5    1    1    2    0  501  0.21368176772E+03  0.33334765079E+02 -0.45078465544E+03  0.50000000000E+03  0.47000000000E+01 0. -1.
</event>
<event>
 4    1  0.4351282E-004  0.1000000E+04  0.7546771E-02  0.8684367E-01
         11   -1    0    0    0    0  0.00000000000E+00  0.00000000000E+00  0.50000000000E+03  0.50000000000E+03  0.00000000000E+00 0. -1.
        -11   -1    0    0    0    0 -0.00000000000E+00 -0.00000000000E+00 -0.50000000000E+03  0.50000000000E+03  0.00000000000E+00 0.  1.
          5    1    1    2  501    0 -0.42711564945E+03  0.98141034432E+02 -0.24066256326E+03  0.50000000000E+03  0.47000000000E+01 0.  1.
         -5    1    1    2    0  501  0.42711564945E+03 -0.98141034432E+02  0.24066256326E+03  0.50000000000E+03  0.47000000000E+01 0. -1.
</event>
<event>
 4    1  0.4351282E-004  0.1000000E+04  0.7546771E-02  0.8684367E-01
         11   -1    0    0    0    0  0.00000000000E+00  0.00000000000E+00  0.50000000000E+03  0.50000000000E+03  0.00000000000E+00 0. -1.
        -11   -1    0    0    0    0 -0.00000000000E+00 -0.00000000000E+00 -0.50000000000E+03  0.50000000000E+03  0.00000000000E+00 0.  1.
          5    1    1    2  501    0 -0.12467560031E+03 -0.30328867239E+03  0.37742533817E+03  0.50000000000E+03  0.47000000000E+01 0. -1.
         -5    1    1    2    0  501  0.12467560031E+03  0.30328867239E+03 -0.37742533817E+03  0.50000000000E+03  0.47000000000E+01 0.  1.
</event>
<event>
 4    1  0.4351282E-004  0.1000000E+04  0.7546771E-02  0.8684367E-01
         11   -1    0    0    0    0  0.00000000000E+00  0.00000000000E+00  0.50000000000E+03  0.50000000000E+03  0.00000000000E+00 0. -1.
        -11   -1    0    0    0    0 -0.00000000000E+00 -0.00000000000E+00 -0.50000000000E+03  0.50000000000E+03  0.00000000000E+00 0.  1.
          5    1    1    2  501    0 -0.21361311212E+03 -0.13883947253E+03  0.43019873221E+03  0.50000000000E+03  0.47000000000E+01 0. -1.
         -5    1    1    2    0  501  0.21361311212E+03  0.13883947253E+03 -0.43019873221E+03  0.50000000000E+03  0.47000000000E+01 0.  1.
</event>
<event>
 4    1  0.4351282E-004  0.1000000E+04  0.7546771E-02  0.8684367E-01
         11   -1    0    0    0    0  0.00000000000E+00  0.00000000000E+00  0.50000000000E+03  0.50000000000E+03  0.00000000000E+00 0. -1.
        -11   -1    0    0    0    0 -0.00000000000E+00 -0.00000000000E+00 -0.50000000000E+03  0.50000000000E+03  0.00000000000E+00 0.  1.
          5    1    1    2  501    0 -0.42747647175E+02  0.27644238817E+03  0.41440337195E+03  0.50000000000E+03  0.47000000000E+01 0. -1.
         -5    1    1    2    0  501  0.42747647175E+02 -0.27644238817E+03 -0.41440337195E+03  0.50000000000E+03  0.47000000000E+01 0.  1.
</event>
<event>
 4    1  0.4351282E-004  0.1000000E+04  0.7546771E-02  0.8684367E-01
         11   -1    0    0    0    0  0.00000000000E+00  0.00000000000E+00  0.50000000000E+03  0.50000000000E+03  0.00000000000E+00 0. -1.
        -11   -1    0    0    0    0 -0.00000000000E+00 -0.00000000000E+00 -0.50000000000E+03  0.50000000000E+03  0.00000000000E+00 0.  1.
          5    1    1    2  501    0  0.48819641562E+03 -0.54951984237E+02 -0.92857144062E+02  0.50000000000E+03  0.47000000000E+01 0. -1.
         -5    1    1    2    0  501 -0.48819641562E+03  0.54951984237E+02  0.92857144062E+02  0.50000000000E+03  0.47000000000E+01 0.  1.
</event>
<event>
 4    1  0.4351282E-004  0.1000000E+04  0.7546771E-02  0.8684367E-01
         11   -1    0    0    0    0  0.00000000000E+00  0.00000000000E+00  0.50000000000E+03  0.50000000000E+03  0.00000000000E+00 0. -1.
        -11   -1    0    0    0    0 -0.00000000000E+00 -0.00000000000E+00 -0.50000000000E+03  0.50000000000E+03  0.00000000000E+00 0.  1.
          5    1    1    2  501    0 -0.16204341486E+03  0.27703511343E+03  0.38336847500E+03  0.50000000000E+03  0.47000000000E+01 0. -1.
         -5    1    1    2    0  501  0.16204341486E+03 -0.27703511343E+03 -0.38336847500E+03  0.50000000000E+03  0.47000000000E+01 0.  1.
</event>
<event>
 4    1  0.4351282E-004  0.1000000E+04  0.7546771E-02  0.8684367E-01
         11   -1    0    0    0    0  0.00000000000E+00  0.00000000000E+00  0.50000000000E+03  0.50000000000E+03  0.00000000000E+00 0. -1.
        -11   -1    0    0    0    0 -0.00000000000E+00 -0.00000000000E+00 -0.50000000000E+03  0.50000000000E+03  0.00000000000E+00 0.  1.
          5    1    1    2  501    0 -0.15133626404E+03  0.30746017161E+03  0.36406522501E+03  0.50000000000E+03  0.47000000000E+01 0. -1.
         -5    1    1    2    0  501  0.15133626404E+03 -0.30746017161E+03 -0.36406522501E+03  0.50000000000E+03  0.47000000000E+01 0.  1.
</event>
<event>
 4    1  0.4351282E-004  0.1000000E+04  0.7546771E-02  0.8684367E-01
         11   -1    0    0    0    0  0.00000000000E+00  0.00000000000E+00  0.50000000000E+03  0.50000000000E+03  0.00000000000E+00 0. -1.
        -11   -1    0    0    0    0 -0.00000000000E+00 -0.00000000000E+00 -0.50000000000E+03  0.50000000000E+03  0.00000000000E+00 0.  1.
          5    1    1    2  501    0  0.40294142674E+03 -0.15224467365E+03  0.25384577199E+03  0.50000000000E+03  0.47000000000E+01 0. -1.
         -5    1    1    2    0  501 -0.40294142674E+03  0.15224467365E+03 -0.25384577199E+03  0.50000000000E+03  0.47000000000E+01 0.  1.
</event>
<event>
 4    1  0.4351282E-004  0.1000000E+04  0.7546771E-02  0.8684367E-01
         11   -1    0    0    0    0  0.00000000000E+00  0.00000000000E+00  0.50000000000E+03  0.50000000000E+03  0.00000000000E+00 0. -1.
        -11   -1    0    0    0    0 -0.00000000000E+00 -0.00000000000E+00 -0.50000000000E+03  0.50000000000E+03  0.00000000000E+00 0.  1.
          5    1    1    2  501    0  0.43269035565E+03 -0.25636438487E+01  0.25050028715E+03  0.50000000000E+03  0.47000000000E+01 0. -1.
         -5    1    1    2    0  501 -0.43269035565E+03  0.25636438487E+01 -0.25050028715E+03  0.50000000000E+03  0.47000000000E+01 0.  1.
</event>
<event>
 4    1  0.4351282E-004  0.1000000E+04  0.7546771E-02  0.8684367E-01
         11   -1    0    0    0    0  0.00000000000E+00  0.00000000000E+00  0.50000000000E+03  0.50000000000E+03  0.00000000000E+00 0. -1.
        -11   -1    0    0    0    0 -0.00000000000E+00 -0.00000000000E+00 -0.50000000000E+03  0.50000000000E+03  0.00000000000E+00 0.  1.
          5    1    1    2  501    0  0.25882596288E+03 -0.40772957620E+03  0.12939715465E+03  0.50000000000E+03  0.47000000000E+01 0. -1.
         -5    1    1    2    0  501 -0.25882596288E+03  0.40772957620E+03 -0.12939715465E+03  0.50000000000E+03  0.47000000000E+01 0.  1.
</event>
<event>
 4    1  0.4351282E-004  0.1000000E+04  0.7546771E-02  0.8684367E-01
         11   -1    0    0    0    0  0.00000000000E+00  0.00000000000E+00  0.50000000000E+03  0.50000000000E+03  0.00000000000E+00 0.  1.
        -11   -1    0    0    0    0 -0.00000000000E+00 -0.00000000000E+00 -0.50000000000E+03  0.50000000000E+03  0.00000000000E+00 0. -1.
          5    1    1    2  501    0 -0.41940319884E+03  0.25240921080E+03  0.10182562108E+03  0.50000000000E+03  0.47000000000E+01 0.  1.
         -5    1    1    2    0  501  0.41940319884E+03 -0.25240921080E+03 -0.10182562108E+03  0.50000000000E+03  0.47000000000E+01 0. -1.
</event>
<event>
 4    1  0.4351282E-004  0.1000000E+04  0.7546771E-02  0.8684367E-01
         11   -1    0    0    0    0  0.00000000000E+00  0.00000000000E+00  0.50000000000E+03  0.50000000000E+03  0.00000000000E+00 0. -1.
        -11   -1    0    0    0    0 -0.00000000000E+00 -0.00000000000E+00 -0.50000000000E+03  0.50000000000E+03  0.00000000000E+00 0.  1.
          5    1    1    2  501    0  0.42584056693E+03 -0.13107116588E+03  0.22684371500E+03  0.50000000000E+03  0.47000000000E+01 0. -1.
         -5    1    1    2    0  501 -0.42584056693E+03  0.13107116588E+03 -0.22684371500E+03  0.50000000000E+03  0.47000000000E+01 0.  1.
</event>
<event>
 4    1  0.4351282E-004  0.1000000E+04  0.7546771E-02  0.8684367E-01
         11   -1    0    0    0    0  0.00000000000E+00  0.00000000000E+00  0.50000000000E+03  0.50000000000E+03  0.00000000000E+00 0.  1.
        -11   -1    0    0    0    0 -0.00000000000E+00 -0.00000000000E+00 -0.50000000000E+03  0.50000000000E+03  0.00000000000E+00 0. -1.
          5    1    1    2  501    0  0.16821996322E+03  0.13531968108E+03  0.45096400952E+03  0.50000000000E+03  0.47000000000E+01 0.  1.
         -5    1    1    2    0  501 -0.16821996322E+03 -0.13531968108E+03 -0.45096400952E+03  0.50000000000E+03  0.47000000000E+01 0. -1.
</event>
<event>
 4    1  0.4351282E-004  0.1000000E+04  0.7546771E-02  0.8684367E-01
         11   -1    0    0    0    0  0.00000000000E+00  0.00000000000E+00  0.50000000000E+03  0.50000000000E+03  0.00000000000E+00 0. -1.
        -11   -1    0    0    0    0 -0.00000000000E+00 -0.00000000000E+00 -0.50000000000E+03  0.50000000000E+03  0.00000000000E+00 0.  1.
          5    1    1    2  501    0  0.25237842000E+03 -0.16485714464E+03  0.39887988791E+03  0.50000000000E+03  0.47000000000E+01 0. -1.
         -5    1    1    2    0  501 -0.25237842000E+03  0.16485714464E+03 -0.39887988791E+03  0.50000000000E+03  0.47000000000E+01 0.  1.
</event>
<event>
 4    1  0.4351282E-004  0.1000000E+04  0.7546771E-02  0.8684367E-01
         11   -1    0    0    0    0  0.00000000000E+00  0.00000000000E+00  0.50000000000E+03  0.50000000000E+03  0.00000000000E+00 0. -1.
        -11   -1    0    0    0    0 -0.00000000000E+00 -0.00000000000E+00 -0.50000000000E+03  0.50000000000E+03  0.00000000000E+00 0.  1.
          5    1    1    2  501    0 -0.26822676418E+02 -0.36061640013E+02  0.49795382532E+03  0.50000000000E+03  0.47000000000E+01 0. -1.
         -5    1    1    2    0  501  0.26822676418E+02  0.36061640013E+02 -0.49795382532E+03  0.50000000000E+03  0.47000000000E+01 0.  1.
</event>
<event>
 4    1  0.4351282E-004  0.1000000E+04  0.7546771E-02  0.8684367E-01
         11   -1    0    0    0    0  0.00000000000E+00  0.00000000000E+00  0.50000000000E+03  0.50000000000E+03  0.00000000000E+00 0. -1.
        -11   -1    0    0    0    0 -0.00000000000E+00 -0.00000000000E+00 -0.50000000000E+03  0.50000000000E+03  0.00000000000E+00 0.  1.
          5    1    1    2  501    0  0.21077766791E+02 -0.19425359183E+02  0.49915558012E+03  0.50000000000E+03  0.47000000000E+01 0. -1.
         -5    1    1    2    0  501 -0.21077766791E+02  0.19425359183E+02 -0.49915558012E+03  0.50000000000E+03  0.47000000000E+01 0.  1.
</event>
<event>
 4    1  0.4351282E-004  0.1000000E+04  0.7546771E-02  0.8684367E-01
         11   -1    0    0    0    0  0.00000000000E+00  0.00000000000E+00  0.50000000000E+03  0.50000000000E+03  0.00000000000E+00 0. -1.
        -11   -1    0    0    0    0 -0.00000000000E+00 -0.00000000000E+00 -0.50000000000E+03  0.50000000000E+03  0.00000000000E+00 0.  1.
          5    1    1    2  501    0  0.26667457061E+03 -0.41133362390E+03 -0.98322089262E+02  0.50000000000E+03  0.47000000000E+01 0. -1.
         -5    1    1    2    0  501 -0.26667457061E+03  0.41133362390E+03  0.98322089262E+02  0.50000000000E+03  0.47000000000E+01 0.  1.
</event>
<event>
 4    1  0.4351282E-004  0.1000000E+04  0.7546771E-02  0.8684367E-01
         11   -1    0    0    0    0  0.00000000000E+00  0.00000000000E+00  0.50000000000E+03  0.50000000000E+03  0.00000000000E+00 0. -1.
        -11   -1    0    0    0    0 -0.00000000000E+00 -0.00000000000E+00 -0.50000000000E+03  0.50000000000E+03  0.00000000000E+00 0.  1.
          5    1    1    2  501    0 -0.43006975244E+03  0.10788972889E+03  0.23103619724E+03  0.50000000000E+03  0.47000000000E+01 0. -1.
         -5    1    1    2    0  501  0.43006975244E+03 -0.10788972889E+03 -0.23103619724E+03  0.50000000000E+03  0.47000000000E+01 0.  1.
</event>
<event>
 4    1  0.4351282E-004  0.1000000E+04  0.7546771E-02  0.8684367E-01
         11   -1    0    0    0    0  0.00000000000E+00  0.00000000000E+00  0.50000000000E+03  0.50000000000E+03  0.00000000000E+00 0. -1.
        -11   -1    0    0    0    0 -0.00000000000E+00 -0.00000000000E+00 -0.50000000000E+03  0.50000000000E+03  0.00000000000E+00 0.  1.
          5    1    1    2  501    0 -0.16927407113E+03  0.34656129370E+03  0.31815007237E+03  0.50000000000E+03  0.47000000000E+01 0. -1.
         -5    1    1    2    0  501  0.16927407113E+03 -0.34656129370E+03 -0.31815007237E+03  0.50000000000E+03  0.47000000000E+01 0.  1.
</event>
<event>
 4    1  0.4351282E-004  0.1000000E+04  0.7546771E-02  0.8684367E-01
         11   -1    0    0    0    0  0.00000000000E+00  0.00000000000E+00  0.50000000000E+03  0.50000000000E+03  0.00000000000E+00 0. -1.
        -11   -1    0    0    0    0 -0.00000000000E+00 -0.00000000000E+00 -0.50000000000E+03  0.50000000000E+03  0.00000000000E+00 0.  1.
          5    1    1    2  501    0 -0.35652613963E+03  0.61935992585E+02  0.34500862972E+03  0.50000000000E+03  0.47000000000E+01 0. -1.
         -5    1    1    2    0  501  0.35652613963E+03 -0.61935992585E+02 -0.34500862972E+03  0.50000000000E+03  0.47000000000E+01 0.  1.
</event>
<event>
 4    1  0.4351282E-004  0.1000000E+04  0.7546771E-02  0.8684367E-01
         11   -1    0    0    0    0  0.00000000000E+00  0.00000000000E+00  0.50000000000E+03  0.50000000000E+03  0.00000000000E+00 0.  1.
        -11   -1    0    0    0    0 -0.00000000000E+00 -0.00000000000E+00 -0.50000000000E+03  0.50000000000E+03  0.00000000000E+00 0. -1.
          5    1    1    2  501    0 -0.27053599288E+03 -0.92823837415E+02  0.41008770009E+03  0.50000000000E+03  0.47000000000E+01 0.  1.
         -5    1    1    2    0  501  0.27053599288E+03  0.92823837415E+02 -0.41008770009E+03  0.50000000000E+03  0.47000000000E+01 0. -1.
</event>
<event>
 4    1  0.4351282E-004  0.1000000E+04  0.7546771E-02  0.8684367E-01
         11   -1    0    0    0    0  0.00000000000E+00  0.00000000000E+00  0.50000000000E+03  0.50000000000E+03  0.00000000000E+00 0. -1.
        -11   -1    0    0    0    0 -0.00000000000E+00 -0.00000000000E+00 -0.50000000000E+03  0.50000000000E+03  0.00000000000E+00 0.  1.
          5    1    1    2  501    0  0.31607828970E+03 -0.27283901692E+03  0.27501144635E+03  0.50000000000E+03  0.47000000000E+01 0. -1.
         -5    1    1    2    0  501 -0.31607828970E+03  0.27283901692E+03 -0.27501144635E+03  0.50000000000E+03  0.47000000000E+01 0.  1.
</event>
<event>
 4    1  0.4351282E-004  0.1000000E+04  0.7546771E-02  0.8684367E-01
         11   -1    0    0    0    0  0.00000000000E+00  0.00000000000E+00  0.50000000000E+03  0.50000000000E+03  0.00000000000E+00 0. -1.
        -11   -1    0    0    0    0 -0.00000000000E+00 -0.00000000000E+00 -0.50000000000E+03  0.50000000000E+03  0.00000000000E+00 0.  1.
          5    1    1    2  501    0  0.10632316022E+02 -0.49251733044E+03  0.85390532709E+02  0.50000000000E+03  0.47000000000E+01 0. -1.
         -5    1    1    2    0  501 -0.10632316022E+02  0.49251733044E+03 -0.85390532709E+02  0.50000000000E+03  0.47000000000E+01 0.  1.
</event>
<event>
 4    1  0.4351282E-004  0.1000000E+04  0.7546771E-02  0.8684367E-01
         11   -1    0    0    0    0  0.00000000000E+00  0.00000000000E+00  0.50000000000E+03  0.50000000000E+03  0.00000000000E+00 0.  1.
        -11   -1    0    0    0    0 -0.00000000000E+00 -0.00000000000E+00 -0.50000000000E+03  0.50000000000E+03  0.00000000000E+00 0. -1.
          5    1    1    2  501    0 -0.12261113296E+03  0.36276479649E+03  0.32147491738E+03  0.50000000000E+03  0.47000000000E+01 0.  1.
         -5    1    1    2    0  501  0.12261113296E+03 -0.36276479649E+03 -0.32147491738E+03  0.50000000000E+03  0.47000000000E+01 0. -1.
</event>
<event>
 4    1  0.4351282E-004  0.1000000E+04  0.7546771E-02  0.8684367E-01
         11   -1    0    0    0    0  0.00000000000E+00  0.00000000000E+00  0.50000000000E+03  0.50000000000E+03  0.00000000000E+00 0. -1.
        -11   -1    0    0    0    0 -0.00000000000E+00 -0.00000000000E+00 -0.50000000000E+03  0.50000000000E+03  0.00000000000E+00 0.  1.
          5    1    1    2  501    0  0.38638399422E+03 -0.17138705650E+03  0.26704268549E+03  0.50000000000E+03  0.47000000000E+01 0. -1.
         -5    1    1    2    0  501 -0.38638399422E+03  0.17138705650E+03 -0.26704268549E+03  0.50000000000E+03  0.47000000000E+01 0.  1.
</event>
<event>
 4    1  0.4351282E-004  0.1000000E+04  0.7546771E-02  0.8684367E-01
         11   -1    0    0    0    0  0.00000000000E+00  0.00000000000E+00  0.50000000000E+03  0.50000000000E+03  0.00000000000E+00 0.  1.
        -11   -1    0    0    0    0 -0.00000000000E+00 -0.00000000000E+00 -0.50000000000E+03  0.50000000000E+03  0.00000000000E+00 0. -1.
          5    1    1    2  501    0 -0.46139315097E+03  0.40375262395E+02 -0.18831916637E+03  0.50000000000E+03  0.47000000000E+01 0.  1.
         -5    1    1    2    0  501  0.46139315097E+03 -0.40375262395E+02  0.18831916637E+03  0.50000000000E+03  0.47000000000E+01 0. -1.
</event>
<event>
 4    1  0.4351282E-004  0.1000000E+04  0.7546771E-02  0.8684367E-01
         11   -1    0    0    0    0  0.00000000000E+00  0.00000000000E+00  0.50000000000E+03  0.50000000000E+03  0.00000000000E+00 0. -1.
        -11   -1    0    0    0    0 -0.00000000000E+00 -0.00000000000E+00 -0.50000000000E+03  0.50000000000E+03  0.00000000000E+00 0.  1.
          5    1    1    2  501    0 -0.42056321900E+03 -0.11485679684E+03  0.24477010652E+03  0.50000000000E+03  0.47000000000E+01 0. -1.
         -5    1    1    2    0  501  0.42056321900E+03  0.11485679684E+03 -0.24477010652E+03  0.50000000000E+03  0.47000000000E+01 0.  1.
</event>
<event>
 4    1  0.4351282E-004  0.1000000E+04  0.7546771E-02  0.8684367E-01
         11   -1    0    0    0    0  0.00000000000E+00  0.00000000000E+00  0.50000000000E+03  0.50000000000E+03  0.00000000000E+00 0.  1.
        -11   -1    0    0    0    0 -0.00000000000E+00 -0.00000000000E+00 -0.50000000000E+03  0.50000000000E+03  0.00000000000E+00 0. -1.
          5    1    1    2  501    0  0.11023554845E+03  0.47502846632E+03  0.11033580582E+03  0.50000000000E+03  0.47000000000E+01 0.  1.
         -5    1    1    2    0  501 -0.11023554845E+03 -0.47502846632E+03 -0.11033580582E+03  0.50000000000E+03  0.47000000000E+01 0. -1.
</event>
<event>
 4    1  0.4351282E-004  0.1000000E+04  0.7546771E-02  0.8684367E-01
         11   -1    0    0    0    0  0.00000000000E+00  0.00000000000E+00  0.50000000000E+03  0.50000000000E+03  0.00000000000E+00 0. -1.
        -11   -1    0    0    0    0 -0.00000000000E+00 -0.00000000000E+00 -0.50000000000E+03  0.50000000000E+03  0.00000000000E+00 0.  1.
          5    1    1    2  501    0 -0.15970385219E+03 -0.33350974205E+03  0.33651722326E+03  0.50000000000E+03  0.47000000000E+01 0. -1.
         -5    1    1    2    0  501  0.15970385219E+03  0.33350974205E+03 -0.33651722326E+03  0.50000000000E+03  0.47000000000E+01 0.  1.
</event>
<event>
 4    1  0.4351282E-004  0.1000000E+04  0.7546771E-02  0.8684367E-01
         11   -1    0    0    0    0  0.00000000000E+00  0.00000000000E+00  0.50000000000E+03  0.50000000000E+03  0.00000000000E+00 0. -1.
        -11   -1    0    0    0    0 -0.00000000000E+00 -0.00000000000E+00 -0.50000000000E+03  0.50000000000E+03  0.00000000000E+00 0.  1.
          5    1    1    2  501    0 -0.24568313549E+03 -0.23484319465E+03  0.36669657875E+03  0.50000000000E+03  0.47000000000E+01 0. -1.
         -5    1    1    2    0  501  0.24568313549E+03  0.23484319465E+03 -0.36669657875E+03  0.50000000000E+03  0.47000000000E+01 0.  1.
</event>
<event>
 4    1  0.4351282E-004  0.1000000E+04  0.7546771E-02  0.8684367E-01
         11   -1    0    0    0    0  0.00000000000E+00  0.00000000000E+00  0.50000000000E+03  0.50000000000E+03  0.00000000000E+00 0.  1.
        -11   -1    0    0    0    0 -0.00000000000E+00 -0.00000000000E+00 -0.50000000000E+03  0.50000000000E+03  0.00000000000E+00 0. -1.
          5    1    1    2  501    0  0.96660451706E+02 -0.43661453578E+03 -0.22361219604E+03  0.50000000000E+03  0.47000000000E+01 0.  1.
         -5    1    1    2    0  501 -0.96660451706E+02  0.43661453578E+03  0.22361219604E+03  0.50000000000E+03  0.47000000000E+01 0. -1.
</event>
<event>
 4    1  0.4351282E-004  0.1000000E+04  0.7546771E-02  0.8684367E-01
         11   -1    0    0    0    0  0.00000000000E+00  0.00000000000E+00  0.50000000000E+03  0.50000000000E+03  0.00000000000E+00 0. -1.
        -11   -1    0    0    0    0 -0.00000000000E+00 -0.00000000000E+00 -0.50000000000E+03  0.50000000000E+03  0.00000000000E+00 0.  1.
          5    1    1    2  501    0 -0.44534747062E+03  0.18178540441E+03  0.13637304409E+03  0.50000000000E+03  0.47000000000E+01 0. -1.
         -5    1    1    2    0  501  0.44534747062E+03 -0.18178540441E+03 -0.13637304409E+03  0.50000000000E+03  0.47000000000E+01 0.  1.
</event>
<event>
 4    1  0.4351282E-004  0.1000000E+04  0.7546771E-02  0.8684367E-01
         11   -1    0    0    0    0  0.00000000000E+00  0.00000000000E+00  0.50000000000E+03  0.50000000000E+03  0.00000000000E+00 0. -1.
        -11   -1    0    0    0    0 -0.00000000000E+00 -0.00000000000E+00 -0.50000000000E+03  0.50000000000E+03  0.00000000000E+00 0.  1.
          5    1    1    2  501    0  0.19736340772E+02 -0.48898009752E+03  0.10240532742E+03  0.50000000000E+03  0.47000000000E+01 0. -1.
         -5    1    1    2    0  501 -0.19736340772E+02  0.48898009752E+03 -0.10240532742E+03  0.50000000000E+03  0.47000000000E+01 0.  1.
</event>
<event>
 4    1  0.4351282E-004  0.1000000E+04  0.7546771E-02  0.8684367E-01
         11   -1    0    0    0    0  0.00000000000E+00  0.00000000000E+00  0.50000000000E+03  0.50000000000E+03  0.00000000000E+00 0.  1.
        -11   -1    0    0    0    0 -0.00000000000E+00 -0.00000000000E+00 -0.50000000000E+03  0.50000000000E+03  0.00000000000E+00 0. -1.
          5    1    1    2  501    0  0.22339468635E+03 -0.43017693463E+03 -0.12255826787E+03  0.50000000000E+03  0.47000000000E+01 0. -1.
         -5    1    1    2    0  501 -0.22339468635E+03  0.43017693463E+03  0.12255826787E+03  0.50000000000E+03  0.47000000000E+01 0.  1.
</event>
<event>
 4    1  0.4351282E-004  0.1000000E+04  0.7546771E-02  0.8684367E-01
         11   -1    0    0    0    0  0.00000000000E+00  0.00000000000E+00  0.50000000000E+03  0.50000000000E+03  0.00000000000E+00 0. -1.
        -11   -1    0    0    0    0 -0.00000000000E+00 -0.00000000000E+00 -0.50000000000E+03  0.50000000000E+03  0.00000000000E+00 0.  1.
          5    1    1    2  501    0 -0.31955442976E+03 -0.22389217778E+03  0.31262624513E+03  0.50000000000E+03  0.47000000000E+01 0. -1.
         -5    1    1    2    0  501  0.31955442976E+03  0.22389217778E+03 -0.31262624513E+03  0.50000000000E+03  0.47000000000E+01 0.  1.
</event>
<event>
 4    1  0.4351282E-004  0.1000000E+04  0.7546771E-02  0.8684367E-01
         11   -1    0    0    0    0  0.00000000000E+00  0.00000000000E+00  0.50000000000E+03  0.50000000000E+03  0.00000000000E+00 0. -1.
        -11   -1    0    0    0    0 -0.00000000000E+00 -0.00000000000E+00 -0.50000000000E+03  0.50000000000E+03  0.00000000000E+00 0.  1.
          5    1    1    2  501    0  0.23393794234E+02  0.48903905025E+03  0.10134815104E+03  0.50000000000E+03  0.47000000000E+01 0. -1.
         -5    1    1    2    0  501 -0.23393794234E+02 -0.48903905025E+03 -0.10134815104E+03  0.50000000000E+03  0.47000000000E+01 0.  1.
</event>
<event>
 4    1  0.4351282E-004  0.1000000E+04  0.7546771E-02  0.8684367E-01
         11   -1    0    0    0    0  0.00000000000E+00  0.00000000000E+00  0.50000000000E+03  0.50000000000E+03  0.00000000000E+00 0. -1.
        -11   -1    0    0    0    0 -0.00000000000E+00 -0.00000000000E+00 -0.50000000000E+03  0.50000000000E+03  0.00000000000E+00 0.  1.
          5    1    1    2  501    0  0.50712788174E+02 -0.48167070495E+03  0.12409454100E+03  0.50000000000E+03  0.47000000000E+01 0. -1.
         -5    1    1    2    0  501 -0.50712788174E+02  0.48167070495E+03 -0.12409454100E+03  0.50000000000E+03  0.47000000000E+01 0.  1.
</event>
<event>
 4    1  0.4351282E-004  0.1000000E+04  0.7546771E-02  0.8684367E-01
         11   -1    0    0    0    0  0.00000000000E+00  0.00000000000E+00  0.50000000000E+03  0.50000000000E+03  0.00000000000E+00 0. -1.
        -11   -1    0    0    0    0 -0.00000000000E+00 -0.00000000000E+00 -0.50000000000E+03  0.50000000000E+03  0.00000000000E+00 0.  1.
          5    1    1    2  501    0  0.13704566671E+03 -0.22367072373E+03  0.42563811223E+03  0.50000000000E+03  0.47000000000E+01 0. -1.
         -5    1    1    2    0  501 -0.13704566671E+03  0.22367072373E+03 -0.42563811223E+03  0.50000000000E+03  0.47000000000E+01 0.  1.
</event>
<event>
 4    1  0.4351282E-004  0.1000000E+04  0.7546771E-02  0.8684367E-01
         11   -1    0    0    0    0  0.00000000000E+00  0.00000000000E+00  0.50000000000E+03  0.50000000000E+03  0.00000000000E+00 0. -1.
        -11   -1    0    0    0    0 -0.00000000000E+00 -0.00000000000E+00 -0.50000000000E+03  0.50000000000E+03  0.00000000000E+00 0.  1.
          5    1    1    2  501    0 -0.32541784134E+02 -0.16498617805E+03  0.47084870536E+03  0.50000000000E+03  0.47000000000E+01 0. -1.
         -5    1    1    2    0  501  0.32541784134E+02  0.16498617805E+03 -0.47084870536E+03  0.50000000000E+03  0.47000000000E+01 0.  1.
</event>
<event>
 4    1  0.4351282E-004  0.1000000E+04  0.7546771E-02  0.8684367E-01
         11   -1    0    0    0    0  0.00000000000E+00  0.00000000000E+00  0.50000000000E+03  0.50000000000E+03  0.00000000000E+00 0.  1.
        -11   -1    0    0    0    0 -0.00000000000E+00 -0.00000000000E+00 -0.50000000000E+03  0.50000000000E+03  0.00000000000E+00 0. -1.
          5    1    1    2  501    0 -0.39754943603E+03 -0.24809607896E+02  0.30218676223E+03  0.50000000000E+03  0.47000000000E+01 0.  1.
         -5    1    1    2    0  501  0.39754943603E+03  0.24809607896E+02 -0.30218676223E+03  0.50000000000E+03  0.47000000000E+01 0. -1.
</event>
<event>
 4    1  0.4351282E-004  0.1000000E+04  0.7546771E-02  0.8684367E-01
         11   -1    0    0    0    0  0.00000000000E+00  0.00000000000E+00  0.50000000000E+03  0.50000000000E+03  0.00000000000E+00 0. -1.
        -11   -1    0    0    0    0 -0.00000000000E+00 -0.00000000000E+00 -0.50000000000E+03  0.50000000000E+03  0.00000000000E+00 0.  1.
          5    1    1    2  501    0  0.82239239822E+02 -0.49216167216E+03 -0.31488186585E+02  0.50000000000E+03  0.47000000000E+01 0.  1.
         -5    1    1    2    0  501 -0.82239239822E+02  0.49216167216E+03  0.31488186585E+02  0.50000000000E+03  0.47000000000E+01 0. -1.
</event>
<event>
 4    1  0.4351282E-004  0.1000000E+04  0.7546771E-02  0.8684367E-01
         11   -1    0    0    0    0  0.00000000000E+00  0.00000000000E+00  0.50000000000E+03  0.50000000000E+03  0.00000000000E+00 0. -1.
        -11   -1    0    0    0    0 -0.00000000000E+00 -0.00000000000E+00 -0.50000000000E+03  0.50000000000E+03  0.00000000000E+00 0.  1.
          5    1    1    2  501    0 -0.45730416982E+03  0.77745295441E+02  0.18656493588E+03  0.50000000000E+03  0.47000000000E+01 0. -1.
         -5    1    1    2    0  501  0.45730416982E+03 -0.77745295441E+02 -0.18656493588E+03  0.50000000000E+03  0.47000000000E+01 0.  1.
</event>
<event>
 4    1  0.4351282E-004  0.1000000E+04  0.7546771E-02  0.8684367E-01
         11   -1    0    0    0    0  0.00000000000E+00  0.00000000000E+00  0.50000000000E+03  0.50000000000E+03  0.00000000000E+00 0.  1.
        -11   -1    0    0    0    0 -0.00000000000E+00 -0.00000000000E+00 -0.50000000000E+03  0.50000000000E+03  0.00000000000E+00 0. -1.
          5    1    1    2  501    0  0.12886673709E+03 -0.27763066123E+03  0.39533844996E+03  0.50000000000E+03  0.47000000000E+01 0.  1.
         -5    1    1    2    0  501 -0.12886673709E+03  0.27763066123E+03 -0.39533844996E+03  0.50000000000E+03  0.47000000000E+01 0. -1.
</event>
<event>
 4    1  0.4351282E-004  0.1000000E+04  0.7546771E-02  0.8684367E-01
         11   -1    0    0    0    0  0.00000000000E+00  0.00000000000E+00  0.50000000000E+03  0.50000000000E+03  0.00000000000E+00 0. -1.
        -11   -1    0    0    0    0 -0.00000000000E+00 -0.00000000000E+00 -0.50000000000E+03  0.50000000000E+03  0.00000000000E+00 0.  1.
          5    1    1    2  501    0  0.21912318766E+03  0.16418758167E+02  0.44910284236E+03  0.50000000000E+03  0.47000000000E+01 0. -1.
         -5    1    1    2    0  501 -0.21912318766E+03 -0.16418758167E+02 -0.44910284236E+03  0.50000000000E+03  0.47000000000E+01 0.  1.
</event>
<event>
 4    1  0.4351282E-004  0.1000000E+04  0.7546771E-02  0.8684367E-01
         11   -1    0    0    0    0  0.00000000000E+00  0.00000000000E+00  0.50000000000E+03  0.50000000000E+03  0.00000000000E+00 0. -1.
        -11   -1    0    0    0    0 -0.00000000000E+00 -0.00000000000E+00 -0.50000000000E+03  0.50000000000E+03  0.00000000000E+00 0.  1.
          5    1    1    2  501    0  0.20052857701E+03  0.45313838063E+03  0.66571824353E+02  0.50000000000E+03  0.47000000000E+01 0. -1.
         -5    1    1    2    0  501 -0.20052857701E+03 -0.45313838063E+03 -0.66571824353E+02  0.50000000000E+03  0.47000000000E+01 0.  1.
</event>
<event>
 4    1  0.4351282E-004  0.1000000E+04  0.7546771E-02  0.8684367E-01
         11   -1    0    0    0    0  0.00000000000E+00  0.00000000000E+00  0.50000000000E+03  0.50000000000E+03  0.00000000000E+00 0.  1.
        -11   -1    0    0    0    0 -0.00000000000E+00 -0.00000000000E+00 -0.50000000000E+03  0.50000000000E+03  0.00000000000E+00 0. -1.
          5    1    1    2  501    0  0.13003536760E+03 -0.44239143045E+03  0.19328356225E+03  0.50000000000E+03  0.47000000000E+01 0.  1.
         -5    1    1    2    0  501 -0.13003536760E+03  0.44239143045E+03 -0.19328356225E+03  0.50000000000E+03  0.47000000000E+01 0. -1.
</event>
<event>
 4    1  0.4351282E-004  0.1000000E+04  0.7546771E-02  0.8684367E-01
         11   -1    0    0    0    0  0.00000000000E+00  0.00000000000E+00  0.50000000000E+03  0.50000000000E+03  0.00000000000E+00 0. -1.
        -11   -1    0    0    0    0 -0.00000000000E+00 -0.00000000000E+00 -0.50000000000E+03  0.50000000000E+03  0.00000000000E+00 0.  1.
          5    1    1    2  501    0 -0.23614913680E+03  0.23172193250E+03 -0.37485522697E+03  0.50000000000E+03  0.47000000000E+01 0. -1.
         -5    1    1    2    0  501  0.23614913680E+03 -0.23172193250E+03  0.37485522697E+03  0.50000000000E+03  0.47000000000E+01 0.  1.
</event>
<event>
 4    1  0.4351282E-004  0.1000000E+04  0.7546771E-02  0.8684367E-01
         11   -1    0    0    0    0  0.00000000000E+00  0.00000000000E+00  0.50000000000E+03  0.50000000000E+03  0.00000000000E+00 0. -1.
        -11   -1    0    0    0    0 -0.00000000000E+00 -0.00000000000E+00 -0.50000000000E+03  0.50000000000E+03  0.00000000000E+00 0.  1.
          5    1    1    2  501    0 -0.31247728432E+03  0.38991707222E+03  0.17335904182E+02  0.50000000000E+03  0.47000000000E+01 0.  1.
         -5    1    1    2    0  501  0.31247728432E+03 -0.38991707222E+03 -0.17335904182E+02  0.50000000000E+03  0.47000000000E+01 0. -1.
</event>
<event>
 4    1  0.4351282E-004  0.1000000E+04  0.7546771E-02  0.8684367E-01
         11   -1    0    0    0    0  0.00000000000E+00  0.00000000000E+00  0.50000000000E+03  0.50000000000E+03  0.00000000000E+00 0. -1.
        -11   -1    0    0    0    0 -0.00000000000E+00 -0.00000000000E+00 -0.50000000000E+03  0.50000000000E+03  0.00000000000E+00 0.  1.
          5    1    1    2  501    0 -0.38976448464E+03 -0.20003085361E+03  0.24093404515E+03  0.50000000000E+03  0.47000000000E+01 0. -1.
         -5    1    1    2    0  501  0.38976448464E+03  0.20003085361E+03 -0.24093404515E+03  0.50000000000E+03  0.47000000000E+01 0.  1.
</event>
<event>
 4    1  0.4351282E-004  0.1000000E+04  0.7546771E-02  0.8684367E-01
         11   -1    0    0    0    0  0.00000000000E+00  0.00000000000E+00  0.50000000000E+03  0.50000000000E+03  0.00000000000E+00 0. -1.
        -11   -1    0    0    0    0 -0.00000000000E+00 -0.00000000000E+00 -0.50000000000E+03  0.50000000000E+03  0.00000000000E+00 0.  1.
          5    1    1    2  501    0  0.38293017623E+03  0.31920988984E+03 -0.38045188359E+02  0.50000000000E+03  0.47000000000E+01 0. -1.
         -5    1    1    2    0  501 -0.38293017623E+03 -0.31920988984E+03  0.38045188359E+02  0.50000000000E+03  0.47000000000E+01 0.  1.
</event>
<event>
 4    1  0.4351282E-004  0.1000000E+04  0.7546771E-02  0.8684367E-01
         11   -1    0    0    0    0  0.00000000000E+00  0.00000000000E+00  0.50000000000E+03  0.50000000000E+03  0.00000000000E+00 0. -1.
        -11   -1    0    0    0    0 -0.00000000000E+00 -0.00000000000E+00 -0.50000000000E+03  0.50000000000E+03  0.00000000000E+00 0.  1.
          5    1    1    2  501    0 -0.10780617121E+03 -0.29225420757E+03  0.39107955406E+03  0.50000000000E+03  0.47000000000E+01 0. -1.
         -5    1    1    2    0  501  0.10780617121E+03  0.29225420757E+03 -0.39107955406E+03  0.50000000000E+03  0.47000000000E+01 0.  1.
</event>
<event>
 4    1  0.4351282E-004  0.1000000E+04  0.7546771E-02  0.8684367E-01
         11   -1    0    0    0    0  0.00000000000E+00  0.00000000000E+00  0.50000000000E+03  0.50000000000E+03  0.00000000000E+00 0.  1.
        -11   -1    0    0    0    0 -0.00000000000E+00 -0.00000000000E+00 -0.50000000000E+03  0.50000000000E+03  0.00000000000E+00 0. -1.
          5    1    1    2  501    0  0.38054947193E+03  0.27220438287E+02  0.32313937729E+03  0.50000000000E+03  0.47000000000E+01 0.  1.
         -5    1    1    2    0  501 -0.38054947193E+03 -0.27220438287E+02 -0.32313937729E+03  0.50000000000E+03  0.47000000000E+01 0. -1.
</event>
<event>
 4    1  0.4351282E-004  0.1000000E+04  0.7546771E-02  0.8684367E-01
         11   -1    0    0    0    0  0.00000000000E+00  0.00000000000E+00  0.50000000000E+03  0.50000000000E+03  0.00000000000E+00 0. -1.
        -11   -1    0    0    0    0 -0.00000000000E+00 -0.00000000000E+00 -0.50000000000E+03  0.50000000000E+03  0.00000000000E+00 0.  1.
          5    1    1    2  501    0 -0.35676857882E+02 -0.73949300505E+02  0.49319019938E+03  0.50000000000E+03  0.47000000000E+01 0. -1.
         -5    1    1    2    0  501  0.35676857882E+02  0.73949300505E+02 -0.49319019938E+03  0.50000000000E+03  0.47000000000E+01 0.  1.
</event>
<event>
 4    1  0.4351282E-004  0.1000000E+04  0.7546771E-02  0.8684367E-01
         11   -1    0    0    0    0  0.00000000000E+00  0.00000000000E+00  0.50000000000E+03  0.50000000000E+03  0.00000000000E+00 0. -1.
        -11   -1    0    0    0    0 -0.00000000000E+00 -0.00000000000E+00 -0.50000000000E+03  0.50000000000E+03  0.00000000000E+00 0.  1.
          5    1    1    2  501    0  0.44756043710E+03  0.22158425411E+03 -0.23832403815E+02  0.50000000000E+03  0.47000000000E+01 0. -1.
         -5    1    1    2    0  501 -0.44756043710E+03 -0.22158425411E+03  0.23832403815E+02  0.50000000000E+03  0.47000000000E+01 0.  1.
</event>
<event>
 4    1  0.4351282E-004  0.1000000E+04  0.7546771E-02  0.8684367E-01
         11   -1    0    0    0    0  0.00000000000E+00  0.00000000000E+00  0.50000000000E+03  0.50000000000E+03  0.00000000000E+00 0. -1.
        -11   -1    0    0    0    0 -0.00000000000E+00 -0.00000000000E+00 -0.50000000000E+03  0.50000000000E+03  0.00000000000E+00 0.  1.
          5    1    1    2  501    0  0.35371744118E+03 -0.73614385586E+02  0.34560498266E+03  0.50000000000E+03  0.47000000000E+01 0. -1.
         -5    1    1    2    0  501 -0.35371744118E+03  0.73614385586E+02 -0.34560498266E+03  0.50000000000E+03  0.47000000000E+01 0.  1.
</event>
<event>
 4    1  0.4351282E-004  0.1000000E+04  0.7546771E-02  0.8684367E-01
         11   -1    0    0    0    0  0.00000000000E+00  0.00000000000E+00  0.50000000000E+03  0.50000000000E+03  0.00000000000E+00 0. -1.
        -11   -1    0    0    0    0 -0.00000000000E+00 -0.00000000000E+00 -0.50000000000E+03  0.50000000000E+03  0.00000000000E+00 0.  1.
          5    1    1    2  501    0  0.15099294225E+03  0.46166894573E+03  0.11849399115E+03  0.50000000000E+03  0.47000000000E+01 0. -1.
         -5    1    1    2    0  501 -0.15099294225E+03 -0.46166894573E+03 -0.11849399115E+03  0.50000000000E+03  0.47000000000E+01 0.  1.
</event>
<event>
 4    1  0.4351282E-004  0.1000000E+04  0.7546771E-02  0.8684367E-01
         11   -1    0    0    0    0  0.00000000000E+00  0.00000000000E+00  0.50000000000E+03  0.50000000000E+03  0.00000000000E+00 0. -1.
        -11   -1    0    0    0    0 -0.00000000000E+00 -0.00000000000E+00 -0.50000000000E+03  0.50000000000E+03  0.00000000000E+00 0.  1.
          5    1    1    2  501    0  0.64378908292E+02  0.21863647148E+03  0.44500714545E+03  0.50000000000E+03  0.47000000000E+01 0. -1.
         -5    1    1    2    0  501 -0.64378908292E+02 -0.21863647148E+03 -0.44500714545E+03  0.50000000000E+03  0.47000000000E+01 0.  1.
</event>
<event>
 4    1  0.4351282E-004  0.1000000E+04  0.7546771E-02  0.8684367E-01
         11   -1    0    0    0    0  0.00000000000E+00  0.00000000000E+00  0.50000000000E+03  0.50000000000E+03  0.00000000000E+00 0. -1.
        -11   -1    0    0    0    0 -0.00000000000E+00 -0.00000000000E+00 -0.50000000000E+03  0.50000000000E+03  0.00000000000E+00 0.  1.
          5    1    1    2  501    0  0.47300697116E+03  0.99260888971E+02  0.12802183859E+03  0.50000000000E+03  0.47000000000E+01 0. -1.
         -5    1    1    2    0  501 -0.47300697116E+03 -0.99260888971E+02 -0.12802183859E+03  0.50000000000E+03  0.47000000000E+01 0.  1.
</event>
<event>
 4    1  0.4351282E-004  0.1000000E+04  0.7546771E-02  0.8684367E-01
         11   -1    0    0    0    0  0.00000000000E+00  0.00000000000E+00  0.50000000000E+03  0.50000000000E+03  0.00000000000E+00 0. -1.
        -11   -1    0    0    0    0 -0.00000000000E+00 -0.00000000000E+00 -0.50000000000E+03  0.50000000000E+03  0.00000000000E+00 0.  1.
          5    1    1    2  501    0  0.74856269476E+02 -0.30650374563E+03  0.38785293970E+03  0.50000000000E+03  0.47000000000E+01 0. -1.
         -5    1    1    2    0  501 -0.74856269476E+02  0.30650374563E+03 -0.38785293970E+03  0.50000000000E+03  0.47000000000E+01 0.  1.
</event>
<event>
 4    1  0.4351282E-004  0.1000000E+04  0.7546771E-02  0.8684367E-01
         11   -1    0    0    0    0  0.00000000000E+00  0.00000000000E+00  0.50000000000E+03  0.50000000000E+03  0.00000000000E+00 0. -1.
        -11   -1    0    0    0    0 -0.00000000000E+00 -0.00000000000E+00 -0.50000000000E+03  0.50000000000E+03  0.00000000000E+00 0.  1.
          5    1    1    2  501    0 -0.14826388234E+03 -0.67145350728E+02  0.47274436334E+03  0.50000000000E+03  0.47000000000E+01 0. -1.
         -5    1    1    2    0  501  0.14826388234E+03  0.67145350728E+02 -0.47274436334E+03  0.50000000000E+03  0.47000000000E+01 0.  1.
</event>
<event>
 4    1  0.4351282E-004  0.1000000E+04  0.7546771E-02  0.8684367E-01
         11   -1    0    0    0    0  0.00000000000E+00  0.00000000000E+00  0.50000000000E+03  0.50000000000E+03  0.00000000000E+00 0. -1.
        -11   -1    0    0    0    0 -0.00000000000E+00 -0.00000000000E+00 -0.50000000000E+03  0.50000000000E+03  0.00000000000E+00 0.  1.
          5    1    1    2  501    0  0.15557523935E+03 -0.15244711992E+03  0.45003792121E+03  0.50000000000E+03  0.47000000000E+01 0. -1.
         -5    1    1    2    0  501 -0.15557523935E+03  0.15244711992E+03 -0.45003792121E+03  0.50000000000E+03  0.47000000000E+01 0.  1.
</event>
<event>
 4    1  0.4351282E-004  0.1000000E+04  0.7546771E-02  0.8684367E-01
         11   -1    0    0    0    0  0.00000000000E+00  0.00000000000E+00  0.50000000000E+03  0.50000000000E+03  0.00000000000E+00 0. -1.
        -11   -1    0    0    0    0 -0.00000000000E+00 -0.00000000000E+00 -0.50000000000E+03  0.50000000000E+03  0.00000000000E+00 0.  1.
          5    1    1    2  501    0 -0.44798683037E+03 -0.13032750951E+03  0.17972325972E+03  0.50000000000E+03  0.47000000000E+01 0. -1.
         -5    1    1    2    0  501  0.44798683037E+03  0.13032750951E+03 -0.17972325972E+03  0.50000000000E+03  0.47000000000E+01 0.  1.
</event>
<event>
 4    1  0.4351282E-004  0.1000000E+04  0.7546771E-02  0.8684367E-01
         11   -1    0    0    0    0  0.00000000000E+00  0.00000000000E+00  0.50000000000E+03  0.50000000000E+03  0.00000000000E+00 0. -1.
        -11   -1    0    0    0    0 -0.00000000000E+00 -0.00000000000E+00 -0.50000000000E+03  0.50000000000E+03  0.00000000000E+00 0.  1.
          5    1    1    2  501    0 -0.26017302253E+03 -0.41571224747E+03  0.97320273601E+02  0.50000000000E+03  0.47000000000E+01 0. -1.
         -5    1    1    2    0  501  0.26017302253E+03  0.41571224747E+03 -0.97320273601E+02  0.50000000000E+03  0.47000000000E+01 0.  1.
</event>
<event>
 4    1  0.4351282E-004  0.1000000E+04  0.7546771E-02  0.8684367E-01
         11   -1    0    0    0    0  0.00000000000E+00  0.00000000000E+00  0.50000000000E+03  0.50000000000E+03  0.00000000000E+00 0. -1.
        -11   -1    0    0    0    0 -0.00000000000E+00 -0.00000000000E+00 -0.50000000000E+03  0.50000000000E+03  0.00000000000E+00 0.  1.
          5    1    1    2  501    0 -0.35486813948E+02 -0.67151725711E+02  0.49417531481E+03  0.50000000000E+03  0.47000000000E+01 0. -1.
         -5    1    1    2    0  501  0.35486813948E+02  0.67151725711E+02 -0.49417531481E+03  0.50000000000E+03  0.47000000000E+01 0.  1.
</event>
<event>
 4    1  0.4351282E-004  0.1000000E+04  0.7546771E-02  0.8684367E-01
         11   -1    0    0    0    0  0.00000000000E+00  0.00000000000E+00  0.50000000000E+03  0.50000000000E+03  0.00000000000E+00 0. -1.
        -11   -1    0    0    0    0 -0.00000000000E+00 -0.00000000000E+00 -0.50000000000E+03  0.50000000000E+03  0.00000000000E+00 0.  1.
          5    1    1    2  501    0 -0.30935116895E+03  0.25379464952E+03  0.29977998623E+03  0.50000000000E+03  0.47000000000E+01 0. -1.
         -5    1    1    2    0  501  0.30935116895E+03 -0.25379464952E+03 -0.29977998623E+03  0.50000000000E+03  0.47000000000E+01 0.  1.
</event>
<event>
 4    1  0.4351282E-004  0.1000000E+04  0.7546771E-02  0.8684367E-01
         11   -1    0    0    0    0  0.00000000000E+00  0.00000000000E+00  0.50000000000E+03  0.50000000000E+03  0.00000000000E+00 0. -1.
        -11   -1    0    0    0    0 -0.00000000000E+00 -0.00000000000E+00 -0.50000000000E+03  0.50000000000E+03  0.00000000000E+00 0.  1.
          5    1    1    2  501    0  0.41091802632E+03 -0.27826848479E+03  0.60753074147E+02  0.50000000000E+03  0.47000000000E+01 0. -1.
         -5    1    1    2    0  501 -0.41091802632E+03  0.27826848479E+03 -0.60753074147E+02  0.50000000000E+03  0.47000000000E+01 0.  1.
</event>
<event>
 4    1  0.4351282E-004  0.1000000E+04  0.7546771E-02  0.8684367E-01
         11   -1    0    0    0    0  0.00000000000E+00  0.00000000000E+00  0.50000000000E+03  0.50000000000E+03  0.00000000000E+00 0.  1.
        -11   -1    0    0    0    0 -0.00000000000E+00 -0.00000000000E+00 -0.50000000000E+03  0.50000000000E+03  0.00000000000E+00 0. -1.
          5    1    1    2  501    0 -0.32596308181E+03 -0.32730823707E+03 -0.19129897346E+03  0.50000000000E+03  0.47000000000E+01 0. -1.
         -5    1    1    2    0  501  0.32596308181E+03  0.32730823707E+03  0.19129897346E+03  0.50000000000E+03  0.47000000000E+01 0.  1.
</event>
<event>
 4    1  0.4351282E-004  0.1000000E+04  0.7546771E-02  0.8684367E-01
         11   -1    0    0    0    0  0.00000000000E+00  0.00000000000E+00  0.50000000000E+03  0.50000000000E+03  0.00000000000E+00 0. -1.
        -11   -1    0    0    0    0 -0.00000000000E+00 -0.00000000000E+00 -0.50000000000E+03  0.50000000000E+03  0.00000000000E+00 0.  1.
          5    1    1    2  501    0  0.22115938280E+03 -0.11716727941E+03  0.43282590730E+03  0.50000000000E+03  0.47000000000E+01 0. -1.
         -5    1    1    2    0  501 -0.22115938280E+03  0.11716727941E+03 -0.43282590730E+03  0.50000000000E+03  0.47000000000E+01 0.  1.
</event>
<event>
 4    1  0.4351282E-004  0.1000000E+04  0.7546771E-02  0.8684367E-01
         11   -1    0    0    0    0  0.00000000000E+00  0.00000000000E+00  0.50000000000E+03  0.50000000000E+03  0.00000000000E+00 0. -1.
        -11   -1    0    0    0    0 -0.00000000000E+00 -0.00000000000E+00 -0.50000000000E+03  0.50000000000E+03  0.00000000000E+00 0.  1.
          5    1    1    2  501    0  0.23241869995E+03  0.44001492567E+03  0.48438859437E+02  0.50000000000E+03  0.47000000000E+01 0. -1.
         -5    1    1    2    0  501 -0.23241869995E+03 -0.44001492567E+03 -0.48438859437E+02  0.50000000000E+03  0.47000000000E+01 0.  1.
</event>
<event>
 4    1  0.4351282E-004  0.1000000E+04  0.7546771E-02  0.8684367E-01
         11   -1    0    0    0    0  0.00000000000E+00  0.00000000000E+00  0.50000000000E+03  0.50000000000E+03  0.00000000000E+00 0. -1.
        -11   -1    0    0    0    0 -0.00000000000E+00 -0.00000000000E+00 -0.50000000000E+03  0.50000000000E+03  0.00000000000E+00 0.  1.
          5    1    1    2  501    0  0.25798018182E+03 -0.32224966450E+03  0.28209801403E+03  0.50000000000E+03  0.47000000000E+01 0. -1.
         -5    1    1    2    0  501 -0.25798018182E+03  0.32224966450E+03 -0.28209801403E+03  0.50000000000E+03  0.47000000000E+01 0.  1.
</event>
<event>
 4    1  0.4351282E-004  0.1000000E+04  0.7546771E-02  0.8684367E-01
         11   -1    0    0    0    0  0.00000000000E+00  0.00000000000E+00  0.50000000000E+03  0.50000000000E+03  0.00000000000E+00 0. -1.
        -11   -1    0    0    0    0 -0.00000000000E+00 -0.00000000000E+00 -0.50000000000E+03  0.50000000000E+03  0.00000000000E+00 0.  1.
          5    1    1    2  501    0 -0.22350736245E+03 -0.31131967999E+03  0.32109566453E+03  0.50000000000E+03  0.47000000000E+01 0. -1.
         -5    1    1    2    0  501  0.22350736245E+03  0.31131967999E+03 -0.32109566453E+03  0.50000000000E+03  0.47000000000E+01 0.  1.
</event>
<event>
 4    1  0.4351282E-004  0.1000000E+04  0.7546771E-02  0.8684367E-01
         11   -1    0    0    0    0  0.00000000000E+00  0.00000000000E+00  0.50000000000E+03  0.50000000000E+03  0.00000000000E+00 0. -1.
        -11   -1    0    0    0    0 -0.00000000000E+00 -0.00000000000E+00 -0.50000000000E+03  0.50000000000E+03  0.00000000000E+00 0.  1.
          5    1    1    2  501    0 -0.30421136387E+03  0.39315614202E+03  0.53493963081E+02  0.50000000000E+03  0.47000000000E+01 0. -1.
         -5    1    1    2    0  501  0.30421136387E+03 -0.39315614202E+03 -0.53493963081E+02  0.50000000000E+03  0.47000000000E+01 0.  1.
</event>
<event>
 4    1  0.4351282E-004  0.1000000E+04  0.7546771E-02  0.8684367E-01
         11   -1    0    0    0    0  0.00000000000E+00  0.00000000000E+00  0.50000000000E+03  0.50000000000E+03  0.00000000000E+00 0. -1.
        -11   -1    0    0    0    0 -0.00000000000E+00 -0.00000000000E+00 -0.50000000000E+03  0.50000000000E+03  0.00000000000E+00 0.  1.
          5    1    1    2  501    0  0.79301538480E+02  0.63522501494E+02  0.48954475566E+03  0.50000000000E+03  0.47000000000E+01 0. -1.
         -5    1    1    2    0  501 -0.79301538480E+02 -0.63522501494E+02 -0.48954475566E+03  0.50000000000E+03  0.47000000000E+01 0.  1.
</event>
<event>
 4    1  0.4351282E-004  0.1000000E+04  0.7546771E-02  0.8684367E-01
         11   -1    0    0    0    0  0.00000000000E+00  0.00000000000E+00  0.50000000000E+03  0.50000000000E+03  0.00000000000E+00 0. -1.
        -11   -1    0    0    0    0 -0.00000000000E+00 -0.00000000000E+00 -0.50000000000E+03  0.50000000000E+03  0.00000000000E+00 0.  1.
          5    1    1    2  501    0  0.30033665294E+03  0.27918079026E+03  0.28606623577E+03  0.50000000000E+03  0.47000000000E+01 0. -1.
         -5    1    1    2    0  501 -0.30033665294E+03 -0.27918079026E+03 -0.28606623577E+03  0.50000000000E+03  0.47000000000E+01 0.  1.
</event>
<event>
 4    1  0.4351282E-004  0.1000000E+04  0.7546771E-02  0.8684367E-01
         11   -1    0    0    0    0  0.00000000000E+00  0.00000000000E+00  0.50000000000E+03  0.50000000000E+03  0.00000000000E+00 0. -1.
        -11   -1    0    0    0    0 -0.00000000000E+00 -0.00000000000E+00 -0.50000000000E+03  0.50000000000E+03  0.00000000000E+00 0.  1.
          5    1    1    2  501    0 -0.34587337288E+03 -0.34864814280E+02  0.35935214576E+03  0.50000000000E+03  0.47000000000E+01 0. -1.
         -5    1    1    2    0  501  0.34587337288E+03  0.34864814280E+02 -0.35935214576E+03  0.50000000000E+03  0.47000000000E+01 0.  1.
</event>
<event>
 4    1  0.4351282E-004  0.1000000E+04  0.7546771E-02  0.8684367E-01
         11   -1    0    0    0    0  0.00000000000E+00  0.00000000000E+00  0.50000000000E+03  0.50000000000E+03  0.00000000000E+00 0. -1.
        -11   -1    0    0    0    0 -0.00000000000E+00 -0.00000000000E+00 -0.50000000000E+03  0.50000000000E+03  0.00000000000E+00 0.  1.
          5    1    1    2  501    0  0.41442968243E+03 -0.17166809035E+03  0.22080764270E+03  0.50000000000E+03  0.47000000000E+01 0. -1.
         -5    1    1    2    0  501 -0.41442968243E+03  0.17166809035E+03 -0.22080764270E+03  0.50000000000E+03  0.47000000000E+01 0.  1.
</event>
<event>
 4    1  0.4351282E-004  0.1000000E+04  0.7546771E-02  0.8684367E-01
         11   -1    0    0    0    0  0.00000000000E+00  0.00000000000E+00  0.50000000000E+03  0.50000000000E+03  0.00000000000E+00 0. -1.
        -11   -1    0    0    0    0 -0.00000000000E+00 -0.00000000000E+00 -0.50000000000E+03  0.50000000000E+03  0.00000000000E+00 0.  1.
          5    1    1    2  501    0 -0.13274789875E+03  0.24020578378E+03  0.41791995264E+03  0.50000000000E+03  0.47000000000E+01 0. -1.
         -5    1    1    2    0  501  0.13274789875E+03 -0.24020578378E+03 -0.41791995264E+03  0.50000000000E+03  0.47000000000E+01 0.  1.
</event>
<event>
 4    1  0.4351282E-004  0.1000000E+04  0.7546771E-02  0.8684367E-01
         11   -1    0    0    0    0  0.00000000000E+00  0.00000000000E+00  0.50000000000E+03  0.50000000000E+03  0.00000000000E+00 0. -1.
        -11   -1    0    0    0    0 -0.00000000000E+00 -0.00000000000E+00 -0.50000000000E+03  0.50000000000E+03  0.00000000000E+00 0.  1.
          5    1    1    2  501    0  0.58907647637E+02  0.19747074265E+03  0.45553606317E+03  0.50000000000E+03  0.47000000000E+01 0. -1.
         -5    1    1    2    0  501 -0.58907647637E+02 -0.19747074265E+03 -0.45553606317E+03  0.50000000000E+03  0.47000000000E+01 0.  1.
</event>
<event>
 4    1  0.4351282E-004  0.1000000E+04  0.7546771E-02  0.8684367E-01
         11   -1    0    0    0    0  0.00000000000E+00  0.00000000000E+00  0.50000000000E+03  0.50000000000E+03  0.00000000000E+00 0. -1.
        -11   -1    0    0    0    0 -0.00000000000E+00 -0.00000000000E+00 -0.50000000000E+03  0.50000000000E+03  0.00000000000E+00 0.  1.
          5    1    1    2  501    0  0.44015962352E+03 -0.23345520909E+03  0.41666307432E+02  0.50000000000E+03  0.47000000000E+01 0. -1.
         -5    1    1    2    0  501 -0.44015962352E+03  0.23345520909E+03 -0.41666307432E+02  0.50000000000E+03  0.47000000000E+01 0.  1.
</event>
<event>
 4    1  0.4351282E-004  0.1000000E+04  0.7546771E-02  0.8684367E-01
         11   -1    0    0    0    0  0.00000000000E+00  0.00000000000E+00  0.50000000000E+03  0.50000000000E+03  0.00000000000E+00 0. -1.
        -11   -1    0    0    0    0 -0.00000000000E+00 -0.00000000000E+00 -0.50000000000E+03  0.50000000000E+03  0.00000000000E+00 0.  1.
          5    1    1    2  501    0  0.13196815370E+03  0.22211589527E+03  0.42805005020E+03  0.50000000000E+03  0.47000000000E+01 0. -1.
         -5    1    1    2    0  501 -0.13196815370E+03 -0.22211589527E+03 -0.42805005020E+03  0.50000000000E+03  0.47000000000E+01 0.  1.
</event>
<event>
 4    1  0.4351282E-004  0.1000000E+04  0.7546771E-02  0.8684367E-01
         11   -1    0    0    0    0  0.00000000000E+00  0.00000000000E+00  0.50000000000E+03  0.50000000000E+03  0.00000000000E+00 0. -1.
        -11   -1    0    0    0    0 -0.00000000000E+00 -0.00000000000E+00 -0.50000000000E+03  0.50000000000E+03  0.00000000000E+00 0.  1.
          5    1    1    2  501    0  0.18025696522E+02 -0.30042413721E+03  0.39924719416E+03  0.50000000000E+03  0.47000000000E+01 0. -1.
         -5    1    1    2    0  501 -0.18025696522E+02  0.30042413721E+03 -0.39924719416E+03  0.50000000000E+03  0.47000000000E+01 0.  1.
</event>
<event>
 4    1  0.4351282E-004  0.1000000E+04  0.7546771E-02  0.8684367E-01
         11   -1    0    0    0    0  0.00000000000E+00  0.00000000000E+00  0.50000000000E+03  0.50000000000E+03  0.00000000000E+00 0. -1.
        -11   -1    0    0    0    0 -0.00000000000E+00 -0.00000000000E+00 -0.50000000000E+03  0.50000000000E+03  0.00000000000E+00 0.  1.
          5    1    1    2  501    0 -0.17205663124E+03 -0.23114364260E+03  0.40859153458E+03  0.50000000000E+03  0.47000000000E+01 0. -1.
         -5    1    1    2    0  501  0.17205663124E+03  0.23114364260E+03 -0.40859153458E+03  0.50000000000E+03  0.47000000000E+01 0.  1.
</event>
<event>
 4    1  0.4351282E-004  0.1000000E+04  0.7546771E-02  0.8684367E-01
         11   -1    0    0    0    0  0.00000000000E+00  0.00000000000E+00  0.50000000000E+03  0.50000000000E+03  0.00000000000E+00 0. -1.
        -11   -1    0    0    0    0 -0.00000000000E+00 -0.00000000000E+00 -0.50000000000E+03  0.50000000000E+03  0.00000000000E+00 0.  1.
          5    1    1    2  501    0 -0.33974345812E+03  0.36254317683E+03  0.55809834228E+02  0.50000000000E+03  0.47000000000E+01 0. -1.
         -5    1    1    2    0  501  0.33974345812E+03 -0.36254317683E+03 -0.55809834228E+02  0.50000000000E+03  0.47000000000E+01 0.  1.
</event>
<event>
 4    1  0.4351282E-004  0.1000000E+04  0.7546771E-02  0.8684367E-01
         11   -1    0    0    0    0  0.00000000000E+00  0.00000000000E+00  0.50000000000E+03  0.50000000000E+03  0.00000000000E+00 0. -1.
        -11   -1    0    0    0    0 -0.00000000000E+00 -0.00000000000E+00 -0.50000000000E+03  0.50000000000E+03  0.00000000000E+00 0.  1.
          5    1    1    2  501    0  0.19697479643E+03  0.18825163534E+03  0.41921374186E+03  0.50000000000E+03  0.47000000000E+01 0. -1.
         -5    1    1    2    0  501 -0.19697479643E+03 -0.18825163534E+03 -0.41921374186E+03  0.50000000000E+03  0.47000000000E+01 0.  1.
</event>
<event>
 4    1  0.4351282E-004  0.1000000E+04  0.7546771E-02  0.8684367E-01
         11   -1    0    0    0    0  0.00000000000E+00  0.00000000000E+00  0.50000000000E+03  0.50000000000E+03  0.00000000000E+00 0. -1.
        -11   -1    0    0    0    0 -0.00000000000E+00 -0.00000000000E+00 -0.50000000000E+03  0.50000000000E+03  0.00000000000E+00 0.  1.
          5    1    1    2  501    0 -0.20000803941E+02 -0.13745579393E+03  0.48029551586E+03  0.50000000000E+03  0.47000000000E+01 0. -1.
         -5    1    1    2    0  501  0.20000803941E+02  0.13745579393E+03 -0.48029551586E+03  0.50000000000E+03  0.47000000000E+01 0.  1.
</event>
<event>
 4    1  0.4351282E-004  0.1000000E+04  0.7546771E-02  0.8684367E-01
         11   -1    0    0    0    0  0.00000000000E+00  0.00000000000E+00  0.50000000000E+03  0.50000000000E+03  0.00000000000E+00 0. -1.
        -11   -1    0    0    0    0 -0.00000000000E+00 -0.00000000000E+00 -0.50000000000E+03  0.50000000000E+03  0.00000000000E+00 0.  1.
          5    1    1    2  501    0  0.18774014839E+03 -0.26498496598E+03  0.38015064709E+03  0.50000000000E+03  0.47000000000E+01 0. -1.
         -5    1    1    2    0  501 -0.18774014839E+03  0.26498496598E+03 -0.38015064709E+03  0.50000000000E+03  0.47000000000E+01 0.  1.
</event>
<event>
 4    1  0.4351282E-004  0.1000000E+04  0.7546771E-02  0.8684367E-01
         11   -1    0    0    0    0  0.00000000000E+00  0.00000000000E+00  0.50000000000E+03  0.50000000000E+03  0.00000000000E+00 0. -1.
        -11   -1    0    0    0    0 -0.00000000000E+00 -0.00000000000E+00 -0.50000000000E+03  0.50000000000E+03  0.00000000000E+00 0.  1.
          5    1    1    2  501    0  0.72840496848E+02 -0.21532972284E+02  0.49417456746E+03  0.50000000000E+03  0.47000000000E+01 0. -1.
         -5    1    1    2    0  501 -0.72840496848E+02  0.21532972284E+02 -0.49417456746E+03  0.50000000000E+03  0.47000000000E+01 0.  1.
</event>
<event>
 4    1  0.4351282E-004  0.1000000E+04  0.7546771E-02  0.8684367E-01
         11   -1    0    0    0    0  0.00000000000E+00  0.00000000000E+00  0.50000000000E+03  0.50000000000E+03  0.00000000000E+00 0. -1.
        -11   -1    0    0    0    0 -0.00000000000E+00 -0.00000000000E+00 -0.50000000000E+03  0.50000000000E+03  0.00000000000E+00 0.  1.
          5    1    1    2  501    0  0.19351031638E+03 -0.80703928097E+01  0.46094092486E+03  0.50000000000E+03  0.47000000000E+01 0. -1.
         -5    1    1    2    0  501 -0.19351031638E+03  0.80703928097E+01 -0.46094092486E+03  0.50000000000E+03  0.47000000000E+01 0.  1.
</event>
<event>
 4    1  0.4351282E-004  0.1000000E+04  0.7546771E-02  0.8684367E-01
         11   -1    0    0    0    0  0.00000000000E+00  0.00000000000E+00  0.50000000000E+03  0.50000000000E+03  0.00000000000E+00 0. -1.
        -11   -1    0    0    0    0 -0.00000000000E+00 -0.00000000000E+00 -0.50000000000E+03  0.50000000000E+03  0.00000000000E+00 0.  1.
          5    1    1    2  501    0 -0.13376236467E+03 -0.45434943452E+03 -0.16016282699E+03  0.50000000000E+03  0.47000000000E+01 0. -1.
         -5    1    1    2    0  501  0.13376236467E+03  0.45434943452E+03  0.16016282699E+03  0.50000000000E+03  0.47000000000E+01 0.  1.
</event>
<event>
 4    1  0.4351282E-004  0.1000000E+04  0.7546771E-02  0.8684367E-01
         11   -1    0    0    0    0  0.00000000000E+00  0.00000000000E+00  0.50000000000E+03  0.50000000000E+03  0.00000000000E+00 0. -1.
        -11   -1    0    0    0    0 -0.00000000000E+00 -0.00000000000E+00 -0.50000000000E+03  0.50000000000E+03  0.00000000000E+00 0.  1.
          5    1    1    2  501    0  0.22683984052E+03 -0.17667246729E+03  0.40903353903E+03  0.50000000000E+03  0.47000000000E+01 0. -1.
         -5    1    1    2    0  501 -0.22683984052E+03  0.17667246729E+03 -0.40903353903E+03  0.50000000000E+03  0.47000000000E+01 0.  1.
</event>
<event>
 4    1  0.4351282E-004  0.1000000E+04  0.7546771E-02  0.8684367E-01
         11   -1    0    0    0    0  0.00000000000E+00  0.00000000000E+00  0.50000000000E+03  0.50000000000E+03  0.00000000000E+00 0. -1.
        -11   -1    0    0    0    0 -0.00000000000E+00 -0.00000000000E+00 -0.50000000000E+03  0.50000000000E+03  0.00000000000E+00 0.  1.
          5    1    1    2  501    0 -0.13037821820E+03 -0.19370697266E+03  0.44210523517E+03  0.50000000000E+03  0.47000000000E+01 0. -1.
         -5    1    1    2    0  501  0.13037821820E+03  0.19370697266E+03 -0.44210523517E+03  0.50000000000E+03  0.47000000000E+01 0.  1.
</event>
<event>
 4    1  0.4351282E-004  0.1000000E+04  0.7546771E-02  0.8684367E-01
         11   -1    0    0    0    0  0.00000000000E+00  0.00000000000E+00  0.50000000000E+03  0.50000000000E+03  0.00000000000E+00 0.  1.
        -11   -1    0    0    0    0 -0.00000000000E+00 -0.00000000000E+00 -0.50000000000E+03  0.50000000000E+03  0.00000000000E+00 0. -1.
          5    1    1    2  501    0 -0.37059129017E+03 -0.19321681550E+02 -0.33506220061E+03  0.50000000000E+03  0.47000000000E+01 0. -1.
         -5    1    1    2    0  501  0.37059129017E+03  0.19321681550E+02  0.33506220061E+03  0.50000000000E+03  0.47000000000E+01 0.  1.
</event>
