<event>
 5    1  0.7673937E-002  0.6000000E+02  0.7546771E-02  0.1259629E+00
         11   -1    0    0    0    0  0.00000000000E+00  0.00000000000E+00  0.30000000000E+02  0.30000000000E+02  0.00000000000E+00 0.  1.
        -11   -1    0    0    0    0 -0.00000000000E+00 -0.00000000000E+00 -0.30000000000E+02  0.30000000000E+02  0.00000000000E+00 0. -1.
         23    2    1    2    0    0  0.00000000000E+00  0.00000000000E+00  0.00000000000E+00  0.60000000000E+02  0.60000000000E+02 0.  0.
          5    1    3    3  501    0  0.20422352625E+02  0.19770273349E+02  0.83650346677E+01  0.30000000000E+02  0.47000000000E+01 0. -1.
         -5    1    3    3    0  501 -0.20422352625E+02 -0.19770273349E+02 -0.83650346677E+01  0.30000000000E+02  0.47000000000E+01 0.  1.
</event>
<event>
 5    1  0.7673937E-002  0.6000000E+02  0.7546771E-02  0.1259629E+00
         11   -1    0    0    0    0  0.00000000000E+00  0.00000000000E+00  0.30000000000E+02  0.30000000000E+02  0.00000000000E+00 0.  1.
        -11   -1    0    0    0    0 -0.00000000000E+00 -0.00000000000E+00 -0.30000000000E+02  0.30000000000E+02  0.00000000000E+00 0. -1.
         23    2    1    2    0    0  0.00000000000E+00  0.00000000000E+00  0.00000000000E+00  0.60000000000E+02  0.60000000000E+02 0.  0.
          5    1    3    3  501    0 -0.99160986056E+01 -0.25363879318E+02 -0.11672815186E+02  0.30000000000E+02  0.47000000000E+01 0. -1.
         -5    1    3    3    0  501  0.99160986056E+01  0.25363879318E+02  0.11672815186E+02  0.30000000000E+02  0.47000000000E+01 0.  1.
</event>
<event>
 5    1  0.7673937E-002  0.6000000E+02  0.7546771E-02  0.1259629E+00
         11   -1    0    0    0    0  0.00000000000E+00  0.00000000000E+00  0.30000000000E+02  0.30000000000E+02  0.00000000000E+00 0.  1.
        -11   -1    0    0    0    0 -0.00000000000E+00 -0.00000000000E+00 -0.30000000000E+02  0.30000000000E+02  0.00000000000E+00 0. -1.
         23    2    1    2    0    0  0.00000000000E+00  0.00000000000E+00  0.00000000000E+00  0.60000000000E+02  0.60000000000E+02 0.  0.
          5    1    3    3  501    0 -0.13428896775E+01 -0.71070544893E+01 -0.28733193763E+02  0.30000000000E+02  0.47000000000E+01 0. -1.
         -5    1    3    3    0  501  0.13428896775E+01  0.71070544893E+01  0.28733193763E+02  0.30000000000E+02  0.47000000000E+01 0.  1.
</event>
<event>
 5    1  0.7673937E-002  0.6000000E+02  0.7546771E-02  0.1259629E+00
         11   -1    0    0    0    0  0.00000000000E+00  0.00000000000E+00  0.30000000000E+02  0.30000000000E+02  0.00000000000E+00 0.  1.
        -11   -1    0    0    0    0 -0.00000000000E+00 -0.00000000000E+00 -0.30000000000E+02  0.30000000000E+02  0.00000000000E+00 0. -1.
         23    2    1    2    0    0  0.00000000000E+00  0.00000000000E+00  0.00000000000E+00  0.60000000000E+02  0.60000000000E+02 0.  0.
          5    1    3    3  501    0 -0.15405665873E+02  0.15753976535E+02 -0.19808777911E+02  0.30000000000E+02  0.47000000000E+01 0. -1.
         -5    1    3    3    0  501  0.15405665873E+02 -0.15753976535E+02  0.19808777911E+02  0.30000000000E+02  0.47000000000E+01 0.  1.
</event>
<event>
 5    1  0.7673937E-002  0.6000000E+02  0.7546771E-02  0.1259629E+00
         11   -1    0    0    0    0  0.00000000000E+00  0.00000000000E+00  0.30000000000E+02  0.30000000000E+02  0.00000000000E+00 0.  1.
        -11   -1    0    0    0    0 -0.00000000000E+00 -0.00000000000E+00 -0.30000000000E+02  0.30000000000E+02  0.00000000000E+00 0. -1.
         23    2    1    2    0    0  0.00000000000E+00  0.00000000000E+00  0.00000000000E+00  0.60000000000E+02  0.60000000000E+02 0.  0.
          5    1    3    3  501    0  0.12757595142E+01  0.16353795445E+01  0.29556859972E+02  0.30000000000E+02  0.47000000000E+01 0.  1.
         -5    1    3    3    0  501 -0.12757595142E+01 -0.16353795445E+01 -0.29556859972E+02  0.30000000000E+02  0.47000000000E+01 0. -1.
</event>
<event>
 5    1  0.7673937E-002  0.6000000E+02  0.7546771E-02  0.1259629E+00
         11   -1    0    0    0    0  0.00000000000E+00  0.00000000000E+00  0.30000000000E+02  0.30000000000E+02  0.00000000000E+00 0.  1.
        -11   -1    0    0    0    0 -0.00000000000E+00 -0.00000000000E+00 -0.30000000000E+02  0.30000000000E+02  0.00000000000E+00 0. -1.
         23    2    1    2    0    0  0.00000000000E+00  0.00000000000E+00  0.00000000000E+00  0.60000000000E+02  0.60000000000E+02 0.  0.
          5    1    3    3  501    0  0.15724658201E+02  0.14926265293E+02 -0.20195339286E+02  0.30000000000E+02  0.47000000000E+01 0. -1.
         -5    1    3    3    0  501 -0.15724658201E+02 -0.14926265293E+02  0.20195339286E+02  0.30000000000E+02  0.47000000000E+01 0.  1.
</event>
<event>
 5    1  0.7673937E-002  0.6000000E+02  0.7546771E-02  0.1259629E+00
         11   -1    0    0    0    0  0.00000000000E+00  0.00000000000E+00  0.30000000000E+02  0.30000000000E+02  0.00000000000E+00 0.  1.
        -11   -1    0    0    0    0 -0.00000000000E+00 -0.00000000000E+00 -0.30000000000E+02  0.30000000000E+02  0.00000000000E+00 0. -1.
         23    2    1    2    0    0  0.00000000000E+00  0.00000000000E+00  0.00000000000E+00  0.60000000000E+02  0.60000000000E+02 0.  0.
          5    1    3    3  501    0 -0.96413463960E+01  0.36379784826E+01 -0.27779840752E+02  0.30000000000E+02  0.47000000000E+01 0. -1.
         -5    1    3    3    0  501  0.96413463960E+01 -0.36379784826E+01  0.27779840752E+02  0.30000000000E+02  0.47000000000E+01 0.  1.
</event>
<event>
 5    1  0.7673937E-002  0.6000000E+02  0.7546771E-02  0.1259629E+00
         11   -1    0    0    0    0  0.00000000000E+00  0.00000000000E+00  0.30000000000E+02  0.30000000000E+02  0.00000000000E+00 0.  1.
        -11   -1    0    0    0    0 -0.00000000000E+00 -0.00000000000E+00 -0.30000000000E+02  0.30000000000E+02  0.00000000000E+00 0. -1.
         23    2    1    2    0    0  0.00000000000E+00  0.00000000000E+00  0.00000000000E+00  0.60000000000E+02  0.60000000000E+02 0.  0.
          5    1    3    3  501    0 -0.96808378677E+01 -0.51210917473E+01  0.27531178643E+02  0.30000000000E+02  0.47000000000E+01 0.  1.
         -5    1    3    3    0  501  0.96808378677E+01  0.51210917473E+01 -0.27531178643E+02  0.30000000000E+02  0.47000000000E+01 0. -1.
</event>
<event>
 5    1  0.7673937E-002  0.6000000E+02  0.7546771E-02  0.1259629E+00
         11   -1    0    0    0    0  0.00000000000E+00  0.00000000000E+00  0.30000000000E+02  0.30000000000E+02  0.00000000000E+00 0. -1.
        -11   -1    0    0    0    0 -0.00000000000E+00 -0.00000000000E+00 -0.30000000000E+02  0.30000000000E+02  0.00000000000E+00 0.  1.
         23    2    1    2    0    0  0.00000000000E+00  0.00000000000E+00  0.00000000000E+00  0.60000000000E+02  0.60000000000E+02 0.  0.
          5    1    3    3  501    0  0.22536210821E+02 -0.33788699105E+01 -0.18937065241E+02  0.30000000000E+02  0.47000000000E+01 0.  1.
         -5    1    3    3    0  501 -0.22536210821E+02  0.33788699105E+01  0.18937065241E+02  0.30000000000E+02  0.47000000000E+01 0. -1.
</event>
<event>
 5    1  0.7673937E-002  0.6000000E+02  0.7546771E-02  0.1259629E+00
         11   -1    0    0    0    0  0.00000000000E+00  0.00000000000E+00  0.30000000000E+02  0.30000000000E+02  0.00000000000E+00 0.  1.
        -11   -1    0    0    0    0 -0.00000000000E+00 -0.00000000000E+00 -0.30000000000E+02  0.30000000000E+02  0.00000000000E+00 0. -1.
         23    2    1    2    0    0  0.00000000000E+00  0.00000000000E+00  0.00000000000E+00  0.60000000000E+02  0.60000000000E+02 0.  0.
          5    1    3    3  501    0 -0.24066879624E+02  0.17254360847E+02  0.99112912359E+00  0.30000000000E+02  0.47000000000E+01 0. -1.
         -5    1    3    3    0  501  0.24066879624E+02 -0.17254360847E+02 -0.99112912359E+00  0.30000000000E+02  0.47000000000E+01 0.  1.
</event>
<event>
 5    1  0.7673937E-002  0.6000000E+02  0.7546771E-02  0.1259629E+00
         11   -1    0    0    0    0  0.00000000000E+00  0.00000000000E+00  0.30000000000E+02  0.30000000000E+02  0.00000000000E+00 0.  1.
        -11   -1    0    0    0    0 -0.00000000000E+00 -0.00000000000E+00 -0.30000000000E+02  0.30000000000E+02  0.00000000000E+00 0. -1.
         23    2    1    2    0    0  0.00000000000E+00  0.00000000000E+00  0.00000000000E+00  0.60000000000E+02  0.60000000000E+02 0.  0.
          5    1    3    3  501    0 -0.15071424758E+02  0.23279888344E+02  0.10431153073E+02  0.30000000000E+02  0.47000000000E+01 0. -1.
         -5    1    3    3    0  501  0.15071424758E+02 -0.23279888344E+02 -0.10431153073E+02  0.30000000000E+02  0.47000000000E+01 0.  1.
</event>
<event>
 5    1  0.7673937E-002  0.6000000E+02  0.7546771E-02  0.1259629E+00
         11   -1    0    0    0    0  0.00000000000E+00  0.00000000000E+00  0.30000000000E+02  0.30000000000E+02  0.00000000000E+00 0.  1.
        -11   -1    0    0    0    0 -0.00000000000E+00 -0.00000000000E+00 -0.30000000000E+02  0.30000000000E+02  0.00000000000E+00 0. -1.
         23    2    1    2    0    0  0.00000000000E+00  0.00000000000E+00  0.00000000000E+00  0.60000000000E+02  0.60000000000E+02 0.  0.
          5    1    3    3  501    0 -0.27247298156E+02  0.67778684634E+01 -0.94633631609E+01  0.30000000000E+02  0.47000000000E+01 0. -1.
         -5    1    3    3    0  501  0.27247298156E+02 -0.67778684634E+01  0.94633631609E+01  0.30000000000E+02  0.47000000000E+01 0.  1.
</event>
<event>
 5    1  0.7673937E-002  0.6000000E+02  0.7546771E-02  0.1259629E+00
         11   -1    0    0    0    0  0.00000000000E+00  0.00000000000E+00  0.30000000000E+02  0.30000000000E+02  0.00000000000E+00 0.  1.
        -11   -1    0    0    0    0 -0.00000000000E+00 -0.00000000000E+00 -0.30000000000E+02  0.30000000000E+02  0.00000000000E+00 0. -1.
         23    2    1    2    0    0  0.00000000000E+00  0.00000000000E+00  0.00000000000E+00  0.60000000000E+02  0.60000000000E+02 0.  0.
          5    1    3    3  501    0 -0.21888257468E+02  0.91165210773E+01  0.17768039522E+02  0.30000000000E+02  0.47000000000E+01 0. -1.
         -5    1    3    3    0  501  0.21888257468E+02 -0.91165210773E+01 -0.17768039522E+02  0.30000000000E+02  0.47000000000E+01 0.  1.
</event>
<event>
 5    1  0.7673937E-002  0.6000000E+02  0.7546771E-02  0.1259629E+00
         11   -1    0    0    0    0  0.00000000000E+00  0.00000000000E+00  0.30000000000E+02  0.30000000000E+02  0.00000000000E+00 0. -1.
        -11   -1    0    0    0    0 -0.00000000000E+00 -0.00000000000E+00 -0.30000000000E+02  0.30000000000E+02  0.00000000000E+00 0.  1.
         23    2    1    2    0    0  0.00000000000E+00  0.00000000000E+00  0.00000000000E+00  0.60000000000E+02  0.60000000000E+02 0.  0.
          5    1    3    3  501    0  0.62043544055E+01 -0.97327206181E+00 -0.28956324489E+02  0.30000000000E+02  0.47000000000E+01 0.  1.
         -5    1    3    3    0  501 -0.62043544055E+01  0.97327206181E+00  0.28956324489E+02  0.30000000000E+02  0.47000000000E+01 0. -1.
</event>
<event>
 5    1  0.7673937E-002  0.6000000E+02  0.7546771E-02  0.1259629E+00
         11   -1    0    0    0    0  0.00000000000E+00  0.00000000000E+00  0.30000000000E+02  0.30000000000E+02  0.00000000000E+00 0.  1.
        -11   -1    0    0    0    0 -0.00000000000E+00 -0.00000000000E+00 -0.30000000000E+02  0.30000000000E+02  0.00000000000E+00 0. -1.
         23    2    1    2    0    0  0.00000000000E+00  0.00000000000E+00  0.00000000000E+00  0.60000000000E+02  0.60000000000E+02 0.  0.
          5    1    3    3  501    0 -0.22744702153E+02 -0.18919601755E+02 -0.16239437892E+01  0.30000000000E+02  0.47000000000E+01 0. -1.
         -5    1    3    3    0  501  0.22744702153E+02  0.18919601755E+02  0.16239437892E+01  0.30000000000E+02  0.47000000000E+01 0.  1.
</event>
<event>
 5    1  0.7673937E-002  0.6000000E+02  0.7546771E-02  0.1259629E+00
         11   -1    0    0    0    0  0.00000000000E+00  0.00000000000E+00  0.30000000000E+02  0.30000000000E+02  0.00000000000E+00 0.  1.
        -11   -1    0    0    0    0 -0.00000000000E+00 -0.00000000000E+00 -0.30000000000E+02  0.30000000000E+02  0.00000000000E+00 0. -1.
         23    2    1    2    0    0  0.00000000000E+00  0.00000000000E+00  0.00000000000E+00  0.60000000000E+02  0.60000000000E+02 0.  0.
          5    1    3    3  501    0 -0.21941790796E+02 -0.72879455080E+01 -0.18529804827E+02  0.30000000000E+02  0.47000000000E+01 0. -1.
         -5    1    3    3    0  501  0.21941790796E+02  0.72879455080E+01  0.18529804827E+02  0.30000000000E+02  0.47000000000E+01 0.  1.
</event>
<event>
 5    1  0.7673937E-002  0.6000000E+02  0.7546771E-02  0.1259629E+00
         11   -1    0    0    0    0  0.00000000000E+00  0.00000000000E+00  0.30000000000E+02  0.30000000000E+02  0.00000000000E+00 0.  1.
        -11   -1    0    0    0    0 -0.00000000000E+00 -0.00000000000E+00 -0.30000000000E+02  0.30000000000E+02  0.00000000000E+00 0. -1.
         23    2    1    2    0    0  0.00000000000E+00  0.00000000000E+00  0.00000000000E+00  0.60000000000E+02  0.60000000000E+02 0.  0.
          5    1    3    3  501    0 -0.54724405114E+01 -0.11621026960E+02 -0.26700451817E+02  0.30000000000E+02  0.47000000000E+01 0. -1.
         -5    1    3    3    0  501  0.54724405114E+01  0.11621026960E+02  0.26700451817E+02  0.30000000000E+02  0.47000000000E+01 0.  1.
</event>
<event>
 5    1  0.7673937E-002  0.6000000E+02  0.7546771E-02  0.1259629E+00
         11   -1    0    0    0    0  0.00000000000E+00  0.00000000000E+00  0.30000000000E+02  0.30000000000E+02  0.00000000000E+00 0.  1.
        -11   -1    0    0    0    0 -0.00000000000E+00 -0.00000000000E+00 -0.30000000000E+02  0.30000000000E+02  0.00000000000E+00 0. -1.
         23    2    1    2    0    0  0.00000000000E+00  0.00000000000E+00  0.00000000000E+00  0.60000000000E+02  0.60000000000E+02 0.  0.
          5    1    3    3  501    0 -0.72470990566E+01  0.20572669893E+02 -0.20053797863E+02  0.30000000000E+02  0.47000000000E+01 0. -1.
         -5    1    3    3    0  501  0.72470990566E+01 -0.20572669893E+02  0.20053797863E+02  0.30000000000E+02  0.47000000000E+01 0.  1.
</event>
<event>
 5    1  0.7673937E-002  0.6000000E+02  0.7546771E-02  0.1259629E+00
         11   -1    0    0    0    0  0.00000000000E+00  0.00000000000E+00  0.30000000000E+02  0.30000000000E+02  0.00000000000E+00 0. -1.
        -11   -1    0    0    0    0 -0.00000000000E+00 -0.00000000000E+00 -0.30000000000E+02  0.30000000000E+02  0.00000000000E+00 0.  1.
         23    2    1    2    0    0  0.00000000000E+00  0.00000000000E+00  0.00000000000E+00  0.60000000000E+02  0.60000000000E+02 0.  0.
          5    1    3    3  501    0 -0.71400400857E+00  0.19611652544E+02  0.22198722548E+02  0.30000000000E+02  0.47000000000E+01 0. -1.
         -5    1    3    3    0  501  0.71400400857E+00 -0.19611652544E+02 -0.22198722548E+02  0.30000000000E+02  0.47000000000E+01 0.  1.
</event>
<event>
 5    1  0.7673937E-002  0.6000000E+02  0.7546771E-02  0.1259629E+00
         11   -1    0    0    0    0  0.00000000000E+00  0.00000000000E+00  0.30000000000E+02  0.30000000000E+02  0.00000000000E+00 0. -1.
        -11   -1    0    0    0    0 -0.00000000000E+00 -0.00000000000E+00 -0.30000000000E+02  0.30000000000E+02  0.00000000000E+00 0.  1.
         23    2    1    2    0    0  0.00000000000E+00  0.00000000000E+00  0.00000000000E+00  0.60000000000E+02  0.60000000000E+02 0.  0.
          5    1    3    3  501    0  0.14523975084E+01 -0.28779298050E+02  0.68958353552E+01  0.30000000000E+02  0.47000000000E+01 0.  1.
         -5    1    3    3    0  501 -0.14523975084E+01  0.28779298050E+02 -0.68958353552E+01  0.30000000000E+02  0.47000000000E+01 0. -1.
</event>
<event>
 5    1  0.7673937E-002  0.6000000E+02  0.7546771E-02  0.1259629E+00
         11   -1    0    0    0    0  0.00000000000E+00  0.00000000000E+00  0.30000000000E+02  0.30000000000E+02  0.00000000000E+00 0.  1.
        -11   -1    0    0    0    0 -0.00000000000E+00 -0.00000000000E+00 -0.30000000000E+02  0.30000000000E+02  0.00000000000E+00 0. -1.
         23    2    1    2    0    0  0.00000000000E+00  0.00000000000E+00  0.00000000000E+00  0.60000000000E+02  0.60000000000E+02 0.  0.
          5    1    3    3  501    0  0.15117159618E+02 -0.16477613174E+02 -0.19438872117E+02  0.30000000000E+02  0.47000000000E+01 0. -1.
         -5    1    3    3    0  501 -0.15117159618E+02  0.16477613174E+02  0.19438872117E+02  0.30000000000E+02  0.47000000000E+01 0.  1.
</event>
<event>
 5    1  0.7673937E-002  0.6000000E+02  0.7546771E-02  0.1259629E+00
         11   -1    0    0    0    0  0.00000000000E+00  0.00000000000E+00  0.30000000000E+02  0.30000000000E+02  0.00000000000E+00 0.  1.
        -11   -1    0    0    0    0 -0.00000000000E+00 -0.00000000000E+00 -0.30000000000E+02  0.30000000000E+02  0.00000000000E+00 0. -1.
         23    2    1    2    0    0  0.00000000000E+00  0.00000000000E+00  0.00000000000E+00  0.60000000000E+02  0.60000000000E+02 0.  0.
          5    1    3    3  501    0  0.84175763513E+01  0.64827144224E+01 -0.27659154399E+02  0.30000000000E+02  0.47000000000E+01 0. -1.
         -5    1    3    3    0  501 -0.84175763513E+01 -0.64827144224E+01  0.27659154399E+02  0.30000000000E+02  0.47000000000E+01 0.  1.
</event>
<event>
 5    1  0.7673937E-002  0.6000000E+02  0.7546771E-02  0.1259629E+00
         11   -1    0    0    0    0  0.00000000000E+00  0.00000000000E+00  0.30000000000E+02  0.30000000000E+02  0.00000000000E+00 0.  1.
        -11   -1    0    0    0    0 -0.00000000000E+00 -0.00000000000E+00 -0.30000000000E+02  0.30000000000E+02  0.00000000000E+00 0. -1.
         23    2    1    2    0    0  0.00000000000E+00  0.00000000000E+00  0.00000000000E+00  0.60000000000E+02  0.60000000000E+02 0.  0.
          5    1    3    3  501    0 -0.51243984553E+01  0.11125455342E+02 -0.26979154618E+02  0.30000000000E+02  0.47000000000E+01 0. -1.
         -5    1    3    3    0  501  0.51243984553E+01 -0.11125455342E+02  0.26979154618E+02  0.30000000000E+02  0.47000000000E+01 0.  1.
</event>
<event>
 5    1  0.7673937E-002  0.6000000E+02  0.7546771E-02  0.1259629E+00
         11   -1    0    0    0    0  0.00000000000E+00  0.00000000000E+00  0.30000000000E+02  0.30000000000E+02  0.00000000000E+00 0.  1.
        -11   -1    0    0    0    0 -0.00000000000E+00 -0.00000000000E+00 -0.30000000000E+02  0.30000000000E+02  0.00000000000E+00 0. -1.
         23    2    1    2    0    0  0.00000000000E+00  0.00000000000E+00  0.00000000000E+00  0.60000000000E+02  0.60000000000E+02 0.  0.
          5    1    3    3  501    0  0.50698770132E+01  0.20726729488E+01 -0.29118900630E+02  0.30000000000E+02  0.47000000000E+01 0. -1.
         -5    1    3    3    0  501 -0.50698770132E+01 -0.20726729488E+01  0.29118900630E+02  0.30000000000E+02  0.47000000000E+01 0.  1.
</event>
<event>
 5    1  0.7673937E-002  0.6000000E+02  0.7546771E-02  0.1259629E+00
         11   -1    0    0    0    0  0.00000000000E+00  0.00000000000E+00  0.30000000000E+02  0.30000000000E+02  0.00000000000E+00 0.  1.
        -11   -1    0    0    0    0 -0.00000000000E+00 -0.00000000000E+00 -0.30000000000E+02  0.30000000000E+02  0.00000000000E+00 0. -1.
         23    2    1    2    0    0  0.00000000000E+00  0.00000000000E+00  0.00000000000E+00  0.60000000000E+02  0.60000000000E+02 0.  0.
          5    1    3    3  501    0  0.10467467922E+02  0.19023279092E+02 -0.20160777958E+02  0.30000000000E+02  0.47000000000E+01 0. -1.
         -5    1    3    3    0  501 -0.10467467922E+02 -0.19023279092E+02  0.20160777958E+02  0.30000000000E+02  0.47000000000E+01 0.  1.
</event>
<event>
 5    1  0.7673937E-002  0.6000000E+02  0.7546771E-02  0.1259629E+00
         11   -1    0    0    0    0  0.00000000000E+00  0.00000000000E+00  0.30000000000E+02  0.30000000000E+02  0.00000000000E+00 0. -1.
        -11   -1    0    0    0    0 -0.00000000000E+00 -0.00000000000E+00 -0.30000000000E+02  0.30000000000E+02  0.00000000000E+00 0.  1.
         23    2    1    2    0    0  0.00000000000E+00  0.00000000000E+00  0.00000000000E+00  0.60000000000E+02  0.60000000000E+02 0.  0.
          5    1    3    3  501    0 -0.21738806471E+02 -0.40595749131E+01 -0.19719384999E+02  0.30000000000E+02  0.47000000000E+01 0.  1.
         -5    1    3    3    0  501  0.21738806471E+02  0.40595749131E+01  0.19719384999E+02  0.30000000000E+02  0.47000000000E+01 0. -1.
</event>
<event>
 5    1  0.7673937E-002  0.6000000E+02  0.7546771E-02  0.1259629E+00
         11   -1    0    0    0    0  0.00000000000E+00  0.00000000000E+00  0.30000000000E+02  0.30000000000E+02  0.00000000000E+00 0. -1.
        -11   -1    0    0    0    0 -0.00000000000E+00 -0.00000000000E+00 -0.30000000000E+02  0.30000000000E+02  0.00000000000E+00 0.  1.
         23    2    1    2    0    0  0.00000000000E+00  0.00000000000E+00  0.00000000000E+00  0.60000000000E+02  0.60000000000E+02 0.  0.
          5    1    3    3  501    0  0.84440868859E+01 -0.71009576876E+01 -0.27498796275E+02  0.30000000000E+02  0.47000000000E+01 0.  1.
         -5    1    3    3    0  501 -0.84440868859E+01  0.71009576876E+01  0.27498796275E+02  0.30000000000E+02  0.47000000000E+01 0. -1.
</event>
<event>
 5    1  0.7673937E-002  0.6000000E+02  0.7546771E-02  0.1259629E+00
         11   -1    0    0    0    0  0.00000000000E+00  0.00000000000E+00  0.30000000000E+02  0.30000000000E+02  0.00000000000E+00 0. -1.
        -11   -1    0    0    0    0 -0.00000000000E+00 -0.00000000000E+00 -0.30000000000E+02  0.30000000000E+02  0.00000000000E+00 0.  1.
         23    2    1    2    0    0  0.00000000000E+00  0.00000000000E+00  0.00000000000E+00  0.60000000000E+02  0.60000000000E+02 0.  0.
          5    1    3    3  501    0  0.15535913469E+02  0.20433208823E+02  0.14799640870E+02  0.30000000000E+02  0.47000000000E+01 0. -1.
         -5    1    3    3    0  501 -0.15535913469E+02 -0.20433208823E+02 -0.14799640870E+02  0.30000000000E+02  0.47000000000E+01 0.  1.
</event>
<event>
 5    1  0.7673937E-002  0.6000000E+02  0.7546771E-02  0.1259629E+00
         11   -1    0    0    0    0  0.00000000000E+00  0.00000000000E+00  0.30000000000E+02  0.30000000000E+02  0.00000000000E+00 0.  1.
        -11   -1    0    0    0    0 -0.00000000000E+00 -0.00000000000E+00 -0.30000000000E+02  0.30000000000E+02  0.00000000000E+00 0. -1.
         23    2    1    2    0    0  0.00000000000E+00  0.00000000000E+00  0.00000000000E+00  0.60000000000E+02  0.60000000000E+02 0.  0.
          5    1    3    3  501    0  0.28697049135E+02 -0.51675043098E+01 -0.52617744289E+01  0.30000000000E+02  0.47000000000E+01 0. -1.
         -5    1    3    3    0  501 -0.28697049135E+02  0.51675043098E+01  0.52617744289E+01  0.30000000000E+02  0.47000000000E+01 0.  1.
</event>
<event>
 5    1  0.7673937E-002  0.6000000E+02  0.7546771E-02  0.1259629E+00
         11   -1    0    0    0    0  0.00000000000E+00  0.00000000000E+00  0.30000000000E+02  0.30000000000E+02  0.00000000000E+00 0. -1.
        -11   -1    0    0    0    0 -0.00000000000E+00 -0.00000000000E+00 -0.30000000000E+02  0.30000000000E+02  0.00000000000E+00 0.  1.
         23    2    1    2    0    0  0.00000000000E+00  0.00000000000E+00  0.00000000000E+00  0.60000000000E+02  0.60000000000E+02 0.  0.
          5    1    3    3  501    0  0.14518725208E+02 -0.23076297073E+02  0.11601772784E+02  0.30000000000E+02  0.47000000000E+01 0. -1.
         -5    1    3    3    0  501 -0.14518725208E+02  0.23076297073E+02 -0.11601772784E+02  0.30000000000E+02  0.47000000000E+01 0.  1.
</event>
<event>
 5    1  0.7673937E-002  0.6000000E+02  0.7546771E-02  0.1259629E+00
         11   -1    0    0    0    0  0.00000000000E+00  0.00000000000E+00  0.30000000000E+02  0.30000000000E+02  0.00000000000E+00 0.  1.
        -11   -1    0    0    0    0 -0.00000000000E+00 -0.00000000000E+00 -0.30000000000E+02  0.30000000000E+02  0.00000000000E+00 0. -1.
         23    2    1    2    0    0  0.00000000000E+00  0.00000000000E+00  0.00000000000E+00  0.60000000000E+02  0.60000000000E+02 0.  0.
          5    1    3    3  501    0  0.17322349074E+02  0.74519895415E+01  0.22854191616E+02  0.30000000000E+02  0.47000000000E+01 0.  1.
         -5    1    3    3    0  501 -0.17322349074E+02 -0.74519895415E+01 -0.22854191616E+02  0.30000000000E+02  0.47000000000E+01 0. -1.
</event>
<event>
 5    1  0.7673937E-002  0.6000000E+02  0.7546771E-02  0.1259629E+00
         11   -1    0    0    0    0  0.00000000000E+00  0.00000000000E+00  0.30000000000E+02  0.30000000000E+02  0.00000000000E+00 0.  1.
        -11   -1    0    0    0    0 -0.00000000000E+00 -0.00000000000E+00 -0.30000000000E+02  0.30000000000E+02  0.00000000000E+00 0. -1.
         23    2    1    2    0    0  0.00000000000E+00  0.00000000000E+00  0.00000000000E+00  0.60000000000E+02  0.60000000000E+02 0.  0.
          5    1    3    3  501    0  0.10254304327E+02 -0.27535101786E+02 -0.38180377665E+01  0.30000000000E+02  0.47000000000E+01 0. -1.
         -5    1    3    3    0  501 -0.10254304327E+02  0.27535101786E+02  0.38180377665E+01  0.30000000000E+02  0.47000000000E+01 0.  1.
</event>
<event>
 5    1  0.7673937E-002  0.6000000E+02  0.7546771E-02  0.1259629E+00
         11   -1    0    0    0    0  0.00000000000E+00  0.00000000000E+00  0.30000000000E+02  0.30000000000E+02  0.00000000000E+00 0.  1.
        -11   -1    0    0    0    0 -0.00000000000E+00 -0.00000000000E+00 -0.30000000000E+02  0.30000000000E+02  0.00000000000E+00 0. -1.
         23    2    1    2    0    0  0.00000000000E+00  0.00000000000E+00  0.00000000000E+00  0.60000000000E+02  0.60000000000E+02 0.  0.
          5    1    3    3  501    0  0.13171532088E+02  0.19055189016E+02 -0.18474861678E+02  0.30000000000E+02  0.47000000000E+01 0. -1.
         -5    1    3    3    0  501 -0.13171532088E+02 -0.19055189016E+02  0.18474861678E+02  0.30000000000E+02  0.47000000000E+01 0.  1.
</event>
<event>
 5    1  0.7673937E-002  0.6000000E+02  0.7546771E-02  0.1259629E+00
         11   -1    0    0    0    0  0.00000000000E+00  0.00000000000E+00  0.30000000000E+02  0.30000000000E+02  0.00000000000E+00 0.  1.
        -11   -1    0    0    0    0 -0.00000000000E+00 -0.00000000000E+00 -0.30000000000E+02  0.30000000000E+02  0.00000000000E+00 0. -1.
         23    2    1    2    0    0  0.00000000000E+00  0.00000000000E+00  0.00000000000E+00  0.60000000000E+02  0.60000000000E+02 0.  0.
          5    1    3    3  501    0 -0.17398341394E+02 -0.14748126764E+02  0.18912971043E+02  0.30000000000E+02  0.47000000000E+01 0.  1.
         -5    1    3    3    0  501  0.17398341394E+02  0.14748126764E+02 -0.18912971043E+02  0.30000000000E+02  0.47000000000E+01 0. -1.
</event>
<event>
 5    1  0.7673937E-002  0.6000000E+02  0.7546771E-02  0.1259629E+00
         11   -1    0    0    0    0  0.00000000000E+00  0.00000000000E+00  0.30000000000E+02  0.30000000000E+02  0.00000000000E+00 0. -1.
        -11   -1    0    0    0    0 -0.00000000000E+00 -0.00000000000E+00 -0.30000000000E+02  0.30000000000E+02  0.00000000000E+00 0.  1.
         23    2    1    2    0    0  0.00000000000E+00  0.00000000000E+00  0.00000000000E+00  0.60000000000E+02  0.60000000000E+02 0.  0.
          5    1    3    3  501    0  0.22194583931E+02  0.76333177633E+01  0.18084327581E+02  0.30000000000E+02  0.47000000000E+01 0. -1.
         -5    1    3    3    0  501 -0.22194583931E+02 -0.76333177633E+01 -0.18084327581E+02  0.30000000000E+02  0.47000000000E+01 0.  1.
</event>
<event>
 5    1  0.7673937E-002  0.6000000E+02  0.7546771E-02  0.1259629E+00
         11   -1    0    0    0    0  0.00000000000E+00  0.00000000000E+00  0.30000000000E+02  0.30000000000E+02  0.00000000000E+00 0.  1.
        -11   -1    0    0    0    0 -0.00000000000E+00 -0.00000000000E+00 -0.30000000000E+02  0.30000000000E+02  0.00000000000E+00 0. -1.
         23    2    1    2    0    0  0.00000000000E+00  0.00000000000E+00  0.00000000000E+00  0.60000000000E+02  0.60000000000E+02 0.  0.
          5    1    3    3  501    0 -0.60864379119E+01 -0.24988256138E+02  0.14712318944E+02  0.30000000000E+02  0.47000000000E+01 0. -1.
         -5    1    3    3    0  501  0.60864379119E+01  0.24988256138E+02 -0.14712318944E+02  0.30000000000E+02  0.47000000000E+01 0.  1.
</event>
<event>
 5    1  0.7673937E-002  0.6000000E+02  0.7546771E-02  0.1259629E+00
         11   -1    0    0    0    0  0.00000000000E+00  0.00000000000E+00  0.30000000000E+02  0.30000000000E+02  0.00000000000E+00 0.  1.
        -11   -1    0    0    0    0 -0.00000000000E+00 -0.00000000000E+00 -0.30000000000E+02  0.30000000000E+02  0.00000000000E+00 0. -1.
         23    2    1    2    0    0  0.00000000000E+00  0.00000000000E+00  0.00000000000E+00  0.60000000000E+02  0.60000000000E+02 0.  0.
          5    1    3    3  501    0 -0.19642299848E+01  0.37206556685E+01  0.29329311652E+02  0.30000000000E+02  0.47000000000E+01 0.  1.
         -5    1    3    3    0  501  0.19642299848E+01 -0.37206556685E+01 -0.29329311652E+02  0.30000000000E+02  0.47000000000E+01 0. -1.
</event>
<event>
 5    1  0.7673937E-002  0.6000000E+02  0.7546771E-02  0.1259629E+00
         11   -1    0    0    0    0  0.00000000000E+00  0.00000000000E+00  0.30000000000E+02  0.30000000000E+02  0.00000000000E+00 0.  1.
        -11   -1    0    0    0    0 -0.00000000000E+00 -0.00000000000E+00 -0.30000000000E+02  0.30000000000E+02  0.00000000000E+00 0. -1.
         23    2    1    2    0    0  0.00000000000E+00  0.00000000000E+00  0.00000000000E+00  0.60000000000E+02  0.60000000000E+02 0.  0.
          5    1    3    3  501    0 -0.37128436495E+01  0.26229431433E+02 -0.13271839313E+02  0.30000000000E+02  0.47000000000E+01 0. -1.
         -5    1    3    3    0  501  0.37128436495E+01 -0.26229431433E+02  0.13271839313E+02  0.30000000000E+02  0.47000000000E+01 0.  1.
</event>
<event>
 5    1  0.7673937E-002  0.6000000E+02  0.7546771E-02  0.1259629E+00
         11   -1    0    0    0    0  0.00000000000E+00  0.00000000000E+00  0.30000000000E+02  0.30000000000E+02  0.00000000000E+00 0.  1.
        -11   -1    0    0    0    0 -0.00000000000E+00 -0.00000000000E+00 -0.30000000000E+02  0.30000000000E+02  0.00000000000E+00 0. -1.
         23    2    1    2    0    0  0.00000000000E+00  0.00000000000E+00  0.00000000000E+00  0.60000000000E+02  0.60000000000E+02 0.  0.
          5    1    3    3  501    0 -0.19647787602E+02  0.11574768151E+02 -0.18918223611E+02  0.30000000000E+02  0.47000000000E+01 0. -1.
         -5    1    3    3    0  501  0.19647787602E+02 -0.11574768151E+02  0.18918223611E+02  0.30000000000E+02  0.47000000000E+01 0.  1.
</event>
<event>
 5    1  0.7673937E-002  0.6000000E+02  0.7546771E-02  0.1259629E+00
         11   -1    0    0    0    0  0.00000000000E+00  0.00000000000E+00  0.30000000000E+02  0.30000000000E+02  0.00000000000E+00 0.  1.
        -11   -1    0    0    0    0 -0.00000000000E+00 -0.00000000000E+00 -0.30000000000E+02  0.30000000000E+02  0.00000000000E+00 0. -1.
         23    2    1    2    0    0  0.00000000000E+00  0.00000000000E+00  0.00000000000E+00  0.60000000000E+02  0.60000000000E+02 0.  0.
          5    1    3    3  501    0  0.33314764156E+01 -0.21859296743E+02 -0.19722637014E+02  0.30000000000E+02  0.47000000000E+01 0. -1.
         -5    1    3    3    0  501 -0.33314764156E+01  0.21859296743E+02  0.19722637014E+02  0.30000000000E+02  0.47000000000E+01 0.  1.
</event>
<event>
 5    1  0.7673937E-002  0.6000000E+02  0.7546771E-02  0.1259629E+00
         11   -1    0    0    0    0  0.00000000000E+00  0.00000000000E+00  0.30000000000E+02  0.30000000000E+02  0.00000000000E+00 0.  1.
        -11   -1    0    0    0    0 -0.00000000000E+00 -0.00000000000E+00 -0.30000000000E+02  0.30000000000E+02  0.00000000000E+00 0. -1.
         23    2    1    2    0    0  0.00000000000E+00  0.00000000000E+00  0.00000000000E+00  0.60000000000E+02  0.60000000000E+02 0.  0.
          5    1    3    3  501    0  0.29491507420E+02  0.47451341624E+00 -0.28170600140E+01  0.30000000000E+02  0.47000000000E+01 0. -1.
         -5    1    3    3    0  501 -0.29491507420E+02 -0.47451341624E+00  0.28170600140E+01  0.30000000000E+02  0.47000000000E+01 0.  1.
</event>
<event>
 5    1  0.7673937E-002  0.6000000E+02  0.7546771E-02  0.1259629E+00
         11   -1    0    0    0    0  0.00000000000E+00  0.00000000000E+00  0.30000000000E+02  0.30000000000E+02  0.00000000000E+00 0.  1.
        -11   -1    0    0    0    0 -0.00000000000E+00 -0.00000000000E+00 -0.30000000000E+02  0.30000000000E+02  0.00000000000E+00 0. -1.
         23    2    1    2    0    0  0.00000000000E+00  0.00000000000E+00  0.00000000000E+00  0.60000000000E+02  0.60000000000E+02 0.  0.
          5    1    3    3  501    0 -0.22441745721E+02  0.14528114277E+02 -0.12775443028E+02  0.30000000000E+02  0.47000000000E+01 0. -1.
         -5    1    3    3    0  501  0.22441745721E+02 -0.14528114277E+02  0.12775443028E+02  0.30000000000E+02  0.47000000000E+01 0.  1.
</event>
<event>
 5    1  0.7673937E-002  0.6000000E+02  0.7546771E-02  0.1259629E+00
         11   -1    0    0    0    0  0.00000000000E+00  0.00000000000E+00  0.30000000000E+02  0.30000000000E+02  0.00000000000E+00 0.  1.
        -11   -1    0    0    0    0 -0.00000000000E+00 -0.00000000000E+00 -0.30000000000E+02  0.30000000000E+02  0.00000000000E+00 0. -1.
         23    2    1    2    0    0  0.00000000000E+00  0.00000000000E+00  0.00000000000E+00  0.60000000000E+02  0.60000000000E+02 0.  0.
          5    1    3    3  501    0  0.68011771796E+01  0.52249353062E+00 -0.28833678043E+02  0.30000000000E+02  0.47000000000E+01 0. -1.
         -5    1    3    3    0  501 -0.68011771796E+01 -0.52249353062E+00  0.28833678043E+02  0.30000000000E+02  0.47000000000E+01 0.  1.
</event>
<event>
 5    1  0.7673937E-002  0.6000000E+02  0.7546771E-02  0.1259629E+00
         11   -1    0    0    0    0  0.00000000000E+00  0.00000000000E+00  0.30000000000E+02  0.30000000000E+02  0.00000000000E+00 0.  1.
        -11   -1    0    0    0    0 -0.00000000000E+00 -0.00000000000E+00 -0.30000000000E+02  0.30000000000E+02  0.00000000000E+00 0. -1.
         23    2    1    2    0    0  0.00000000000E+00  0.00000000000E+00  0.00000000000E+00  0.60000000000E+02  0.60000000000E+02 0.  0.
          5    1    3    3  501    0 -0.48777727063E+01  0.15450371295E+02  0.24807324730E+02  0.30000000000E+02  0.47000000000E+01 0.  1.
         -5    1    3    3    0  501  0.48777727063E+01 -0.15450371295E+02 -0.24807324730E+02  0.30000000000E+02  0.47000000000E+01 0. -1.
</event>
<event>
 5    1  0.7673937E-002  0.6000000E+02  0.7546771E-02  0.1259629E+00
         11   -1    0    0    0    0  0.00000000000E+00  0.00000000000E+00  0.30000000000E+02  0.30000000000E+02  0.00000000000E+00 0.  1.
        -11   -1    0    0    0    0 -0.00000000000E+00 -0.00000000000E+00 -0.30000000000E+02  0.30000000000E+02  0.00000000000E+00 0. -1.
         23    2    1    2    0    0  0.00000000000E+00  0.00000000000E+00  0.00000000000E+00  0.60000000000E+02  0.60000000000E+02 0.  0.
          5    1    3    3  501    0 -0.39842538894E+01  0.25322428159E+02 -0.14859688862E+02  0.30000000000E+02  0.47000000000E+01 0. -1.
         -5    1    3    3    0  501  0.39842538894E+01 -0.25322428159E+02  0.14859688862E+02  0.30000000000E+02  0.47000000000E+01 0.  1.
</event>
<event>
 5    1  0.7673937E-002  0.6000000E+02  0.7546771E-02  0.1259629E+00
         11   -1    0    0    0    0  0.00000000000E+00  0.00000000000E+00  0.30000000000E+02  0.30000000000E+02  0.00000000000E+00 0. -1.
        -11   -1    0    0    0    0 -0.00000000000E+00 -0.00000000000E+00 -0.30000000000E+02  0.30000000000E+02  0.00000000000E+00 0.  1.
         23    2    1    2    0    0  0.00000000000E+00  0.00000000000E+00  0.00000000000E+00  0.60000000000E+02  0.60000000000E+02 0.  0.
          5    1    3    3  501    0  0.23820872561E+02  0.16837601954E+02  0.51933795238E+01  0.30000000000E+02  0.47000000000E+01 0.  1.
         -5    1    3    3    0  501 -0.23820872561E+02 -0.16837601954E+02 -0.51933795238E+01  0.30000000000E+02  0.47000000000E+01 0. -1.
</event>
<event>
 5    1  0.7673937E-002  0.6000000E+02  0.7546771E-02  0.1259629E+00
         11   -1    0    0    0    0  0.00000000000E+00  0.00000000000E+00  0.30000000000E+02  0.30000000000E+02  0.00000000000E+00 0.  1.
        -11   -1    0    0    0    0 -0.00000000000E+00 -0.00000000000E+00 -0.30000000000E+02  0.30000000000E+02  0.00000000000E+00 0. -1.
         23    2    1    2    0    0  0.00000000000E+00  0.00000000000E+00  0.00000000000E+00  0.60000000000E+02  0.60000000000E+02 0.  0.
          5    1    3    3  501    0  0.39022216471E+01  0.13381837690E+01  0.29340959944E+02  0.30000000000E+02  0.47000000000E+01 0.  1.
         -5    1    3    3    0  501 -0.39022216471E+01 -0.13381837690E+01 -0.29340959944E+02  0.30000000000E+02  0.47000000000E+01 0. -1.
</event>
<event>
 5    1  0.7673937E-002  0.6000000E+02  0.7546771E-02  0.1259629E+00
         11   -1    0    0    0    0  0.00000000000E+00  0.00000000000E+00  0.30000000000E+02  0.30000000000E+02  0.00000000000E+00 0.  1.
        -11   -1    0    0    0    0 -0.00000000000E+00 -0.00000000000E+00 -0.30000000000E+02  0.30000000000E+02  0.00000000000E+00 0. -1.
         23    2    1    2    0    0  0.00000000000E+00  0.00000000000E+00  0.00000000000E+00  0.60000000000E+02  0.60000000000E+02 0.  0.
          5    1    3    3  501    0 -0.11088197868E+02  0.25372944060E+02  0.10543983012E+02  0.30000000000E+02  0.47000000000E+01 0. -1.
         -5    1    3    3    0  501  0.11088197868E+02 -0.25372944060E+02 -0.10543983012E+02  0.30000000000E+02  0.47000000000E+01 0.  1.
</event>
<event>
 5    1  0.7673937E-002  0.6000000E+02  0.7546771E-02  0.1259629E+00
         11   -1    0    0    0    0  0.00000000000E+00  0.00000000000E+00  0.30000000000E+02  0.30000000000E+02  0.00000000000E+00 0. -1.
        -11   -1    0    0    0    0 -0.00000000000E+00 -0.00000000000E+00 -0.30000000000E+02  0.30000000000E+02  0.00000000000E+00 0.  1.
         23    2    1    2    0    0  0.00000000000E+00  0.00000000000E+00  0.00000000000E+00  0.60000000000E+02  0.60000000000E+02 0.  0.
          5    1    3    3  501    0 -0.24579281333E+02  0.16510675657E+02  0.10800548635E+01  0.30000000000E+02  0.47000000000E+01 0.  1.
         -5    1    3    3    0  501  0.24579281333E+02 -0.16510675657E+02 -0.10800548635E+01  0.30000000000E+02  0.47000000000E+01 0. -1.
</event>
<event>
 5    1  0.7673937E-002  0.6000000E+02  0.7546771E-02  0.1259629E+00
         11   -1    0    0    0    0  0.00000000000E+00  0.00000000000E+00  0.30000000000E+02  0.30000000000E+02  0.00000000000E+00 0.  1.
        -11   -1    0    0    0    0 -0.00000000000E+00 -0.00000000000E+00 -0.30000000000E+02  0.30000000000E+02  0.00000000000E+00 0. -1.
         23    2    1    2    0    0  0.00000000000E+00  0.00000000000E+00  0.00000000000E+00  0.60000000000E+02  0.60000000000E+02 0.  0.
          5    1    3    3  501    0  0.19538725435E+02 -0.11886163009E+02 -0.18837922850E+02  0.30000000000E+02  0.47000000000E+01 0. -1.
         -5    1    3    3    0  501 -0.19538725435E+02  0.11886163009E+02  0.18837922850E+02  0.30000000000E+02  0.47000000000E+01 0.  1.
</event>
<event>
 5    1  0.7673937E-002  0.6000000E+02  0.7546771E-02  0.1259629E+00
         11   -1    0    0    0    0  0.00000000000E+00  0.00000000000E+00  0.30000000000E+02  0.30000000000E+02  0.00000000000E+00 0. -1.
        -11   -1    0    0    0    0 -0.00000000000E+00 -0.00000000000E+00 -0.30000000000E+02  0.30000000000E+02  0.00000000000E+00 0.  1.
         23    2    1    2    0    0  0.00000000000E+00  0.00000000000E+00  0.00000000000E+00  0.60000000000E+02  0.60000000000E+02 0.  0.
          5    1    3    3  501    0  0.65638642551E+01  0.43345368755E+01 -0.28566369670E+02  0.30000000000E+02  0.47000000000E+01 0.  1.
         -5    1    3    3    0  501 -0.65638642551E+01 -0.43345368755E+01  0.28566369670E+02  0.30000000000E+02  0.47000000000E+01 0. -1.
</event>
<event>
 5    1  0.7673937E-002  0.6000000E+02  0.7546771E-02  0.1259629E+00
         11   -1    0    0    0    0  0.00000000000E+00  0.00000000000E+00  0.30000000000E+02  0.30000000000E+02  0.00000000000E+00 0.  1.
        -11   -1    0    0    0    0 -0.00000000000E+00 -0.00000000000E+00 -0.30000000000E+02  0.30000000000E+02  0.00000000000E+00 0. -1.
         23    2    1    2    0    0  0.00000000000E+00  0.00000000000E+00  0.00000000000E+00  0.60000000000E+02  0.60000000000E+02 0.  0.
          5    1    3    3  501    0 -0.28920508581E+02 -0.64010486152E+01  0.73536389608E+00  0.30000000000E+02  0.47000000000E+01 0.  1.
         -5    1    3    3    0  501  0.28920508581E+02  0.64010486152E+01 -0.73536389608E+00  0.30000000000E+02  0.47000000000E+01 0. -1.
</event>
<event>
 5    1  0.7673937E-002  0.6000000E+02  0.7546771E-02  0.1259629E+00
         11   -1    0    0    0    0  0.00000000000E+00  0.00000000000E+00  0.30000000000E+02  0.30000000000E+02  0.00000000000E+00 0.  1.
        -11   -1    0    0    0    0 -0.00000000000E+00 -0.00000000000E+00 -0.30000000000E+02  0.30000000000E+02  0.00000000000E+00 0. -1.
         23    2    1    2    0    0  0.00000000000E+00  0.00000000000E+00  0.00000000000E+00  0.60000000000E+02  0.60000000000E+02 0.  0.
          5    1    3    3  501    0 -0.29089249559E+02  0.10648806605E+01  0.55309663975E+01  0.30000000000E+02  0.47000000000E+01 0. -1.
         -5    1    3    3    0  501  0.29089249559E+02 -0.10648806605E+01 -0.55309663975E+01  0.30000000000E+02  0.47000000000E+01 0.  1.
</event>
<event>
 5    1  0.7673937E-002  0.6000000E+02  0.7546771E-02  0.1259629E+00
         11   -1    0    0    0    0  0.00000000000E+00  0.00000000000E+00  0.30000000000E+02  0.30000000000E+02  0.00000000000E+00 0. -1.
        -11   -1    0    0    0    0 -0.00000000000E+00 -0.00000000000E+00 -0.30000000000E+02  0.30000000000E+02  0.00000000000E+00 0.  1.
         23    2    1    2    0    0  0.00000000000E+00  0.00000000000E+00  0.00000000000E+00  0.60000000000E+02  0.60000000000E+02 0.  0.
          5    1    3    3  501    0  0.29096472388E+02 -0.45289665007E+01 -0.32853853630E+01  0.30000000000E+02  0.47000000000E+01 0.  1.
         -5    1    3    3    0  501 -0.29096472388E+02  0.45289665007E+01  0.32853853630E+01  0.30000000000E+02  0.47000000000E+01 0. -1.
</event>
<event>
 5    1  0.7673937E-002  0.6000000E+02  0.7546771E-02  0.1259629E+00
         11   -1    0    0    0    0  0.00000000000E+00  0.00000000000E+00  0.30000000000E+02  0.30000000000E+02  0.00000000000E+00 0.  1.
        -11   -1    0    0    0    0 -0.00000000000E+00 -0.00000000000E+00 -0.30000000000E+02  0.30000000000E+02  0.00000000000E+00 0. -1.
         23    2    1    2    0    0  0.00000000000E+00  0.00000000000E+00  0.00000000000E+00  0.60000000000E+02  0.60000000000E+02 0.  0.
          5    1    3    3  501    0  0.23072829038E+02  0.15932385290E+02 -0.95767248654E+01  0.30000000000E+02  0.47000000000E+01 0. -1.
         -5    1    3    3    0  501 -0.23072829038E+02 -0.15932385290E+02  0.95767248654E+01  0.30000000000E+02  0.47000000000E+01 0.  1.
</event>
<event>
 5    1  0.7673937E-002  0.6000000E+02  0.7546771E-02  0.1259629E+00
         11   -1    0    0    0    0  0.00000000000E+00  0.00000000000E+00  0.30000000000E+02  0.30000000000E+02  0.00000000000E+00 0.  1.
        -11   -1    0    0    0    0 -0.00000000000E+00 -0.00000000000E+00 -0.30000000000E+02  0.30000000000E+02  0.00000000000E+00 0. -1.
         23    2    1    2    0    0  0.00000000000E+00  0.00000000000E+00  0.00000000000E+00  0.60000000000E+02  0.60000000000E+02 0.  0.
          5    1    3    3  501    0  0.74737228263E+01  0.10148092830E+02 -0.26815474619E+02  0.30000000000E+02  0.47000000000E+01 0. -1.
         -5    1    3    3    0  501 -0.74737228263E+01 -0.10148092830E+02  0.26815474619E+02  0.30000000000E+02  0.47000000000E+01 0.  1.
</event>
<event>
 5    1  0.7673937E-002  0.6000000E+02  0.7546771E-02  0.1259629E+00
         11   -1    0    0    0    0  0.00000000000E+00  0.00000000000E+00  0.30000000000E+02  0.30000000000E+02  0.00000000000E+00 0. -1.
        -11   -1    0    0    0    0 -0.00000000000E+00 -0.00000000000E+00 -0.30000000000E+02  0.30000000000E+02  0.00000000000E+00 0.  1.
         23    2    1    2    0    0  0.00000000000E+00  0.00000000000E+00  0.00000000000E+00  0.60000000000E+02  0.60000000000E+02 0.  0.
          5    1    3    3  501    0 -0.15984536511E+02  0.15724159533E+02  0.19368928714E+02  0.30000000000E+02  0.47000000000E+01 0. -1.
         -5    1    3    3    0  501  0.15984536511E+02 -0.15724159533E+02 -0.19368928714E+02  0.30000000000E+02  0.47000000000E+01 0.  1.
</event>
<event>
 5    1  0.7673937E-002  0.6000000E+02  0.7546771E-02  0.1259629E+00
         11   -1    0    0    0    0  0.00000000000E+00  0.00000000000E+00  0.30000000000E+02  0.30000000000E+02  0.00000000000E+00 0.  1.
        -11   -1    0    0    0    0 -0.00000000000E+00 -0.00000000000E+00 -0.30000000000E+02  0.30000000000E+02  0.00000000000E+00 0. -1.
         23    2    1    2    0    0  0.00000000000E+00  0.00000000000E+00  0.00000000000E+00  0.60000000000E+02  0.60000000000E+02 0.  0.
          5    1    3    3  501    0  0.20532366860E+02  0.55581244145E+01 -0.20626176673E+02  0.30000000000E+02  0.47000000000E+01 0. -1.
         -5    1    3    3    0  501 -0.20532366860E+02 -0.55581244145E+01  0.20626176673E+02  0.30000000000E+02  0.47000000000E+01 0.  1.
</event>
<event>
 5    1  0.7673937E-002  0.6000000E+02  0.7546771E-02  0.1259629E+00
         11   -1    0    0    0    0  0.00000000000E+00  0.00000000000E+00  0.30000000000E+02  0.30000000000E+02  0.00000000000E+00 0.  1.
        -11   -1    0    0    0    0 -0.00000000000E+00 -0.00000000000E+00 -0.30000000000E+02  0.30000000000E+02  0.00000000000E+00 0. -1.
         23    2    1    2    0    0  0.00000000000E+00  0.00000000000E+00  0.00000000000E+00  0.60000000000E+02  0.60000000000E+02 0.  0.
          5    1    3    3  501    0 -0.12595108700E+02 -0.99166458710E+01 -0.24918534698E+02  0.30000000000E+02  0.47000000000E+01 0. -1.
         -5    1    3    3    0  501  0.12595108700E+02  0.99166458710E+01  0.24918534698E+02  0.30000000000E+02  0.47000000000E+01 0.  1.
</event>
<event>
 5    1  0.7673937E-002  0.6000000E+02  0.7546771E-02  0.1259629E+00
         11   -1    0    0    0    0  0.00000000000E+00  0.00000000000E+00  0.30000000000E+02  0.30000000000E+02  0.00000000000E+00 0.  1.
        -11   -1    0    0    0    0 -0.00000000000E+00 -0.00000000000E+00 -0.30000000000E+02  0.30000000000E+02  0.00000000000E+00 0. -1.
         23    2    1    2    0    0  0.00000000000E+00  0.00000000000E+00  0.00000000000E+00  0.60000000000E+02  0.60000000000E+02 0.  0.
          5    1    3    3  501    0 -0.32725228398E+01  0.10470784478E+02 -0.27523867219E+02  0.30000000000E+02  0.47000000000E+01 0. -1.
         -5    1    3    3    0  501  0.32725228398E+01 -0.10470784478E+02  0.27523867219E+02  0.30000000000E+02  0.47000000000E+01 0.  1.
</event>
<event>
 5    1  0.7673937E-002  0.6000000E+02  0.7546771E-02  0.1259629E+00
         11   -1    0    0    0    0  0.00000000000E+00  0.00000000000E+00  0.30000000000E+02  0.30000000000E+02  0.00000000000E+00 0.  1.
        -11   -1    0    0    0    0 -0.00000000000E+00 -0.00000000000E+00 -0.30000000000E+02  0.30000000000E+02  0.00000000000E+00 0. -1.
         23    2    1    2    0    0  0.00000000000E+00  0.00000000000E+00  0.00000000000E+00  0.60000000000E+02  0.60000000000E+02 0.  0.
          5    1    3    3  501    0 -0.15358619818E+02 -0.99741095825E-01 -0.25337972472E+02  0.30000000000E+02  0.47000000000E+01 0. -1.
         -5    1    3    3    0  501  0.15358619818E+02  0.99741095825E-01  0.25337972472E+02  0.30000000000E+02  0.47000000000E+01 0.  1.
</event>
<event>
 5    1  0.7673937E-002  0.6000000E+02  0.7546771E-02  0.1259629E+00
         11   -1    0    0    0    0  0.00000000000E+00  0.00000000000E+00  0.30000000000E+02  0.30000000000E+02  0.00000000000E+00 0. -1.
        -11   -1    0    0    0    0 -0.00000000000E+00 -0.00000000000E+00 -0.30000000000E+02  0.30000000000E+02  0.00000000000E+00 0.  1.
         23    2    1    2    0    0  0.00000000000E+00  0.00000000000E+00  0.00000000000E+00  0.60000000000E+02  0.60000000000E+02 0.  0.
          5    1    3    3  501    0 -0.11178834250E+02  0.12916788854E+02  0.24209507028E+02  0.30000000000E+02  0.47000000000E+01 0.  1.
         -5    1    3    3    0  501  0.11178834250E+02 -0.12916788854E+02 -0.24209507028E+02  0.30000000000E+02  0.47000000000E+01 0. -1.
</event>
<event>
 5    1  0.7673937E-002  0.6000000E+02  0.7546771E-02  0.1259629E+00
         11   -1    0    0    0    0  0.00000000000E+00  0.00000000000E+00  0.30000000000E+02  0.30000000000E+02  0.00000000000E+00 0.  1.
        -11   -1    0    0    0    0 -0.00000000000E+00 -0.00000000000E+00 -0.30000000000E+02  0.30000000000E+02  0.00000000000E+00 0. -1.
         23    2    1    2    0    0  0.00000000000E+00  0.00000000000E+00  0.00000000000E+00  0.60000000000E+02  0.60000000000E+02 0.  0.
          5    1    3    3  501    0 -0.19682175694E+01 -0.18274423192E+02 -0.23239655260E+02  0.30000000000E+02  0.47000000000E+01 0. -1.
         -5    1    3    3    0  501  0.19682175694E+01  0.18274423192E+02  0.23239655260E+02  0.30000000000E+02  0.47000000000E+01 0.  1.
</event>
<event>
 5    1  0.7673937E-002  0.6000000E+02  0.7546771E-02  0.1259629E+00
         11   -1    0    0    0    0  0.00000000000E+00  0.00000000000E+00  0.30000000000E+02  0.30000000000E+02  0.00000000000E+00 0. -1.
        -11   -1    0    0    0    0 -0.00000000000E+00 -0.00000000000E+00 -0.30000000000E+02  0.30000000000E+02  0.00000000000E+00 0.  1.
         23    2    1    2    0    0  0.00000000000E+00  0.00000000000E+00  0.00000000000E+00  0.60000000000E+02  0.60000000000E+02 0.  0.
          5    1    3    3  501    0  0.11895076792E+02  0.22700228325E+02 -0.14869996036E+02  0.30000000000E+02  0.47000000000E+01 0.  1.
         -5    1    3    3    0  501 -0.11895076792E+02 -0.22700228325E+02  0.14869996036E+02  0.30000000000E+02  0.47000000000E+01 0. -1.
</event>
<event>
 5    1  0.7673937E-002  0.6000000E+02  0.7546771E-02  0.1259629E+00
         11   -1    0    0    0    0  0.00000000000E+00  0.00000000000E+00  0.30000000000E+02  0.30000000000E+02  0.00000000000E+00 0.  1.
        -11   -1    0    0    0    0 -0.00000000000E+00 -0.00000000000E+00 -0.30000000000E+02  0.30000000000E+02  0.00000000000E+00 0. -1.
         23    2    1    2    0    0  0.00000000000E+00  0.00000000000E+00  0.00000000000E+00  0.60000000000E+02  0.60000000000E+02 0.  0.
          5    1    3    3  501    0  0.21462341199E+02 -0.19742287031E+02 -0.52459520639E+01  0.30000000000E+02  0.47000000000E+01 0. -1.
         -5    1    3    3    0  501 -0.21462341199E+02  0.19742287031E+02  0.52459520639E+01  0.30000000000E+02  0.47000000000E+01 0.  1.
</event>
<event>
 5    1  0.7673937E-002  0.6000000E+02  0.7546771E-02  0.1259629E+00
         11   -1    0    0    0    0  0.00000000000E+00  0.00000000000E+00  0.30000000000E+02  0.30000000000E+02  0.00000000000E+00 0.  1.
        -11   -1    0    0    0    0 -0.00000000000E+00 -0.00000000000E+00 -0.30000000000E+02  0.30000000000E+02  0.00000000000E+00 0. -1.
         23    2    1    2    0    0  0.00000000000E+00  0.00000000000E+00  0.00000000000E+00  0.60000000000E+02  0.60000000000E+02 0.  0.
          5    1    3    3  501    0 -0.82682354161E+01 -0.27927912116E+02 -0.54385667154E+01  0.30000000000E+02  0.47000000000E+01 0. -1.
         -5    1    3    3    0  501  0.82682354161E+01  0.27927912116E+02  0.54385667154E+01  0.30000000000E+02  0.47000000000E+01 0.  1.
</event>
<event>
 5    1  0.7673937E-002  0.6000000E+02  0.7546771E-02  0.1259629E+00
         11   -1    0    0    0    0  0.00000000000E+00  0.00000000000E+00  0.30000000000E+02  0.30000000000E+02  0.00000000000E+00 0.  1.
        -11   -1    0    0    0    0 -0.00000000000E+00 -0.00000000000E+00 -0.30000000000E+02  0.30000000000E+02  0.00000000000E+00 0. -1.
         23    2    1    2    0    0  0.00000000000E+00  0.00000000000E+00  0.00000000000E+00  0.60000000000E+02  0.60000000000E+02 0.  0.
          5    1    3    3  501    0 -0.21467455310E+02  0.69935637451E+01 -0.19187194393E+02  0.30000000000E+02  0.47000000000E+01 0. -1.
         -5    1    3    3    0  501  0.21467455310E+02 -0.69935637451E+01  0.19187194393E+02  0.30000000000E+02  0.47000000000E+01 0.  1.
</event>
<event>
 5    1  0.7673937E-002  0.6000000E+02  0.7546771E-02  0.1259629E+00
         11   -1    0    0    0    0  0.00000000000E+00  0.00000000000E+00  0.30000000000E+02  0.30000000000E+02  0.00000000000E+00 0.  1.
        -11   -1    0    0    0    0 -0.00000000000E+00 -0.00000000000E+00 -0.30000000000E+02  0.30000000000E+02  0.00000000000E+00 0. -1.
         23    2    1    2    0    0  0.00000000000E+00  0.00000000000E+00  0.00000000000E+00  0.60000000000E+02  0.60000000000E+02 0.  0.
          5    1    3    3  501    0  0.57582478178E+01  0.21827079338E+02 -0.19191956379E+02  0.30000000000E+02  0.47000000000E+01 0. -1.
         -5    1    3    3    0  501 -0.57582478178E+01 -0.21827079338E+02  0.19191956379E+02  0.30000000000E+02  0.47000000000E+01 0.  1.
</event>
<event>
 5    1  0.7673937E-002  0.6000000E+02  0.7546771E-02  0.1259629E+00
         11   -1    0    0    0    0  0.00000000000E+00  0.00000000000E+00  0.30000000000E+02  0.30000000000E+02  0.00000000000E+00 0.  1.
        -11   -1    0    0    0    0 -0.00000000000E+00 -0.00000000000E+00 -0.30000000000E+02  0.30000000000E+02  0.00000000000E+00 0. -1.
         23    2    1    2    0    0  0.00000000000E+00  0.00000000000E+00  0.00000000000E+00  0.60000000000E+02  0.60000000000E+02 0.  0.
          5    1    3    3  501    0  0.55155721088E+01 -0.17904412102E+02 -0.22954748781E+02  0.30000000000E+02  0.47000000000E+01 0. -1.
         -5    1    3    3    0  501 -0.55155721088E+01  0.17904412102E+02  0.22954748781E+02  0.30000000000E+02  0.47000000000E+01 0.  1.
</event>
<event>
 5    1  0.7673937E-002  0.6000000E+02  0.7546771E-02  0.1259629E+00
         11   -1    0    0    0    0  0.00000000000E+00  0.00000000000E+00  0.30000000000E+02  0.30000000000E+02  0.00000000000E+00 0.  1.
        -11   -1    0    0    0    0 -0.00000000000E+00 -0.00000000000E+00 -0.30000000000E+02  0.30000000000E+02  0.00000000000E+00 0. -1.
         23    2    1    2    0    0  0.00000000000E+00  0.00000000000E+00  0.00000000000E+00  0.60000000000E+02  0.60000000000E+02 0.  0.
          5    1    3    3  501    0  0.22077932598E+02 -0.16326498532E+02 -0.11131951217E+02  0.30000000000E+02  0.47000000000E+01 0. -1.
         -5    1    3    3    0  501 -0.22077932598E+02  0.16326498532E+02  0.11131951217E+02  0.30000000000E+02  0.47000000000E+01 0.  1.
</event>
<event>
 5    1  0.7673937E-002  0.6000000E+02  0.7546771E-02  0.1259629E+00
         11   -1    0    0    0    0  0.00000000000E+00  0.00000000000E+00  0.30000000000E+02  0.30000000000E+02  0.00000000000E+00 0. -1.
        -11   -1    0    0    0    0 -0.00000000000E+00 -0.00000000000E+00 -0.30000000000E+02  0.30000000000E+02  0.00000000000E+00 0.  1.
         23    2    1    2    0    0  0.00000000000E+00  0.00000000000E+00  0.00000000000E+00  0.60000000000E+02  0.60000000000E+02 0.  0.
          5    1    3    3  501    0 -0.63967283320E+01 -0.61704572609E+01 -0.28265125576E+02  0.30000000000E+02  0.47000000000E+01 0.  1.
         -5    1    3    3    0  501  0.63967283320E+01  0.61704572609E+01  0.28265125576E+02  0.30000000000E+02  0.47000000000E+01 0. -1.
</event>
<event>
 5    1  0.7673937E-002  0.6000000E+02  0.7546771E-02  0.1259629E+00
         11   -1    0    0    0    0  0.00000000000E+00  0.00000000000E+00  0.30000000000E+02  0.30000000000E+02  0.00000000000E+00 0. -1.
        -11   -1    0    0    0    0 -0.00000000000E+00 -0.00000000000E+00 -0.30000000000E+02  0.30000000000E+02  0.00000000000E+00 0.  1.
         23    2    1    2    0    0  0.00000000000E+00  0.00000000000E+00  0.00000000000E+00  0.60000000000E+02  0.60000000000E+02 0.  0.
          5    1    3    3  501    0 -0.11589095960E+02  0.84981278161E+01 -0.25911091803E+02  0.30000000000E+02  0.47000000000E+01 0.  1.
         -5    1    3    3    0  501  0.11589095960E+02 -0.84981278161E+01  0.25911091803E+02  0.30000000000E+02  0.47000000000E+01 0. -1.
</event>
<event>
 5    1  0.7673937E-002  0.6000000E+02  0.7546771E-02  0.1259629E+00
         11   -1    0    0    0    0  0.00000000000E+00  0.00000000000E+00  0.30000000000E+02  0.30000000000E+02  0.00000000000E+00 0.  1.
        -11   -1    0    0    0    0 -0.00000000000E+00 -0.00000000000E+00 -0.30000000000E+02  0.30000000000E+02  0.00000000000E+00 0. -1.
         23    2    1    2    0    0  0.00000000000E+00  0.00000000000E+00  0.00000000000E+00  0.60000000000E+02  0.60000000000E+02 0.  0.
          5    1    3    3  501    0  0.19827290725E+02 -0.10137014973E+02 -0.19545574178E+02  0.30000000000E+02  0.47000000000E+01 0. -1.
         -5    1    3    3    0  501 -0.19827290725E+02  0.10137014973E+02  0.19545574178E+02  0.30000000000E+02  0.47000000000E+01 0.  1.
</event>
<event>
 5    1  0.7673937E-002  0.6000000E+02  0.7546771E-02  0.1259629E+00
         11   -1    0    0    0    0  0.00000000000E+00  0.00000000000E+00  0.30000000000E+02  0.30000000000E+02  0.00000000000E+00 0.  1.
        -11   -1    0    0    0    0 -0.00000000000E+00 -0.00000000000E+00 -0.30000000000E+02  0.30000000000E+02  0.00000000000E+00 0. -1.
         23    2    1    2    0    0  0.00000000000E+00  0.00000000000E+00  0.00000000000E+00  0.60000000000E+02  0.60000000000E+02 0.  0.
          5    1    3    3  501    0  0.66378654044E+01 -0.13257720848E+02 -0.25653100803E+02  0.30000000000E+02  0.47000000000E+01 0. -1.
         -5    1    3    3    0  501 -0.66378654044E+01  0.13257720848E+02  0.25653100803E+02  0.30000000000E+02  0.47000000000E+01 0.  1.
</event>
<event>
 5    1  0.7673937E-002  0.6000000E+02  0.7546771E-02  0.1259629E+00
         11   -1    0    0    0    0  0.00000000000E+00  0.00000000000E+00  0.30000000000E+02  0.30000000000E+02  0.00000000000E+00 0.  1.
        -11   -1    0    0    0    0 -0.00000000000E+00 -0.00000000000E+00 -0.30000000000E+02  0.30000000000E+02  0.00000000000E+00 0. -1.
         23    2    1    2    0    0  0.00000000000E+00  0.00000000000E+00  0.00000000000E+00  0.60000000000E+02  0.60000000000E+02 0.  0.
          5    1    3    3  501    0  0.50758158263E+01  0.22407980243E+02 -0.18709049017E+02  0.30000000000E+02  0.47000000000E+01 0. -1.
         -5    1    3    3    0  501 -0.50758158263E+01 -0.22407980243E+02  0.18709049017E+02  0.30000000000E+02  0.47000000000E+01 0.  1.
</event>
<event>
 5    1  0.7673937E-002  0.6000000E+02  0.7546771E-02  0.1259629E+00
         11   -1    0    0    0    0  0.00000000000E+00  0.00000000000E+00  0.30000000000E+02  0.30000000000E+02  0.00000000000E+00 0. -1.
        -11   -1    0    0    0    0 -0.00000000000E+00 -0.00000000000E+00 -0.30000000000E+02  0.30000000000E+02  0.00000000000E+00 0.  1.
         23    2    1    2    0    0  0.00000000000E+00  0.00000000000E+00  0.00000000000E+00  0.60000000000E+02  0.60000000000E+02 0.  0.
          5    1    3    3  501    0  0.60584651751E+01 -0.24309421834E+02 -0.15819513577E+02  0.30000000000E+02  0.47000000000E+01 0. -1.
         -5    1    3    3    0  501 -0.60584651751E+01  0.24309421834E+02  0.15819513577E+02  0.30000000000E+02  0.47000000000E+01 0.  1.
</event>
<event>
 5    1  0.7673937E-002  0.6000000E+02  0.7546771E-02  0.1259629E+00
         11   -1    0    0    0    0  0.00000000000E+00  0.00000000000E+00  0.30000000000E+02  0.30000000000E+02  0.00000000000E+00 0.  1.
        -11   -1    0    0    0    0 -0.00000000000E+00 -0.00000000000E+00 -0.30000000000E+02  0.30000000000E+02  0.00000000000E+00 0. -1.
         23    2    1    2    0    0  0.00000000000E+00  0.00000000000E+00  0.00000000000E+00  0.60000000000E+02  0.60000000000E+02 0.  0.
          5    1    3    3  501    0 -0.17516308413E+02  0.46177061832E+01 -0.23447083597E+02  0.30000000000E+02  0.47000000000E+01 0. -1.
         -5    1    3    3    0  501  0.17516308413E+02 -0.46177061832E+01  0.23447083597E+02  0.30000000000E+02  0.47000000000E+01 0.  1.
</event>
<event>
 5    1  0.7673937E-002  0.6000000E+02  0.7546771E-02  0.1259629E+00
         11   -1    0    0    0    0  0.00000000000E+00  0.00000000000E+00  0.30000000000E+02  0.30000000000E+02  0.00000000000E+00 0.  1.
        -11   -1    0    0    0    0 -0.00000000000E+00 -0.00000000000E+00 -0.30000000000E+02  0.30000000000E+02  0.00000000000E+00 0. -1.
         23    2    1    2    0    0  0.00000000000E+00  0.00000000000E+00  0.00000000000E+00  0.60000000000E+02  0.60000000000E+02 0.  0.
          5    1    3    3  501    0  0.10676177491E+01  0.26504321831E+02 -0.13201936094E+02  0.30000000000E+02  0.47000000000E+01 0. -1.
         -5    1    3    3    0  501 -0.10676177491E+01 -0.26504321831E+02  0.13201936094E+02  0.30000000000E+02  0.47000000000E+01 0.  1.
</event>
<event>
 5    1  0.7673937E-002  0.6000000E+02  0.7546771E-02  0.1259629E+00
         11   -1    0    0    0    0  0.00000000000E+00  0.00000000000E+00  0.30000000000E+02  0.30000000000E+02  0.00000000000E+00 0.  1.
        -11   -1    0    0    0    0 -0.00000000000E+00 -0.00000000000E+00 -0.30000000000E+02  0.30000000000E+02  0.00000000000E+00 0. -1.
         23    2    1    2    0    0  0.00000000000E+00  0.00000000000E+00  0.00000000000E+00  0.60000000000E+02  0.60000000000E+02 0.  0.
          5    1    3    3  501    0 -0.26478508508E+02 -0.82984359700E+01  0.10389155290E+02  0.30000000000E+02  0.47000000000E+01 0. -1.
         -5    1    3    3    0  501  0.26478508508E+02  0.82984359700E+01 -0.10389155290E+02  0.30000000000E+02  0.47000000000E+01 0.  1.
</event>
<event>
 5    1  0.7673937E-002  0.6000000E+02  0.7546771E-02  0.1259629E+00
         11   -1    0    0    0    0  0.00000000000E+00  0.00000000000E+00  0.30000000000E+02  0.30000000000E+02  0.00000000000E+00 0.  1.
        -11   -1    0    0    0    0 -0.00000000000E+00 -0.00000000000E+00 -0.30000000000E+02  0.30000000000E+02  0.00000000000E+00 0. -1.
         23    2    1    2    0    0  0.00000000000E+00  0.00000000000E+00  0.00000000000E+00  0.60000000000E+02  0.60000000000E+02 0.  0.
          5    1    3    3  501    0  0.27964079375E+02  0.82814462581E+00 -0.97588135142E+01  0.30000000000E+02  0.47000000000E+01 0.  1.
         -5    1    3    3    0  501 -0.27964079375E+02 -0.82814462581E+00  0.97588135142E+01  0.30000000000E+02  0.47000000000E+01 0.  1.
</event>
<event>
 5    1  0.7673937E-002  0.6000000E+02  0.7546771E-02  0.1259629E+00
         11   -1    0    0    0    0  0.00000000000E+00  0.00000000000E+00  0.30000000000E+02  0.30000000000E+02  0.00000000000E+00 0. -1.
        -11   -1    0    0    0    0 -0.00000000000E+00 -0.00000000000E+00 -0.30000000000E+02  0.30000000000E+02  0.00000000000E+00 0.  1.
         23    2    1    2    0    0  0.00000000000E+00  0.00000000000E+00  0.00000000000E+00  0.60000000000E+02  0.60000000000E+02 0.  0.
          5    1    3    3  501    0  0.72230545107E+01 -0.19475983660E+02  0.21128737397E+02  0.30000000000E+02  0.47000000000E+01 0. -1.
         -5    1    3    3    0  501 -0.72230545107E+01  0.19475983660E+02 -0.21128737397E+02  0.30000000000E+02  0.47000000000E+01 0.  1.
</event>
<event>
 5    1  0.7673937E-002  0.6000000E+02  0.7546771E-02  0.1259629E+00
         11   -1    0    0    0    0  0.00000000000E+00  0.00000000000E+00  0.30000000000E+02  0.30000000000E+02  0.00000000000E+00 0.  1.
        -11   -1    0    0    0    0 -0.00000000000E+00 -0.00000000000E+00 -0.30000000000E+02  0.30000000000E+02  0.00000000000E+00 0. -1.
         23    2    1    2    0    0  0.00000000000E+00  0.00000000000E+00  0.00000000000E+00  0.60000000000E+02  0.60000000000E+02 0.  0.
          5    1    3    3  501    0  0.10177940847E+01  0.27800683323E+02  0.10197847910E+02  0.30000000000E+02  0.47000000000E+01 0. -1.
         -5    1    3    3    0  501 -0.10177940847E+01 -0.27800683323E+02 -0.10197847910E+02  0.30000000000E+02  0.47000000000E+01 0.  1.
</event>
<event>
 5    1  0.7673937E-002  0.6000000E+02  0.7546771E-02  0.1259629E+00
         11   -1    0    0    0    0  0.00000000000E+00  0.00000000000E+00  0.30000000000E+02  0.30000000000E+02  0.00000000000E+00 0.  1.
        -11   -1    0    0    0    0 -0.00000000000E+00 -0.00000000000E+00 -0.30000000000E+02  0.30000000000E+02  0.00000000000E+00 0. -1.
         23    2    1    2    0    0  0.00000000000E+00  0.00000000000E+00  0.00000000000E+00  0.60000000000E+02  0.60000000000E+02 0.  0.
          5    1    3    3  501    0 -0.27569070130E+01  0.14342552727E+02 -0.25779849592E+02  0.30000000000E+02  0.47000000000E+01 0. -1.
         -5    1    3    3    0  501  0.27569070130E+01 -0.14342552727E+02  0.25779849592E+02  0.30000000000E+02  0.47000000000E+01 0.  1.
</event>
<event>
 5    1  0.7673937E-002  0.6000000E+02  0.7546771E-02  0.1259629E+00
         11   -1    0    0    0    0  0.00000000000E+00  0.00000000000E+00  0.30000000000E+02  0.30000000000E+02  0.00000000000E+00 0.  1.
        -11   -1    0    0    0    0 -0.00000000000E+00 -0.00000000000E+00 -0.30000000000E+02  0.30000000000E+02  0.00000000000E+00 0. -1.
         23    2    1    2    0    0  0.00000000000E+00  0.00000000000E+00  0.00000000000E+00  0.60000000000E+02  0.60000000000E+02 0.  0.
          5    1    3    3  501    0 -0.38369512038E+01  0.28004686593E+02 -0.88839931507E+01  0.30000000000E+02  0.47000000000E+01 0. -1.
         -5    1    3    3    0  501  0.38369512038E+01 -0.28004686593E+02  0.88839931507E+01  0.30000000000E+02  0.47000000000E+01 0.  1.
</event>
<event>
 5    1  0.7673937E-002  0.6000000E+02  0.7546771E-02  0.1259629E+00
         11   -1    0    0    0    0  0.00000000000E+00  0.00000000000E+00  0.30000000000E+02  0.30000000000E+02  0.00000000000E+00 0.  1.
        -11   -1    0    0    0    0 -0.00000000000E+00 -0.00000000000E+00 -0.30000000000E+02  0.30000000000E+02  0.00000000000E+00 0. -1.
         23    2    1    2    0    0  0.00000000000E+00  0.00000000000E+00  0.00000000000E+00  0.60000000000E+02  0.60000000000E+02 0.  0.
          5    1    3    3  501    0  0.25192366791E+02 -0.11962744059E+02 -0.10007367789E+02  0.30000000000E+02  0.47000000000E+01 0. -1.
         -5    1    3    3    0  501 -0.25192366791E+02  0.11962744059E+02  0.10007367789E+02  0.30000000000E+02  0.47000000000E+01 0.  1.
</event>
<event>
 5    1  0.7673937E-002  0.6000000E+02  0.7546771E-02  0.1259629E+00
         11   -1    0    0    0    0  0.00000000000E+00  0.00000000000E+00  0.30000000000E+02  0.30000000000E+02  0.00000000000E+00 0.  1.
        -11   -1    0    0    0    0 -0.00000000000E+00 -0.00000000000E+00 -0.30000000000E+02  0.30000000000E+02  0.00000000000E+00 0. -1.
         23    2    1    2    0    0  0.00000000000E+00  0.00000000000E+00  0.00000000000E+00  0.60000000000E+02  0.60000000000E+02 0.  0.
          5    1    3    3  501    0 -0.24249480485E+02 -0.50026279102E+01 -0.16274102439E+02  0.30000000000E+02  0.47000000000E+01 0. -1.
         -5    1    3    3    0  501  0.24249480485E+02  0.50026279102E+01  0.16274102439E+02  0.30000000000E+02  0.47000000000E+01 0.  1.
</event>
<event>
 5    1  0.7673937E-002  0.6000000E+02  0.7546771E-02  0.1259629E+00
         11   -1    0    0    0    0  0.00000000000E+00  0.00000000000E+00  0.30000000000E+02  0.30000000000E+02  0.00000000000E+00 0. -1.
        -11   -1    0    0    0    0 -0.00000000000E+00 -0.00000000000E+00 -0.30000000000E+02  0.30000000000E+02  0.00000000000E+00 0.  1.
         23    2    1    2    0    0  0.00000000000E+00  0.00000000000E+00  0.00000000000E+00  0.60000000000E+02  0.60000000000E+02 0.  0.
          5    1    3    3  501    0 -0.19646430762E+02 -0.67215852737E+01  0.21136415253E+02  0.30000000000E+02  0.47000000000E+01 0. -1.
         -5    1    3    3    0  501  0.19646430762E+02  0.67215852737E+01 -0.21136415253E+02  0.30000000000E+02  0.47000000000E+01 0.  1.
</event>
<event>
 5    1  0.7673937E-002  0.6000000E+02  0.7546771E-02  0.1259629E+00
         11   -1    0    0    0    0  0.00000000000E+00  0.00000000000E+00  0.30000000000E+02  0.30000000000E+02  0.00000000000E+00 0. -1.
        -11   -1    0    0    0    0 -0.00000000000E+00 -0.00000000000E+00 -0.30000000000E+02  0.30000000000E+02  0.00000000000E+00 0.  1.
         23    2    1    2    0    0  0.00000000000E+00  0.00000000000E+00  0.00000000000E+00  0.60000000000E+02  0.60000000000E+02 0.  0.
          5    1    3    3  501    0  0.34304054569E+01  0.20167259840E+02 -0.21434177124E+02  0.30000000000E+02  0.47000000000E+01 0.  1.
         -5    1    3    3    0  501 -0.34304054569E+01 -0.20167259840E+02  0.21434177124E+02  0.30000000000E+02  0.47000000000E+01 0. -1.
</event>
<event>
 5    1  0.7673937E-002  0.6000000E+02  0.7546771E-02  0.1259629E+00
         11   -1    0    0    0    0  0.00000000000E+00  0.00000000000E+00  0.30000000000E+02  0.30000000000E+02  0.00000000000E+00 0.  1.
        -11   -1    0    0    0    0 -0.00000000000E+00 -0.00000000000E+00 -0.30000000000E+02  0.30000000000E+02  0.00000000000E+00 0. -1.
         23    2    1    2    0    0  0.00000000000E+00  0.00000000000E+00  0.00000000000E+00  0.60000000000E+02  0.60000000000E+02 0.  0.
          5    1    3    3  501    0  0.22579146824E+02  0.72948187963E+01 -0.17744794940E+02  0.30000000000E+02  0.47000000000E+01 0. -1.
         -5    1    3    3    0  501 -0.22579146824E+02 -0.72948187963E+01  0.17744794940E+02  0.30000000000E+02  0.47000000000E+01 0.  1.
</event>
<event>
 5    1  0.7673937E-002  0.6000000E+02  0.7546771E-02  0.1259629E+00
         11   -1    0    0    0    0  0.00000000000E+00  0.00000000000E+00  0.30000000000E+02  0.30000000000E+02  0.00000000000E+00 0.  1.
        -11   -1    0    0    0    0 -0.00000000000E+00 -0.00000000000E+00 -0.30000000000E+02  0.30000000000E+02  0.00000000000E+00 0. -1.
         23    2    1    2    0    0  0.00000000000E+00  0.00000000000E+00  0.00000000000E+00  0.60000000000E+02  0.60000000000E+02 0.  0.
          5    1    3    3  501    0 -0.88741584620E+01  0.28265614091E+02 -0.46300284238E+00  0.30000000000E+02  0.47000000000E+01 0. -1.
         -5    1    3    3    0  501  0.88741584620E+01 -0.28265614091E+02  0.46300284238E+00  0.30000000000E+02  0.47000000000E+01 0.  1.
</event>
<event>
 5    1  0.7673937E-002  0.6000000E+02  0.7546771E-02  0.1259629E+00
         11   -1    0    0    0    0  0.00000000000E+00  0.00000000000E+00  0.30000000000E+02  0.30000000000E+02  0.00000000000E+00 0.  1.
        -11   -1    0    0    0    0 -0.00000000000E+00 -0.00000000000E+00 -0.30000000000E+02  0.30000000000E+02  0.00000000000E+00 0. -1.
         23    2    1    2    0    0  0.00000000000E+00  0.00000000000E+00  0.00000000000E+00  0.60000000000E+02  0.60000000000E+02 0.  0.
          5    1    3    3  501    0  0.58510078517E+01  0.17631802813E+02 -0.23082357693E+02  0.30000000000E+02  0.47000000000E+01 0. -1.
         -5    1    3    3    0  501 -0.58510078517E+01 -0.17631802813E+02  0.23082357693E+02  0.30000000000E+02  0.47000000000E+01 0.  1.
</event>
<event>
 5    1  0.7673937E-002  0.6000000E+02  0.7546771E-02  0.1259629E+00
         11   -1    0    0    0    0  0.00000000000E+00  0.00000000000E+00  0.30000000000E+02  0.30000000000E+02  0.00000000000E+00 0. -1.
        -11   -1    0    0    0    0 -0.00000000000E+00 -0.00000000000E+00 -0.30000000000E+02  0.30000000000E+02  0.00000000000E+00 0.  1.
         23    2    1    2    0    0  0.00000000000E+00  0.00000000000E+00  0.00000000000E+00  0.60000000000E+02  0.60000000000E+02 0.  0.
          5    1    3    3  501    0  0.24200652892E+02  0.11553603597E+02 -0.12599708072E+02  0.30000000000E+02  0.47000000000E+01 0.  1.
         -5    1    3    3    0  501 -0.24200652892E+02 -0.11553603597E+02  0.12599708072E+02  0.30000000000E+02  0.47000000000E+01 0. -1.
</event>
<event>
 5    1  0.7673937E-002  0.6000000E+02  0.7546771E-02  0.1259629E+00
         11   -1    0    0    0    0  0.00000000000E+00  0.00000000000E+00  0.30000000000E+02  0.30000000000E+02  0.00000000000E+00 0.  1.
        -11   -1    0    0    0    0 -0.00000000000E+00 -0.00000000000E+00 -0.30000000000E+02  0.30000000000E+02  0.00000000000E+00 0. -1.
         23    2    1    2    0    0  0.00000000000E+00  0.00000000000E+00  0.00000000000E+00  0.60000000000E+02  0.60000000000E+02 0.  0.
          5    1    3    3  501    0  0.63589231609E+01 -0.86529498061E+01 -0.27615223263E+02  0.30000000000E+02  0.47000000000E+01 0. -1.
         -5    1    3    3    0  501 -0.63589231609E+01  0.86529498061E+01  0.27615223263E+02  0.30000000000E+02  0.47000000000E+01 0.  1.
</event>
<event>
 5    1  0.7673937E-002  0.6000000E+02  0.7546771E-02  0.1259629E+00
         11   -1    0    0    0    0  0.00000000000E+00  0.00000000000E+00  0.30000000000E+02  0.30000000000E+02  0.00000000000E+00 0.  1.
        -11   -1    0    0    0    0 -0.00000000000E+00 -0.00000000000E+00 -0.30000000000E+02  0.30000000000E+02  0.00000000000E+00 0. -1.
         23    2    1    2    0    0  0.00000000000E+00  0.00000000000E+00  0.00000000000E+00  0.60000000000E+02  0.60000000000E+02 0.  0.
          5    1    3    3  501    0  0.29436848030E+02 -0.17124512941E+01 -0.29068004082E+01  0.30000000000E+02  0.47000000000E+01 0. -1.
         -5    1    3    3    0  501 -0.29436848030E+02  0.17124512941E+01  0.29068004082E+01  0.30000000000E+02  0.47000000000E+01 0.  1.
</event>
<event>
 5    1  0.7673937E-002  0.6000000E+02  0.7546771E-02  0.1259629E+00
         11   -1    0    0    0    0  0.00000000000E+00  0.00000000000E+00  0.30000000000E+02  0.30000000000E+02  0.00000000000E+00 0.  1.
        -11   -1    0    0    0    0 -0.00000000000E+00 -0.00000000000E+00 -0.30000000000E+02  0.30000000000E+02  0.00000000000E+00 0. -1.
         23    2    1    2    0    0  0.00000000000E+00  0.00000000000E+00  0.00000000000E+00  0.60000000000E+02  0.60000000000E+02 0.  0.
          5    1    3    3  501    0 -0.18025312524E+02  0.11561590514E+02 -0.20477493333E+02  0.30000000000E+02  0.47000000000E+01 0. -1.
         -5    1    3    3    0  501  0.18025312524E+02 -0.11561590514E+02  0.20477493333E+02  0.30000000000E+02  0.47000000000E+01 0.  1.
</event>
<event>
 5    1  0.7673937E-002  0.6000000E+02  0.7546771E-02  0.1259629E+00
         11   -1    0    0    0    0  0.00000000000E+00  0.00000000000E+00  0.30000000000E+02  0.30000000000E+02  0.00000000000E+00 0.  1.
        -11   -1    0    0    0    0 -0.00000000000E+00 -0.00000000000E+00 -0.30000000000E+02  0.30000000000E+02  0.00000000000E+00 0. -1.
         23    2    1    2    0    0  0.00000000000E+00  0.00000000000E+00  0.00000000000E+00  0.60000000000E+02  0.60000000000E+02 0.  0.
          5    1    3    3  501    0 -0.29197117458E+01 -0.17441295685E+02 -0.23773651132E+02  0.30000000000E+02  0.47000000000E+01 0. -1.
         -5    1    3    3    0  501  0.29197117458E+01  0.17441295685E+02  0.23773651132E+02  0.30000000000E+02  0.47000000000E+01 0.  1.
</event>
<event>
 5    1  0.7673937E-002  0.6000000E+02  0.7546771E-02  0.1259629E+00
         11   -1    0    0    0    0  0.00000000000E+00  0.00000000000E+00  0.30000000000E+02  0.30000000000E+02  0.00000000000E+00 0.  1.
        -11   -1    0    0    0    0 -0.00000000000E+00 -0.00000000000E+00 -0.30000000000E+02  0.30000000000E+02  0.00000000000E+00 0. -1.
         23    2    1    2    0    0  0.00000000000E+00  0.00000000000E+00  0.00000000000E+00  0.60000000000E+02  0.60000000000E+02 0.  0.
          5    1    3    3  501    0 -0.16704426767E+02  0.11523761277E+02 -0.21588771443E+02  0.30000000000E+02  0.47000000000E+01 0. -1.
         -5    1    3    3    0  501  0.16704426767E+02 -0.11523761277E+02  0.21588771443E+02  0.30000000000E+02  0.47000000000E+01 0.  1.
</event>
<event>
 5    1  0.7673937E-002  0.6000000E+02  0.7546771E-02  0.1259629E+00
         11   -1    0    0    0    0  0.00000000000E+00  0.00000000000E+00  0.30000000000E+02  0.30000000000E+02  0.00000000000E+00 0.  1.
        -11   -1    0    0    0    0 -0.00000000000E+00 -0.00000000000E+00 -0.30000000000E+02  0.30000000000E+02  0.00000000000E+00 0. -1.
         23    2    1    2    0    0  0.00000000000E+00  0.00000000000E+00  0.00000000000E+00  0.60000000000E+02  0.60000000000E+02 0.  0.
          5    1    3    3  501    0 -0.25421396521E+01 -0.14303923367E+02 -0.25823348007E+02  0.30000000000E+02  0.47000000000E+01 0. -1.
         -5    1    3    3    0  501  0.25421396521E+01  0.14303923367E+02  0.25823348007E+02  0.30000000000E+02  0.47000000000E+01 0.  1.
</event>
<event>
 5    1  0.7673937E-002  0.6000000E+02  0.7546771E-02  0.1259629E+00
         11   -1    0    0    0    0  0.00000000000E+00  0.00000000000E+00  0.30000000000E+02  0.30000000000E+02  0.00000000000E+00 0. -1.
        -11   -1    0    0    0    0 -0.00000000000E+00 -0.00000000000E+00 -0.30000000000E+02  0.30000000000E+02  0.00000000000E+00 0.  1.
         23    2    1    2    0    0  0.00000000000E+00  0.00000000000E+00  0.00000000000E+00  0.60000000000E+02  0.60000000000E+02 0.  0.
          5    1    3    3  501    0 -0.19850969552E+02  0.15792043271E+02 -0.15312099045E+02  0.30000000000E+02  0.47000000000E+01 0.  1.
         -5    1    3    3    0  501  0.19850969552E+02 -0.15792043271E+02  0.15312099045E+02  0.30000000000E+02  0.47000000000E+01 0. -1.
</event>
<event>
 5    1  0.7673937E-002  0.6000000E+02  0.7546771E-02  0.1259629E+00
         11   -1    0    0    0    0  0.00000000000E+00  0.00000000000E+00  0.30000000000E+02  0.30000000000E+02  0.00000000000E+00 0.  1.
        -11   -1    0    0    0    0 -0.00000000000E+00 -0.00000000000E+00 -0.30000000000E+02  0.30000000000E+02  0.00000000000E+00 0. -1.
         23    2    1    2    0    0  0.00000000000E+00  0.00000000000E+00  0.00000000000E+00  0.60000000000E+02  0.60000000000E+02 0.  0.
          5    1    3    3  501    0 -0.29886342740E+01 -0.10473455456E+02 -0.27555122863E+02  0.30000000000E+02  0.47000000000E+01 0. -1.
         -5    1    3    3    0  501  0.29886342740E+01  0.10473455456E+02  0.27555122863E+02  0.30000000000E+02  0.47000000000E+01 0.  1.
</event>
<event>
 5    1  0.7673937E-002  0.6000000E+02  0.7546771E-02  0.1259629E+00
         11   -1    0    0    0    0  0.00000000000E+00  0.00000000000E+00  0.30000000000E+02  0.30000000000E+02  0.00000000000E+00 0.  1.
        -11   -1    0    0    0    0 -0.00000000000E+00 -0.00000000000E+00 -0.30000000000E+02  0.30000000000E+02  0.00000000000E+00 0. -1.
         23    2    1    2    0    0  0.00000000000E+00  0.00000000000E+00  0.00000000000E+00  0.60000000000E+02  0.60000000000E+02 0.  0.
          5    1    3    3  501    0 -0.64350804544E+01  0.18018259217E+02  0.22623927032E+02  0.30000000000E+02  0.47000000000E+01 0.  1.
         -5    1    3    3    0  501  0.64350804544E+01 -0.18018259217E+02 -0.22623927032E+02  0.30000000000E+02  0.47000000000E+01 0. -1.
</event>
<event>
 5    1  0.7673937E-002  0.6000000E+02  0.7546771E-02  0.1259629E+00
         11   -1    0    0    0    0  0.00000000000E+00  0.00000000000E+00  0.30000000000E+02  0.30000000000E+02  0.00000000000E+00 0. -1.
        -11   -1    0    0    0    0 -0.00000000000E+00 -0.00000000000E+00 -0.30000000000E+02  0.30000000000E+02  0.00000000000E+00 0.  1.
         23    2    1    2    0    0  0.00000000000E+00  0.00000000000E+00  0.00000000000E+00  0.60000000000E+02  0.60000000000E+02 0.  0.
          5    1    3    3  501    0 -0.81894700384E+01  0.15501315997E+02 -0.23886225797E+02  0.30000000000E+02  0.47000000000E+01 0.  1.
         -5    1    3    3    0  501  0.81894700384E+01 -0.15501315997E+02  0.23886225797E+02  0.30000000000E+02  0.47000000000E+01 0. -1.
</event>
<event>
 5    1  0.7673937E-002  0.6000000E+02  0.7546771E-02  0.1259629E+00
         11   -1    0    0    0    0  0.00000000000E+00  0.00000000000E+00  0.30000000000E+02  0.30000000000E+02  0.00000000000E+00 0.  1.
        -11   -1    0    0    0    0 -0.00000000000E+00 -0.00000000000E+00 -0.30000000000E+02  0.30000000000E+02  0.00000000000E+00 0. -1.
         23    2    1    2    0    0  0.00000000000E+00  0.00000000000E+00  0.00000000000E+00  0.60000000000E+02  0.60000000000E+02 0.  0.
          5    1    3    3  501    0  0.16975539504E+02  0.19956341629E+02 -0.13837828129E+02  0.30000000000E+02  0.47000000000E+01 0. -1.
         -5    1    3    3    0  501 -0.16975539504E+02 -0.19956341629E+02  0.13837828129E+02  0.30000000000E+02  0.47000000000E+01 0.  1.
</event>
<event>
 5    1  0.7673937E-002  0.6000000E+02  0.7546771E-02  0.1259629E+00
         11   -1    0    0    0    0  0.00000000000E+00  0.00000000000E+00  0.30000000000E+02  0.30000000000E+02  0.00000000000E+00 0. -1.
        -11   -1    0    0    0    0 -0.00000000000E+00 -0.00000000000E+00 -0.30000000000E+02  0.30000000000E+02  0.00000000000E+00 0.  1.
         23    2    1    2    0    0  0.00000000000E+00  0.00000000000E+00  0.00000000000E+00  0.60000000000E+02  0.60000000000E+02 0.  0.
          5    1    3    3  501    0 -0.13285424221E+02 -0.16371206838E+02 -0.20818047217E+02  0.30000000000E+02  0.47000000000E+01 0.  1.
         -5    1    3    3    0  501  0.13285424221E+02  0.16371206838E+02  0.20818047217E+02  0.30000000000E+02  0.47000000000E+01 0. -1.
</event>
<event>
 5    1  0.7673937E-002  0.6000000E+02  0.7546771E-02  0.1259629E+00
         11   -1    0    0    0    0  0.00000000000E+00  0.00000000000E+00  0.30000000000E+02  0.30000000000E+02  0.00000000000E+00 0.  1.
        -11   -1    0    0    0    0 -0.00000000000E+00 -0.00000000000E+00 -0.30000000000E+02  0.30000000000E+02  0.00000000000E+00 0. -1.
         23    2    1    2    0    0  0.00000000000E+00  0.00000000000E+00  0.00000000000E+00  0.60000000000E+02  0.60000000000E+02 0.  0.
          5    1    3    3  501    0  0.17078440980E+02  0.78317405212E+01 -0.22910711340E+02  0.30000000000E+02  0.47000000000E+01 0. -1.
         -5    1    3    3    0  501 -0.17078440980E+02 -0.78317405212E+01  0.22910711340E+02  0.30000000000E+02  0.47000000000E+01 0.  1.
</event>
<event>
 5    1  0.7673937E-002  0.6000000E+02  0.7546771E-02  0.1259629E+00
         11   -1    0    0    0    0  0.00000000000E+00  0.00000000000E+00  0.30000000000E+02  0.30000000000E+02  0.00000000000E+00 0.  1.
        -11   -1    0    0    0    0 -0.00000000000E+00 -0.00000000000E+00 -0.30000000000E+02  0.30000000000E+02  0.00000000000E+00 0. -1.
         23    2    1    2    0    0  0.00000000000E+00  0.00000000000E+00  0.00000000000E+00  0.60000000000E+02  0.60000000000E+02 0.  0.
          5    1    3    3  501    0 -0.19153895502E+02  0.11168509560E+02  0.19654584231E+02  0.30000000000E+02  0.47000000000E+01 0.  1.
         -5    1    3    3    0  501  0.19153895502E+02 -0.11168509560E+02 -0.19654584231E+02  0.30000000000E+02  0.47000000000E+01 0. -1.
</event>
<event>
 5    1  0.7673937E-002  0.6000000E+02  0.7546771E-02  0.1259629E+00
         11   -1    0    0    0    0  0.00000000000E+00  0.00000000000E+00  0.30000000000E+02  0.30000000000E+02  0.00000000000E+00 0.  1.
        -11   -1    0    0    0    0 -0.00000000000E+00 -0.00000000000E+00 -0.30000000000E+02  0.30000000000E+02  0.00000000000E+00 0. -1.
         23    2    1    2    0    0  0.00000000000E+00  0.00000000000E+00  0.00000000000E+00  0.60000000000E+02  0.60000000000E+02 0.  0.
          5    1    3    3  501    0 -0.11810233835E+01 -0.11029002418E+01 -0.29585449039E+02  0.30000000000E+02  0.47000000000E+01 0. -1.
         -5    1    3    3    0  501  0.11810233835E+01  0.11029002418E+01  0.29585449039E+02  0.30000000000E+02  0.47000000000E+01 0.  1.
</event>
<event>
 5    1  0.7673937E-002  0.6000000E+02  0.7546771E-02  0.1259629E+00
         11   -1    0    0    0    0  0.00000000000E+00  0.00000000000E+00  0.30000000000E+02  0.30000000000E+02  0.00000000000E+00 0. -1.
        -11   -1    0    0    0    0 -0.00000000000E+00 -0.00000000000E+00 -0.30000000000E+02  0.30000000000E+02  0.00000000000E+00 0.  1.
         23    2    1    2    0    0  0.00000000000E+00  0.00000000000E+00  0.00000000000E+00  0.60000000000E+02  0.60000000000E+02 0.  0.
          5    1    3    3  501    0  0.20020494114E+01  0.26418112182E+02  0.13265939352E+02  0.30000000000E+02  0.47000000000E+01 0. -1.
         -5    1    3    3    0  501 -0.20020494114E+01 -0.26418112182E+02 -0.13265939352E+02  0.30000000000E+02  0.47000000000E+01 0.  1.
</event>
<event>
 5    1  0.7673937E-002  0.6000000E+02  0.7546771E-02  0.1259629E+00
         11   -1    0    0    0    0  0.00000000000E+00  0.00000000000E+00  0.30000000000E+02  0.30000000000E+02  0.00000000000E+00 0.  1.
        -11   -1    0    0    0    0 -0.00000000000E+00 -0.00000000000E+00 -0.30000000000E+02  0.30000000000E+02  0.00000000000E+00 0. -1.
         23    2    1    2    0    0  0.00000000000E+00  0.00000000000E+00  0.00000000000E+00  0.60000000000E+02  0.60000000000E+02 0.  0.
          5    1    3    3  501    0 -0.57424902090E+01  0.26383565062E+02  0.12200053313E+02  0.30000000000E+02  0.47000000000E+01 0. -1.
         -5    1    3    3    0  501  0.57424902090E+01 -0.26383565062E+02 -0.12200053313E+02  0.30000000000E+02  0.47000000000E+01 0.  1.
</event>
<event>
 5    1  0.7673937E-002  0.6000000E+02  0.7546771E-02  0.1259629E+00
         11   -1    0    0    0    0  0.00000000000E+00  0.00000000000E+00  0.30000000000E+02  0.30000000000E+02  0.00000000000E+00 0. -1.
        -11   -1    0    0    0    0 -0.00000000000E+00 -0.00000000000E+00 -0.30000000000E+02  0.30000000000E+02  0.00000000000E+00 0.  1.
         23    2    1    2    0    0  0.00000000000E+00  0.00000000000E+00  0.00000000000E+00  0.60000000000E+02  0.60000000000E+02 0.  0.
          5    1    3    3  501    0 -0.11670234081E+02 -0.14794466176E+01  0.27194243402E+02  0.30000000000E+02  0.47000000000E+01 0. -1.
         -5    1    3    3    0  501  0.11670234081E+02  0.14794466176E+01 -0.27194243402E+02  0.30000000000E+02  0.47000000000E+01 0.  1.
</event>
<event>
 5    1  0.7673937E-002  0.6000000E+02  0.7546771E-02  0.1259629E+00
         11   -1    0    0    0    0  0.00000000000E+00  0.00000000000E+00  0.30000000000E+02  0.30000000000E+02  0.00000000000E+00 0. -1.
        -11   -1    0    0    0    0 -0.00000000000E+00 -0.00000000000E+00 -0.30000000000E+02  0.30000000000E+02  0.00000000000E+00 0.  1.
         23    2    1    2    0    0  0.00000000000E+00  0.00000000000E+00  0.00000000000E+00  0.60000000000E+02  0.60000000000E+02 0.  0.
          5    1    3    3  501    0  0.75390606115E+01 -0.28653936771E+02 -0.15643731738E+00  0.30000000000E+02  0.47000000000E+01 0.  1.
         -5    1    3    3    0  501 -0.75390606115E+01  0.28653936771E+02  0.15643731738E+00  0.30000000000E+02  0.47000000000E+01 0. -1.
</event>
<event>
 5    1  0.7673937E-002  0.6000000E+02  0.7546771E-02  0.1259629E+00
         11   -1    0    0    0    0  0.00000000000E+00  0.00000000000E+00  0.30000000000E+02  0.30000000000E+02  0.00000000000E+00 0. -1.
        -11   -1    0    0    0    0 -0.00000000000E+00 -0.00000000000E+00 -0.30000000000E+02  0.30000000000E+02  0.00000000000E+00 0.  1.
         23    2    1    2    0    0  0.00000000000E+00  0.00000000000E+00  0.00000000000E+00  0.60000000000E+02  0.60000000000E+02 0.  0.
          5    1    3    3  501    0  0.81186700890E+00  0.19872188048E+02 -0.21962400008E+02  0.30000000000E+02  0.47000000000E+01 0.  1.
         -5    1    3    3    0  501 -0.81186700890E+00 -0.19872188048E+02  0.21962400008E+02  0.30000000000E+02  0.47000000000E+01 0. -1.
</event>
<event>
 5    1  0.7673937E-002  0.6000000E+02  0.7546771E-02  0.1259629E+00
         11   -1    0    0    0    0  0.00000000000E+00  0.00000000000E+00  0.30000000000E+02  0.30000000000E+02  0.00000000000E+00 0. -1.
        -11   -1    0    0    0    0 -0.00000000000E+00 -0.00000000000E+00 -0.30000000000E+02  0.30000000000E+02  0.00000000000E+00 0.  1.
         23    2    1    2    0    0  0.00000000000E+00  0.00000000000E+00  0.00000000000E+00  0.60000000000E+02  0.60000000000E+02 0.  0.
          5    1    3    3  501    0 -0.23936250831E+02 -0.10206129227E+02 -0.14170420683E+02  0.30000000000E+02  0.47000000000E+01 0.  1.
         -5    1    3    3    0  501  0.23936250831E+02  0.10206129227E+02  0.14170420683E+02  0.30000000000E+02  0.47000000000E+01 0. -1.
</event>
<event>
 5    1  0.7673937E-002  0.6000000E+02  0.7546771E-02  0.1259629E+00
         11   -1    0    0    0    0  0.00000000000E+00  0.00000000000E+00  0.30000000000E+02  0.30000000000E+02  0.00000000000E+00 0.  1.
        -11   -1    0    0    0    0 -0.00000000000E+00 -0.00000000000E+00 -0.30000000000E+02  0.30000000000E+02  0.00000000000E+00 0. -1.
         23    2    1    2    0    0  0.00000000000E+00  0.00000000000E+00  0.00000000000E+00  0.60000000000E+02  0.60000000000E+02 0.  0.
          5    1    3    3  501    0 -0.20079586301E+02  0.18031643507E+02 -0.12230292164E+02  0.30000000000E+02  0.47000000000E+01 0. -1.
         -5    1    3    3    0  501  0.20079586301E+02 -0.18031643507E+02  0.12230292164E+02  0.30000000000E+02  0.47000000000E+01 0.  1.
</event>
<event>
 5    1  0.7673937E-002  0.6000000E+02  0.7546771E-02  0.1259629E+00
         11   -1    0    0    0    0  0.00000000000E+00  0.00000000000E+00  0.30000000000E+02  0.30000000000E+02  0.00000000000E+00 0.  1.
        -11   -1    0    0    0    0 -0.00000000000E+00 -0.00000000000E+00 -0.30000000000E+02  0.30000000000E+02  0.00000000000E+00 0. -1.
         23    2    1    2    0    0  0.00000000000E+00  0.00000000000E+00  0.00000000000E+00  0.60000000000E+02  0.60000000000E+02 0.  0.
          5    1    3    3  501    0  0.62633189996E+01  0.28773136863E+02 -0.32844223502E+01  0.30000000000E+02  0.47000000000E+01 0.  1.
         -5    1    3    3    0  501 -0.62633189996E+01 -0.28773136863E+02  0.32844223502E+01  0.30000000000E+02  0.47000000000E+01 0. -1.
</event>
<event>
 5    1  0.7673937E-002  0.6000000E+02  0.7546771E-02  0.1259629E+00
         11   -1    0    0    0    0  0.00000000000E+00  0.00000000000E+00  0.30000000000E+02  0.30000000000E+02  0.00000000000E+00 0.  1.
        -11   -1    0    0    0    0 -0.00000000000E+00 -0.00000000000E+00 -0.30000000000E+02  0.30000000000E+02  0.00000000000E+00 0. -1.
         23    2    1    2    0    0  0.00000000000E+00  0.00000000000E+00  0.00000000000E+00  0.60000000000E+02  0.60000000000E+02 0.  0.
          5    1    3    3  501    0 -0.20032355670E+02 -0.84822553597E+01 -0.20116313537E+02  0.30000000000E+02  0.47000000000E+01 0. -1.
         -5    1    3    3    0  501  0.20032355670E+02  0.84822553597E+01  0.20116313537E+02  0.30000000000E+02  0.47000000000E+01 0.  1.
</event>
<event>
 5    1  0.7673937E-002  0.6000000E+02  0.7546771E-02  0.1259629E+00
         11   -1    0    0    0    0  0.00000000000E+00  0.00000000000E+00  0.30000000000E+02  0.30000000000E+02  0.00000000000E+00 0. -1.
        -11   -1    0    0    0    0 -0.00000000000E+00 -0.00000000000E+00 -0.30000000000E+02  0.30000000000E+02  0.00000000000E+00 0.  1.
         23    2    1    2    0    0  0.00000000000E+00  0.00000000000E+00  0.00000000000E+00  0.60000000000E+02  0.60000000000E+02 0.  0.
          5    1    3    3  501    0 -0.82778644520E+01  0.27344212225E+02  0.78537263700E+01  0.30000000000E+02  0.47000000000E+01 0. -1.
         -5    1    3    3    0  501  0.82778644520E+01 -0.27344212225E+02 -0.78537263700E+01  0.30000000000E+02  0.47000000000E+01 0.  1.
</event>
<event>
 5    1  0.7673937E-002  0.6000000E+02  0.7546771E-02  0.1259629E+00
         11   -1    0    0    0    0  0.00000000000E+00  0.00000000000E+00  0.30000000000E+02  0.30000000000E+02  0.00000000000E+00 0. -1.
        -11   -1    0    0    0    0 -0.00000000000E+00 -0.00000000000E+00 -0.30000000000E+02  0.30000000000E+02  0.00000000000E+00 0.  1.
         23    2    1    2    0    0  0.00000000000E+00  0.00000000000E+00  0.00000000000E+00  0.60000000000E+02  0.60000000000E+02 0.  0.
          5    1    3    3  501    0 -0.16174128887E+02 -0.58273609647E+01  0.24131917018E+02  0.30000000000E+02  0.47000000000E+01 0. -1.
         -5    1    3    3    0  501  0.16174128887E+02  0.58273609647E+01 -0.24131917018E+02  0.30000000000E+02  0.47000000000E+01 0.  1.
</event>
<event>
 5    1  0.7673937E-002  0.6000000E+02  0.7546771E-02  0.1259629E+00
         11   -1    0    0    0    0  0.00000000000E+00  0.00000000000E+00  0.30000000000E+02  0.30000000000E+02  0.00000000000E+00 0.  1.
        -11   -1    0    0    0    0 -0.00000000000E+00 -0.00000000000E+00 -0.30000000000E+02  0.30000000000E+02  0.00000000000E+00 0. -1.
         23    2    1    2    0    0  0.00000000000E+00  0.00000000000E+00  0.00000000000E+00  0.60000000000E+02  0.60000000000E+02 0.  0.
          5    1    3    3  501    0 -0.11565067292E+02 -0.27264745548E+02 -0.89043176443E+00  0.30000000000E+02  0.47000000000E+01 0. -1.
         -5    1    3    3    0  501  0.11565067292E+02  0.27264745548E+02  0.89043176443E+00  0.30000000000E+02  0.47000000000E+01 0.  1.
</event>
<event>
 5    1  0.7673937E-002  0.6000000E+02  0.7546771E-02  0.1259629E+00
         11   -1    0    0    0    0  0.00000000000E+00  0.00000000000E+00  0.30000000000E+02  0.30000000000E+02  0.00000000000E+00 0.  1.
        -11   -1    0    0    0    0 -0.00000000000E+00 -0.00000000000E+00 -0.30000000000E+02  0.30000000000E+02  0.00000000000E+00 0. -1.
         23    2    1    2    0    0  0.00000000000E+00  0.00000000000E+00  0.00000000000E+00  0.60000000000E+02  0.60000000000E+02 0.  0.
          5    1    3    3  501    0 -0.13982059190E+02  0.17658710624E+02 -0.19250505445E+02  0.30000000000E+02  0.47000000000E+01 0. -1.
         -5    1    3    3    0  501  0.13982059190E+02 -0.17658710624E+02  0.19250505445E+02  0.30000000000E+02  0.47000000000E+01 0.  1.
</event>
<event>
 5    1  0.7673937E-002  0.6000000E+02  0.7546771E-02  0.1259629E+00
         11   -1    0    0    0    0  0.00000000000E+00  0.00000000000E+00  0.30000000000E+02  0.30000000000E+02  0.00000000000E+00 0.  1.
        -11   -1    0    0    0    0 -0.00000000000E+00 -0.00000000000E+00 -0.30000000000E+02  0.30000000000E+02  0.00000000000E+00 0. -1.
         23    2    1    2    0    0  0.00000000000E+00  0.00000000000E+00  0.00000000000E+00  0.60000000000E+02  0.60000000000E+02 0.  0.
          5    1    3    3  501    0 -0.18670383298E+02  0.16352213947E+02 -0.16184309887E+02  0.30000000000E+02  0.47000000000E+01 0. -1.
         -5    1    3    3    0  501  0.18670383298E+02 -0.16352213947E+02  0.16184309887E+02  0.30000000000E+02  0.47000000000E+01 0.  1.
</event>
<event>
 5    1  0.7673937E-002  0.6000000E+02  0.7546771E-02  0.1259629E+00
         11   -1    0    0    0    0  0.00000000000E+00  0.00000000000E+00  0.30000000000E+02  0.30000000000E+02  0.00000000000E+00 0. -1.
        -11   -1    0    0    0    0 -0.00000000000E+00 -0.00000000000E+00 -0.30000000000E+02  0.30000000000E+02  0.00000000000E+00 0.  1.
         23    2    1    2    0    0  0.00000000000E+00  0.00000000000E+00  0.00000000000E+00  0.60000000000E+02  0.60000000000E+02 0.  0.
          5    1    3    3  501    0 -0.18533005163E+02 -0.98106381271E+01 -0.20932966803E+02  0.30000000000E+02  0.47000000000E+01 0.  1.
         -5    1    3    3    0  501  0.18533005163E+02  0.98106381271E+01  0.20932966803E+02  0.30000000000E+02  0.47000000000E+01 0. -1.
</event>
<event>
 5    1  0.7673937E-002  0.6000000E+02  0.7546771E-02  0.1259629E+00
         11   -1    0    0    0    0  0.00000000000E+00  0.00000000000E+00  0.30000000000E+02  0.30000000000E+02  0.00000000000E+00 0.  1.
        -11   -1    0    0    0    0 -0.00000000000E+00 -0.00000000000E+00 -0.30000000000E+02  0.30000000000E+02  0.00000000000E+00 0. -1.
         23    2    1    2    0    0  0.00000000000E+00  0.00000000000E+00  0.00000000000E+00  0.60000000000E+02  0.60000000000E+02 0.  0.
          5    1    3    3  501    0 -0.15794253946E+02  0.24733024542E+02 -0.40901148285E+01  0.30000000000E+02  0.47000000000E+01 0. -1.
         -5    1    3    3    0  501  0.15794253946E+02 -0.24733024542E+02  0.40901148285E+01  0.30000000000E+02  0.47000000000E+01 0.  1.
</event>
<event>
 5    1  0.7673937E-002  0.6000000E+02  0.7546771E-02  0.1259629E+00
         11   -1    0    0    0    0  0.00000000000E+00  0.00000000000E+00  0.30000000000E+02  0.30000000000E+02  0.00000000000E+00 0.  1.
        -11   -1    0    0    0    0 -0.00000000000E+00 -0.00000000000E+00 -0.30000000000E+02  0.30000000000E+02  0.00000000000E+00 0. -1.
         23    2    1    2    0    0  0.00000000000E+00  0.00000000000E+00  0.00000000000E+00  0.60000000000E+02  0.60000000000E+02 0.  0.
          5    1    3    3  501    0  0.28881539997E+02  0.57411273747E+01 -0.32872638858E+01  0.30000000000E+02  0.47000000000E+01 0. -1.
         -5    1    3    3    0  501 -0.28881539997E+02 -0.57411273747E+01  0.32872638858E+01  0.30000000000E+02  0.47000000000E+01 0.  1.
</event>
<event>
 5    1  0.7673937E-002  0.6000000E+02  0.7546771E-02  0.1259629E+00
         11   -1    0    0    0    0  0.00000000000E+00  0.00000000000E+00  0.30000000000E+02  0.30000000000E+02  0.00000000000E+00 0.  1.
        -11   -1    0    0    0    0 -0.00000000000E+00 -0.00000000000E+00 -0.30000000000E+02  0.30000000000E+02  0.00000000000E+00 0. -1.
         23    2    1    2    0    0  0.00000000000E+00  0.00000000000E+00  0.00000000000E+00  0.60000000000E+02  0.60000000000E+02 0.  0.
          5    1    3    3  501    0  0.15768945263E+02 -0.22681867970E+02  0.10713693607E+02  0.30000000000E+02  0.47000000000E+01 0.  1.
         -5    1    3    3    0  501 -0.15768945263E+02  0.22681867970E+02 -0.10713693607E+02  0.30000000000E+02  0.47000000000E+01 0. -1.
</event>
<event>
 5    1  0.7673937E-002  0.6000000E+02  0.7546771E-02  0.1259629E+00
         11   -1    0    0    0    0  0.00000000000E+00  0.00000000000E+00  0.30000000000E+02  0.30000000000E+02  0.00000000000E+00 0.  1.
        -11   -1    0    0    0    0 -0.00000000000E+00 -0.00000000000E+00 -0.30000000000E+02  0.30000000000E+02  0.00000000000E+00 0. -1.
         23    2    1    2    0    0  0.00000000000E+00  0.00000000000E+00  0.00000000000E+00  0.60000000000E+02  0.60000000000E+02 0.  0.
          5    1    3    3  501    0 -0.23153564217E+02  0.17573781811E+02  0.57432270478E+01  0.30000000000E+02  0.47000000000E+01 0. -1.
         -5    1    3    3    0  501  0.23153564217E+02 -0.17573781811E+02 -0.57432270478E+01  0.30000000000E+02  0.47000000000E+01 0.  1.
</event>
<event>
 5    1  0.7673937E-002  0.6000000E+02  0.7546771E-02  0.1259629E+00
         11   -1    0    0    0    0  0.00000000000E+00  0.00000000000E+00  0.30000000000E+02  0.30000000000E+02  0.00000000000E+00 0. -1.
        -11   -1    0    0    0    0 -0.00000000000E+00 -0.00000000000E+00 -0.30000000000E+02  0.30000000000E+02  0.00000000000E+00 0.  1.
         23    2    1    2    0    0  0.00000000000E+00  0.00000000000E+00  0.00000000000E+00  0.60000000000E+02  0.60000000000E+02 0.  0.
          5    1    3    3  501    0 -0.10752356735E+02  0.19195230332E+02 -0.19845401411E+02  0.30000000000E+02  0.47000000000E+01 0.  1.
         -5    1    3    3    0  501  0.10752356735E+02 -0.19195230332E+02  0.19845401411E+02  0.30000000000E+02  0.47000000000E+01 0. -1.
</event>
<event>
 5    1  0.7673937E-002  0.6000000E+02  0.7546771E-02  0.1259629E+00
         11   -1    0    0    0    0  0.00000000000E+00  0.00000000000E+00  0.30000000000E+02  0.30000000000E+02  0.00000000000E+00 0.  1.
        -11   -1    0    0    0    0 -0.00000000000E+00 -0.00000000000E+00 -0.30000000000E+02  0.30000000000E+02  0.00000000000E+00 0. -1.
         23    2    1    2    0    0  0.00000000000E+00  0.00000000000E+00  0.00000000000E+00  0.60000000000E+02  0.60000000000E+02 0.  0.
          5    1    3    3  501    0 -0.10017416482E+02  0.11966812489E+02 -0.25186440119E+02  0.30000000000E+02  0.47000000000E+01 0. -1.
         -5    1    3    3    0  501  0.10017416482E+02 -0.11966812489E+02  0.25186440119E+02  0.30000000000E+02  0.47000000000E+01 0.  1.
</event>
<event>
 5    1  0.7673937E-002  0.6000000E+02  0.7546771E-02  0.1259629E+00
         11   -1    0    0    0    0  0.00000000000E+00  0.00000000000E+00  0.30000000000E+02  0.30000000000E+02  0.00000000000E+00 0.  1.
        -11   -1    0    0    0    0 -0.00000000000E+00 -0.00000000000E+00 -0.30000000000E+02  0.30000000000E+02  0.00000000000E+00 0. -1.
         23    2    1    2    0    0  0.00000000000E+00  0.00000000000E+00  0.00000000000E+00  0.60000000000E+02  0.60000000000E+02 0.  0.
          5    1    3    3  501    0  0.71430909486E+01  0.12512604995E+02 -0.25890557506E+02  0.30000000000E+02  0.47000000000E+01 0. -1.
         -5    1    3    3    0  501 -0.71430909486E+01 -0.12512604995E+02  0.25890557506E+02  0.30000000000E+02  0.47000000000E+01 0.  1.
</event>
<event>
 5    1  0.7673937E-002  0.6000000E+02  0.7546771E-02  0.1259629E+00
         11   -1    0    0    0    0  0.00000000000E+00  0.00000000000E+00  0.30000000000E+02  0.30000000000E+02  0.00000000000E+00 0.  1.
        -11   -1    0    0    0    0 -0.00000000000E+00 -0.00000000000E+00 -0.30000000000E+02  0.30000000000E+02  0.00000000000E+00 0. -1.
         23    2    1    2    0    0  0.00000000000E+00  0.00000000000E+00  0.00000000000E+00  0.60000000000E+02  0.60000000000E+02 0.  0.
          5    1    3    3  501    0 -0.12012042322E+02 -0.14124853994E+02  0.23110805674E+02  0.30000000000E+02  0.47000000000E+01 0.  1.
         -5    1    3    3    0  501  0.12012042322E+02  0.14124853994E+02 -0.23110805674E+02  0.30000000000E+02  0.47000000000E+01 0. -1.
</event>
<event>
 5    1  0.7673937E-002  0.6000000E+02  0.7546771E-02  0.1259629E+00
         11   -1    0    0    0    0  0.00000000000E+00  0.00000000000E+00  0.30000000000E+02  0.30000000000E+02  0.00000000000E+00 0.  1.
        -11   -1    0    0    0    0 -0.00000000000E+00 -0.00000000000E+00 -0.30000000000E+02  0.30000000000E+02  0.00000000000E+00 0. -1.
         23    2    1    2    0    0  0.00000000000E+00  0.00000000000E+00  0.00000000000E+00  0.60000000000E+02  0.60000000000E+02 0.  0.
          5    1    3    3  501    0 -0.22669963595E+02 -0.19077433383E+02  0.18516516866E+00  0.30000000000E+02  0.47000000000E+01 0.  1.
         -5    1    3    3    0  501  0.22669963595E+02  0.19077433383E+02 -0.18516516866E+00  0.30000000000E+02  0.47000000000E+01 0. -1.
</event>
<event>
 5    1  0.7673937E-002  0.6000000E+02  0.7546771E-02  0.1259629E+00
         11   -1    0    0    0    0  0.00000000000E+00  0.00000000000E+00  0.30000000000E+02  0.30000000000E+02  0.00000000000E+00 0.  1.
        -11   -1    0    0    0    0 -0.00000000000E+00 -0.00000000000E+00 -0.30000000000E+02  0.30000000000E+02  0.00000000000E+00 0. -1.
         23    2    1    2    0    0  0.00000000000E+00  0.00000000000E+00  0.00000000000E+00  0.60000000000E+02  0.60000000000E+02 0.  0.
          5    1    3    3  501    0  0.78595078197E+01  0.24557397799E+02  0.14596997985E+02  0.30000000000E+02  0.47000000000E+01 0. -1.
         -5    1    3    3    0  501 -0.78595078197E+01 -0.24557397799E+02 -0.14596997985E+02  0.30000000000E+02  0.47000000000E+01 0.  1.
</event>
<event>
 5    1  0.7673937E-002  0.6000000E+02  0.7546771E-02  0.1259629E+00
         11   -1    0    0    0    0  0.00000000000E+00  0.00000000000E+00  0.30000000000E+02  0.30000000000E+02  0.00000000000E+00 0.  1.
        -11   -1    0    0    0    0 -0.00000000000E+00 -0.00000000000E+00 -0.30000000000E+02  0.30000000000E+02  0.00000000000E+00 0. -1.
         23    2    1    2    0    0  0.00000000000E+00  0.00000000000E+00  0.00000000000E+00  0.60000000000E+02  0.60000000000E+02 0.  0.
          5    1    3    3  501    0  0.22717560985E+02 -0.17979555417E+02  0.62095096363E+01  0.30000000000E+02  0.47000000000E+01 0. -1.
         -5    1    3    3    0  501 -0.22717560985E+02  0.17979555417E+02 -0.62095096363E+01  0.30000000000E+02  0.47000000000E+01 0.  1.
</event>
<event>
 5    1  0.7673937E-002  0.6000000E+02  0.7546771E-02  0.1259629E+00
         11   -1    0    0    0    0  0.00000000000E+00  0.00000000000E+00  0.30000000000E+02  0.30000000000E+02  0.00000000000E+00 0.  1.
        -11   -1    0    0    0    0 -0.00000000000E+00 -0.00000000000E+00 -0.30000000000E+02  0.30000000000E+02  0.00000000000E+00 0. -1.
         23    2    1    2    0    0  0.00000000000E+00  0.00000000000E+00  0.00000000000E+00  0.60000000000E+02  0.60000000000E+02 0.  0.
          5    1    3    3  501    0  0.13355056175E+02 -0.15425475399E+02 -0.21485045573E+02  0.30000000000E+02  0.47000000000E+01 0. -1.
         -5    1    3    3    0  501 -0.13355056175E+02  0.15425475399E+02  0.21485045573E+02  0.30000000000E+02  0.47000000000E+01 0.  1.
</event>
<event>
 5    1  0.7673937E-002  0.6000000E+02  0.7546771E-02  0.1259629E+00
         11   -1    0    0    0    0  0.00000000000E+00  0.00000000000E+00  0.30000000000E+02  0.30000000000E+02  0.00000000000E+00 0.  1.
        -11   -1    0    0    0    0 -0.00000000000E+00 -0.00000000000E+00 -0.30000000000E+02  0.30000000000E+02  0.00000000000E+00 0. -1.
         23    2    1    2    0    0  0.00000000000E+00  0.00000000000E+00  0.00000000000E+00  0.60000000000E+02  0.60000000000E+02 0.  0.
          5    1    3    3  501    0 -0.25685245250E+02  0.96133520026E+01 -0.11214349724E+02  0.30000000000E+02  0.47000000000E+01 0. -1.
         -5    1    3    3    0  501  0.25685245250E+02 -0.96133520026E+01  0.11214349724E+02  0.30000000000E+02  0.47000000000E+01 0.  1.
</event>
<event>
 5    1  0.7673937E-002  0.6000000E+02  0.7546771E-02  0.1259629E+00
         11   -1    0    0    0    0  0.00000000000E+00  0.00000000000E+00  0.30000000000E+02  0.30000000000E+02  0.00000000000E+00 0.  1.
        -11   -1    0    0    0    0 -0.00000000000E+00 -0.00000000000E+00 -0.30000000000E+02  0.30000000000E+02  0.00000000000E+00 0. -1.
         23    2    1    2    0    0  0.00000000000E+00  0.00000000000E+00  0.00000000000E+00  0.60000000000E+02  0.60000000000E+02 0.  0.
          5    1    3    3  501    0 -0.26098060025E+02 -0.42811948554E+00 -0.14022053225E+02  0.30000000000E+02  0.47000000000E+01 0. -1.
         -5    1    3    3    0  501  0.26098060025E+02  0.42811948554E+00  0.14022053225E+02  0.30000000000E+02  0.47000000000E+01 0.  1.
</event>
<event>
 5    1  0.7673937E-002  0.6000000E+02  0.7546771E-02  0.1259629E+00
         11   -1    0    0    0    0  0.00000000000E+00  0.00000000000E+00  0.30000000000E+02  0.30000000000E+02  0.00000000000E+00 0.  1.
        -11   -1    0    0    0    0 -0.00000000000E+00 -0.00000000000E+00 -0.30000000000E+02  0.30000000000E+02  0.00000000000E+00 0. -1.
         23    2    1    2    0    0  0.00000000000E+00  0.00000000000E+00  0.00000000000E+00  0.60000000000E+02  0.60000000000E+02 0.  0.
          5    1    3    3  501    0 -0.65473285895E+01 -0.35241143512E+01  0.28681406981E+02  0.30000000000E+02  0.47000000000E+01 0.  1.
         -5    1    3    3    0  501  0.65473285895E+01  0.35241143512E+01 -0.28681406981E+02  0.30000000000E+02  0.47000000000E+01 0. -1.
</event>
<event>
 5    1  0.7673937E-002  0.6000000E+02  0.7546771E-02  0.1259629E+00
         11   -1    0    0    0    0  0.00000000000E+00  0.00000000000E+00  0.30000000000E+02  0.30000000000E+02  0.00000000000E+00 0.  1.
        -11   -1    0    0    0    0 -0.00000000000E+00 -0.00000000000E+00 -0.30000000000E+02  0.30000000000E+02  0.00000000000E+00 0. -1.
         23    2    1    2    0    0  0.00000000000E+00  0.00000000000E+00  0.00000000000E+00  0.60000000000E+02  0.60000000000E+02 0.  0.
          5    1    3    3  501    0  0.22391960386E+02 -0.48166104680E+01 -0.18796552175E+02  0.30000000000E+02  0.47000000000E+01 0. -1.
         -5    1    3    3    0  501 -0.22391960386E+02  0.48166104680E+01  0.18796552175E+02  0.30000000000E+02  0.47000000000E+01 0.  1.
</event>
<event>
 5    1  0.7673937E-002  0.6000000E+02  0.7546771E-02  0.1259629E+00
         11   -1    0    0    0    0  0.00000000000E+00  0.00000000000E+00  0.30000000000E+02  0.30000000000E+02  0.00000000000E+00 0. -1.
        -11   -1    0    0    0    0 -0.00000000000E+00 -0.00000000000E+00 -0.30000000000E+02  0.30000000000E+02  0.00000000000E+00 0.  1.
         23    2    1    2    0    0  0.00000000000E+00  0.00000000000E+00  0.00000000000E+00  0.60000000000E+02  0.60000000000E+02 0.  0.
          5    1    3    3  501    0 -0.14927182875E+02  0.16893635407E+02 -0.19227435975E+02  0.30000000000E+02  0.47000000000E+01 0.  1.
         -5    1    3    3    0  501  0.14927182875E+02 -0.16893635407E+02  0.19227435975E+02  0.30000000000E+02  0.47000000000E+01 0. -1.
</event>
<event>
 5    1  0.7673937E-002  0.6000000E+02  0.7546771E-02  0.1259629E+00
         11   -1    0    0    0    0  0.00000000000E+00  0.00000000000E+00  0.30000000000E+02  0.30000000000E+02  0.00000000000E+00 0.  1.
        -11   -1    0    0    0    0 -0.00000000000E+00 -0.00000000000E+00 -0.30000000000E+02  0.30000000000E+02  0.00000000000E+00 0. -1.
         23    2    1    2    0    0  0.00000000000E+00  0.00000000000E+00  0.00000000000E+00  0.60000000000E+02  0.60000000000E+02 0.  0.
          5    1    3    3  501    0 -0.12524018487E+02 -0.60134030530E+01 -0.26170554917E+02  0.30000000000E+02  0.47000000000E+01 0. -1.
         -5    1    3    3    0  501  0.12524018487E+02  0.60134030530E+01  0.26170554917E+02  0.30000000000E+02  0.47000000000E+01 0.  1.
</event>
<event>
 5    1  0.7673937E-002  0.6000000E+02  0.7546771E-02  0.1259629E+00
         11   -1    0    0    0    0  0.00000000000E+00  0.00000000000E+00  0.30000000000E+02  0.30000000000E+02  0.00000000000E+00 0.  1.
        -11   -1    0    0    0    0 -0.00000000000E+00 -0.00000000000E+00 -0.30000000000E+02  0.30000000000E+02  0.00000000000E+00 0. -1.
         23    2    1    2    0    0  0.00000000000E+00  0.00000000000E+00  0.00000000000E+00  0.60000000000E+02  0.60000000000E+02 0.  0.
          5    1    3    3  501    0  0.18056443239E+02 -0.21005610691E+02  0.10518515915E+02  0.30000000000E+02  0.47000000000E+01 0. -1.
         -5    1    3    3    0  501 -0.18056443239E+02  0.21005610691E+02 -0.10518515915E+02  0.30000000000E+02  0.47000000000E+01 0.  1.
</event>
<event>
 5    1  0.7673937E-002  0.6000000E+02  0.7546771E-02  0.1259629E+00
         11   -1    0    0    0    0  0.00000000000E+00  0.00000000000E+00  0.30000000000E+02  0.30000000000E+02  0.00000000000E+00 0. -1.
        -11   -1    0    0    0    0 -0.00000000000E+00 -0.00000000000E+00 -0.30000000000E+02  0.30000000000E+02  0.00000000000E+00 0.  1.
         23    2    1    2    0    0  0.00000000000E+00  0.00000000000E+00  0.00000000000E+00  0.60000000000E+02  0.60000000000E+02 0.  0.
          5    1    3    3  501    0  0.94345380910E+01  0.16799509230E+02 -0.22509464246E+02  0.30000000000E+02  0.47000000000E+01 0.  1.
         -5    1    3    3    0  501 -0.94345380910E+01 -0.16799509230E+02  0.22509464246E+02  0.30000000000E+02  0.47000000000E+01 0. -1.
</event>
<event>
 5    1  0.7673937E-002  0.6000000E+02  0.7546771E-02  0.1259629E+00
         11   -1    0    0    0    0  0.00000000000E+00  0.00000000000E+00  0.30000000000E+02  0.30000000000E+02  0.00000000000E+00 0.  1.
        -11   -1    0    0    0    0 -0.00000000000E+00 -0.00000000000E+00 -0.30000000000E+02  0.30000000000E+02  0.00000000000E+00 0. -1.
         23    2    1    2    0    0  0.00000000000E+00  0.00000000000E+00  0.00000000000E+00  0.60000000000E+02  0.60000000000E+02 0.  0.
          5    1    3    3  501    0  0.25894057621E+02  0.39058436572E+01 -0.13861896164E+02  0.30000000000E+02  0.47000000000E+01 0. -1.
         -5    1    3    3    0  501 -0.25894057621E+02 -0.39058436572E+01  0.13861896164E+02  0.30000000000E+02  0.47000000000E+01 0.  1.
</event>
<event>
 5    1  0.7673937E-002  0.6000000E+02  0.7546771E-02  0.1259629E+00
         11   -1    0    0    0    0  0.00000000000E+00  0.00000000000E+00  0.30000000000E+02  0.30000000000E+02  0.00000000000E+00 0.  1.
        -11   -1    0    0    0    0 -0.00000000000E+00 -0.00000000000E+00 -0.30000000000E+02  0.30000000000E+02  0.00000000000E+00 0. -1.
         23    2    1    2    0    0  0.00000000000E+00  0.00000000000E+00  0.00000000000E+00  0.60000000000E+02  0.60000000000E+02 0.  0.
          5    1    3    3  501    0 -0.74304782296E+00  0.78482326685E+01 -0.28561567252E+02  0.30000000000E+02  0.47000000000E+01 0. -1.
         -5    1    3    3    0  501  0.74304782296E+00 -0.78482326685E+01  0.28561567252E+02  0.30000000000E+02  0.47000000000E+01 0.  1.
</event>
<event>
 5    1  0.7673937E-002  0.6000000E+02  0.7546771E-02  0.1259629E+00
         11   -1    0    0    0    0  0.00000000000E+00  0.00000000000E+00  0.30000000000E+02  0.30000000000E+02  0.00000000000E+00 0.  1.
        -11   -1    0    0    0    0 -0.00000000000E+00 -0.00000000000E+00 -0.30000000000E+02  0.30000000000E+02  0.00000000000E+00 0. -1.
         23    2    1    2    0    0  0.00000000000E+00  0.00000000000E+00  0.00000000000E+00  0.60000000000E+02  0.60000000000E+02 0.  0.
          5    1    3    3  501    0  0.11868848105E+02 -0.17270676820E+02 -0.20946698232E+02  0.30000000000E+02  0.47000000000E+01 0. -1.
         -5    1    3    3    0  501 -0.11868848105E+02  0.17270676820E+02  0.20946698232E+02  0.30000000000E+02  0.47000000000E+01 0.  1.
</event>
<event>
 5    1  0.7673937E-002  0.6000000E+02  0.7546771E-02  0.1259629E+00
         11   -1    0    0    0    0  0.00000000000E+00  0.00000000000E+00  0.30000000000E+02  0.30000000000E+02  0.00000000000E+00 0.  1.
        -11   -1    0    0    0    0 -0.00000000000E+00 -0.00000000000E+00 -0.30000000000E+02  0.30000000000E+02  0.00000000000E+00 0. -1.
         23    2    1    2    0    0  0.00000000000E+00  0.00000000000E+00  0.00000000000E+00  0.60000000000E+02  0.60000000000E+02 0.  0.
          5    1    3    3  501    0 -0.14402299989E+02  0.18117784239E+02 -0.18499449973E+02  0.30000000000E+02  0.47000000000E+01 0. -1.
         -5    1    3    3    0  501  0.14402299989E+02 -0.18117784239E+02  0.18499449973E+02  0.30000000000E+02  0.47000000000E+01 0.  1.
</event>
<event>
 5    1  0.7673937E-002  0.6000000E+02  0.7546771E-02  0.1259629E+00
         11   -1    0    0    0    0  0.00000000000E+00  0.00000000000E+00  0.30000000000E+02  0.30000000000E+02  0.00000000000E+00 0.  1.
        -11   -1    0    0    0    0 -0.00000000000E+00 -0.00000000000E+00 -0.30000000000E+02  0.30000000000E+02  0.00000000000E+00 0. -1.
         23    2    1    2    0    0  0.00000000000E+00  0.00000000000E+00  0.00000000000E+00  0.60000000000E+02  0.60000000000E+02 0.  0.
          5    1    3    3  501    0 -0.30098850248E+01  0.22077823211E+02 -0.19529985008E+02  0.30000000000E+02  0.47000000000E+01 0. -1.
         -5    1    3    3    0  501  0.30098850248E+01 -0.22077823211E+02  0.19529985008E+02  0.30000000000E+02  0.47000000000E+01 0.  1.
</event>
<event>
 5    1  0.7673937E-002  0.6000000E+02  0.7546771E-02  0.1259629E+00
         11   -1    0    0    0    0  0.00000000000E+00  0.00000000000E+00  0.30000000000E+02  0.30000000000E+02  0.00000000000E+00 0.  1.
        -11   -1    0    0    0    0 -0.00000000000E+00 -0.00000000000E+00 -0.30000000000E+02  0.30000000000E+02  0.00000000000E+00 0. -1.
         23    2    1    2    0    0  0.00000000000E+00  0.00000000000E+00  0.00000000000E+00  0.60000000000E+02  0.60000000000E+02 0.  0.
          5    1    3    3  501    0 -0.28869068355E+00  0.27941093682E+01 -0.29496094835E+02  0.30000000000E+02  0.47000000000E+01 0. -1.
         -5    1    3    3    0  501  0.28869068355E+00 -0.27941093682E+01  0.29496094835E+02  0.30000000000E+02  0.47000000000E+01 0.  1.
</event>
<event>
 5    1  0.7673937E-002  0.6000000E+02  0.7546771E-02  0.1259629E+00
         11   -1    0    0    0    0  0.00000000000E+00  0.00000000000E+00  0.30000000000E+02  0.30000000000E+02  0.00000000000E+00 0.  1.
        -11   -1    0    0    0    0 -0.00000000000E+00 -0.00000000000E+00 -0.30000000000E+02  0.30000000000E+02  0.00000000000E+00 0. -1.
         23    2    1    2    0    0  0.00000000000E+00  0.00000000000E+00  0.00000000000E+00  0.60000000000E+02  0.60000000000E+02 0.  0.
          5    1    3    3  501    0 -0.24209911198E+02  0.16890527373E+02 -0.25495656230E+01  0.30000000000E+02  0.47000000000E+01 0. -1.
         -5    1    3    3    0  501  0.24209911198E+02 -0.16890527373E+02  0.25495656230E+01  0.30000000000E+02  0.47000000000E+01 0.  1.
</event>
<event>
 5    1  0.7673937E-002  0.6000000E+02  0.7546771E-02  0.1259629E+00
         11   -1    0    0    0    0  0.00000000000E+00  0.00000000000E+00  0.30000000000E+02  0.30000000000E+02  0.00000000000E+00 0.  1.
        -11   -1    0    0    0    0 -0.00000000000E+00 -0.00000000000E+00 -0.30000000000E+02  0.30000000000E+02  0.00000000000E+00 0. -1.
         23    2    1    2    0    0  0.00000000000E+00  0.00000000000E+00  0.00000000000E+00  0.60000000000E+02  0.60000000000E+02 0.  0.
          5    1    3    3  501    0  0.23820755796E+02 -0.13636571460E+02  0.11159099969E+02  0.30000000000E+02  0.47000000000E+01 0. -1.
         -5    1    3    3    0  501 -0.23820755796E+02  0.13636571460E+02 -0.11159099969E+02  0.30000000000E+02  0.47000000000E+01 0.  1.
</event>
<event>
 5    1  0.7673937E-002  0.6000000E+02  0.7546771E-02  0.1259629E+00
         11   -1    0    0    0    0  0.00000000000E+00  0.00000000000E+00  0.30000000000E+02  0.30000000000E+02  0.00000000000E+00 0.  1.
        -11   -1    0    0    0    0 -0.00000000000E+00 -0.00000000000E+00 -0.30000000000E+02  0.30000000000E+02  0.00000000000E+00 0. -1.
         23    2    1    2    0    0  0.00000000000E+00  0.00000000000E+00  0.00000000000E+00  0.60000000000E+02  0.60000000000E+02 0.  0.
          5    1    3    3  501    0  0.10319563231E+02  0.11827743697E+02 -0.25130083441E+02  0.30000000000E+02  0.47000000000E+01 0. -1.
         -5    1    3    3    0  501 -0.10319563231E+02 -0.11827743697E+02  0.25130083441E+02  0.30000000000E+02  0.47000000000E+01 0.  1.
</event>
<event>
 5    1  0.7673937E-002  0.6000000E+02  0.7546771E-02  0.1259629E+00
         11   -1    0    0    0    0  0.00000000000E+00  0.00000000000E+00  0.30000000000E+02  0.30000000000E+02  0.00000000000E+00 0.  1.
        -11   -1    0    0    0    0 -0.00000000000E+00 -0.00000000000E+00 -0.30000000000E+02  0.30000000000E+02  0.00000000000E+00 0. -1.
         23    2    1    2    0    0  0.00000000000E+00  0.00000000000E+00  0.00000000000E+00  0.60000000000E+02  0.60000000000E+02 0.  0.
          5    1    3    3  501    0  0.38206529655E+01  0.23494991884E+02 -0.17643638153E+02  0.30000000000E+02  0.47000000000E+01 0. -1.
         -5    1    3    3    0  501 -0.38206529655E+01 -0.23494991884E+02  0.17643638153E+02  0.30000000000E+02  0.47000000000E+01 0.  1.
</event>
<event>
 5    1  0.7673937E-002  0.6000000E+02  0.7546771E-02  0.1259629E+00
         11   -1    0    0    0    0  0.00000000000E+00  0.00000000000E+00  0.30000000000E+02  0.30000000000E+02  0.00000000000E+00 0.  1.
        -11   -1    0    0    0    0 -0.00000000000E+00 -0.00000000000E+00 -0.30000000000E+02  0.30000000000E+02  0.00000000000E+00 0. -1.
         23    2    1    2    0    0  0.00000000000E+00  0.00000000000E+00  0.00000000000E+00  0.60000000000E+02  0.60000000000E+02 0.  0.
          5    1    3    3  501    0  0.10231167542E+02  0.12286158995E+02 -0.24945610994E+02  0.30000000000E+02  0.47000000000E+01 0. -1.
         -5    1    3    3    0  501 -0.10231167542E+02 -0.12286158995E+02  0.24945610994E+02  0.30000000000E+02  0.47000000000E+01 0.  1.
</event>
<event>
 5    1  0.7673937E-002  0.6000000E+02  0.7546771E-02  0.1259629E+00
         11   -1    0    0    0    0  0.00000000000E+00  0.00000000000E+00  0.30000000000E+02  0.30000000000E+02  0.00000000000E+00 0.  1.
        -11   -1    0    0    0    0 -0.00000000000E+00 -0.00000000000E+00 -0.30000000000E+02  0.30000000000E+02  0.00000000000E+00 0. -1.
         23    2    1    2    0    0  0.00000000000E+00  0.00000000000E+00  0.00000000000E+00  0.60000000000E+02  0.60000000000E+02 0.  0.
          5    1    3    3  501    0  0.17940972406E+01 -0.27473269254E+02 -0.10950374039E+02  0.30000000000E+02  0.47000000000E+01 0. -1.
         -5    1    3    3    0  501 -0.17940972406E+01  0.27473269254E+02  0.10950374039E+02  0.30000000000E+02  0.47000000000E+01 0.  1.
</event>
<event>
 5    1  0.7673937E-002  0.6000000E+02  0.7546771E-02  0.1259629E+00
         11   -1    0    0    0    0  0.00000000000E+00  0.00000000000E+00  0.30000000000E+02  0.30000000000E+02  0.00000000000E+00 0.  1.
        -11   -1    0    0    0    0 -0.00000000000E+00 -0.00000000000E+00 -0.30000000000E+02  0.30000000000E+02  0.00000000000E+00 0. -1.
         23    2    1    2    0    0  0.00000000000E+00  0.00000000000E+00  0.00000000000E+00  0.60000000000E+02  0.60000000000E+02 0.  0.
          5    1    3    3  501    0  0.22034230484E+02  0.17912068437E+02 -0.84593434311E+01  0.30000000000E+02  0.47000000000E+01 0. -1.
         -5    1    3    3    0  501 -0.22034230484E+02 -0.17912068437E+02  0.84593434311E+01  0.30000000000E+02  0.47000000000E+01 0.  1.
</event>
<event>
 5    1  0.7673937E-002  0.6000000E+02  0.7546771E-02  0.1259629E+00
         11   -1    0    0    0    0  0.00000000000E+00  0.00000000000E+00  0.30000000000E+02  0.30000000000E+02  0.00000000000E+00 0.  1.
        -11   -1    0    0    0    0 -0.00000000000E+00 -0.00000000000E+00 -0.30000000000E+02  0.30000000000E+02  0.00000000000E+00 0. -1.
         23    2    1    2    0    0  0.00000000000E+00  0.00000000000E+00  0.00000000000E+00  0.60000000000E+02  0.60000000000E+02 0.  0.
          5    1    3    3  501    0  0.21564352157E+01 -0.24945231910E+02 -0.15842827781E+02  0.30000000000E+02  0.47000000000E+01 0. -1.
         -5    1    3    3    0  501 -0.21564352157E+01  0.24945231910E+02  0.15842827781E+02  0.30000000000E+02  0.47000000000E+01 0.  1.
</event>
<event>
 5    1  0.7673937E-002  0.6000000E+02  0.7546771E-02  0.1259629E+00
         11   -1    0    0    0    0  0.00000000000E+00  0.00000000000E+00  0.30000000000E+02  0.30000000000E+02  0.00000000000E+00 0.  1.
        -11   -1    0    0    0    0 -0.00000000000E+00 -0.00000000000E+00 -0.30000000000E+02  0.30000000000E+02  0.00000000000E+00 0. -1.
         23    2    1    2    0    0  0.00000000000E+00  0.00000000000E+00  0.00000000000E+00  0.60000000000E+02  0.60000000000E+02 0.  0.
          5    1    3    3  501    0  0.11765602929E+01  0.24670138676E+02 -0.16367955387E+02  0.30000000000E+02  0.47000000000E+01 0. -1.
         -5    1    3    3    0  501 -0.11765602929E+01 -0.24670138676E+02  0.16367955387E+02  0.30000000000E+02  0.47000000000E+01 0.  1.
</event>
<event>
 5    1  0.7673937E-002  0.6000000E+02  0.7546771E-02  0.1259629E+00
         11   -1    0    0    0    0  0.00000000000E+00  0.00000000000E+00  0.30000000000E+02  0.30000000000E+02  0.00000000000E+00 0.  1.
        -11   -1    0    0    0    0 -0.00000000000E+00 -0.00000000000E+00 -0.30000000000E+02  0.30000000000E+02  0.00000000000E+00 0. -1.
         23    2    1    2    0    0  0.00000000000E+00  0.00000000000E+00  0.00000000000E+00  0.60000000000E+02  0.60000000000E+02 0.  0.
          5    1    3    3  501    0  0.28539491346E+02 -0.46476016615E+01  0.64658512595E+01  0.30000000000E+02  0.47000000000E+01 0. -1.
         -5    1    3    3    0  501 -0.28539491346E+02  0.46476016615E+01 -0.64658512595E+01  0.30000000000E+02  0.47000000000E+01 0.  1.
</event>
<event>
 5    1  0.7673937E-002  0.6000000E+02  0.7546771E-02  0.1259629E+00
         11   -1    0    0    0    0  0.00000000000E+00  0.00000000000E+00  0.30000000000E+02  0.30000000000E+02  0.00000000000E+00 0.  1.
        -11   -1    0    0    0    0 -0.00000000000E+00 -0.00000000000E+00 -0.30000000000E+02  0.30000000000E+02  0.00000000000E+00 0. -1.
         23    2    1    2    0    0  0.00000000000E+00  0.00000000000E+00  0.00000000000E+00  0.60000000000E+02  0.60000000000E+02 0.  0.
          5    1    3    3  501    0 -0.42325754296E+01  0.29235789132E+02  0.22943275828E+01  0.30000000000E+02  0.47000000000E+01 0. -1.
         -5    1    3    3    0  501  0.42325754296E+01 -0.29235789132E+02 -0.22943275828E+01  0.30000000000E+02  0.47000000000E+01 0.  1.
</event>
<event>
 5    1  0.7673937E-002  0.6000000E+02  0.7546771E-02  0.1259629E+00
         11   -1    0    0    0    0  0.00000000000E+00  0.00000000000E+00  0.30000000000E+02  0.30000000000E+02  0.00000000000E+00 0.  1.
        -11   -1    0    0    0    0 -0.00000000000E+00 -0.00000000000E+00 -0.30000000000E+02  0.30000000000E+02  0.00000000000E+00 0. -1.
         23    2    1    2    0    0  0.00000000000E+00  0.00000000000E+00  0.00000000000E+00  0.60000000000E+02  0.60000000000E+02 0.  0.
          5    1    3    3  501    0 -0.25030524893E+02  0.13675171259E+02 -0.80232483845E+01  0.30000000000E+02  0.47000000000E+01 0. -1.
         -5    1    3    3    0  501  0.25030524893E+02 -0.13675171259E+02  0.80232483845E+01  0.30000000000E+02  0.47000000000E+01 0.  1.
</event>
<event>
 5    1  0.7673937E-002  0.6000000E+02  0.7546771E-02  0.1259629E+00
         11   -1    0    0    0    0  0.00000000000E+00  0.00000000000E+00  0.30000000000E+02  0.30000000000E+02  0.00000000000E+00 0.  1.
        -11   -1    0    0    0    0 -0.00000000000E+00 -0.00000000000E+00 -0.30000000000E+02  0.30000000000E+02  0.00000000000E+00 0. -1.
         23    2    1    2    0    0  0.00000000000E+00  0.00000000000E+00  0.00000000000E+00  0.60000000000E+02  0.60000000000E+02 0.  0.
          5    1    3    3  501    0 -0.14103491583E+02  0.25424449966E+02 -0.57095419320E+01  0.30000000000E+02  0.47000000000E+01 0. -1.
         -5    1    3    3    0  501  0.14103491583E+02 -0.25424449966E+02  0.57095419320E+01  0.30000000000E+02  0.47000000000E+01 0.  1.
</event>
<event>
 5    1  0.7673937E-002  0.6000000E+02  0.7546771E-02  0.1259629E+00
         11   -1    0    0    0    0  0.00000000000E+00  0.00000000000E+00  0.30000000000E+02  0.30000000000E+02  0.00000000000E+00 0. -1.
        -11   -1    0    0    0    0 -0.00000000000E+00 -0.00000000000E+00 -0.30000000000E+02  0.30000000000E+02  0.00000000000E+00 0.  1.
         23    2    1    2    0    0  0.00000000000E+00  0.00000000000E+00  0.00000000000E+00  0.60000000000E+02  0.60000000000E+02 0.  0.
          5    1    3    3  501    0  0.43199237756E+01  0.45945934758E+01 -0.28950612590E+02  0.30000000000E+02  0.47000000000E+01 0.  1.
         -5    1    3    3    0  501 -0.43199237756E+01 -0.45945934758E+01  0.28950612590E+02  0.30000000000E+02  0.47000000000E+01 0. -1.
</event>
<event>
 5    1  0.7673937E-002  0.6000000E+02  0.7546771E-02  0.1259629E+00
         11   -1    0    0    0    0  0.00000000000E+00  0.00000000000E+00  0.30000000000E+02  0.30000000000E+02  0.00000000000E+00 0.  1.
        -11   -1    0    0    0    0 -0.00000000000E+00 -0.00000000000E+00 -0.30000000000E+02  0.30000000000E+02  0.00000000000E+00 0. -1.
         23    2    1    2    0    0  0.00000000000E+00  0.00000000000E+00  0.00000000000E+00  0.60000000000E+02  0.60000000000E+02 0.  0.
          5    1    3    3  501    0  0.53763616909E+01  0.75804923407E+01 -0.28134336154E+02  0.30000000000E+02  0.47000000000E+01 0. -1.
         -5    1    3    3    0  501 -0.53763616909E+01 -0.75804923407E+01  0.28134336154E+02  0.30000000000E+02  0.47000000000E+01 0.  1.
</event>
<event>
 5    1  0.7673937E-002  0.6000000E+02  0.7546771E-02  0.1259629E+00
         11   -1    0    0    0    0  0.00000000000E+00  0.00000000000E+00  0.30000000000E+02  0.30000000000E+02  0.00000000000E+00 0.  1.
        -11   -1    0    0    0    0 -0.00000000000E+00 -0.00000000000E+00 -0.30000000000E+02  0.30000000000E+02  0.00000000000E+00 0. -1.
         23    2    1    2    0    0  0.00000000000E+00  0.00000000000E+00  0.00000000000E+00  0.60000000000E+02  0.60000000000E+02 0.  0.
          5    1    3    3  501    0 -0.11223574425E+01  0.23323608591E+01 -0.29516273589E+02  0.30000000000E+02  0.47000000000E+01 0. -1.
         -5    1    3    3    0  501  0.11223574425E+01 -0.23323608591E+01  0.29516273589E+02  0.30000000000E+02  0.47000000000E+01 0.  1.
</event>
<event>
 5    1  0.7673937E-002  0.6000000E+02  0.7546771E-02  0.1259629E+00
         11   -1    0    0    0    0  0.00000000000E+00  0.00000000000E+00  0.30000000000E+02  0.30000000000E+02  0.00000000000E+00 0. -1.
        -11   -1    0    0    0    0 -0.00000000000E+00 -0.00000000000E+00 -0.30000000000E+02  0.30000000000E+02  0.00000000000E+00 0.  1.
         23    2    1    2    0    0  0.00000000000E+00  0.00000000000E+00  0.00000000000E+00  0.60000000000E+02  0.60000000000E+02 0.  0.
          5    1    3    3  501    0  0.11525979533E+02  0.81522900459E+01 -0.26049989689E+02  0.30000000000E+02  0.47000000000E+01 0.  1.
         -5    1    3    3    0  501 -0.11525979533E+02 -0.81522900459E+01  0.26049989689E+02  0.30000000000E+02  0.47000000000E+01 0. -1.
</event>
<event>
 5    1  0.7673937E-002  0.6000000E+02  0.7546771E-02  0.1259629E+00
         11   -1    0    0    0    0  0.00000000000E+00  0.00000000000E+00  0.30000000000E+02  0.30000000000E+02  0.00000000000E+00 0.  1.
        -11   -1    0    0    0    0 -0.00000000000E+00 -0.00000000000E+00 -0.30000000000E+02  0.30000000000E+02  0.00000000000E+00 0. -1.
         23    2    1    2    0    0  0.00000000000E+00  0.00000000000E+00  0.00000000000E+00  0.60000000000E+02  0.60000000000E+02 0.  0.
          5    1    3    3  501    0  0.25502604865E+02 -0.92413501894E+01  0.11921601895E+02  0.30000000000E+02  0.47000000000E+01 0.  1.
         -5    1    3    3    0  501 -0.25502604865E+02  0.92413501894E+01 -0.11921601895E+02  0.30000000000E+02  0.47000000000E+01 0. -1.
</event>
<event>
 5    1  0.7673937E-002  0.6000000E+02  0.7546771E-02  0.1259629E+00
         11   -1    0    0    0    0  0.00000000000E+00  0.00000000000E+00  0.30000000000E+02  0.30000000000E+02  0.00000000000E+00 0.  1.
        -11   -1    0    0    0    0 -0.00000000000E+00 -0.00000000000E+00 -0.30000000000E+02  0.30000000000E+02  0.00000000000E+00 0. -1.
         23    2    1    2    0    0  0.00000000000E+00  0.00000000000E+00  0.00000000000E+00  0.60000000000E+02  0.60000000000E+02 0.  0.
          5    1    3    3  501    0 -0.10211172704E+02  0.26017471047E+02 -0.98353013332E+01  0.30000000000E+02  0.47000000000E+01 0. -1.
         -5    1    3    3    0  501  0.10211172704E+02 -0.26017471047E+02  0.98353013332E+01  0.30000000000E+02  0.47000000000E+01 0.  1.
</event>
<event>
 5    1  0.7673937E-002  0.6000000E+02  0.7546771E-02  0.1259629E+00
         11   -1    0    0    0    0  0.00000000000E+00  0.00000000000E+00  0.30000000000E+02  0.30000000000E+02  0.00000000000E+00 0. -1.
        -11   -1    0    0    0    0 -0.00000000000E+00 -0.00000000000E+00 -0.30000000000E+02  0.30000000000E+02  0.00000000000E+00 0.  1.
         23    2    1    2    0    0  0.00000000000E+00  0.00000000000E+00  0.00000000000E+00  0.60000000000E+02  0.60000000000E+02 0.  0.
          5    1    3    3  501    0 -0.13756961304E+02  0.20977738852E+02 -0.15766752625E+02  0.30000000000E+02  0.47000000000E+01 0.  1.
         -5    1    3    3    0  501  0.13756961304E+02 -0.20977738852E+02  0.15766752625E+02  0.30000000000E+02  0.47000000000E+01 0. -1.
</event>
<event>
 5    1  0.7673937E-002  0.6000000E+02  0.7546771E-02  0.1259629E+00
         11   -1    0    0    0    0  0.00000000000E+00  0.00000000000E+00  0.30000000000E+02  0.30000000000E+02  0.00000000000E+00 0. -1.
        -11   -1    0    0    0    0 -0.00000000000E+00 -0.00000000000E+00 -0.30000000000E+02  0.30000000000E+02  0.00000000000E+00 0.  1.
         23    2    1    2    0    0  0.00000000000E+00  0.00000000000E+00  0.00000000000E+00  0.60000000000E+02  0.60000000000E+02 0.  0.
          5    1    3    3  501    0 -0.21947286365E+02  0.94174345136E+01 -0.17536777025E+02  0.30000000000E+02  0.47000000000E+01 0.  1.
         -5    1    3    3    0  501  0.21947286365E+02 -0.94174345136E+01  0.17536777025E+02  0.30000000000E+02  0.47000000000E+01 0. -1.
</event>
<event>
 5    1  0.7673937E-002  0.6000000E+02  0.7546771E-02  0.1259629E+00
         11   -1    0    0    0    0  0.00000000000E+00  0.00000000000E+00  0.30000000000E+02  0.30000000000E+02  0.00000000000E+00 0.  1.
        -11   -1    0    0    0    0 -0.00000000000E+00 -0.00000000000E+00 -0.30000000000E+02  0.30000000000E+02  0.00000000000E+00 0. -1.
         23    2    1    2    0    0  0.00000000000E+00  0.00000000000E+00  0.00000000000E+00  0.60000000000E+02  0.60000000000E+02 0.  0.
          5    1    3    3  501    0  0.27186487965E+02 -0.73129749788E+01 -0.92371678080E+01  0.30000000000E+02  0.47000000000E+01 0. -1.
         -5    1    3    3    0  501 -0.27186487965E+02  0.73129749788E+01  0.92371678080E+01  0.30000000000E+02  0.47000000000E+01 0.  1.
</event>
<event>
 5    1  0.7673937E-002  0.6000000E+02  0.7546771E-02  0.1259629E+00
         11   -1    0    0    0    0  0.00000000000E+00  0.00000000000E+00  0.30000000000E+02  0.30000000000E+02  0.00000000000E+00 0.  1.
        -11   -1    0    0    0    0 -0.00000000000E+00 -0.00000000000E+00 -0.30000000000E+02  0.30000000000E+02  0.00000000000E+00 0. -1.
         23    2    1    2    0    0  0.00000000000E+00  0.00000000000E+00  0.00000000000E+00  0.60000000000E+02  0.60000000000E+02 0.  0.
          5    1    3    3  501    0  0.25582754737E+02  0.62943848480E+01 -0.13557779297E+02  0.30000000000E+02  0.47000000000E+01 0. -1.
         -5    1    3    3    0  501 -0.25582754737E+02 -0.62943848480E+01  0.13557779297E+02  0.30000000000E+02  0.47000000000E+01 0.  1.
</event>
<event>
 5    1  0.7673937E-002  0.6000000E+02  0.7546771E-02  0.1259629E+00
         11   -1    0    0    0    0  0.00000000000E+00  0.00000000000E+00  0.30000000000E+02  0.30000000000E+02  0.00000000000E+00 0. -1.
        -11   -1    0    0    0    0 -0.00000000000E+00 -0.00000000000E+00 -0.30000000000E+02  0.30000000000E+02  0.00000000000E+00 0.  1.
         23    2    1    2    0    0  0.00000000000E+00  0.00000000000E+00  0.00000000000E+00  0.60000000000E+02  0.60000000000E+02 0.  0.
          5    1    3    3  501    0 -0.22654325580E+02 -0.14999493382E+02 -0.11819760183E+02  0.30000000000E+02  0.47000000000E+01 0.  1.
         -5    1    3    3    0  501  0.22654325580E+02  0.14999493382E+02  0.11819760183E+02  0.30000000000E+02  0.47000000000E+01 0. -1.
</event>
<event>
 5    1  0.7673937E-002  0.6000000E+02  0.7546771E-02  0.1259629E+00
         11   -1    0    0    0    0  0.00000000000E+00  0.00000000000E+00  0.30000000000E+02  0.30000000000E+02  0.00000000000E+00 0.  1.
        -11   -1    0    0    0    0 -0.00000000000E+00 -0.00000000000E+00 -0.30000000000E+02  0.30000000000E+02  0.00000000000E+00 0. -1.
         23    2    1    2    0    0  0.00000000000E+00  0.00000000000E+00  0.00000000000E+00  0.60000000000E+02  0.60000000000E+02 0.  0.
          5    1    3    3  501    0  0.23444642069E+02 -0.17236972807E+02 -0.55808177483E+01  0.30000000000E+02  0.47000000000E+01 0. -1.
         -5    1    3    3    0  501 -0.23444642069E+02  0.17236972807E+02  0.55808177483E+01  0.30000000000E+02  0.47000000000E+01 0.  1.
</event>
<event>
 5    1  0.7673937E-002  0.6000000E+02  0.7546771E-02  0.1259629E+00
         11   -1    0    0    0    0  0.00000000000E+00  0.00000000000E+00  0.30000000000E+02  0.30000000000E+02  0.00000000000E+00 0.  1.
        -11   -1    0    0    0    0 -0.00000000000E+00 -0.00000000000E+00 -0.30000000000E+02  0.30000000000E+02  0.00000000000E+00 0. -1.
         23    2    1    2    0    0  0.00000000000E+00  0.00000000000E+00  0.00000000000E+00  0.60000000000E+02  0.60000000000E+02 0.  0.
          5    1    3    3  501    0 -0.24814143722E+02  0.14984108072E+02  0.61355339333E+01  0.30000000000E+02  0.47000000000E+01 0. -1.
         -5    1    3    3    0  501  0.24814143722E+02 -0.14984108072E+02 -0.61355339333E+01  0.30000000000E+02  0.47000000000E+01 0.  1.
</event>
<event>
 5    1  0.7673937E-002  0.6000000E+02  0.7546771E-02  0.1259629E+00
         11   -1    0    0    0    0  0.00000000000E+00  0.00000000000E+00  0.30000000000E+02  0.30000000000E+02  0.00000000000E+00 0.  1.
        -11   -1    0    0    0    0 -0.00000000000E+00 -0.00000000000E+00 -0.30000000000E+02  0.30000000000E+02  0.00000000000E+00 0. -1.
         23    2    1    2    0    0  0.00000000000E+00  0.00000000000E+00  0.00000000000E+00  0.60000000000E+02  0.60000000000E+02 0.  0.
          5    1    3    3  501    0  0.24191723682E+02  0.39221019854E+01 -0.16651955480E+02  0.30000000000E+02  0.47000000000E+01 0. -1.
         -5    1    3    3    0  501 -0.24191723682E+02 -0.39221019854E+01  0.16651955480E+02  0.30000000000E+02  0.47000000000E+01 0.  1.
</event>
<event>
 5    1  0.7673937E-002  0.6000000E+02  0.7546771E-02  0.1259629E+00
         11   -1    0    0    0    0  0.00000000000E+00  0.00000000000E+00  0.30000000000E+02  0.30000000000E+02  0.00000000000E+00 0. -1.
        -11   -1    0    0    0    0 -0.00000000000E+00 -0.00000000000E+00 -0.30000000000E+02  0.30000000000E+02  0.00000000000E+00 0.  1.
         23    2    1    2    0    0  0.00000000000E+00  0.00000000000E+00  0.00000000000E+00  0.60000000000E+02  0.60000000000E+02 0.  0.
          5    1    3    3  501    0  0.10152860776E+02 -0.13978913686E+02 -0.24071131885E+02  0.30000000000E+02  0.47000000000E+01 0.  1.
         -5    1    3    3    0  501 -0.10152860776E+02  0.13978913686E+02  0.24071131885E+02  0.30000000000E+02  0.47000000000E+01 0. -1.
</event>
<event>
 5    1  0.7673937E-002  0.6000000E+02  0.7546771E-02  0.1259629E+00
         11   -1    0    0    0    0  0.00000000000E+00  0.00000000000E+00  0.30000000000E+02  0.30000000000E+02  0.00000000000E+00 0. -1.
        -11   -1    0    0    0    0 -0.00000000000E+00 -0.00000000000E+00 -0.30000000000E+02  0.30000000000E+02  0.00000000000E+00 0.  1.
         23    2    1    2    0    0  0.00000000000E+00  0.00000000000E+00  0.00000000000E+00  0.60000000000E+02  0.60000000000E+02 0.  0.
          5    1    3    3  501    0 -0.26829048097E+02 -0.12503059835E+02 -0.13362907376E+01  0.30000000000E+02  0.47000000000E+01 0.  1.
         -5    1    3    3    0  501  0.26829048097E+02  0.12503059835E+02  0.13362907376E+01  0.30000000000E+02  0.47000000000E+01 0. -1.
</event>
<event>
 5    1  0.7673937E-002  0.6000000E+02  0.7546771E-02  0.1259629E+00
         11   -1    0    0    0    0  0.00000000000E+00  0.00000000000E+00  0.30000000000E+02  0.30000000000E+02  0.00000000000E+00 0.  1.
        -11   -1    0    0    0    0 -0.00000000000E+00 -0.00000000000E+00 -0.30000000000E+02  0.30000000000E+02  0.00000000000E+00 0. -1.
         23    2    1    2    0    0  0.00000000000E+00  0.00000000000E+00  0.00000000000E+00  0.60000000000E+02  0.60000000000E+02 0.  0.
          5    1    3    3  501    0  0.26206422054E+02 -0.13740098638E+02 -0.15307294237E+01  0.30000000000E+02  0.47000000000E+01 0. -1.
         -5    1    3    3    0  501 -0.26206422054E+02  0.13740098638E+02  0.15307294237E+01  0.30000000000E+02  0.47000000000E+01 0.  1.
</event>
<event>
 5    1  0.7673937E-002  0.6000000E+02  0.7546771E-02  0.1259629E+00
         11   -1    0    0    0    0  0.00000000000E+00  0.00000000000E+00  0.30000000000E+02  0.30000000000E+02  0.00000000000E+00 0. -1.
        -11   -1    0    0    0    0 -0.00000000000E+00 -0.00000000000E+00 -0.30000000000E+02  0.30000000000E+02  0.00000000000E+00 0.  1.
         23    2    1    2    0    0  0.00000000000E+00  0.00000000000E+00  0.00000000000E+00  0.60000000000E+02  0.60000000000E+02 0.  0.
          5    1    3    3  501    0  0.13278074869E+02  0.14382176665E+02 -0.22243105048E+02  0.30000000000E+02  0.47000000000E+01 0.  1.
         -5    1    3    3    0  501 -0.13278074869E+02 -0.14382176665E+02  0.22243105048E+02  0.30000000000E+02  0.47000000000E+01 0. -1.
</event>
<event>
 5    1  0.7673937E-002  0.6000000E+02  0.7546771E-02  0.1259629E+00
         11   -1    0    0    0    0  0.00000000000E+00  0.00000000000E+00  0.30000000000E+02  0.30000000000E+02  0.00000000000E+00 0.  1.
        -11   -1    0    0    0    0 -0.00000000000E+00 -0.00000000000E+00 -0.30000000000E+02  0.30000000000E+02  0.00000000000E+00 0. -1.
         23    2    1    2    0    0  0.00000000000E+00  0.00000000000E+00  0.00000000000E+00  0.60000000000E+02  0.60000000000E+02 0.  0.
          5    1    3    3  501    0  0.28632446330E+02 -0.74899573461E+01 -0.14119334568E+01  0.30000000000E+02  0.47000000000E+01 0. -1.
         -5    1    3    3    0  501 -0.28632446330E+02  0.74899573461E+01  0.14119334568E+01  0.30000000000E+02  0.47000000000E+01 0.  1.
</event>
<event>
 5    1  0.7673937E-002  0.6000000E+02  0.7546771E-02  0.1259629E+00
         11   -1    0    0    0    0  0.00000000000E+00  0.00000000000E+00  0.30000000000E+02  0.30000000000E+02  0.00000000000E+00 0. -1.
        -11   -1    0    0    0    0 -0.00000000000E+00 -0.00000000000E+00 -0.30000000000E+02  0.30000000000E+02  0.00000000000E+00 0.  1.
         23    2    1    2    0    0  0.00000000000E+00  0.00000000000E+00  0.00000000000E+00  0.60000000000E+02  0.60000000000E+02 0.  0.
          5    1    3    3  501    0 -0.20593757975E+02  0.16310282618E+02 -0.13703350444E+02  0.30000000000E+02  0.47000000000E+01 0.  1.
         -5    1    3    3    0  501  0.20593757975E+02 -0.16310282618E+02  0.13703350444E+02  0.30000000000E+02  0.47000000000E+01 0. -1.
</event>
<event>
 5    1  0.7673937E-002  0.6000000E+02  0.7546771E-02  0.1259629E+00
         11   -1    0    0    0    0  0.00000000000E+00  0.00000000000E+00  0.30000000000E+02  0.30000000000E+02  0.00000000000E+00 0.  1.
        -11   -1    0    0    0    0 -0.00000000000E+00 -0.00000000000E+00 -0.30000000000E+02  0.30000000000E+02  0.00000000000E+00 0. -1.
         23    2    1    2    0    0  0.00000000000E+00  0.00000000000E+00  0.00000000000E+00  0.60000000000E+02  0.60000000000E+02 0.  0.
          5    1    3    3  501    0  0.16653762062E+01  0.14421907502E+02 -0.25829152253E+02  0.30000000000E+02  0.47000000000E+01 0. -1.
         -5    1    3    3    0  501 -0.16653762062E+01 -0.14421907502E+02  0.25829152253E+02  0.30000000000E+02  0.47000000000E+01 0.  1.
</event>
<event>
 5    1  0.7673937E-002  0.6000000E+02  0.7546771E-02  0.1259629E+00
         11   -1    0    0    0    0  0.00000000000E+00  0.00000000000E+00  0.30000000000E+02  0.30000000000E+02  0.00000000000E+00 0.  1.
        -11   -1    0    0    0    0 -0.00000000000E+00 -0.00000000000E+00 -0.30000000000E+02  0.30000000000E+02  0.00000000000E+00 0. -1.
         23    2    1    2    0    0  0.00000000000E+00  0.00000000000E+00  0.00000000000E+00  0.60000000000E+02  0.60000000000E+02 0.  0.
          5    1    3    3  501    0 -0.22905973026E+01  0.10598427723E+02  0.27574199785E+02  0.30000000000E+02  0.47000000000E+01 0.  1.
         -5    1    3    3    0  501  0.22905973026E+01 -0.10598427723E+02 -0.27574199785E+02  0.30000000000E+02  0.47000000000E+01 0. -1.
</event>
<event>
 5    1  0.7673937E-002  0.6000000E+02  0.7546771E-02  0.1259629E+00
         11   -1    0    0    0    0  0.00000000000E+00  0.00000000000E+00  0.30000000000E+02  0.30000000000E+02  0.00000000000E+00 0. -1.
        -11   -1    0    0    0    0 -0.00000000000E+00 -0.00000000000E+00 -0.30000000000E+02  0.30000000000E+02  0.00000000000E+00 0.  1.
         23    2    1    2    0    0  0.00000000000E+00  0.00000000000E+00  0.00000000000E+00  0.60000000000E+02  0.60000000000E+02 0.  0.
          5    1    3    3  501    0  0.53743347511E+01  0.21846587840E+02 -0.19280900543E+02  0.30000000000E+02  0.47000000000E+01 0.  1.
         -5    1    3    3    0  501 -0.53743347511E+01 -0.21846587840E+02  0.19280900543E+02  0.30000000000E+02  0.47000000000E+01 0. -1.
</event>
<event>
 5    1  0.7673937E-002  0.6000000E+02  0.7546771E-02  0.1259629E+00
         11   -1    0    0    0    0  0.00000000000E+00  0.00000000000E+00  0.30000000000E+02  0.30000000000E+02  0.00000000000E+00 0. -1.
        -11   -1    0    0    0    0 -0.00000000000E+00 -0.00000000000E+00 -0.30000000000E+02  0.30000000000E+02  0.00000000000E+00 0.  1.
         23    2    1    2    0    0  0.00000000000E+00  0.00000000000E+00  0.00000000000E+00  0.60000000000E+02  0.60000000000E+02 0.  0.
          5    1    3    3  501    0  0.14778743620E+02  0.13286738470E+02  0.21976380909E+02  0.30000000000E+02  0.47000000000E+01 0. -1.
         -5    1    3    3    0  501 -0.14778743620E+02 -0.13286738470E+02 -0.21976380909E+02  0.30000000000E+02  0.47000000000E+01 0.  1.
</event>
<event>
 5    1  0.7673937E-002  0.6000000E+02  0.7546771E-02  0.1259629E+00
         11   -1    0    0    0    0  0.00000000000E+00  0.00000000000E+00  0.30000000000E+02  0.30000000000E+02  0.00000000000E+00 0.  1.
        -11   -1    0    0    0    0 -0.00000000000E+00 -0.00000000000E+00 -0.30000000000E+02  0.30000000000E+02  0.00000000000E+00 0. -1.
         23    2    1    2    0    0  0.00000000000E+00  0.00000000000E+00  0.00000000000E+00  0.60000000000E+02  0.60000000000E+02 0.  0.
          5    1    3    3  501    0 -0.83063258756E+01  0.26688677551E+02 -0.98300275191E+01  0.30000000000E+02  0.47000000000E+01 0. -1.
         -5    1    3    3    0  501  0.83063258756E+01 -0.26688677551E+02  0.98300275191E+01  0.30000000000E+02  0.47000000000E+01 0.  1.
</event>
<event>
 5    1  0.7673937E-002  0.6000000E+02  0.7546771E-02  0.1259629E+00
         11   -1    0    0    0    0  0.00000000000E+00  0.00000000000E+00  0.30000000000E+02  0.30000000000E+02  0.00000000000E+00 0.  1.
        -11   -1    0    0    0    0 -0.00000000000E+00 -0.00000000000E+00 -0.30000000000E+02  0.30000000000E+02  0.00000000000E+00 0. -1.
         23    2    1    2    0    0  0.00000000000E+00  0.00000000000E+00  0.00000000000E+00  0.60000000000E+02  0.60000000000E+02 0.  0.
          5    1    3    3  501    0 -0.64743072902E+01 -0.62004684314E+01 -0.28240884128E+02  0.30000000000E+02  0.47000000000E+01 0. -1.
         -5    1    3    3    0  501  0.64743072902E+01  0.62004684314E+01  0.28240884128E+02  0.30000000000E+02  0.47000000000E+01 0.  1.
</event>
<event>
 5    1  0.7673937E-002  0.6000000E+02  0.7546771E-02  0.1259629E+00
         11   -1    0    0    0    0  0.00000000000E+00  0.00000000000E+00  0.30000000000E+02  0.30000000000E+02  0.00000000000E+00 0.  1.
        -11   -1    0    0    0    0 -0.00000000000E+00 -0.00000000000E+00 -0.30000000000E+02  0.30000000000E+02  0.00000000000E+00 0. -1.
         23    2    1    2    0    0  0.00000000000E+00  0.00000000000E+00  0.00000000000E+00  0.60000000000E+02  0.60000000000E+02 0.  0.
          5    1    3    3  501    0  0.13348885217E+02 -0.26214256021E+02  0.35397803207E+01  0.30000000000E+02  0.47000000000E+01 0. -1.
         -5    1    3    3    0  501 -0.13348885217E+02  0.26214256021E+02 -0.35397803207E+01  0.30000000000E+02  0.47000000000E+01 0.  1.
</event>
<event>
 5    1  0.7673937E-002  0.6000000E+02  0.7546771E-02  0.1259629E+00
         11   -1    0    0    0    0  0.00000000000E+00  0.00000000000E+00  0.30000000000E+02  0.30000000000E+02  0.00000000000E+00 0.  1.
        -11   -1    0    0    0    0 -0.00000000000E+00 -0.00000000000E+00 -0.30000000000E+02  0.30000000000E+02  0.00000000000E+00 0. -1.
         23    2    1    2    0    0  0.00000000000E+00  0.00000000000E+00  0.00000000000E+00  0.60000000000E+02  0.60000000000E+02 0.  0.
          5    1    3    3  501    0  0.10000517079E+02 -0.16189886162E+02 -0.22710949874E+02  0.30000000000E+02  0.47000000000E+01 0. -1.
         -5    1    3    3    0  501 -0.10000517079E+02  0.16189886162E+02  0.22710949874E+02  0.30000000000E+02  0.47000000000E+01 0.  1.
</event>
<event>
 5    1  0.7673937E-002  0.6000000E+02  0.7546771E-02  0.1259629E+00
         11   -1    0    0    0    0  0.00000000000E+00  0.00000000000E+00  0.30000000000E+02  0.30000000000E+02  0.00000000000E+00 0. -1.
        -11   -1    0    0    0    0 -0.00000000000E+00 -0.00000000000E+00 -0.30000000000E+02  0.30000000000E+02  0.00000000000E+00 0.  1.
         23    2    1    2    0    0  0.00000000000E+00  0.00000000000E+00  0.00000000000E+00  0.60000000000E+02  0.60000000000E+02 0.  0.
          5    1    3    3  501    0 -0.43935506722E+01 -0.33564764368E+01 -0.29109118475E+02  0.30000000000E+02  0.47000000000E+01 0.  1.
         -5    1    3    3    0  501  0.43935506722E+01  0.33564764368E+01  0.29109118475E+02  0.30000000000E+02  0.47000000000E+01 0. -1.
</event>
<event>
 5    1  0.7673937E-002  0.6000000E+02  0.7546771E-02  0.1259629E+00
         11   -1    0    0    0    0  0.00000000000E+00  0.00000000000E+00  0.30000000000E+02  0.30000000000E+02  0.00000000000E+00 0.  1.
        -11   -1    0    0    0    0 -0.00000000000E+00 -0.00000000000E+00 -0.30000000000E+02  0.30000000000E+02  0.00000000000E+00 0. -1.
         23    2    1    2    0    0  0.00000000000E+00  0.00000000000E+00  0.00000000000E+00  0.60000000000E+02  0.60000000000E+02 0.  0.
          5    1    3    3  501    0  0.22657269325E+02  0.18917605042E+02  0.25850273204E+01  0.30000000000E+02  0.47000000000E+01 0. -1.
         -5    1    3    3    0  501 -0.22657269325E+02 -0.18917605042E+02 -0.25850273204E+01  0.30000000000E+02  0.47000000000E+01 0.  1.
</event>
<event>
 5    1  0.7673937E-002  0.6000000E+02  0.7546771E-02  0.1259629E+00
         11   -1    0    0    0    0  0.00000000000E+00  0.00000000000E+00  0.30000000000E+02  0.30000000000E+02  0.00000000000E+00 0.  1.
        -11   -1    0    0    0    0 -0.00000000000E+00 -0.00000000000E+00 -0.30000000000E+02  0.30000000000E+02  0.00000000000E+00 0. -1.
         23    2    1    2    0    0  0.00000000000E+00  0.00000000000E+00  0.00000000000E+00  0.60000000000E+02  0.60000000000E+02 0.  0.
          5    1    3    3  501    0  0.27196094107E+02  0.62971038872E+01 -0.99312107997E+01  0.30000000000E+02  0.47000000000E+01 0. -1.
         -5    1    3    3    0  501 -0.27196094107E+02 -0.62971038872E+01  0.99312107997E+01  0.30000000000E+02  0.47000000000E+01 0.  1.
</event>
<event>
 5    1  0.7673937E-002  0.6000000E+02  0.7546771E-02  0.1259629E+00
         11   -1    0    0    0    0  0.00000000000E+00  0.00000000000E+00  0.30000000000E+02  0.30000000000E+02  0.00000000000E+00 0.  1.
        -11   -1    0    0    0    0 -0.00000000000E+00 -0.00000000000E+00 -0.30000000000E+02  0.30000000000E+02  0.00000000000E+00 0. -1.
         23    2    1    2    0    0  0.00000000000E+00  0.00000000000E+00  0.00000000000E+00  0.60000000000E+02  0.60000000000E+02 0.  0.
          5    1    3    3  501    0 -0.51746816900E+01 -0.23280109372E+01 -0.29081145687E+02  0.30000000000E+02  0.47000000000E+01 0. -1.
         -5    1    3    3    0  501  0.51746816900E+01  0.23280109372E+01  0.29081145687E+02  0.30000000000E+02  0.47000000000E+01 0.  1.
</event>
<event>
 5    1  0.7673937E-002  0.6000000E+02  0.7546771E-02  0.1259629E+00
         11   -1    0    0    0    0  0.00000000000E+00  0.00000000000E+00  0.30000000000E+02  0.30000000000E+02  0.00000000000E+00 0. -1.
        -11   -1    0    0    0    0 -0.00000000000E+00 -0.00000000000E+00 -0.30000000000E+02  0.30000000000E+02  0.00000000000E+00 0.  1.
         23    2    1    2    0    0  0.00000000000E+00  0.00000000000E+00  0.00000000000E+00  0.60000000000E+02  0.60000000000E+02 0.  0.
          5    1    3    3  501    0 -0.63082447683E+01 -0.28842352894E+02 -0.24969436325E+01  0.30000000000E+02  0.47000000000E+01 0.  1.
         -5    1    3    3    0  501  0.63082447683E+01  0.28842352894E+02  0.24969436325E+01  0.30000000000E+02  0.47000000000E+01 0. -1.
</event>
<event>
 5    1  0.7673937E-002  0.6000000E+02  0.7546771E-02  0.1259629E+00
         11   -1    0    0    0    0  0.00000000000E+00  0.00000000000E+00  0.30000000000E+02  0.30000000000E+02  0.00000000000E+00 0.  1.
        -11   -1    0    0    0    0 -0.00000000000E+00 -0.00000000000E+00 -0.30000000000E+02  0.30000000000E+02  0.00000000000E+00 0. -1.
         23    2    1    2    0    0  0.00000000000E+00  0.00000000000E+00  0.00000000000E+00  0.60000000000E+02  0.60000000000E+02 0.  0.
          5    1    3    3  501    0  0.15087294026E+02  0.41535406070E+01 -0.25160120417E+02  0.30000000000E+02  0.47000000000E+01 0. -1.
         -5    1    3    3    0  501 -0.15087294026E+02 -0.41535406070E+01  0.25160120417E+02  0.30000000000E+02  0.47000000000E+01 0.  1.
</event>
<event>
 5    1  0.7673937E-002  0.6000000E+02  0.7546771E-02  0.1259629E+00
         11   -1    0    0    0    0  0.00000000000E+00  0.00000000000E+00  0.30000000000E+02  0.30000000000E+02  0.00000000000E+00 0. -1.
        -11   -1    0    0    0    0 -0.00000000000E+00 -0.00000000000E+00 -0.30000000000E+02  0.30000000000E+02  0.00000000000E+00 0.  1.
         23    2    1    2    0    0  0.00000000000E+00  0.00000000000E+00  0.00000000000E+00  0.60000000000E+02  0.60000000000E+02 0.  0.
          5    1    3    3  501    0 -0.27565725533E+01 -0.19952618841E+02 -0.21730262519E+02  0.30000000000E+02  0.47000000000E+01 0.  1.
         -5    1    3    3    0  501  0.27565725533E+01  0.19952618841E+02  0.21730262519E+02  0.30000000000E+02  0.47000000000E+01 0. -1.
</event>
<event>
 5    1  0.7673937E-002  0.6000000E+02  0.7546771E-02  0.1259629E+00
         11   -1    0    0    0    0  0.00000000000E+00  0.00000000000E+00  0.30000000000E+02  0.30000000000E+02  0.00000000000E+00 0.  1.
        -11   -1    0    0    0    0 -0.00000000000E+00 -0.00000000000E+00 -0.30000000000E+02  0.30000000000E+02  0.00000000000E+00 0. -1.
         23    2    1    2    0    0  0.00000000000E+00  0.00000000000E+00  0.00000000000E+00  0.60000000000E+02  0.60000000000E+02 0.  0.
          5    1    3    3  501    0  0.45135468149E+01  0.32430144576E+01 -0.29103620950E+02  0.30000000000E+02  0.47000000000E+01 0. -1.
         -5    1    3    3    0  501 -0.45135468149E+01 -0.32430144576E+01  0.29103620950E+02  0.30000000000E+02  0.47000000000E+01 0.  1.
</event>
<event>
 5    1  0.7673937E-002  0.6000000E+02  0.7546771E-02  0.1259629E+00
         11   -1    0    0    0    0  0.00000000000E+00  0.00000000000E+00  0.30000000000E+02  0.30000000000E+02  0.00000000000E+00 0.  1.
        -11   -1    0    0    0    0 -0.00000000000E+00 -0.00000000000E+00 -0.30000000000E+02  0.30000000000E+02  0.00000000000E+00 0. -1.
         23    2    1    2    0    0  0.00000000000E+00  0.00000000000E+00  0.00000000000E+00  0.60000000000E+02  0.60000000000E+02 0.  0.
          5    1    3    3  501    0  0.18395272466E+02  0.89452239469E+01 -0.21436112508E+02  0.30000000000E+02  0.47000000000E+01 0. -1.
         -5    1    3    3    0  501 -0.18395272466E+02 -0.89452239469E+01  0.21436112508E+02  0.30000000000E+02  0.47000000000E+01 0.  1.
</event>
<event>
 5    1  0.7673937E-002  0.6000000E+02  0.7546771E-02  0.1259629E+00
         11   -1    0    0    0    0  0.00000000000E+00  0.00000000000E+00  0.30000000000E+02  0.30000000000E+02  0.00000000000E+00 0.  1.
        -11   -1    0    0    0    0 -0.00000000000E+00 -0.00000000000E+00 -0.30000000000E+02  0.30000000000E+02  0.00000000000E+00 0. -1.
         23    2    1    2    0    0  0.00000000000E+00  0.00000000000E+00  0.00000000000E+00  0.60000000000E+02  0.60000000000E+02 0.  0.
          5    1    3    3  501    0  0.22582330742E+02 -0.19115448690E+02 -0.15962329591E+01  0.30000000000E+02  0.47000000000E+01 0. -1.
         -5    1    3    3    0  501 -0.22582330742E+02  0.19115448690E+02  0.15962329591E+01  0.30000000000E+02  0.47000000000E+01 0.  1.
</event>
<event>
 5    1  0.7673937E-002  0.6000000E+02  0.7546771E-02  0.1259629E+00
         11   -1    0    0    0    0  0.00000000000E+00  0.00000000000E+00  0.30000000000E+02  0.30000000000E+02  0.00000000000E+00 0.  1.
        -11   -1    0    0    0    0 -0.00000000000E+00 -0.00000000000E+00 -0.30000000000E+02  0.30000000000E+02  0.00000000000E+00 0. -1.
         23    2    1    2    0    0  0.00000000000E+00  0.00000000000E+00  0.00000000000E+00  0.60000000000E+02  0.60000000000E+02 0.  0.
          5    1    3    3  501    0  0.12249561726E+02  0.77831963351E+01 -0.25831765180E+02  0.30000000000E+02  0.47000000000E+01 0. -1.
         -5    1    3    3    0  501 -0.12249561726E+02 -0.77831963351E+01  0.25831765180E+02  0.30000000000E+02  0.47000000000E+01 0.  1.
</event>
<event>
 5    1  0.7673937E-002  0.6000000E+02  0.7546771E-02  0.1259629E+00
         11   -1    0    0    0    0  0.00000000000E+00  0.00000000000E+00  0.30000000000E+02  0.30000000000E+02  0.00000000000E+00 0.  1.
        -11   -1    0    0    0    0 -0.00000000000E+00 -0.00000000000E+00 -0.30000000000E+02  0.30000000000E+02  0.00000000000E+00 0. -1.
         23    2    1    2    0    0  0.00000000000E+00  0.00000000000E+00  0.00000000000E+00  0.60000000000E+02  0.60000000000E+02 0.  0.
          5    1    3    3  501    0 -0.11149002976E+01  0.21475154869E+02  0.20383442317E+02  0.30000000000E+02  0.47000000000E+01 0.  1.
         -5    1    3    3    0  501  0.11149002976E+01 -0.21475154869E+02 -0.20383442317E+02  0.30000000000E+02  0.47000000000E+01 0. -1.
</event>
<event>
 5    1  0.7673937E-002  0.6000000E+02  0.7546771E-02  0.1259629E+00
         11   -1    0    0    0    0  0.00000000000E+00  0.00000000000E+00  0.30000000000E+02  0.30000000000E+02  0.00000000000E+00 0.  1.
        -11   -1    0    0    0    0 -0.00000000000E+00 -0.00000000000E+00 -0.30000000000E+02  0.30000000000E+02  0.00000000000E+00 0. -1.
         23    2    1    2    0    0  0.00000000000E+00  0.00000000000E+00  0.00000000000E+00  0.60000000000E+02  0.60000000000E+02 0.  0.
          5    1    3    3  501    0 -0.25413423700E+01  0.22569375460E+02  0.19028265036E+02  0.30000000000E+02  0.47000000000E+01 0.  1.
         -5    1    3    3    0  501  0.25413423700E+01 -0.22569375460E+02 -0.19028265036E+02  0.30000000000E+02  0.47000000000E+01 0. -1.
</event>
<event>
 5    1  0.7673937E-002  0.6000000E+02  0.7546771E-02  0.1259629E+00
         11   -1    0    0    0    0  0.00000000000E+00  0.00000000000E+00  0.30000000000E+02  0.30000000000E+02  0.00000000000E+00 0. -1.
        -11   -1    0    0    0    0 -0.00000000000E+00 -0.00000000000E+00 -0.30000000000E+02  0.30000000000E+02  0.00000000000E+00 0.  1.
         23    2    1    2    0    0  0.00000000000E+00  0.00000000000E+00  0.00000000000E+00  0.60000000000E+02  0.60000000000E+02 0.  0.
          5    1    3    3  501    0  0.79864956604E+01  0.15677559693E+02 -0.23839882742E+02  0.30000000000E+02  0.47000000000E+01 0.  1.
         -5    1    3    3    0  501 -0.79864956604E+01 -0.15677559693E+02  0.23839882742E+02  0.30000000000E+02  0.47000000000E+01 0. -1.
</event>
<event>
 5    1  0.7673937E-002  0.6000000E+02  0.7546771E-02  0.1259629E+00
         11   -1    0    0    0    0  0.00000000000E+00  0.00000000000E+00  0.30000000000E+02  0.30000000000E+02  0.00000000000E+00 0.  1.
        -11   -1    0    0    0    0 -0.00000000000E+00 -0.00000000000E+00 -0.30000000000E+02  0.30000000000E+02  0.00000000000E+00 0. -1.
         23    2    1    2    0    0  0.00000000000E+00  0.00000000000E+00  0.00000000000E+00  0.60000000000E+02  0.60000000000E+02 0.  0.
          5    1    3    3  501    0 -0.57613901335E+01 -0.58226890758E+01 -0.28474772618E+02  0.30000000000E+02  0.47000000000E+01 0. -1.
         -5    1    3    3    0  501  0.57613901335E+01  0.58226890758E+01  0.28474772618E+02  0.30000000000E+02  0.47000000000E+01 0.  1.
</event>
<event>
 5    1  0.7673937E-002  0.6000000E+02  0.7546771E-02  0.1259629E+00
         11   -1    0    0    0    0  0.00000000000E+00  0.00000000000E+00  0.30000000000E+02  0.30000000000E+02  0.00000000000E+00 0.  1.
        -11   -1    0    0    0    0 -0.00000000000E+00 -0.00000000000E+00 -0.30000000000E+02  0.30000000000E+02  0.00000000000E+00 0. -1.
         23    2    1    2    0    0  0.00000000000E+00  0.00000000000E+00  0.00000000000E+00  0.60000000000E+02  0.60000000000E+02 0.  0.
          5    1    3    3  501    0  0.15746458695E+02 -0.14790139834E+02 -0.20278333321E+02  0.30000000000E+02  0.47000000000E+01 0. -1.
         -5    1    3    3    0  501 -0.15746458695E+02  0.14790139834E+02  0.20278333321E+02  0.30000000000E+02  0.47000000000E+01 0.  1.
</event>
<event>
 5    1  0.7673937E-002  0.6000000E+02  0.7546771E-02  0.1259629E+00
         11   -1    0    0    0    0  0.00000000000E+00  0.00000000000E+00  0.30000000000E+02  0.30000000000E+02  0.00000000000E+00 0.  1.
        -11   -1    0    0    0    0 -0.00000000000E+00 -0.00000000000E+00 -0.30000000000E+02  0.30000000000E+02  0.00000000000E+00 0. -1.
         23    2    1    2    0    0  0.00000000000E+00  0.00000000000E+00  0.00000000000E+00  0.60000000000E+02  0.60000000000E+02 0.  0.
          5    1    3    3  501    0 -0.10089519600E+02 -0.27813025416E+02  0.15959985702E+01  0.30000000000E+02  0.47000000000E+01 0. -1.
         -5    1    3    3    0  501  0.10089519600E+02  0.27813025416E+02 -0.15959985702E+01  0.30000000000E+02  0.47000000000E+01 0.  1.
</event>
<event>
 5    1  0.7673937E-002  0.6000000E+02  0.7546771E-02  0.1259629E+00
         11   -1    0    0    0    0  0.00000000000E+00  0.00000000000E+00  0.30000000000E+02  0.30000000000E+02  0.00000000000E+00 0.  1.
        -11   -1    0    0    0    0 -0.00000000000E+00 -0.00000000000E+00 -0.30000000000E+02  0.30000000000E+02  0.00000000000E+00 0. -1.
         23    2    1    2    0    0  0.00000000000E+00  0.00000000000E+00  0.00000000000E+00  0.60000000000E+02  0.60000000000E+02 0.  0.
          5    1    3    3  501    0  0.42980842664E+00 -0.29743621914E+01 -0.29476743956E+02  0.30000000000E+02  0.47000000000E+01 0. -1.
         -5    1    3    3    0  501 -0.42980842664E+00  0.29743621914E+01  0.29476743956E+02  0.30000000000E+02  0.47000000000E+01 0.  1.
</event>
<event>
 5    1  0.7673937E-002  0.6000000E+02  0.7546771E-02  0.1259629E+00
         11   -1    0    0    0    0  0.00000000000E+00  0.00000000000E+00  0.30000000000E+02  0.30000000000E+02  0.00000000000E+00 0.  1.
        -11   -1    0    0    0    0 -0.00000000000E+00 -0.00000000000E+00 -0.30000000000E+02  0.30000000000E+02  0.00000000000E+00 0. -1.
         23    2    1    2    0    0  0.00000000000E+00  0.00000000000E+00  0.00000000000E+00  0.60000000000E+02  0.60000000000E+02 0.  0.
          5    1    3    3  501    0 -0.21595076565E+02 -0.19815994618E+02 -0.43461506493E+01  0.30000000000E+02  0.47000000000E+01 0. -1.
         -5    1    3    3    0  501  0.21595076565E+02  0.19815994618E+02  0.43461506493E+01  0.30000000000E+02  0.47000000000E+01 0.  1.
</event>
<event>
 5    1  0.7673937E-002  0.6000000E+02  0.7546771E-02  0.1259629E+00
         11   -1    0    0    0    0  0.00000000000E+00  0.00000000000E+00  0.30000000000E+02  0.30000000000E+02  0.00000000000E+00 0.  1.
        -11   -1    0    0    0    0 -0.00000000000E+00 -0.00000000000E+00 -0.30000000000E+02  0.30000000000E+02  0.00000000000E+00 0. -1.
         23    2    1    2    0    0  0.00000000000E+00  0.00000000000E+00  0.00000000000E+00  0.60000000000E+02  0.60000000000E+02 0.  0.
          5    1    3    3  501    0 -0.25635366847E+02 -0.81498697857E+01 -0.12422463084E+02  0.30000000000E+02  0.47000000000E+01 0. -1.
         -5    1    3    3    0  501  0.25635366847E+02  0.81498697857E+01  0.12422463084E+02  0.30000000000E+02  0.47000000000E+01 0.  1.
</event>
<event>
 5    1  0.7673937E-002  0.6000000E+02  0.7546771E-02  0.1259629E+00
         11   -1    0    0    0    0  0.00000000000E+00  0.00000000000E+00  0.30000000000E+02  0.30000000000E+02  0.00000000000E+00 0.  1.
        -11   -1    0    0    0    0 -0.00000000000E+00 -0.00000000000E+00 -0.30000000000E+02  0.30000000000E+02  0.00000000000E+00 0. -1.
         23    2    1    2    0    0  0.00000000000E+00  0.00000000000E+00  0.00000000000E+00  0.60000000000E+02  0.60000000000E+02 0.  0.
          5    1    3    3  501    0  0.25841943359E+02 -0.48374739631E+01 -0.13663923634E+02  0.30000000000E+02  0.47000000000E+01 0. -1.
         -5    1    3    3    0  501 -0.25841943359E+02  0.48374739631E+01  0.13663923634E+02  0.30000000000E+02  0.47000000000E+01 0.  1.
</event>
<event>
 5    1  0.7673937E-002  0.6000000E+02  0.7546771E-02  0.1259629E+00
         11   -1    0    0    0    0  0.00000000000E+00  0.00000000000E+00  0.30000000000E+02  0.30000000000E+02  0.00000000000E+00 0.  1.
        -11   -1    0    0    0    0 -0.00000000000E+00 -0.00000000000E+00 -0.30000000000E+02  0.30000000000E+02  0.00000000000E+00 0. -1.
         23    2    1    2    0    0  0.00000000000E+00  0.00000000000E+00  0.00000000000E+00  0.60000000000E+02  0.60000000000E+02 0.  0.
          5    1    3    3  501    0 -0.20756727658E+02  0.21078364397E+02  0.16645754053E+01  0.30000000000E+02  0.47000000000E+01 0. -1.
         -5    1    3    3    0  501  0.20756727658E+02 -0.21078364397E+02 -0.16645754053E+01  0.30000000000E+02  0.47000000000E+01 0.  1.
</event>
<event>
 5    1  0.7673937E-002  0.6000000E+02  0.7546771E-02  0.1259629E+00
         11   -1    0    0    0    0  0.00000000000E+00  0.00000000000E+00  0.30000000000E+02  0.30000000000E+02  0.00000000000E+00 0.  1.
        -11   -1    0    0    0    0 -0.00000000000E+00 -0.00000000000E+00 -0.30000000000E+02  0.30000000000E+02  0.00000000000E+00 0. -1.
         23    2    1    2    0    0  0.00000000000E+00  0.00000000000E+00  0.00000000000E+00  0.60000000000E+02  0.60000000000E+02 0.  0.
          5    1    3    3  501    0  0.31186304976E+01  0.20938642788E+02 -0.20730590489E+02  0.30000000000E+02  0.47000000000E+01 0. -1.
         -5    1    3    3    0  501 -0.31186304976E+01 -0.20938642788E+02  0.20730590489E+02  0.30000000000E+02  0.47000000000E+01 0.  1.
</event>
<event>
 5    1  0.7673937E-002  0.6000000E+02  0.7546771E-02  0.1259629E+00
         11   -1    0    0    0    0  0.00000000000E+00  0.00000000000E+00  0.30000000000E+02  0.30000000000E+02  0.00000000000E+00 0.  1.
        -11   -1    0    0    0    0 -0.00000000000E+00 -0.00000000000E+00 -0.30000000000E+02  0.30000000000E+02  0.00000000000E+00 0. -1.
         23    2    1    2    0    0  0.00000000000E+00  0.00000000000E+00  0.00000000000E+00  0.60000000000E+02  0.60000000000E+02 0.  0.
          5    1    3    3  501    0 -0.16252070859E+01  0.15588922121E+01 -0.29543841270E+02  0.30000000000E+02  0.47000000000E+01 0. -1.
         -5    1    3    3    0  501  0.16252070859E+01 -0.15588922121E+01  0.29543841270E+02  0.30000000000E+02  0.47000000000E+01 0.  1.
</event>
<event>
 5    1  0.7673937E-002  0.6000000E+02  0.7546771E-02  0.1259629E+00
         11   -1    0    0    0    0  0.00000000000E+00  0.00000000000E+00  0.30000000000E+02  0.30000000000E+02  0.00000000000E+00 0.  1.
        -11   -1    0    0    0    0 -0.00000000000E+00 -0.00000000000E+00 -0.30000000000E+02  0.30000000000E+02  0.00000000000E+00 0. -1.
         23    2    1    2    0    0  0.00000000000E+00  0.00000000000E+00  0.00000000000E+00  0.60000000000E+02  0.60000000000E+02 0.  0.
          5    1    3    3  501    0 -0.27965889278E+01 -0.14069905882E+02 -0.25925409136E+02  0.30000000000E+02  0.47000000000E+01 0. -1.
         -5    1    3    3    0  501  0.27965889278E+01  0.14069905882E+02  0.25925409136E+02  0.30000000000E+02  0.47000000000E+01 0.  1.
</event>
<event>
 5    1  0.7673937E-002  0.6000000E+02  0.7546771E-02  0.1259629E+00
         11   -1    0    0    0    0  0.00000000000E+00  0.00000000000E+00  0.30000000000E+02  0.30000000000E+02  0.00000000000E+00 0.  1.
        -11   -1    0    0    0    0 -0.00000000000E+00 -0.00000000000E+00 -0.30000000000E+02  0.30000000000E+02  0.00000000000E+00 0. -1.
         23    2    1    2    0    0  0.00000000000E+00  0.00000000000E+00  0.00000000000E+00  0.60000000000E+02  0.60000000000E+02 0.  0.
          5    1    3    3  501    0  0.25913267043E+02  0.23674637475E+01 -0.14170663589E+02  0.30000000000E+02  0.47000000000E+01 0. -1.
         -5    1    3    3    0  501 -0.25913267043E+02 -0.23674637475E+01  0.14170663589E+02  0.30000000000E+02  0.47000000000E+01 0.  1.
</event>
<event>
 5    1  0.7673937E-002  0.6000000E+02  0.7546771E-02  0.1259629E+00
         11   -1    0    0    0    0  0.00000000000E+00  0.00000000000E+00  0.30000000000E+02  0.30000000000E+02  0.00000000000E+00 0.  1.
        -11   -1    0    0    0    0 -0.00000000000E+00 -0.00000000000E+00 -0.30000000000E+02  0.30000000000E+02  0.00000000000E+00 0. -1.
         23    2    1    2    0    0  0.00000000000E+00  0.00000000000E+00  0.00000000000E+00  0.60000000000E+02  0.60000000000E+02 0.  0.
          5    1    3    3  501    0 -0.24459657501E+02 -0.19929370761E+01 -0.16603112862E+02  0.30000000000E+02  0.47000000000E+01 0. -1.
         -5    1    3    3    0  501  0.24459657501E+02  0.19929370761E+01  0.16603112862E+02  0.30000000000E+02  0.47000000000E+01 0.  1.
</event>
<event>
 5    1  0.7673937E-002  0.6000000E+02  0.7546771E-02  0.1259629E+00
         11   -1    0    0    0    0  0.00000000000E+00  0.00000000000E+00  0.30000000000E+02  0.30000000000E+02  0.00000000000E+00 0.  1.
        -11   -1    0    0    0    0 -0.00000000000E+00 -0.00000000000E+00 -0.30000000000E+02  0.30000000000E+02  0.00000000000E+00 0. -1.
         23    2    1    2    0    0  0.00000000000E+00  0.00000000000E+00  0.00000000000E+00  0.60000000000E+02  0.60000000000E+02 0.  0.
          5    1    3    3  501    0 -0.87066816852E+01  0.26216992532E+02  0.10713215979E+02  0.30000000000E+02  0.47000000000E+01 0.  1.
         -5    1    3    3    0  501  0.87066816852E+01 -0.26216992532E+02 -0.10713215979E+02  0.30000000000E+02  0.47000000000E+01 0. -1.
</event>
<event>
 5    1  0.7673937E-002  0.6000000E+02  0.7546771E-02  0.1259629E+00
         11   -1    0    0    0    0  0.00000000000E+00  0.00000000000E+00  0.30000000000E+02  0.30000000000E+02  0.00000000000E+00 0.  1.
        -11   -1    0    0    0    0 -0.00000000000E+00 -0.00000000000E+00 -0.30000000000E+02  0.30000000000E+02  0.00000000000E+00 0. -1.
         23    2    1    2    0    0  0.00000000000E+00  0.00000000000E+00  0.00000000000E+00  0.60000000000E+02  0.60000000000E+02 0.  0.
          5    1    3    3  501    0  0.19154329445E+02  0.74501693017E+01 -0.21342835821E+02  0.30000000000E+02  0.47000000000E+01 0. -1.
         -5    1    3    3    0  501 -0.19154329445E+02 -0.74501693017E+01  0.21342835821E+02  0.30000000000E+02  0.47000000000E+01 0.  1.
</event>
<event>
 5    1  0.7673937E-002  0.6000000E+02  0.7546771E-02  0.1259629E+00
         11   -1    0    0    0    0  0.00000000000E+00  0.00000000000E+00  0.30000000000E+02  0.30000000000E+02  0.00000000000E+00 0.  1.
        -11   -1    0    0    0    0 -0.00000000000E+00 -0.00000000000E+00 -0.30000000000E+02  0.30000000000E+02  0.00000000000E+00 0. -1.
         23    2    1    2    0    0  0.00000000000E+00  0.00000000000E+00  0.00000000000E+00  0.60000000000E+02  0.60000000000E+02 0.  0.
          5    1    3    3  501    0 -0.17546063271E+02  0.16521128996E+02 -0.17236529824E+02  0.30000000000E+02  0.47000000000E+01 0. -1.
         -5    1    3    3    0  501  0.17546063271E+02 -0.16521128996E+02  0.17236529824E+02  0.30000000000E+02  0.47000000000E+01 0.  1.
</event>
<event>
 5    1  0.7673937E-002  0.6000000E+02  0.7546771E-02  0.1259629E+00
         11   -1    0    0    0    0  0.00000000000E+00  0.00000000000E+00  0.30000000000E+02  0.30000000000E+02  0.00000000000E+00 0.  1.
        -11   -1    0    0    0    0 -0.00000000000E+00 -0.00000000000E+00 -0.30000000000E+02  0.30000000000E+02  0.00000000000E+00 0. -1.
         23    2    1    2    0    0  0.00000000000E+00  0.00000000000E+00  0.00000000000E+00  0.60000000000E+02  0.60000000000E+02 0.  0.
          5    1    3    3  501    0 -0.92919892305E+01 -0.30275236687E+01 -0.27971468259E+02  0.30000000000E+02  0.47000000000E+01 0. -1.
         -5    1    3    3    0  501  0.92919892305E+01  0.30275236687E+01  0.27971468259E+02  0.30000000000E+02  0.47000000000E+01 0.  1.
</event>
<event>
 5    1  0.7673937E-002  0.6000000E+02  0.7546771E-02  0.1259629E+00
         11   -1    0    0    0    0  0.00000000000E+00  0.00000000000E+00  0.30000000000E+02  0.30000000000E+02  0.00000000000E+00 0.  1.
        -11   -1    0    0    0    0 -0.00000000000E+00 -0.00000000000E+00 -0.30000000000E+02  0.30000000000E+02  0.00000000000E+00 0. -1.
         23    2    1    2    0    0  0.00000000000E+00  0.00000000000E+00  0.00000000000E+00  0.60000000000E+02  0.60000000000E+02 0.  0.
          5    1    3    3  501    0  0.21861694103E+02 -0.84928989369E+01 -0.18106545739E+02  0.30000000000E+02  0.47000000000E+01 0. -1.
         -5    1    3    3    0  501 -0.21861694103E+02  0.84928989369E+01  0.18106545739E+02  0.30000000000E+02  0.47000000000E+01 0.  1.
</event>
<event>
 5    1  0.7673937E-002  0.6000000E+02  0.7546771E-02  0.1259629E+00
         11   -1    0    0    0    0  0.00000000000E+00  0.00000000000E+00  0.30000000000E+02  0.30000000000E+02  0.00000000000E+00 0.  1.
        -11   -1    0    0    0    0 -0.00000000000E+00 -0.00000000000E+00 -0.30000000000E+02  0.30000000000E+02  0.00000000000E+00 0. -1.
         23    2    1    2    0    0  0.00000000000E+00  0.00000000000E+00  0.00000000000E+00  0.60000000000E+02  0.60000000000E+02 0.  0.
          5    1    3    3  501    0  0.18154613699E+02  0.22304169228E+02 -0.71305004373E+01  0.30000000000E+02  0.47000000000E+01 0.  1.
         -5    1    3    3    0  501 -0.18154613699E+02 -0.22304169228E+02  0.71305004373E+01  0.30000000000E+02  0.47000000000E+01 0. -1.
</event>
<event>
 5    1  0.7673937E-002  0.6000000E+02  0.7546771E-02  0.1259629E+00
         11   -1    0    0    0    0  0.00000000000E+00  0.00000000000E+00  0.30000000000E+02  0.30000000000E+02  0.00000000000E+00 0.  1.
        -11   -1    0    0    0    0 -0.00000000000E+00 -0.00000000000E+00 -0.30000000000E+02  0.30000000000E+02  0.00000000000E+00 0. -1.
         23    2    1    2    0    0  0.00000000000E+00  0.00000000000E+00  0.00000000000E+00  0.60000000000E+02  0.60000000000E+02 0.  0.
          5    1    3    3  501    0  0.10628213144E+02 -0.65666997388E+01 -0.26866885564E+02  0.30000000000E+02  0.47000000000E+01 0. -1.
         -5    1    3    3    0  501 -0.10628213144E+02  0.65666997388E+01  0.26866885564E+02  0.30000000000E+02  0.47000000000E+01 0.  1.
</event>
<event>
 5    1  0.7673937E-002  0.6000000E+02  0.7546771E-02  0.1259629E+00
         11   -1    0    0    0    0  0.00000000000E+00  0.00000000000E+00  0.30000000000E+02  0.30000000000E+02  0.00000000000E+00 0.  1.
        -11   -1    0    0    0    0 -0.00000000000E+00 -0.00000000000E+00 -0.30000000000E+02  0.30000000000E+02  0.00000000000E+00 0. -1.
         23    2    1    2    0    0  0.00000000000E+00  0.00000000000E+00  0.00000000000E+00  0.60000000000E+02  0.60000000000E+02 0.  0.
          5    1    3    3  501    0 -0.11454864417E+02  0.24972955055E+02 -0.11092682138E+02  0.30000000000E+02  0.47000000000E+01 0.  1.
         -5    1    3    3    0  501  0.11454864417E+02 -0.24972955055E+02  0.11092682138E+02  0.30000000000E+02  0.47000000000E+01 0. -1.
</event>
<event>
 5    1  0.7673937E-002  0.6000000E+02  0.7546771E-02  0.1259629E+00
         11   -1    0    0    0    0  0.00000000000E+00  0.00000000000E+00  0.30000000000E+02  0.30000000000E+02  0.00000000000E+00 0. -1.
        -11   -1    0    0    0    0 -0.00000000000E+00 -0.00000000000E+00 -0.30000000000E+02  0.30000000000E+02  0.00000000000E+00 0.  1.
         23    2    1    2    0    0  0.00000000000E+00  0.00000000000E+00  0.00000000000E+00  0.60000000000E+02  0.60000000000E+02 0.  0.
          5    1    3    3  501    0  0.23594219507E+02  0.12255259540E+02 -0.13077898128E+02  0.30000000000E+02  0.47000000000E+01 0.  1.
         -5    1    3    3    0  501 -0.23594219507E+02 -0.12255259540E+02  0.13077898128E+02  0.30000000000E+02  0.47000000000E+01 0. -1.
</event>
<event>
 5    1  0.7673937E-002  0.6000000E+02  0.7546771E-02  0.1259629E+00
         11   -1    0    0    0    0  0.00000000000E+00  0.00000000000E+00  0.30000000000E+02  0.30000000000E+02  0.00000000000E+00 0.  1.
        -11   -1    0    0    0    0 -0.00000000000E+00 -0.00000000000E+00 -0.30000000000E+02  0.30000000000E+02  0.00000000000E+00 0. -1.
         23    2    1    2    0    0  0.00000000000E+00  0.00000000000E+00  0.00000000000E+00  0.60000000000E+02  0.60000000000E+02 0.  0.
          5    1    3    3  501    0 -0.13522319283E+02  0.24625642055E+02 -0.94145968903E+01  0.30000000000E+02  0.47000000000E+01 0. -1.
         -5    1    3    3    0  501  0.13522319283E+02 -0.24625642055E+02  0.94145968903E+01  0.30000000000E+02  0.47000000000E+01 0.  1.
</event>
<event>
 5    1  0.7673937E-002  0.6000000E+02  0.7546771E-02  0.1259629E+00
         11   -1    0    0    0    0  0.00000000000E+00  0.00000000000E+00  0.30000000000E+02  0.30000000000E+02  0.00000000000E+00 0.  1.
        -11   -1    0    0    0    0 -0.00000000000E+00 -0.00000000000E+00 -0.30000000000E+02  0.30000000000E+02  0.00000000000E+00 0. -1.
         23    2    1    2    0    0  0.00000000000E+00  0.00000000000E+00  0.00000000000E+00  0.60000000000E+02  0.60000000000E+02 0.  0.
          5    1    3    3  501    0  0.11687781589E+02  0.24000346728E+02 -0.12856481574E+02  0.30000000000E+02  0.47000000000E+01 0. -1.
         -5    1    3    3    0  501 -0.11687781589E+02 -0.24000346728E+02  0.12856481574E+02  0.30000000000E+02  0.47000000000E+01 0.  1.
</event>
<event>
 5    1  0.7673937E-002  0.6000000E+02  0.7546771E-02  0.1259629E+00
         11   -1    0    0    0    0  0.00000000000E+00  0.00000000000E+00  0.30000000000E+02  0.30000000000E+02  0.00000000000E+00 0.  1.
        -11   -1    0    0    0    0 -0.00000000000E+00 -0.00000000000E+00 -0.30000000000E+02  0.30000000000E+02  0.00000000000E+00 0. -1.
         23    2    1    2    0    0  0.00000000000E+00  0.00000000000E+00  0.00000000000E+00  0.60000000000E+02  0.60000000000E+02 0.  0.
          5    1    3    3  501    0 -0.23798202323E+00 -0.15881062361E+02 -0.25012901128E+02  0.30000000000E+02  0.47000000000E+01 0. -1.
         -5    1    3    3    0  501  0.23798202323E+00  0.15881062361E+02  0.25012901128E+02  0.30000000000E+02  0.47000000000E+01 0.  1.
</event>
<event>
 5    1  0.7673937E-002  0.6000000E+02  0.7546771E-02  0.1259629E+00
         11   -1    0    0    0    0  0.00000000000E+00  0.00000000000E+00  0.30000000000E+02  0.30000000000E+02  0.00000000000E+00 0.  1.
        -11   -1    0    0    0    0 -0.00000000000E+00 -0.00000000000E+00 -0.30000000000E+02  0.30000000000E+02  0.00000000000E+00 0. -1.
         23    2    1    2    0    0  0.00000000000E+00  0.00000000000E+00  0.00000000000E+00  0.60000000000E+02  0.60000000000E+02 0.  0.
          5    1    3    3  501    0  0.14070535840E+02 -0.23813460462E+02 -0.10623046737E+02  0.30000000000E+02  0.47000000000E+01 0. -1.
         -5    1    3    3    0  501 -0.14070535840E+02  0.23813460462E+02  0.10623046737E+02  0.30000000000E+02  0.47000000000E+01 0.  1.
</event>
<event>
 5    1  0.7673937E-002  0.6000000E+02  0.7546771E-02  0.1259629E+00
         11   -1    0    0    0    0  0.00000000000E+00  0.00000000000E+00  0.30000000000E+02  0.30000000000E+02  0.00000000000E+00 0.  1.
        -11   -1    0    0    0    0 -0.00000000000E+00 -0.00000000000E+00 -0.30000000000E+02  0.30000000000E+02  0.00000000000E+00 0. -1.
         23    2    1    2    0    0  0.00000000000E+00  0.00000000000E+00  0.00000000000E+00  0.60000000000E+02  0.60000000000E+02 0.  0.
          5    1    3    3  501    0 -0.60194890663E+01 -0.17327218139E+02 -0.23268933430E+02  0.30000000000E+02  0.47000000000E+01 0. -1.
         -5    1    3    3    0  501  0.60194890663E+01  0.17327218139E+02  0.23268933430E+02  0.30000000000E+02  0.47000000000E+01 0.  1.
</event>
<event>
 5    1  0.7673937E-002  0.6000000E+02  0.7546771E-02  0.1259629E+00
         11   -1    0    0    0    0  0.00000000000E+00  0.00000000000E+00  0.30000000000E+02  0.30000000000E+02  0.00000000000E+00 0.  1.
        -11   -1    0    0    0    0 -0.00000000000E+00 -0.00000000000E+00 -0.30000000000E+02  0.30000000000E+02  0.00000000000E+00 0. -1.
         23    2    1    2    0    0  0.00000000000E+00  0.00000000000E+00  0.00000000000E+00  0.60000000000E+02  0.60000000000E+02 0.  0.
          5    1    3    3  501    0  0.24090175074E+01 -0.48680887678E+00  0.29527438964E+02  0.30000000000E+02  0.47000000000E+01 0.  1.
         -5    1    3    3    0  501 -0.24090175074E+01  0.48680887678E+00 -0.29527438964E+02  0.30000000000E+02  0.47000000000E+01 0. -1.
</event>
<event>
 5    1  0.7673937E-002  0.6000000E+02  0.7546771E-02  0.1259629E+00
         11   -1    0    0    0    0  0.00000000000E+00  0.00000000000E+00  0.30000000000E+02  0.30000000000E+02  0.00000000000E+00 0.  1.
        -11   -1    0    0    0    0 -0.00000000000E+00 -0.00000000000E+00 -0.30000000000E+02  0.30000000000E+02  0.00000000000E+00 0. -1.
         23    2    1    2    0    0  0.00000000000E+00  0.00000000000E+00  0.00000000000E+00  0.60000000000E+02  0.60000000000E+02 0.  0.
          5    1    3    3  501    0  0.22676486159E+02 -0.18767482680E+02 -0.33865276199E+01  0.30000000000E+02  0.47000000000E+01 0. -1.
         -5    1    3    3    0  501 -0.22676486159E+02  0.18767482680E+02  0.33865276199E+01  0.30000000000E+02  0.47000000000E+01 0.  1.
</event>
<event>
 5    1  0.7673937E-002  0.6000000E+02  0.7546771E-02  0.1259629E+00
         11   -1    0    0    0    0  0.00000000000E+00  0.00000000000E+00  0.30000000000E+02  0.30000000000E+02  0.00000000000E+00 0.  1.
        -11   -1    0    0    0    0 -0.00000000000E+00 -0.00000000000E+00 -0.30000000000E+02  0.30000000000E+02  0.00000000000E+00 0. -1.
         23    2    1    2    0    0  0.00000000000E+00  0.00000000000E+00  0.00000000000E+00  0.60000000000E+02  0.60000000000E+02 0.  0.
          5    1    3    3  501    0  0.14556074887E+02  0.79647344368E+01 -0.24547783795E+02  0.30000000000E+02  0.47000000000E+01 0. -1.
         -5    1    3    3    0  501 -0.14556074887E+02 -0.79647344368E+01  0.24547783795E+02  0.30000000000E+02  0.47000000000E+01 0.  1.
</event>
<event>
 5    1  0.7673937E-002  0.6000000E+02  0.7546771E-02  0.1259629E+00
         11   -1    0    0    0    0  0.00000000000E+00  0.00000000000E+00  0.30000000000E+02  0.30000000000E+02  0.00000000000E+00 0.  1.
        -11   -1    0    0    0    0 -0.00000000000E+00 -0.00000000000E+00 -0.30000000000E+02  0.30000000000E+02  0.00000000000E+00 0. -1.
         23    2    1    2    0    0  0.00000000000E+00  0.00000000000E+00  0.00000000000E+00  0.60000000000E+02  0.60000000000E+02 0.  0.
          5    1    3    3  501    0 -0.24610708847E+02 -0.10372132509E+02 -0.12831285099E+02  0.30000000000E+02  0.47000000000E+01 0. -1.
         -5    1    3    3    0  501  0.24610708847E+02  0.10372132509E+02  0.12831285099E+02  0.30000000000E+02  0.47000000000E+01 0.  1.
</event>
<event>
 5    1  0.7673937E-002  0.6000000E+02  0.7546771E-02  0.1259629E+00
         11   -1    0    0    0    0  0.00000000000E+00  0.00000000000E+00  0.30000000000E+02  0.30000000000E+02  0.00000000000E+00 0.  1.
        -11   -1    0    0    0    0 -0.00000000000E+00 -0.00000000000E+00 -0.30000000000E+02  0.30000000000E+02  0.00000000000E+00 0. -1.
         23    2    1    2    0    0  0.00000000000E+00  0.00000000000E+00  0.00000000000E+00  0.60000000000E+02  0.60000000000E+02 0.  0.
          5    1    3    3  501    0 -0.10747049077E+01  0.22765517204E+02  0.18933732749E+02  0.30000000000E+02  0.47000000000E+01 0. -1.
         -5    1    3    3    0  501  0.10747049077E+01 -0.22765517204E+02 -0.18933732749E+02  0.30000000000E+02  0.47000000000E+01 0.  1.
</event>
<event>
 5    1  0.7673937E-002  0.6000000E+02  0.7546771E-02  0.1259629E+00
         11   -1    0    0    0    0  0.00000000000E+00  0.00000000000E+00  0.30000000000E+02  0.30000000000E+02  0.00000000000E+00 0.  1.
        -11   -1    0    0    0    0 -0.00000000000E+00 -0.00000000000E+00 -0.30000000000E+02  0.30000000000E+02  0.00000000000E+00 0. -1.
         23    2    1    2    0    0  0.00000000000E+00  0.00000000000E+00  0.00000000000E+00  0.60000000000E+02  0.60000000000E+02 0.  0.
          5    1    3    3  501    0  0.13169429882E+02 -0.26379356672E+02 -0.29335402081E+01  0.30000000000E+02  0.47000000000E+01 0. -1.
         -5    1    3    3    0  501 -0.13169429882E+02  0.26379356672E+02  0.29335402081E+01  0.30000000000E+02  0.47000000000E+01 0.  1.
</event>
<event>
 5    1  0.7673937E-002  0.6000000E+02  0.7546771E-02  0.1259629E+00
         11   -1    0    0    0    0  0.00000000000E+00  0.00000000000E+00  0.30000000000E+02  0.30000000000E+02  0.00000000000E+00 0.  1.
        -11   -1    0    0    0    0 -0.00000000000E+00 -0.00000000000E+00 -0.30000000000E+02  0.30000000000E+02  0.00000000000E+00 0. -1.
         23    2    1    2    0    0  0.00000000000E+00  0.00000000000E+00  0.00000000000E+00  0.60000000000E+02  0.60000000000E+02 0.  0.
          5    1    3    3  501    0 -0.19644440730E+02 -0.18373257858E+01 -0.22104980940E+02  0.30000000000E+02  0.47000000000E+01 0. -1.
         -5    1    3    3    0  501  0.19644440730E+02  0.18373257858E+01  0.22104980940E+02  0.30000000000E+02  0.47000000000E+01 0.  1.
</event>
<event>
 5    1  0.7673937E-002  0.6000000E+02  0.7546771E-02  0.1259629E+00
         11   -1    0    0    0    0  0.00000000000E+00  0.00000000000E+00  0.30000000000E+02  0.30000000000E+02  0.00000000000E+00 0. -1.
        -11   -1    0    0    0    0 -0.00000000000E+00 -0.00000000000E+00 -0.30000000000E+02  0.30000000000E+02  0.00000000000E+00 0.  1.
         23    2    1    2    0    0  0.00000000000E+00  0.00000000000E+00  0.00000000000E+00  0.60000000000E+02  0.60000000000E+02 0.  0.
          5    1    3    3  501    0  0.26667158170E+02 -0.73664651659E+01  0.10606972523E+02  0.30000000000E+02  0.47000000000E+01 0. -1.
         -5    1    3    3    0  501 -0.26667158170E+02  0.73664651659E+01 -0.10606972523E+02  0.30000000000E+02  0.47000000000E+01 0.  1.
</event>
<event>
 5    1  0.7673937E-002  0.6000000E+02  0.7546771E-02  0.1259629E+00
         11   -1    0    0    0    0  0.00000000000E+00  0.00000000000E+00  0.30000000000E+02  0.30000000000E+02  0.00000000000E+00 0.  1.
        -11   -1    0    0    0    0 -0.00000000000E+00 -0.00000000000E+00 -0.30000000000E+02  0.30000000000E+02  0.00000000000E+00 0. -1.
         23    2    1    2    0    0  0.00000000000E+00  0.00000000000E+00  0.00000000000E+00  0.60000000000E+02  0.60000000000E+02 0.  0.
          5    1    3    3  501    0 -0.24574781697E+02 -0.10224057446E+02 -0.13017632423E+02  0.30000000000E+02  0.47000000000E+01 0. -1.
         -5    1    3    3    0  501  0.24574781697E+02  0.10224057446E+02  0.13017632423E+02  0.30000000000E+02  0.47000000000E+01 0.  1.
</event>
<event>
 5    1  0.7673937E-002  0.6000000E+02  0.7546771E-02  0.1259629E+00
         11   -1    0    0    0    0  0.00000000000E+00  0.00000000000E+00  0.30000000000E+02  0.30000000000E+02  0.00000000000E+00 0. -1.
        -11   -1    0    0    0    0 -0.00000000000E+00 -0.00000000000E+00 -0.30000000000E+02  0.30000000000E+02  0.00000000000E+00 0.  1.
         23    2    1    2    0    0  0.00000000000E+00  0.00000000000E+00  0.00000000000E+00  0.60000000000E+02  0.60000000000E+02 0.  0.
          5    1    3    3  501    0 -0.52446803469E+00 -0.34343981308E+01 -0.29425156631E+02  0.30000000000E+02  0.47000000000E+01 0.  1.
         -5    1    3    3    0  501  0.52446803469E+00  0.34343981308E+01  0.29425156631E+02  0.30000000000E+02  0.47000000000E+01 0. -1.
</event>
<event>
 5    1  0.7673937E-002  0.6000000E+02  0.7546771E-02  0.1259629E+00
         11   -1    0    0    0    0  0.00000000000E+00  0.00000000000E+00  0.30000000000E+02  0.30000000000E+02  0.00000000000E+00 0.  1.
        -11   -1    0    0    0    0 -0.00000000000E+00 -0.00000000000E+00 -0.30000000000E+02  0.30000000000E+02  0.00000000000E+00 0. -1.
         23    2    1    2    0    0  0.00000000000E+00  0.00000000000E+00  0.00000000000E+00  0.60000000000E+02  0.60000000000E+02 0.  0.
          5    1    3    3  501    0 -0.26001773482E+01 -0.29308241226E+02 -0.34894231646E+01  0.30000000000E+02  0.47000000000E+01 0. -1.
         -5    1    3    3    0  501  0.26001773482E+01  0.29308241226E+02  0.34894231646E+01  0.30000000000E+02  0.47000000000E+01 0.  1.
</event>
<event>
 5    1  0.7673937E-002  0.6000000E+02  0.7546771E-02  0.1259629E+00
         11   -1    0    0    0    0  0.00000000000E+00  0.00000000000E+00  0.30000000000E+02  0.30000000000E+02  0.00000000000E+00 0.  1.
        -11   -1    0    0    0    0 -0.00000000000E+00 -0.00000000000E+00 -0.30000000000E+02  0.30000000000E+02  0.00000000000E+00 0. -1.
         23    2    1    2    0    0  0.00000000000E+00  0.00000000000E+00  0.00000000000E+00  0.60000000000E+02  0.60000000000E+02 0.  0.
          5    1    3    3  501    0  0.59703400339E+01 -0.68165086565E+01 -0.28209931755E+02  0.30000000000E+02  0.47000000000E+01 0. -1.
         -5    1    3    3    0  501 -0.59703400339E+01  0.68165086565E+01  0.28209931755E+02  0.30000000000E+02  0.47000000000E+01 0.  1.
</event>
<event>
 5    1  0.7673937E-002  0.6000000E+02  0.7546771E-02  0.1259629E+00
         11   -1    0    0    0    0  0.00000000000E+00  0.00000000000E+00  0.30000000000E+02  0.30000000000E+02  0.00000000000E+00 0.  1.
        -11   -1    0    0    0    0 -0.00000000000E+00 -0.00000000000E+00 -0.30000000000E+02  0.30000000000E+02  0.00000000000E+00 0. -1.
         23    2    1    2    0    0  0.00000000000E+00  0.00000000000E+00  0.00000000000E+00  0.60000000000E+02  0.60000000000E+02 0.  0.
          5    1    3    3  501    0  0.69856665460E+01  0.68046382107E+00 -0.28786236848E+02  0.30000000000E+02  0.47000000000E+01 0. -1.
         -5    1    3    3    0  501 -0.69856665460E+01 -0.68046382107E+00  0.28786236848E+02  0.30000000000E+02  0.47000000000E+01 0.  1.
</event>
<event>
 5    1  0.7673937E-002  0.6000000E+02  0.7546771E-02  0.1259629E+00
         11   -1    0    0    0    0  0.00000000000E+00  0.00000000000E+00  0.30000000000E+02  0.30000000000E+02  0.00000000000E+00 0.  1.
        -11   -1    0    0    0    0 -0.00000000000E+00 -0.00000000000E+00 -0.30000000000E+02  0.30000000000E+02  0.00000000000E+00 0. -1.
         23    2    1    2    0    0  0.00000000000E+00  0.00000000000E+00  0.00000000000E+00  0.60000000000E+02  0.60000000000E+02 0.  0.
          5    1    3    3  501    0  0.17708911522E+01  0.19248515731E+02 -0.22455925425E+02  0.30000000000E+02  0.47000000000E+01 0. -1.
         -5    1    3    3    0  501 -0.17708911522E+01 -0.19248515731E+02  0.22455925425E+02  0.30000000000E+02  0.47000000000E+01 0.  1.
</event>
<event>
 5    1  0.7673937E-002  0.6000000E+02  0.7546771E-02  0.1259629E+00
         11   -1    0    0    0    0  0.00000000000E+00  0.00000000000E+00  0.30000000000E+02  0.30000000000E+02  0.00000000000E+00 0. -1.
        -11   -1    0    0    0    0 -0.00000000000E+00 -0.00000000000E+00 -0.30000000000E+02  0.30000000000E+02  0.00000000000E+00 0.  1.
         23    2    1    2    0    0  0.00000000000E+00  0.00000000000E+00  0.00000000000E+00  0.60000000000E+02  0.60000000000E+02 0.  0.
          5    1    3    3  501    0  0.14957840327E+01 -0.24060703317E+02  0.17226583701E+02  0.30000000000E+02  0.47000000000E+01 0.  1.
         -5    1    3    3    0  501 -0.14957840327E+01  0.24060703317E+02 -0.17226583701E+02  0.30000000000E+02  0.47000000000E+01 0. -1.
</event>
<event>
 5    1  0.7673937E-002  0.6000000E+02  0.7546771E-02  0.1259629E+00
         11   -1    0    0    0    0  0.00000000000E+00  0.00000000000E+00  0.30000000000E+02  0.30000000000E+02  0.00000000000E+00 0.  1.
        -11   -1    0    0    0    0 -0.00000000000E+00 -0.00000000000E+00 -0.30000000000E+02  0.30000000000E+02  0.00000000000E+00 0. -1.
         23    2    1    2    0    0  0.00000000000E+00  0.00000000000E+00  0.00000000000E+00  0.60000000000E+02  0.60000000000E+02 0.  0.
          5    1    3    3  501    0  0.20514555537E+01 -0.11066525485E+02 -0.27408639948E+02  0.30000000000E+02  0.47000000000E+01 0. -1.
         -5    1    3    3    0  501 -0.20514555537E+01  0.11066525485E+02  0.27408639948E+02  0.30000000000E+02  0.47000000000E+01 0.  1.
</event>
<event>
 5    1  0.7673937E-002  0.6000000E+02  0.7546771E-02  0.1259629E+00
         11   -1    0    0    0    0  0.00000000000E+00  0.00000000000E+00  0.30000000000E+02  0.30000000000E+02  0.00000000000E+00 0.  1.
        -11   -1    0    0    0    0 -0.00000000000E+00 -0.00000000000E+00 -0.30000000000E+02  0.30000000000E+02  0.00000000000E+00 0. -1.
         23    2    1    2    0    0  0.00000000000E+00  0.00000000000E+00  0.00000000000E+00  0.60000000000E+02  0.60000000000E+02 0.  0.
          5    1    3    3  501    0 -0.27572043370E+02 -0.97360092106E+01 -0.47856607744E+01  0.30000000000E+02  0.47000000000E+01 0. -1.
         -5    1    3    3    0  501  0.27572043370E+02  0.97360092106E+01  0.47856607744E+01  0.30000000000E+02  0.47000000000E+01 0.  1.
</event>
<event>
 5    1  0.7673937E-002  0.6000000E+02  0.7546771E-02  0.1259629E+00
         11   -1    0    0    0    0  0.00000000000E+00  0.00000000000E+00  0.30000000000E+02  0.30000000000E+02  0.00000000000E+00 0.  1.
        -11   -1    0    0    0    0 -0.00000000000E+00 -0.00000000000E+00 -0.30000000000E+02  0.30000000000E+02  0.00000000000E+00 0. -1.
         23    2    1    2    0    0  0.00000000000E+00  0.00000000000E+00  0.00000000000E+00  0.60000000000E+02  0.60000000000E+02 0.  0.
          5    1    3    3  501    0  0.14060402541E+02 -0.14815556994E+02 -0.21464257531E+02  0.30000000000E+02  0.47000000000E+01 0. -1.
         -5    1    3    3    0  501 -0.14060402541E+02  0.14815556994E+02  0.21464257531E+02  0.30000000000E+02  0.47000000000E+01 0.  1.
</event>
<event>
 5    1  0.7673937E-002  0.6000000E+02  0.7546771E-02  0.1259629E+00
         11   -1    0    0    0    0  0.00000000000E+00  0.00000000000E+00  0.30000000000E+02  0.30000000000E+02  0.00000000000E+00 0.  1.
        -11   -1    0    0    0    0 -0.00000000000E+00 -0.00000000000E+00 -0.30000000000E+02  0.30000000000E+02  0.00000000000E+00 0. -1.
         23    2    1    2    0    0  0.00000000000E+00  0.00000000000E+00  0.00000000000E+00  0.60000000000E+02  0.60000000000E+02 0.  0.
          5    1    3    3  501    0  0.11328908898E+02 -0.17434543577E+02 -0.21109299217E+02  0.30000000000E+02  0.47000000000E+01 0. -1.
         -5    1    3    3    0  501 -0.11328908898E+02  0.17434543577E+02  0.21109299217E+02  0.30000000000E+02  0.47000000000E+01 0.  1.
</event>
<event>
 5    1  0.7673937E-002  0.6000000E+02  0.7546771E-02  0.1259629E+00
         11   -1    0    0    0    0  0.00000000000E+00  0.00000000000E+00  0.30000000000E+02  0.30000000000E+02  0.00000000000E+00 0.  1.
        -11   -1    0    0    0    0 -0.00000000000E+00 -0.00000000000E+00 -0.30000000000E+02  0.30000000000E+02  0.00000000000E+00 0. -1.
         23    2    1    2    0    0  0.00000000000E+00  0.00000000000E+00  0.00000000000E+00  0.60000000000E+02  0.60000000000E+02 0.  0.
          5    1    3    3  501    0  0.42367888097E+01  0.15144621309E+01 -0.29285935618E+02  0.30000000000E+02  0.47000000000E+01 0. -1.
         -5    1    3    3    0  501 -0.42367888097E+01 -0.15144621309E+01  0.29285935618E+02  0.30000000000E+02  0.47000000000E+01 0.  1.
</event>
<event>
 5    1  0.7673937E-002  0.6000000E+02  0.7546771E-02  0.1259629E+00
         11   -1    0    0    0    0  0.00000000000E+00  0.00000000000E+00  0.30000000000E+02  0.30000000000E+02  0.00000000000E+00 0.  1.
        -11   -1    0    0    0    0 -0.00000000000E+00 -0.00000000000E+00 -0.30000000000E+02  0.30000000000E+02  0.00000000000E+00 0. -1.
         23    2    1    2    0    0  0.00000000000E+00  0.00000000000E+00  0.00000000000E+00  0.60000000000E+02  0.60000000000E+02 0.  0.
          5    1    3    3  501    0  0.11568104663E+02 -0.17147472597E+02  0.21214455875E+02  0.30000000000E+02  0.47000000000E+01 0.  1.
         -5    1    3    3    0  501 -0.11568104663E+02  0.17147472597E+02 -0.21214455875E+02  0.30000000000E+02  0.47000000000E+01 0. -1.
</event>
<event>
 5    1  0.7673937E-002  0.6000000E+02  0.7546771E-02  0.1259629E+00
         11   -1    0    0    0    0  0.00000000000E+00  0.00000000000E+00  0.30000000000E+02  0.30000000000E+02  0.00000000000E+00 0. -1.
        -11   -1    0    0    0    0 -0.00000000000E+00 -0.00000000000E+00 -0.30000000000E+02  0.30000000000E+02  0.00000000000E+00 0.  1.
         23    2    1    2    0    0  0.00000000000E+00  0.00000000000E+00  0.00000000000E+00  0.60000000000E+02  0.60000000000E+02 0.  0.
          5    1    3    3  501    0 -0.42181171068E+00  0.25431014022E+02 -0.15198539426E+02  0.30000000000E+02  0.47000000000E+01 0.  1.
         -5    1    3    3    0  501  0.42181171068E+00 -0.25431014022E+02  0.15198539426E+02  0.30000000000E+02  0.47000000000E+01 0. -1.
</event>
<event>
 5    1  0.7673937E-002  0.6000000E+02  0.7546771E-02  0.1259629E+00
         11   -1    0    0    0    0  0.00000000000E+00  0.00000000000E+00  0.30000000000E+02  0.30000000000E+02  0.00000000000E+00 0.  1.
        -11   -1    0    0    0    0 -0.00000000000E+00 -0.00000000000E+00 -0.30000000000E+02  0.30000000000E+02  0.00000000000E+00 0. -1.
         23    2    1    2    0    0  0.00000000000E+00  0.00000000000E+00  0.00000000000E+00  0.60000000000E+02  0.60000000000E+02 0.  0.
          5    1    3    3  501    0 -0.13126448424E+02  0.25920012094E+02 -0.58102775166E+01  0.30000000000E+02  0.47000000000E+01 0. -1.
         -5    1    3    3    0  501  0.13126448424E+02 -0.25920012094E+02  0.58102775166E+01  0.30000000000E+02  0.47000000000E+01 0.  1.
</event>
<event>
 5    1  0.7673937E-002  0.6000000E+02  0.7546771E-02  0.1259629E+00
         11   -1    0    0    0    0  0.00000000000E+00  0.00000000000E+00  0.30000000000E+02  0.30000000000E+02  0.00000000000E+00 0.  1.
        -11   -1    0    0    0    0 -0.00000000000E+00 -0.00000000000E+00 -0.30000000000E+02  0.30000000000E+02  0.00000000000E+00 0. -1.
         23    2    1    2    0    0  0.00000000000E+00  0.00000000000E+00  0.00000000000E+00  0.60000000000E+02  0.60000000000E+02 0.  0.
          5    1    3    3  501    0 -0.26068357689E+02  0.69885626420E+01 -0.12227457610E+02  0.30000000000E+02  0.47000000000E+01 0. -1.
         -5    1    3    3    0  501  0.26068357689E+02 -0.69885626420E+01  0.12227457610E+02  0.30000000000E+02  0.47000000000E+01 0.  1.
</event>
<event>
 5    1  0.7673937E-002  0.6000000E+02  0.7546771E-02  0.1259629E+00
         11   -1    0    0    0    0  0.00000000000E+00  0.00000000000E+00  0.30000000000E+02  0.30000000000E+02  0.00000000000E+00 0. -1.
        -11   -1    0    0    0    0 -0.00000000000E+00 -0.00000000000E+00 -0.30000000000E+02  0.30000000000E+02  0.00000000000E+00 0.  1.
         23    2    1    2    0    0  0.00000000000E+00  0.00000000000E+00  0.00000000000E+00  0.60000000000E+02  0.60000000000E+02 0.  0.
          5    1    3    3  501    0 -0.43880407938E+01  0.71546235023E+01 -0.28415954331E+02  0.30000000000E+02  0.47000000000E+01 0.  1.
         -5    1    3    3    0  501  0.43880407938E+01 -0.71546235023E+01  0.28415954331E+02  0.30000000000E+02  0.47000000000E+01 0. -1.
</event>
<event>
 5    1  0.7673937E-002  0.6000000E+02  0.7546771E-02  0.1259629E+00
         11   -1    0    0    0    0  0.00000000000E+00  0.00000000000E+00  0.30000000000E+02  0.30000000000E+02  0.00000000000E+00 0.  1.
        -11   -1    0    0    0    0 -0.00000000000E+00 -0.00000000000E+00 -0.30000000000E+02  0.30000000000E+02  0.00000000000E+00 0. -1.
         23    2    1    2    0    0  0.00000000000E+00  0.00000000000E+00  0.00000000000E+00  0.60000000000E+02  0.60000000000E+02 0.  0.
          5    1    3    3  501    0 -0.22836602831E+02 -0.70895749634E+01 -0.17496785361E+02  0.30000000000E+02  0.47000000000E+01 0. -1.
         -5    1    3    3    0  501  0.22836602831E+02  0.70895749634E+01  0.17496785361E+02  0.30000000000E+02  0.47000000000E+01 0.  1.
</event>
<event>
 5    1  0.7673937E-002  0.6000000E+02  0.7546771E-02  0.1259629E+00
         11   -1    0    0    0    0  0.00000000000E+00  0.00000000000E+00  0.30000000000E+02  0.30000000000E+02  0.00000000000E+00 0. -1.
        -11   -1    0    0    0    0 -0.00000000000E+00 -0.00000000000E+00 -0.30000000000E+02  0.30000000000E+02  0.00000000000E+00 0.  1.
         23    2    1    2    0    0  0.00000000000E+00  0.00000000000E+00  0.00000000000E+00  0.60000000000E+02  0.60000000000E+02 0.  0.
          5    1    3    3  501    0  0.47622137681E+00  0.89824894865E+01 -0.28231154702E+02  0.30000000000E+02  0.47000000000E+01 0.  1.
         -5    1    3    3    0  501 -0.47622137681E+00 -0.89824894865E+01  0.28231154702E+02  0.30000000000E+02  0.47000000000E+01 0. -1.
</event>
<event>
 5    1  0.7673937E-002  0.6000000E+02  0.7546771E-02  0.1259629E+00
         11   -1    0    0    0    0  0.00000000000E+00  0.00000000000E+00  0.30000000000E+02  0.30000000000E+02  0.00000000000E+00 0.  1.
        -11   -1    0    0    0    0 -0.00000000000E+00 -0.00000000000E+00 -0.30000000000E+02  0.30000000000E+02  0.00000000000E+00 0. -1.
         23    2    1    2    0    0  0.00000000000E+00  0.00000000000E+00  0.00000000000E+00  0.60000000000E+02  0.60000000000E+02 0.  0.
          5    1    3    3  501    0 -0.13435314490E+02 -0.13655235828E+02 -0.22603912472E+02  0.30000000000E+02  0.47000000000E+01 0. -1.
         -5    1    3    3    0  501  0.13435314490E+02  0.13655235828E+02  0.22603912472E+02  0.30000000000E+02  0.47000000000E+01 0.  1.
</event>
<event>
 5    1  0.7673937E-002  0.6000000E+02  0.7546771E-02  0.1259629E+00
         11   -1    0    0    0    0  0.00000000000E+00  0.00000000000E+00  0.30000000000E+02  0.30000000000E+02  0.00000000000E+00 0.  1.
        -11   -1    0    0    0    0 -0.00000000000E+00 -0.00000000000E+00 -0.30000000000E+02  0.30000000000E+02  0.00000000000E+00 0. -1.
         23    2    1    2    0    0  0.00000000000E+00  0.00000000000E+00  0.00000000000E+00  0.60000000000E+02  0.60000000000E+02 0.  0.
          5    1    3    3  501    0  0.21239789346E+02 -0.16526877376E+02 -0.12395308498E+02  0.30000000000E+02  0.47000000000E+01 0. -1.
         -5    1    3    3    0  501 -0.21239789346E+02  0.16526877376E+02  0.12395308498E+02  0.30000000000E+02  0.47000000000E+01 0.  1.
</event>
<event>
 5    1  0.7673937E-002  0.6000000E+02  0.7546771E-02  0.1259629E+00
         11   -1    0    0    0    0  0.00000000000E+00  0.00000000000E+00  0.30000000000E+02  0.30000000000E+02  0.00000000000E+00 0. -1.
        -11   -1    0    0    0    0 -0.00000000000E+00 -0.00000000000E+00 -0.30000000000E+02  0.30000000000E+02  0.00000000000E+00 0.  1.
         23    2    1    2    0    0  0.00000000000E+00  0.00000000000E+00  0.00000000000E+00  0.60000000000E+02  0.60000000000E+02 0.  0.
          5    1    3    3  501    0  0.19512187095E+02  0.19574894706E+02 -0.10677455314E+02  0.30000000000E+02  0.47000000000E+01 0.  1.
         -5    1    3    3    0  501 -0.19512187095E+02 -0.19574894706E+02  0.10677455314E+02  0.30000000000E+02  0.47000000000E+01 0. -1.
</event>
<event>
 5    1  0.7673937E-002  0.6000000E+02  0.7546771E-02  0.1259629E+00
         11   -1    0    0    0    0  0.00000000000E+00  0.00000000000E+00  0.30000000000E+02  0.30000000000E+02  0.00000000000E+00 0. -1.
        -11   -1    0    0    0    0 -0.00000000000E+00 -0.00000000000E+00 -0.30000000000E+02  0.30000000000E+02  0.00000000000E+00 0.  1.
         23    2    1    2    0    0  0.00000000000E+00  0.00000000000E+00  0.00000000000E+00  0.60000000000E+02  0.60000000000E+02 0.  0.
          5    1    3    3  501    0  0.84047646940E+01  0.13975978631E+02 -0.24737460495E+02  0.30000000000E+02  0.47000000000E+01 0.  1.
         -5    1    3    3    0  501 -0.84047646940E+01 -0.13975978631E+02  0.24737460495E+02  0.30000000000E+02  0.47000000000E+01 0. -1.
</event>
<event>
 5    1  0.7673937E-002  0.6000000E+02  0.7546771E-02  0.1259629E+00
         11   -1    0    0    0    0  0.00000000000E+00  0.00000000000E+00  0.30000000000E+02  0.30000000000E+02  0.00000000000E+00 0.  1.
        -11   -1    0    0    0    0 -0.00000000000E+00 -0.00000000000E+00 -0.30000000000E+02  0.30000000000E+02  0.00000000000E+00 0. -1.
         23    2    1    2    0    0  0.00000000000E+00  0.00000000000E+00  0.00000000000E+00  0.60000000000E+02  0.60000000000E+02 0.  0.
          5    1    3    3  501    0 -0.21296131095E+02 -0.84986226186E+01 -0.18765878982E+02  0.30000000000E+02  0.47000000000E+01 0. -1.
         -5    1    3    3    0  501  0.21296131095E+02  0.84986226186E+01  0.18765878982E+02  0.30000000000E+02  0.47000000000E+01 0.  1.
</event>
<event>
 5    1  0.7673937E-002  0.6000000E+02  0.7546771E-02  0.1259629E+00
         11   -1    0    0    0    0  0.00000000000E+00  0.00000000000E+00  0.30000000000E+02  0.30000000000E+02  0.00000000000E+00 0. -1.
        -11   -1    0    0    0    0 -0.00000000000E+00 -0.00000000000E+00 -0.30000000000E+02  0.30000000000E+02  0.00000000000E+00 0.  1.
         23    2    1    2    0    0  0.00000000000E+00  0.00000000000E+00  0.00000000000E+00  0.60000000000E+02  0.60000000000E+02 0.  0.
          5    1    3    3  501    0  0.24569648076E+02 -0.25987862117E+01 -0.16355081891E+02  0.30000000000E+02  0.47000000000E+01 0.  1.
         -5    1    3    3    0  501 -0.24569648076E+02  0.25987862117E+01  0.16355081891E+02  0.30000000000E+02  0.47000000000E+01 0. -1.
</event>
<event>
 5    1  0.7673937E-002  0.6000000E+02  0.7546771E-02  0.1259629E+00
         11   -1    0    0    0    0  0.00000000000E+00  0.00000000000E+00  0.30000000000E+02  0.30000000000E+02  0.00000000000E+00 0.  1.
        -11   -1    0    0    0    0 -0.00000000000E+00 -0.00000000000E+00 -0.30000000000E+02  0.30000000000E+02  0.00000000000E+00 0. -1.
         23    2    1    2    0    0  0.00000000000E+00  0.00000000000E+00  0.00000000000E+00  0.60000000000E+02  0.60000000000E+02 0.  0.
          5    1    3    3  501    0  0.10475690083E+02 -0.27715737045E+02  0.88528571733E-01  0.30000000000E+02  0.47000000000E+01 0.  1.
         -5    1    3    3    0  501 -0.10475690083E+02  0.27715737045E+02 -0.88528571733E-01  0.30000000000E+02  0.47000000000E+01 0. -1.
</event>
<event>
 5    1  0.7673937E-002  0.6000000E+02  0.7546771E-02  0.1259629E+00
         11   -1    0    0    0    0  0.00000000000E+00  0.00000000000E+00  0.30000000000E+02  0.30000000000E+02  0.00000000000E+00 0. -1.
        -11   -1    0    0    0    0 -0.00000000000E+00 -0.00000000000E+00 -0.30000000000E+02  0.30000000000E+02  0.00000000000E+00 0.  1.
         23    2    1    2    0    0  0.00000000000E+00  0.00000000000E+00  0.00000000000E+00  0.60000000000E+02  0.60000000000E+02 0.  0.
          5    1    3    3  501    0 -0.20918551148E+01 -0.17633750061E+02 -0.23718874361E+02  0.30000000000E+02  0.47000000000E+01 0.  1.
         -5    1    3    3    0  501  0.20918551148E+01  0.17633750061E+02  0.23718874361E+02  0.30000000000E+02  0.47000000000E+01 0. -1.
</event>
<event>
 5    1  0.7673937E-002  0.6000000E+02  0.7546771E-02  0.1259629E+00
         11   -1    0    0    0    0  0.00000000000E+00  0.00000000000E+00  0.30000000000E+02  0.30000000000E+02  0.00000000000E+00 0.  1.
        -11   -1    0    0    0    0 -0.00000000000E+00 -0.00000000000E+00 -0.30000000000E+02  0.30000000000E+02  0.00000000000E+00 0. -1.
         23    2    1    2    0    0  0.00000000000E+00  0.00000000000E+00  0.00000000000E+00  0.60000000000E+02  0.60000000000E+02 0.  0.
          5    1    3    3  501    0  0.88912960484E+00 -0.12946167525E+02 -0.26636745202E+02  0.30000000000E+02  0.47000000000E+01 0. -1.
         -5    1    3    3    0  501 -0.88912960484E+00  0.12946167525E+02  0.26636745202E+02  0.30000000000E+02  0.47000000000E+01 0.  1.
</event>
<event>
 5    1  0.7673937E-002  0.6000000E+02  0.7546771E-02  0.1259629E+00
         11   -1    0    0    0    0  0.00000000000E+00  0.00000000000E+00  0.30000000000E+02  0.30000000000E+02  0.00000000000E+00 0. -1.
        -11   -1    0    0    0    0 -0.00000000000E+00 -0.00000000000E+00 -0.30000000000E+02  0.30000000000E+02  0.00000000000E+00 0.  1.
         23    2    1    2    0    0  0.00000000000E+00  0.00000000000E+00  0.00000000000E+00  0.60000000000E+02  0.60000000000E+02 0.  0.
          5    1    3    3  501    0 -0.28809108337E+02 -0.48626807059E+01 -0.49294637834E+01  0.30000000000E+02  0.47000000000E+01 0.  1.
         -5    1    3    3    0  501  0.28809108337E+02  0.48626807059E+01  0.49294637834E+01  0.30000000000E+02  0.47000000000E+01 0. -1.
</event>
<event>
 5    1  0.7673937E-002  0.6000000E+02  0.7546771E-02  0.1259629E+00
         11   -1    0    0    0    0  0.00000000000E+00  0.00000000000E+00  0.30000000000E+02  0.30000000000E+02  0.00000000000E+00 0.  1.
        -11   -1    0    0    0    0 -0.00000000000E+00 -0.00000000000E+00 -0.30000000000E+02  0.30000000000E+02  0.00000000000E+00 0. -1.
         23    2    1    2    0    0  0.00000000000E+00  0.00000000000E+00  0.00000000000E+00  0.60000000000E+02  0.60000000000E+02 0.  0.
          5    1    3    3  501    0 -0.22311180227E+02 -0.19088540604E+02 -0.39684826401E+01  0.30000000000E+02  0.47000000000E+01 0. -1.
         -5    1    3    3    0  501  0.22311180227E+02  0.19088540604E+02  0.39684826401E+01  0.30000000000E+02  0.47000000000E+01 0.  1.
</event>
<event>
 5    1  0.7673937E-002  0.6000000E+02  0.7546771E-02  0.1259629E+00
         11   -1    0    0    0    0  0.00000000000E+00  0.00000000000E+00  0.30000000000E+02  0.30000000000E+02  0.00000000000E+00 0.  1.
        -11   -1    0    0    0    0 -0.00000000000E+00 -0.00000000000E+00 -0.30000000000E+02  0.30000000000E+02  0.00000000000E+00 0. -1.
         23    2    1    2    0    0  0.00000000000E+00  0.00000000000E+00  0.00000000000E+00  0.60000000000E+02  0.60000000000E+02 0.  0.
          5    1    3    3  501    0  0.15541822445E+02  0.24402532767E+02  0.63936022444E+01  0.30000000000E+02  0.47000000000E+01 0. -1.
         -5    1    3    3    0  501 -0.15541822445E+02 -0.24402532767E+02 -0.63936022444E+01  0.30000000000E+02  0.47000000000E+01 0.  1.
</event>
<event>
 5    1  0.7673937E-002  0.6000000E+02  0.7546771E-02  0.1259629E+00
         11   -1    0    0    0    0  0.00000000000E+00  0.00000000000E+00  0.30000000000E+02  0.30000000000E+02  0.00000000000E+00 0.  1.
        -11   -1    0    0    0    0 -0.00000000000E+00 -0.00000000000E+00 -0.30000000000E+02  0.30000000000E+02  0.00000000000E+00 0. -1.
         23    2    1    2    0    0  0.00000000000E+00  0.00000000000E+00  0.00000000000E+00  0.60000000000E+02  0.60000000000E+02 0.  0.
          5    1    3    3  501    0  0.54954827908E+01  0.29086111956E+02 -0.13068129904E+01  0.30000000000E+02  0.47000000000E+01 0. -1.
         -5    1    3    3    0  501 -0.54954827908E+01 -0.29086111956E+02  0.13068129904E+01  0.30000000000E+02  0.47000000000E+01 0.  1.
</event>
<event>
 5    1  0.7673937E-002  0.6000000E+02  0.7546771E-02  0.1259629E+00
         11   -1    0    0    0    0  0.00000000000E+00  0.00000000000E+00  0.30000000000E+02  0.30000000000E+02  0.00000000000E+00 0.  1.
        -11   -1    0    0    0    0 -0.00000000000E+00 -0.00000000000E+00 -0.30000000000E+02  0.30000000000E+02  0.00000000000E+00 0. -1.
         23    2    1    2    0    0  0.00000000000E+00  0.00000000000E+00  0.00000000000E+00  0.60000000000E+02  0.60000000000E+02 0.  0.
          5    1    3    3  501    0  0.12304501102E+02  0.26861326279E+02 -0.22312335554E+01  0.30000000000E+02  0.47000000000E+01 0. -1.
         -5    1    3    3    0  501 -0.12304501102E+02 -0.26861326279E+02  0.22312335554E+01  0.30000000000E+02  0.47000000000E+01 0.  1.
</event>
<event>
 5    1  0.7673937E-002  0.6000000E+02  0.7546771E-02  0.1259629E+00
         11   -1    0    0    0    0  0.00000000000E+00  0.00000000000E+00  0.30000000000E+02  0.30000000000E+02  0.00000000000E+00 0.  1.
        -11   -1    0    0    0    0 -0.00000000000E+00 -0.00000000000E+00 -0.30000000000E+02  0.30000000000E+02  0.00000000000E+00 0. -1.
         23    2    1    2    0    0  0.00000000000E+00  0.00000000000E+00  0.00000000000E+00  0.60000000000E+02  0.60000000000E+02 0.  0.
          5    1    3    3  501    0 -0.26815945563E+02 -0.69419985093E+01 -0.10517781147E+02  0.30000000000E+02  0.47000000000E+01 0. -1.
         -5    1    3    3    0  501  0.26815945563E+02  0.69419985093E+01  0.10517781147E+02  0.30000000000E+02  0.47000000000E+01 0.  1.
</event>
<event>
 5    1  0.7673937E-002  0.6000000E+02  0.7546771E-02  0.1259629E+00
         11   -1    0    0    0    0  0.00000000000E+00  0.00000000000E+00  0.30000000000E+02  0.30000000000E+02  0.00000000000E+00 0.  1.
        -11   -1    0    0    0    0 -0.00000000000E+00 -0.00000000000E+00 -0.30000000000E+02  0.30000000000E+02  0.00000000000E+00 0. -1.
         23    2    1    2    0    0  0.00000000000E+00  0.00000000000E+00  0.00000000000E+00  0.60000000000E+02  0.60000000000E+02 0.  0.
          5    1    3    3  501    0  0.23903867146E+02  0.11505922817E+02  0.13195790071E+02  0.30000000000E+02  0.47000000000E+01 0.  1.
         -5    1    3    3    0  501 -0.23903867146E+02 -0.11505922817E+02 -0.13195790071E+02  0.30000000000E+02  0.47000000000E+01 0. -1.
</event>
<event>
 5    1  0.7673937E-002  0.6000000E+02  0.7546771E-02  0.1259629E+00
         11   -1    0    0    0    0  0.00000000000E+00  0.00000000000E+00  0.30000000000E+02  0.30000000000E+02  0.00000000000E+00 0. -1.
        -11   -1    0    0    0    0 -0.00000000000E+00 -0.00000000000E+00 -0.30000000000E+02  0.30000000000E+02  0.00000000000E+00 0.  1.
         23    2    1    2    0    0  0.00000000000E+00  0.00000000000E+00  0.00000000000E+00  0.60000000000E+02  0.60000000000E+02 0.  0.
          5    1    3    3  501    0 -0.72714954488E+01  0.27770235653E+02  0.73382127046E+01  0.30000000000E+02  0.47000000000E+01 0.  1.
         -5    1    3    3    0  501  0.72714954488E+01 -0.27770235653E+02 -0.73382127046E+01  0.30000000000E+02  0.47000000000E+01 0. -1.
</event>
<event>
 5    1  0.7673937E-002  0.6000000E+02  0.7546771E-02  0.1259629E+00
         11   -1    0    0    0    0  0.00000000000E+00  0.00000000000E+00  0.30000000000E+02  0.30000000000E+02  0.00000000000E+00 0.  1.
        -11   -1    0    0    0    0 -0.00000000000E+00 -0.00000000000E+00 -0.30000000000E+02  0.30000000000E+02  0.00000000000E+00 0. -1.
         23    2    1    2    0    0  0.00000000000E+00  0.00000000000E+00  0.00000000000E+00  0.60000000000E+02  0.60000000000E+02 0.  0.
          5    1    3    3  501    0  0.19062653945E+02 -0.13638697309E+02 -0.18124876835E+02  0.30000000000E+02  0.47000000000E+01 0. -1.
         -5    1    3    3    0  501 -0.19062653945E+02  0.13638697309E+02  0.18124876835E+02  0.30000000000E+02  0.47000000000E+01 0.  1.
</event>
<event>
 5    1  0.7673937E-002  0.6000000E+02  0.7546771E-02  0.1259629E+00
         11   -1    0    0    0    0  0.00000000000E+00  0.00000000000E+00  0.30000000000E+02  0.30000000000E+02  0.00000000000E+00 0.  1.
        -11   -1    0    0    0    0 -0.00000000000E+00 -0.00000000000E+00 -0.30000000000E+02  0.30000000000E+02  0.00000000000E+00 0. -1.
         23    2    1    2    0    0  0.00000000000E+00  0.00000000000E+00  0.00000000000E+00  0.60000000000E+02  0.60000000000E+02 0.  0.
          5    1    3    3  501    0 -0.16172810717E+02  0.24443131867E+02  0.43455147064E+01  0.30000000000E+02  0.47000000000E+01 0. -1.
         -5    1    3    3    0  501  0.16172810717E+02 -0.24443131867E+02 -0.43455147064E+01  0.30000000000E+02  0.47000000000E+01 0.  1.
</event>
<event>
 5    1  0.7673937E-002  0.6000000E+02  0.7546771E-02  0.1259629E+00
         11   -1    0    0    0    0  0.00000000000E+00  0.00000000000E+00  0.30000000000E+02  0.30000000000E+02  0.00000000000E+00 0. -1.
        -11   -1    0    0    0    0 -0.00000000000E+00 -0.00000000000E+00 -0.30000000000E+02  0.30000000000E+02  0.00000000000E+00 0.  1.
         23    2    1    2    0    0  0.00000000000E+00  0.00000000000E+00  0.00000000000E+00  0.60000000000E+02  0.60000000000E+02 0.  0.
          5    1    3    3  501    0  0.30224520731E+01  0.28764548698E+02 -0.64323807144E+01  0.30000000000E+02  0.47000000000E+01 0.  1.
         -5    1    3    3    0  501 -0.30224520731E+01 -0.28764548698E+02  0.64323807144E+01  0.30000000000E+02  0.47000000000E+01 0. -1.
</event>
<event>
 5    1  0.7673937E-002  0.6000000E+02  0.7546771E-02  0.1259629E+00
         11   -1    0    0    0    0  0.00000000000E+00  0.00000000000E+00  0.30000000000E+02  0.30000000000E+02  0.00000000000E+00 0.  1.
        -11   -1    0    0    0    0 -0.00000000000E+00 -0.00000000000E+00 -0.30000000000E+02  0.30000000000E+02  0.00000000000E+00 0. -1.
         23    2    1    2    0    0  0.00000000000E+00  0.00000000000E+00  0.00000000000E+00  0.60000000000E+02  0.60000000000E+02 0.  0.
          5    1    3    3  501    0  0.67299173707E+01  0.10929043754E+02 -0.26705321844E+02  0.30000000000E+02  0.47000000000E+01 0. -1.
         -5    1    3    3    0  501 -0.67299173707E+01 -0.10929043754E+02  0.26705321844E+02  0.30000000000E+02  0.47000000000E+01 0.  1.
</event>
<event>
 5    1  0.7673937E-002  0.6000000E+02  0.7546771E-02  0.1259629E+00
         11   -1    0    0    0    0  0.00000000000E+00  0.00000000000E+00  0.30000000000E+02  0.30000000000E+02  0.00000000000E+00 0. -1.
        -11   -1    0    0    0    0 -0.00000000000E+00 -0.00000000000E+00 -0.30000000000E+02  0.30000000000E+02  0.00000000000E+00 0.  1.
         23    2    1    2    0    0  0.00000000000E+00  0.00000000000E+00  0.00000000000E+00  0.60000000000E+02  0.60000000000E+02 0.  0.
          5    1    3    3  501    0  0.13138684625E+02  0.22793536076E+02 -0.13628634543E+02  0.30000000000E+02  0.47000000000E+01 0.  1.
         -5    1    3    3    0  501 -0.13138684625E+02 -0.22793536076E+02  0.13628634543E+02  0.30000000000E+02  0.47000000000E+01 0. -1.
</event>
<event>
 5    1  0.7673937E-002  0.6000000E+02  0.7546771E-02  0.1259629E+00
         11   -1    0    0    0    0  0.00000000000E+00  0.00000000000E+00  0.30000000000E+02  0.30000000000E+02  0.00000000000E+00 0.  1.
        -11   -1    0    0    0    0 -0.00000000000E+00 -0.00000000000E+00 -0.30000000000E+02  0.30000000000E+02  0.00000000000E+00 0. -1.
         23    2    1    2    0    0  0.00000000000E+00  0.00000000000E+00  0.00000000000E+00  0.60000000000E+02  0.60000000000E+02 0.  0.
          5    1    3    3  501    0 -0.63528503296E+00 -0.26703361905E+02 -0.12823294269E+02  0.30000000000E+02  0.47000000000E+01 0. -1.
         -5    1    3    3    0  501  0.63528503296E+00  0.26703361905E+02  0.12823294269E+02  0.30000000000E+02  0.47000000000E+01 0.  1.
</event>
<event>
 5    1  0.7673937E-002  0.6000000E+02  0.7546771E-02  0.1259629E+00
         11   -1    0    0    0    0  0.00000000000E+00  0.00000000000E+00  0.30000000000E+02  0.30000000000E+02  0.00000000000E+00 0.  1.
        -11   -1    0    0    0    0 -0.00000000000E+00 -0.00000000000E+00 -0.30000000000E+02  0.30000000000E+02  0.00000000000E+00 0. -1.
         23    2    1    2    0    0  0.00000000000E+00  0.00000000000E+00  0.00000000000E+00  0.60000000000E+02  0.60000000000E+02 0.  0.
          5    1    3    3  501    0 -0.17681178065E+01  0.18423213112E+01 -0.29519309132E+02  0.30000000000E+02  0.47000000000E+01 0. -1.
         -5    1    3    3    0  501  0.17681178065E+01 -0.18423213112E+01  0.29519309132E+02  0.30000000000E+02  0.47000000000E+01 0.  1.
</event>
<event>
 5    1  0.7673937E-002  0.6000000E+02  0.7546771E-02  0.1259629E+00
         11   -1    0    0    0    0  0.00000000000E+00  0.00000000000E+00  0.30000000000E+02  0.30000000000E+02  0.00000000000E+00 0.  1.
        -11   -1    0    0    0    0 -0.00000000000E+00 -0.00000000000E+00 -0.30000000000E+02  0.30000000000E+02  0.00000000000E+00 0. -1.
         23    2    1    2    0    0  0.00000000000E+00  0.00000000000E+00  0.00000000000E+00  0.60000000000E+02  0.60000000000E+02 0.  0.
          5    1    3    3  501    0 -0.10926896162E+02 -0.39816133517E+01 -0.27251783343E+02  0.30000000000E+02  0.47000000000E+01 0. -1.
         -5    1    3    3    0  501  0.10926896162E+02  0.39816133517E+01  0.27251783343E+02  0.30000000000E+02  0.47000000000E+01 0.  1.
</event>
<event>
 5    1  0.7673937E-002  0.6000000E+02  0.7546771E-02  0.1259629E+00
         11   -1    0    0    0    0  0.00000000000E+00  0.00000000000E+00  0.30000000000E+02  0.30000000000E+02  0.00000000000E+00 0.  1.
        -11   -1    0    0    0    0 -0.00000000000E+00 -0.00000000000E+00 -0.30000000000E+02  0.30000000000E+02  0.00000000000E+00 0. -1.
         23    2    1    2    0    0  0.00000000000E+00  0.00000000000E+00  0.00000000000E+00  0.60000000000E+02  0.60000000000E+02 0.  0.
          5    1    3    3  501    0  0.12104942783E+02  0.67542137639E+01 -0.26187037951E+02  0.30000000000E+02  0.47000000000E+01 0. -1.
         -5    1    3    3    0  501 -0.12104942783E+02 -0.67542137639E+01  0.26187037951E+02  0.30000000000E+02  0.47000000000E+01 0.  1.
</event>
<event>
 5    1  0.7673937E-002  0.6000000E+02  0.7546771E-02  0.1259629E+00
         11   -1    0    0    0    0  0.00000000000E+00  0.00000000000E+00  0.30000000000E+02  0.30000000000E+02  0.00000000000E+00 0.  1.
        -11   -1    0    0    0    0 -0.00000000000E+00 -0.00000000000E+00 -0.30000000000E+02  0.30000000000E+02  0.00000000000E+00 0. -1.
         23    2    1    2    0    0  0.00000000000E+00  0.00000000000E+00  0.00000000000E+00  0.60000000000E+02  0.60000000000E+02 0.  0.
          5    1    3    3  501    0  0.24746337822E+02  0.13185241233E+02 -0.95748722193E+01  0.30000000000E+02  0.47000000000E+01 0. -1.
         -5    1    3    3    0  501 -0.24746337822E+02 -0.13185241233E+02  0.95748722193E+01  0.30000000000E+02  0.47000000000E+01 0.  1.
</event>
<event>
 5    1  0.7673937E-002  0.6000000E+02  0.7546771E-02  0.1259629E+00
         11   -1    0    0    0    0  0.00000000000E+00  0.00000000000E+00  0.30000000000E+02  0.30000000000E+02  0.00000000000E+00 0.  1.
        -11   -1    0    0    0    0 -0.00000000000E+00 -0.00000000000E+00 -0.30000000000E+02  0.30000000000E+02  0.00000000000E+00 0. -1.
         23    2    1    2    0    0  0.00000000000E+00  0.00000000000E+00  0.00000000000E+00  0.60000000000E+02  0.60000000000E+02 0.  0.
          5    1    3    3  501    0  0.17489984134E+02 -0.70250938095E+01 -0.22861725918E+02  0.30000000000E+02  0.47000000000E+01 0. -1.
         -5    1    3    3    0  501 -0.17489984134E+02  0.70250938095E+01  0.22861725918E+02  0.30000000000E+02  0.47000000000E+01 0.  1.
</event>
<event>
 5    1  0.7673937E-002  0.6000000E+02  0.7546771E-02  0.1259629E+00
         11   -1    0    0    0    0  0.00000000000E+00  0.00000000000E+00  0.30000000000E+02  0.30000000000E+02  0.00000000000E+00 0. -1.
        -11   -1    0    0    0    0 -0.00000000000E+00 -0.00000000000E+00 -0.30000000000E+02  0.30000000000E+02  0.00000000000E+00 0.  1.
         23    2    1    2    0    0  0.00000000000E+00  0.00000000000E+00  0.00000000000E+00  0.60000000000E+02  0.60000000000E+02 0.  0.
          5    1    3    3  501    0  0.19513803478E+02 -0.20856747316E+02  0.78814697351E+01  0.30000000000E+02  0.47000000000E+01 0.  1.
         -5    1    3    3    0  501 -0.19513803478E+02  0.20856747316E+02 -0.78814697351E+01  0.30000000000E+02  0.47000000000E+01 0. -1.
</event>
<event>
 5    1  0.7673937E-002  0.6000000E+02  0.7546771E-02  0.1259629E+00
         11   -1    0    0    0    0  0.00000000000E+00  0.00000000000E+00  0.30000000000E+02  0.30000000000E+02  0.00000000000E+00 0. -1.
        -11   -1    0    0    0    0 -0.00000000000E+00 -0.00000000000E+00 -0.30000000000E+02  0.30000000000E+02  0.00000000000E+00 0.  1.
         23    2    1    2    0    0  0.00000000000E+00  0.00000000000E+00  0.00000000000E+00  0.60000000000E+02  0.60000000000E+02 0.  0.
          5    1    3    3  501    0 -0.16244514737E+02  0.39952600509E+01  0.24455339664E+02  0.30000000000E+02  0.47000000000E+01 0. -1.
         -5    1    3    3    0  501  0.16244514737E+02 -0.39952600509E+01 -0.24455339664E+02  0.30000000000E+02  0.47000000000E+01 0.  1.
</event>
<event>
 5    1  0.7673937E-002  0.6000000E+02  0.7546771E-02  0.1259629E+00
         11   -1    0    0    0    0  0.00000000000E+00  0.00000000000E+00  0.30000000000E+02  0.30000000000E+02  0.00000000000E+00 0.  1.
        -11   -1    0    0    0    0 -0.00000000000E+00 -0.00000000000E+00 -0.30000000000E+02  0.30000000000E+02  0.00000000000E+00 0. -1.
         23    2    1    2    0    0  0.00000000000E+00  0.00000000000E+00  0.00000000000E+00  0.60000000000E+02  0.60000000000E+02 0.  0.
          5    1    3    3  501    0 -0.18706398839E+02 -0.20414463637E+02 -0.10546578445E+02  0.30000000000E+02  0.47000000000E+01 0. -1.
         -5    1    3    3    0  501  0.18706398839E+02  0.20414463637E+02  0.10546578445E+02  0.30000000000E+02  0.47000000000E+01 0.  1.
</event>
<event>
 5    1  0.7673937E-002  0.6000000E+02  0.7546771E-02  0.1259629E+00
         11   -1    0    0    0    0  0.00000000000E+00  0.00000000000E+00  0.30000000000E+02  0.30000000000E+02  0.00000000000E+00 0.  1.
        -11   -1    0    0    0    0 -0.00000000000E+00 -0.00000000000E+00 -0.30000000000E+02  0.30000000000E+02  0.00000000000E+00 0. -1.
         23    2    1    2    0    0  0.00000000000E+00  0.00000000000E+00  0.00000000000E+00  0.60000000000E+02  0.60000000000E+02 0.  0.
          5    1    3    3  501    0  0.24684200569E+02  0.16327158825E+02  0.14227181649E+01  0.30000000000E+02  0.47000000000E+01 0. -1.
         -5    1    3    3    0  501 -0.24684200569E+02 -0.16327158825E+02 -0.14227181649E+01  0.30000000000E+02  0.47000000000E+01 0.  1.
</event>
<event>
 5    1  0.7673937E-002  0.6000000E+02  0.7546771E-02  0.1259629E+00
         11   -1    0    0    0    0  0.00000000000E+00  0.00000000000E+00  0.30000000000E+02  0.30000000000E+02  0.00000000000E+00 0.  1.
        -11   -1    0    0    0    0 -0.00000000000E+00 -0.00000000000E+00 -0.30000000000E+02  0.30000000000E+02  0.00000000000E+00 0. -1.
         23    2    1    2    0    0  0.00000000000E+00  0.00000000000E+00  0.00000000000E+00  0.60000000000E+02  0.60000000000E+02 0.  0.
          5    1    3    3  501    0  0.17686318577E+02 -0.10100740621E+02  0.21519274479E+02  0.30000000000E+02  0.47000000000E+01 0.  1.
         -5    1    3    3    0  501 -0.17686318577E+02  0.10100740621E+02 -0.21519274479E+02  0.30000000000E+02  0.47000000000E+01 0. -1.
</event>
<event>
 5    1  0.7673937E-002  0.6000000E+02  0.7546771E-02  0.1259629E+00
         11   -1    0    0    0    0  0.00000000000E+00  0.00000000000E+00  0.30000000000E+02  0.30000000000E+02  0.00000000000E+00 0. -1.
        -11   -1    0    0    0    0 -0.00000000000E+00 -0.00000000000E+00 -0.30000000000E+02  0.30000000000E+02  0.00000000000E+00 0.  1.
         23    2    1    2    0    0  0.00000000000E+00  0.00000000000E+00  0.00000000000E+00  0.60000000000E+02  0.60000000000E+02 0.  0.
          5    1    3    3  501    0 -0.18798146027E+02  0.60832597704E+01 -0.22080164323E+02  0.30000000000E+02  0.47000000000E+01 0.  1.
         -5    1    3    3    0  501  0.18798146027E+02 -0.60832597704E+01  0.22080164323E+02  0.30000000000E+02  0.47000000000E+01 0. -1.
</event>
<event>
 5    1  0.7673937E-002  0.6000000E+02  0.7546771E-02  0.1259629E+00
         11   -1    0    0    0    0  0.00000000000E+00  0.00000000000E+00  0.30000000000E+02  0.30000000000E+02  0.00000000000E+00 0.  1.
        -11   -1    0    0    0    0 -0.00000000000E+00 -0.00000000000E+00 -0.30000000000E+02  0.30000000000E+02  0.00000000000E+00 0. -1.
         23    2    1    2    0    0  0.00000000000E+00  0.00000000000E+00  0.00000000000E+00  0.60000000000E+02  0.60000000000E+02 0.  0.
          5    1    3    3  501    0  0.11393338305E+02 -0.18719563150E+02  0.19941910584E+02  0.30000000000E+02  0.47000000000E+01 0.  1.
         -5    1    3    3    0  501 -0.11393338305E+02  0.18719563150E+02 -0.19941910584E+02  0.30000000000E+02  0.47000000000E+01 0. -1.
</event>
<event>
 5    1  0.7673937E-002  0.6000000E+02  0.7546771E-02  0.1259629E+00
         11   -1    0    0    0    0  0.00000000000E+00  0.00000000000E+00  0.30000000000E+02  0.30000000000E+02  0.00000000000E+00 0.  1.
        -11   -1    0    0    0    0 -0.00000000000E+00 -0.00000000000E+00 -0.30000000000E+02  0.30000000000E+02  0.00000000000E+00 0. -1.
         23    2    1    2    0    0  0.00000000000E+00  0.00000000000E+00  0.00000000000E+00  0.60000000000E+02  0.60000000000E+02 0.  0.
          5    1    3    3  501    0  0.28421724297E+02  0.43173370907E+00 -0.83623677271E+01  0.30000000000E+02  0.47000000000E+01 0. -1.
         -5    1    3    3    0  501 -0.28421724297E+02 -0.43173370907E+00  0.83623677271E+01  0.30000000000E+02  0.47000000000E+01 0.  1.
</event>
<event>
 5    1  0.7673937E-002  0.6000000E+02  0.7546771E-02  0.1259629E+00
         11   -1    0    0    0    0  0.00000000000E+00  0.00000000000E+00  0.30000000000E+02  0.30000000000E+02  0.00000000000E+00 0.  1.
        -11   -1    0    0    0    0 -0.00000000000E+00 -0.00000000000E+00 -0.30000000000E+02  0.30000000000E+02  0.00000000000E+00 0. -1.
         23    2    1    2    0    0  0.00000000000E+00  0.00000000000E+00  0.00000000000E+00  0.60000000000E+02  0.60000000000E+02 0.  0.
          5    1    3    3  501    0  0.15735808876E+02 -0.12099153610E+02 -0.21997836279E+02  0.30000000000E+02  0.47000000000E+01 0. -1.
         -5    1    3    3    0  501 -0.15735808876E+02  0.12099153610E+02  0.21997836279E+02  0.30000000000E+02  0.47000000000E+01 0.  1.
</event>
<event>
 5    1  0.7673937E-002  0.6000000E+02  0.7546771E-02  0.1259629E+00
         11   -1    0    0    0    0  0.00000000000E+00  0.00000000000E+00  0.30000000000E+02  0.30000000000E+02  0.00000000000E+00 0.  1.
        -11   -1    0    0    0    0 -0.00000000000E+00 -0.00000000000E+00 -0.30000000000E+02  0.30000000000E+02  0.00000000000E+00 0. -1.
         23    2    1    2    0    0  0.00000000000E+00  0.00000000000E+00  0.00000000000E+00  0.60000000000E+02  0.60000000000E+02 0.  0.
          5    1    3    3  501    0 -0.85183942145E+01  0.23630950967E+02 -0.15713851100E+02  0.30000000000E+02  0.47000000000E+01 0. -1.
         -5    1    3    3    0  501  0.85183942145E+01 -0.23630950967E+02  0.15713851100E+02  0.30000000000E+02  0.47000000000E+01 0.  1.
</event>
<event>
 5    1  0.7673937E-002  0.6000000E+02  0.7546771E-02  0.1259629E+00
         11   -1    0    0    0    0  0.00000000000E+00  0.00000000000E+00  0.30000000000E+02  0.30000000000E+02  0.00000000000E+00 0.  1.
        -11   -1    0    0    0    0 -0.00000000000E+00 -0.00000000000E+00 -0.30000000000E+02  0.30000000000E+02  0.00000000000E+00 0. -1.
         23    2    1    2    0    0  0.00000000000E+00  0.00000000000E+00  0.00000000000E+00  0.60000000000E+02  0.60000000000E+02 0.  0.
          5    1    3    3  501    0  0.28535020354E+02  0.32083606406E+01 -0.73054113776E+01  0.30000000000E+02  0.47000000000E+01 0. -1.
         -5    1    3    3    0  501 -0.28535020354E+02 -0.32083606406E+01  0.73054113776E+01  0.30000000000E+02  0.47000000000E+01 0.  1.
</event>
<event>
 5    1  0.7673937E-002  0.6000000E+02  0.7546771E-02  0.1259629E+00
         11   -1    0    0    0    0  0.00000000000E+00  0.00000000000E+00  0.30000000000E+02  0.30000000000E+02  0.00000000000E+00 0.  1.
        -11   -1    0    0    0    0 -0.00000000000E+00 -0.00000000000E+00 -0.30000000000E+02  0.30000000000E+02  0.00000000000E+00 0. -1.
         23    2    1    2    0    0  0.00000000000E+00  0.00000000000E+00  0.00000000000E+00  0.60000000000E+02  0.60000000000E+02 0.  0.
          5    1    3    3  501    0 -0.11194642435E+02  0.14682877529E+02 -0.23173327086E+02  0.30000000000E+02  0.47000000000E+01 0. -1.
         -5    1    3    3    0  501  0.11194642435E+02 -0.14682877529E+02  0.23173327086E+02  0.30000000000E+02  0.47000000000E+01 0.  1.
</event>
<event>
 5    1  0.7673937E-002  0.6000000E+02  0.7546771E-02  0.1259629E+00
         11   -1    0    0    0    0  0.00000000000E+00  0.00000000000E+00  0.30000000000E+02  0.30000000000E+02  0.00000000000E+00 0.  1.
        -11   -1    0    0    0    0 -0.00000000000E+00 -0.00000000000E+00 -0.30000000000E+02  0.30000000000E+02  0.00000000000E+00 0. -1.
         23    2    1    2    0    0  0.00000000000E+00  0.00000000000E+00  0.00000000000E+00  0.60000000000E+02  0.60000000000E+02 0.  0.
          5    1    3    3  501    0 -0.35156519389E+01 -0.28987013141E+02  0.50302346445E+01  0.30000000000E+02  0.47000000000E+01 0. -1.
         -5    1    3    3    0  501  0.35156519389E+01  0.28987013141E+02 -0.50302346445E+01  0.30000000000E+02  0.47000000000E+01 0.  1.
</event>
<event>
 5    1  0.7673937E-002  0.6000000E+02  0.7546771E-02  0.1259629E+00
         11   -1    0    0    0    0  0.00000000000E+00  0.00000000000E+00  0.30000000000E+02  0.30000000000E+02  0.00000000000E+00 0.  1.
        -11   -1    0    0    0    0 -0.00000000000E+00 -0.00000000000E+00 -0.30000000000E+02  0.30000000000E+02  0.00000000000E+00 0. -1.
         23    2    1    2    0    0  0.00000000000E+00  0.00000000000E+00  0.00000000000E+00  0.60000000000E+02  0.60000000000E+02 0.  0.
          5    1    3    3  501    0 -0.27205199800E+02 -0.11737935831E+02  0.89253909360E-01  0.30000000000E+02  0.47000000000E+01 0. -1.
         -5    1    3    3    0  501  0.27205199800E+02  0.11737935831E+02 -0.89253909360E-01  0.30000000000E+02  0.47000000000E+01 0.  1.
</event>
<event>
 5    1  0.7673937E-002  0.6000000E+02  0.7546771E-02  0.1259629E+00
         11   -1    0    0    0    0  0.00000000000E+00  0.00000000000E+00  0.30000000000E+02  0.30000000000E+02  0.00000000000E+00 0.  1.
        -11   -1    0    0    0    0 -0.00000000000E+00 -0.00000000000E+00 -0.30000000000E+02  0.30000000000E+02  0.00000000000E+00 0. -1.
         23    2    1    2    0    0  0.00000000000E+00  0.00000000000E+00  0.00000000000E+00  0.60000000000E+02  0.60000000000E+02 0.  0.
          5    1    3    3  501    0  0.26127409416E+02  0.73879896788E+01 -0.11861116546E+02  0.30000000000E+02  0.47000000000E+01 0. -1.
         -5    1    3    3    0  501 -0.26127409416E+02 -0.73879896788E+01  0.11861116546E+02  0.30000000000E+02  0.47000000000E+01 0.  1.
</event>
<event>
 5    1  0.7673937E-002  0.6000000E+02  0.7546771E-02  0.1259629E+00
         11   -1    0    0    0    0  0.00000000000E+00  0.00000000000E+00  0.30000000000E+02  0.30000000000E+02  0.00000000000E+00 0. -1.
        -11   -1    0    0    0    0 -0.00000000000E+00 -0.00000000000E+00 -0.30000000000E+02  0.30000000000E+02  0.00000000000E+00 0.  1.
         23    2    1    2    0    0  0.00000000000E+00  0.00000000000E+00  0.00000000000E+00  0.60000000000E+02  0.60000000000E+02 0.  0.
          5    1    3    3  501    0 -0.64602394252E+00 -0.70465184312E+01 -0.28772195451E+02  0.30000000000E+02  0.47000000000E+01 0.  1.
         -5    1    3    3    0  501  0.64602394252E+00  0.70465184312E+01  0.28772195451E+02  0.30000000000E+02  0.47000000000E+01 0. -1.
</event>
<event>
 5    1  0.7673937E-002  0.6000000E+02  0.7546771E-02  0.1259629E+00
         11   -1    0    0    0    0  0.00000000000E+00  0.00000000000E+00  0.30000000000E+02  0.30000000000E+02  0.00000000000E+00 0.  1.
        -11   -1    0    0    0    0 -0.00000000000E+00 -0.00000000000E+00 -0.30000000000E+02  0.30000000000E+02  0.00000000000E+00 0. -1.
         23    2    1    2    0    0  0.00000000000E+00  0.00000000000E+00  0.00000000000E+00  0.60000000000E+02  0.60000000000E+02 0.  0.
          5    1    3    3  501    0 -0.44123414677E+01  0.25403610774E+02 -0.14597869790E+02  0.30000000000E+02  0.47000000000E+01 0. -1.
         -5    1    3    3    0  501  0.44123414677E+01 -0.25403610774E+02  0.14597869790E+02  0.30000000000E+02  0.47000000000E+01 0.  1.
</event>
<event>
 5    1  0.7673937E-002  0.6000000E+02  0.7546771E-02  0.1259629E+00
         11   -1    0    0    0    0  0.00000000000E+00  0.00000000000E+00  0.30000000000E+02  0.30000000000E+02  0.00000000000E+00 0.  1.
        -11   -1    0    0    0    0 -0.00000000000E+00 -0.00000000000E+00 -0.30000000000E+02  0.30000000000E+02  0.00000000000E+00 0. -1.
         23    2    1    2    0    0  0.00000000000E+00  0.00000000000E+00  0.00000000000E+00  0.60000000000E+02  0.60000000000E+02 0.  0.
          5    1    3    3  501    0  0.40611295318E+01  0.14398418944E+02 -0.25575432721E+02  0.30000000000E+02  0.47000000000E+01 0. -1.
         -5    1    3    3    0  501 -0.40611295318E+01 -0.14398418944E+02  0.25575432721E+02  0.30000000000E+02  0.47000000000E+01 0.  1.
</event>
<event>
 5    1  0.7673937E-002  0.6000000E+02  0.7546771E-02  0.1259629E+00
         11   -1    0    0    0    0  0.00000000000E+00  0.00000000000E+00  0.30000000000E+02  0.30000000000E+02  0.00000000000E+00 0.  1.
        -11   -1    0    0    0    0 -0.00000000000E+00 -0.00000000000E+00 -0.30000000000E+02  0.30000000000E+02  0.00000000000E+00 0. -1.
         23    2    1    2    0    0  0.00000000000E+00  0.00000000000E+00  0.00000000000E+00  0.60000000000E+02  0.60000000000E+02 0.  0.
          5    1    3    3  501    0  0.94954840977E+01 -0.40357492080E+01 -0.27775141945E+02  0.30000000000E+02  0.47000000000E+01 0. -1.
         -5    1    3    3    0  501 -0.94954840977E+01  0.40357492080E+01  0.27775141945E+02  0.30000000000E+02  0.47000000000E+01 0.  1.
</event>
<event>
 5    1  0.7673937E-002  0.6000000E+02  0.7546771E-02  0.1259629E+00
         11   -1    0    0    0    0  0.00000000000E+00  0.00000000000E+00  0.30000000000E+02  0.30000000000E+02  0.00000000000E+00 0.  1.
        -11   -1    0    0    0    0 -0.00000000000E+00 -0.00000000000E+00 -0.30000000000E+02  0.30000000000E+02  0.00000000000E+00 0. -1.
         23    2    1    2    0    0  0.00000000000E+00  0.00000000000E+00  0.00000000000E+00  0.60000000000E+02  0.60000000000E+02 0.  0.
          5    1    3    3  501    0  0.26151194929E+02  0.74631261757E+01 -0.11761239369E+02  0.30000000000E+02  0.47000000000E+01 0. -1.
         -5    1    3    3    0  501 -0.26151194929E+02 -0.74631261757E+01  0.11761239369E+02  0.30000000000E+02  0.47000000000E+01 0.  1.
</event>
<event>
 5    1  0.7673937E-002  0.6000000E+02  0.7546771E-02  0.1259629E+00
         11   -1    0    0    0    0  0.00000000000E+00  0.00000000000E+00  0.30000000000E+02  0.30000000000E+02  0.00000000000E+00 0.  1.
        -11   -1    0    0    0    0 -0.00000000000E+00 -0.00000000000E+00 -0.30000000000E+02  0.30000000000E+02  0.00000000000E+00 0. -1.
         23    2    1    2    0    0  0.00000000000E+00  0.00000000000E+00  0.00000000000E+00  0.60000000000E+02  0.60000000000E+02 0.  0.
          5    1    3    3  501    0 -0.24233550892E+01 -0.18979611243E+02  0.22623255893E+02  0.30000000000E+02  0.47000000000E+01 0.  1.
         -5    1    3    3    0  501  0.24233550892E+01  0.18979611243E+02 -0.22623255893E+02  0.30000000000E+02  0.47000000000E+01 0. -1.
</event>
<event>
 5    1  0.7673937E-002  0.6000000E+02  0.7546771E-02  0.1259629E+00
         11   -1    0    0    0    0  0.00000000000E+00  0.00000000000E+00  0.30000000000E+02  0.30000000000E+02  0.00000000000E+00 0.  1.
        -11   -1    0    0    0    0 -0.00000000000E+00 -0.00000000000E+00 -0.30000000000E+02  0.30000000000E+02  0.00000000000E+00 0. -1.
         23    2    1    2    0    0  0.00000000000E+00  0.00000000000E+00  0.00000000000E+00  0.60000000000E+02  0.60000000000E+02 0.  0.
          5    1    3    3  501    0 -0.11080564073E+02 -0.62088571989E+01 -0.26769034202E+02  0.30000000000E+02  0.47000000000E+01 0. -1.
         -5    1    3    3    0  501  0.11080564073E+02  0.62088571989E+01  0.26769034202E+02  0.30000000000E+02  0.47000000000E+01 0.  1.
</event>
<event>
 5    1  0.7673937E-002  0.6000000E+02  0.7546771E-02  0.1259629E+00
         11   -1    0    0    0    0  0.00000000000E+00  0.00000000000E+00  0.30000000000E+02  0.30000000000E+02  0.00000000000E+00 0.  1.
        -11   -1    0    0    0    0 -0.00000000000E+00 -0.00000000000E+00 -0.30000000000E+02  0.30000000000E+02  0.00000000000E+00 0. -1.
         23    2    1    2    0    0  0.00000000000E+00  0.00000000000E+00  0.00000000000E+00  0.60000000000E+02  0.60000000000E+02 0.  0.
          5    1    3    3  501    0 -0.25611806766E+02 -0.44056143860E+01 -0.14231511377E+02  0.30000000000E+02  0.47000000000E+01 0. -1.
         -5    1    3    3    0  501  0.25611806766E+02  0.44056143860E+01  0.14231511377E+02  0.30000000000E+02  0.47000000000E+01 0.  1.
</event>
<event>
 5    1  0.7673937E-002  0.6000000E+02  0.7546771E-02  0.1259629E+00
         11   -1    0    0    0    0  0.00000000000E+00  0.00000000000E+00  0.30000000000E+02  0.30000000000E+02  0.00000000000E+00 0.  1.
        -11   -1    0    0    0    0 -0.00000000000E+00 -0.00000000000E+00 -0.30000000000E+02  0.30000000000E+02  0.00000000000E+00 0. -1.
         23    2    1    2    0    0  0.00000000000E+00  0.00000000000E+00  0.00000000000E+00  0.60000000000E+02  0.60000000000E+02 0.  0.
          5    1    3    3  501    0 -0.71729892269E+01 -0.14571388890E+02 -0.24781703964E+02  0.30000000000E+02  0.47000000000E+01 0. -1.
         -5    1    3    3    0  501  0.71729892269E+01  0.14571388890E+02  0.24781703964E+02  0.30000000000E+02  0.47000000000E+01 0.  1.
</event>
<event>
 5    1  0.7673937E-002  0.6000000E+02  0.7546771E-02  0.1259629E+00
         11   -1    0    0    0    0  0.00000000000E+00  0.00000000000E+00  0.30000000000E+02  0.30000000000E+02  0.00000000000E+00 0.  1.
        -11   -1    0    0    0    0 -0.00000000000E+00 -0.00000000000E+00 -0.30000000000E+02  0.30000000000E+02  0.00000000000E+00 0. -1.
         23    2    1    2    0    0  0.00000000000E+00  0.00000000000E+00  0.00000000000E+00  0.60000000000E+02  0.60000000000E+02 0.  0.
          5    1    3    3  501    0 -0.11017361064E+02  0.22345345241E+02  0.16037870845E+02  0.30000000000E+02  0.47000000000E+01 0.  1.
         -5    1    3    3    0  501  0.11017361064E+02 -0.22345345241E+02 -0.16037870845E+02  0.30000000000E+02  0.47000000000E+01 0. -1.
</event>
<event>
 5    1  0.7673937E-002  0.6000000E+02  0.7546771E-02  0.1259629E+00
         11   -1    0    0    0    0  0.00000000000E+00  0.00000000000E+00  0.30000000000E+02  0.30000000000E+02  0.00000000000E+00 0.  1.
        -11   -1    0    0    0    0 -0.00000000000E+00 -0.00000000000E+00 -0.30000000000E+02  0.30000000000E+02  0.00000000000E+00 0. -1.
         23    2    1    2    0    0  0.00000000000E+00  0.00000000000E+00  0.00000000000E+00  0.60000000000E+02  0.60000000000E+02 0.  0.
          5    1    3    3  501    0  0.11566534154E+02  0.11201493970E+02 -0.24872712368E+02  0.30000000000E+02  0.47000000000E+01 0. -1.
         -5    1    3    3    0  501 -0.11566534154E+02 -0.11201493970E+02  0.24872712368E+02  0.30000000000E+02  0.47000000000E+01 0.  1.
</event>
<event>
 5    1  0.7673937E-002  0.6000000E+02  0.7546771E-02  0.1259629E+00
         11   -1    0    0    0    0  0.00000000000E+00  0.00000000000E+00  0.30000000000E+02  0.30000000000E+02  0.00000000000E+00 0.  1.
        -11   -1    0    0    0    0 -0.00000000000E+00 -0.00000000000E+00 -0.30000000000E+02  0.30000000000E+02  0.00000000000E+00 0. -1.
         23    2    1    2    0    0  0.00000000000E+00  0.00000000000E+00  0.00000000000E+00  0.60000000000E+02  0.60000000000E+02 0.  0.
          5    1    3    3  501    0  0.22379479637E+02 -0.10570812448E+02 -0.16288855556E+02  0.30000000000E+02  0.47000000000E+01 0. -1.
         -5    1    3    3    0  501 -0.22379479637E+02  0.10570812448E+02  0.16288855556E+02  0.30000000000E+02  0.47000000000E+01 0.  1.
</event>
<event>
 5    1  0.7673937E-002  0.6000000E+02  0.7546771E-02  0.1259629E+00
         11   -1    0    0    0    0  0.00000000000E+00  0.00000000000E+00  0.30000000000E+02  0.30000000000E+02  0.00000000000E+00 0.  1.
        -11   -1    0    0    0    0 -0.00000000000E+00 -0.00000000000E+00 -0.30000000000E+02  0.30000000000E+02  0.00000000000E+00 0. -1.
         23    2    1    2    0    0  0.00000000000E+00  0.00000000000E+00  0.00000000000E+00  0.60000000000E+02  0.60000000000E+02 0.  0.
          5    1    3    3  501    0  0.15919111487E+02  0.17155981580E+02 -0.18170420619E+02  0.30000000000E+02  0.47000000000E+01 0. -1.
         -5    1    3    3    0  501 -0.15919111487E+02 -0.17155981580E+02  0.18170420619E+02  0.30000000000E+02  0.47000000000E+01 0.  1.
</event>
<event>
 5    1  0.7673937E-002  0.6000000E+02  0.7546771E-02  0.1259629E+00
         11   -1    0    0    0    0  0.00000000000E+00  0.00000000000E+00  0.30000000000E+02  0.30000000000E+02  0.00000000000E+00 0.  1.
        -11   -1    0    0    0    0 -0.00000000000E+00 -0.00000000000E+00 -0.30000000000E+02  0.30000000000E+02  0.00000000000E+00 0. -1.
         23    2    1    2    0    0  0.00000000000E+00  0.00000000000E+00  0.00000000000E+00  0.60000000000E+02  0.60000000000E+02 0.  0.
          5    1    3    3  501    0  0.18447716260E+01  0.24226102426E+02 -0.16958855471E+02  0.30000000000E+02  0.47000000000E+01 0. -1.
         -5    1    3    3    0  501 -0.18447716260E+01 -0.24226102426E+02  0.16958855471E+02  0.30000000000E+02  0.47000000000E+01 0.  1.
</event>
<event>
 5    1  0.7673937E-002  0.6000000E+02  0.7546771E-02  0.1259629E+00
         11   -1    0    0    0    0  0.00000000000E+00  0.00000000000E+00  0.30000000000E+02  0.30000000000E+02  0.00000000000E+00 0.  1.
        -11   -1    0    0    0    0 -0.00000000000E+00 -0.00000000000E+00 -0.30000000000E+02  0.30000000000E+02  0.00000000000E+00 0. -1.
         23    2    1    2    0    0  0.00000000000E+00  0.00000000000E+00  0.00000000000E+00  0.60000000000E+02  0.60000000000E+02 0.  0.
          5    1    3    3  501    0  0.18472134390E+02  0.23118664919E+02  0.14891552813E+01  0.30000000000E+02  0.47000000000E+01 0. -1.
         -5    1    3    3    0  501 -0.18472134390E+02 -0.23118664919E+02 -0.14891552813E+01  0.30000000000E+02  0.47000000000E+01 0.  1.
</event>
<event>
 5    1  0.7673937E-002  0.6000000E+02  0.7546771E-02  0.1259629E+00
         11   -1    0    0    0    0  0.00000000000E+00  0.00000000000E+00  0.30000000000E+02  0.30000000000E+02  0.00000000000E+00 0. -1.
        -11   -1    0    0    0    0 -0.00000000000E+00 -0.00000000000E+00 -0.30000000000E+02  0.30000000000E+02  0.00000000000E+00 0.  1.
         23    2    1    2    0    0  0.00000000000E+00  0.00000000000E+00  0.00000000000E+00  0.60000000000E+02  0.60000000000E+02 0.  0.
          5    1    3    3  501    0 -0.82316104096E+00 -0.12911340158E+02 -0.26655763002E+02  0.30000000000E+02  0.47000000000E+01 0.  1.
         -5    1    3    3    0  501  0.82316104096E+00  0.12911340158E+02  0.26655763002E+02  0.30000000000E+02  0.47000000000E+01 0. -1.
</event>
<event>
 5    1  0.7673937E-002  0.6000000E+02  0.7546771E-02  0.1259629E+00
         11   -1    0    0    0    0  0.00000000000E+00  0.00000000000E+00  0.30000000000E+02  0.30000000000E+02  0.00000000000E+00 0. -1.
        -11   -1    0    0    0    0 -0.00000000000E+00 -0.00000000000E+00 -0.30000000000E+02  0.30000000000E+02  0.00000000000E+00 0.  1.
         23    2    1    2    0    0  0.00000000000E+00  0.00000000000E+00  0.00000000000E+00  0.60000000000E+02  0.60000000000E+02 0.  0.
          5    1    3    3  501    0 -0.17804568442E+02 -0.15619359481E+02  0.17802891675E+02  0.30000000000E+02  0.47000000000E+01 0. -1.
         -5    1    3    3    0  501  0.17804568442E+02  0.15619359481E+02 -0.17802891675E+02  0.30000000000E+02  0.47000000000E+01 0.  1.
</event>
<event>
 5    1  0.7673937E-002  0.6000000E+02  0.7546771E-02  0.1259629E+00
         11   -1    0    0    0    0  0.00000000000E+00  0.00000000000E+00  0.30000000000E+02  0.30000000000E+02  0.00000000000E+00 0.  1.
        -11   -1    0    0    0    0 -0.00000000000E+00 -0.00000000000E+00 -0.30000000000E+02  0.30000000000E+02  0.00000000000E+00 0. -1.
         23    2    1    2    0    0  0.00000000000E+00  0.00000000000E+00  0.00000000000E+00  0.60000000000E+02  0.60000000000E+02 0.  0.
          5    1    3    3  501    0 -0.65735964368E+01  0.24464825082E+01 -0.28787367945E+02  0.30000000000E+02  0.47000000000E+01 0. -1.
         -5    1    3    3    0  501  0.65735964368E+01 -0.24464825082E+01  0.28787367945E+02  0.30000000000E+02  0.47000000000E+01 0.  1.
</event>
<event>
 5    1  0.7673937E-002  0.6000000E+02  0.7546771E-02  0.1259629E+00
         11   -1    0    0    0    0  0.00000000000E+00  0.00000000000E+00  0.30000000000E+02  0.30000000000E+02  0.00000000000E+00 0.  1.
        -11   -1    0    0    0    0 -0.00000000000E+00 -0.00000000000E+00 -0.30000000000E+02  0.30000000000E+02  0.00000000000E+00 0. -1.
         23    2    1    2    0    0  0.00000000000E+00  0.00000000000E+00  0.00000000000E+00  0.60000000000E+02  0.60000000000E+02 0.  0.
          5    1    3    3  501    0  0.24392592821E+02  0.16810598039E+02  0.56143478495E+00  0.30000000000E+02  0.47000000000E+01 0. -1.
         -5    1    3    3    0  501 -0.24392592821E+02 -0.16810598039E+02 -0.56143478495E+00  0.30000000000E+02  0.47000000000E+01 0.  1.
</event>
<event>
 5    1  0.7673937E-002  0.6000000E+02  0.7546771E-02  0.1259629E+00
         11   -1    0    0    0    0  0.00000000000E+00  0.00000000000E+00  0.30000000000E+02  0.30000000000E+02  0.00000000000E+00 0.  1.
        -11   -1    0    0    0    0 -0.00000000000E+00 -0.00000000000E+00 -0.30000000000E+02  0.30000000000E+02  0.00000000000E+00 0. -1.
         23    2    1    2    0    0  0.00000000000E+00  0.00000000000E+00  0.00000000000E+00  0.60000000000E+02  0.60000000000E+02 0.  0.
          5    1    3    3  501    0 -0.21920084137E+01 -0.15225188583E+02 -0.25323876712E+02  0.30000000000E+02  0.47000000000E+01 0. -1.
         -5    1    3    3    0  501  0.21920084137E+01  0.15225188583E+02  0.25323876712E+02  0.30000000000E+02  0.47000000000E+01 0.  1.
</event>
<event>
 5    1  0.7673937E-002  0.6000000E+02  0.7546771E-02  0.1259629E+00
         11   -1    0    0    0    0  0.00000000000E+00  0.00000000000E+00  0.30000000000E+02  0.30000000000E+02  0.00000000000E+00 0.  1.
        -11   -1    0    0    0    0 -0.00000000000E+00 -0.00000000000E+00 -0.30000000000E+02  0.30000000000E+02  0.00000000000E+00 0. -1.
         23    2    1    2    0    0  0.00000000000E+00  0.00000000000E+00  0.00000000000E+00  0.60000000000E+02  0.60000000000E+02 0.  0.
          5    1    3    3  501    0  0.22610716346E+01  0.23242567887E+02 -0.18236792292E+02  0.30000000000E+02  0.47000000000E+01 0. -1.
         -5    1    3    3    0  501 -0.22610716346E+01 -0.23242567887E+02  0.18236792292E+02  0.30000000000E+02  0.47000000000E+01 0.  1.
</event>
<event>
 5    1  0.7673937E-002  0.6000000E+02  0.7546771E-02  0.1259629E+00
         11   -1    0    0    0    0  0.00000000000E+00  0.00000000000E+00  0.30000000000E+02  0.30000000000E+02  0.00000000000E+00 0.  1.
        -11   -1    0    0    0    0 -0.00000000000E+00 -0.00000000000E+00 -0.30000000000E+02  0.30000000000E+02  0.00000000000E+00 0. -1.
         23    2    1    2    0    0  0.00000000000E+00  0.00000000000E+00  0.00000000000E+00  0.60000000000E+02  0.60000000000E+02 0.  0.
          5    1    3    3  501    0 -0.17881200227E+02  0.22521397192E+02 -0.71385815800E+01  0.30000000000E+02  0.47000000000E+01 0. -1.
         -5    1    3    3    0  501  0.17881200227E+02 -0.22521397192E+02  0.71385815800E+01  0.30000000000E+02  0.47000000000E+01 0.  1.
</event>
<event>
 5    1  0.7673937E-002  0.6000000E+02  0.7546771E-02  0.1259629E+00
         11   -1    0    0    0    0  0.00000000000E+00  0.00000000000E+00  0.30000000000E+02  0.30000000000E+02  0.00000000000E+00 0.  1.
        -11   -1    0    0    0    0 -0.00000000000E+00 -0.00000000000E+00 -0.30000000000E+02  0.30000000000E+02  0.00000000000E+00 0. -1.
         23    2    1    2    0    0  0.00000000000E+00  0.00000000000E+00  0.00000000000E+00  0.60000000000E+02  0.60000000000E+02 0.  0.
          5    1    3    3  501    0 -0.15261555449E+01 -0.23624045793E+02 -0.17818117455E+02  0.30000000000E+02  0.47000000000E+01 0. -1.
         -5    1    3    3    0  501  0.15261555449E+01  0.23624045793E+02  0.17818117455E+02  0.30000000000E+02  0.47000000000E+01 0.  1.
</event>
<event>
 5    1  0.7673937E-002  0.6000000E+02  0.7546771E-02  0.1259629E+00
         11   -1    0    0    0    0  0.00000000000E+00  0.00000000000E+00  0.30000000000E+02  0.30000000000E+02  0.00000000000E+00 0.  1.
        -11   -1    0    0    0    0 -0.00000000000E+00 -0.00000000000E+00 -0.30000000000E+02  0.30000000000E+02  0.00000000000E+00 0. -1.
         23    2    1    2    0    0  0.00000000000E+00  0.00000000000E+00  0.00000000000E+00  0.60000000000E+02  0.60000000000E+02 0.  0.
          5    1    3    3  501    0 -0.21349535688E+02  0.11447411223E+02  0.17060600875E+02  0.30000000000E+02  0.47000000000E+01 0. -1.
         -5    1    3    3    0  501  0.21349535688E+02 -0.11447411223E+02 -0.17060600875E+02  0.30000000000E+02  0.47000000000E+01 0. -1.
</event>
<event>
 5    1  0.7673937E-002  0.6000000E+02  0.7546771E-02  0.1259629E+00
         11   -1    0    0    0    0  0.00000000000E+00  0.00000000000E+00  0.30000000000E+02  0.30000000000E+02  0.00000000000E+00 0.  1.
        -11   -1    0    0    0    0 -0.00000000000E+00 -0.00000000000E+00 -0.30000000000E+02  0.30000000000E+02  0.00000000000E+00 0. -1.
         23    2    1    2    0    0  0.00000000000E+00  0.00000000000E+00  0.00000000000E+00  0.60000000000E+02  0.60000000000E+02 0.  0.
          5    1    3    3  501    0  0.25220947363E+02 -0.80711633971E+01 -0.13291731848E+02  0.30000000000E+02  0.47000000000E+01 0. -1.
         -5    1    3    3    0  501 -0.25220947363E+02  0.80711633971E+01  0.13291731848E+02  0.30000000000E+02  0.47000000000E+01 0.  1.
</event>
<event>
 5    1  0.7673937E-002  0.6000000E+02  0.7546771E-02  0.1259629E+00
         11   -1    0    0    0    0  0.00000000000E+00  0.00000000000E+00  0.30000000000E+02  0.30000000000E+02  0.00000000000E+00 0.  1.
        -11   -1    0    0    0    0 -0.00000000000E+00 -0.00000000000E+00 -0.30000000000E+02  0.30000000000E+02  0.00000000000E+00 0. -1.
         23    2    1    2    0    0  0.00000000000E+00  0.00000000000E+00  0.00000000000E+00  0.60000000000E+02  0.60000000000E+02 0.  0.
          5    1    3    3  501    0 -0.26904153355E+02  0.67901637406E+01 -0.10390871410E+02  0.30000000000E+02  0.47000000000E+01 0. -1.
         -5    1    3    3    0  501  0.26904153355E+02 -0.67901637406E+01  0.10390871410E+02  0.30000000000E+02  0.47000000000E+01 0.  1.
</event>
<event>
 5    1  0.7673937E-002  0.6000000E+02  0.7546771E-02  0.1259629E+00
         11   -1    0    0    0    0  0.00000000000E+00  0.00000000000E+00  0.30000000000E+02  0.30000000000E+02  0.00000000000E+00 0.  1.
        -11   -1    0    0    0    0 -0.00000000000E+00 -0.00000000000E+00 -0.30000000000E+02  0.30000000000E+02  0.00000000000E+00 0. -1.
         23    2    1    2    0    0  0.00000000000E+00  0.00000000000E+00  0.00000000000E+00  0.60000000000E+02  0.60000000000E+02 0.  0.
          5    1    3    3  501    0  0.18946705924E+02 -0.49259365215E+01 -0.22241121465E+02  0.30000000000E+02  0.47000000000E+01 0. -1.
         -5    1    3    3    0  501 -0.18946705924E+02  0.49259365215E+01  0.22241121465E+02  0.30000000000E+02  0.47000000000E+01 0.  1.
</event>
<event>
 5    1  0.7673937E-002  0.6000000E+02  0.7546771E-02  0.1259629E+00
         11   -1    0    0    0    0  0.00000000000E+00  0.00000000000E+00  0.30000000000E+02  0.30000000000E+02  0.00000000000E+00 0.  1.
        -11   -1    0    0    0    0 -0.00000000000E+00 -0.00000000000E+00 -0.30000000000E+02  0.30000000000E+02  0.00000000000E+00 0. -1.
         23    2    1    2    0    0  0.00000000000E+00  0.00000000000E+00  0.00000000000E+00  0.60000000000E+02  0.60000000000E+02 0.  0.
          5    1    3    3  501    0  0.13254362097E+02 -0.16032376449E+02  0.21099639590E+02  0.30000000000E+02  0.47000000000E+01 0.  1.
         -5    1    3    3    0  501 -0.13254362097E+02  0.16032376449E+02 -0.21099639590E+02  0.30000000000E+02  0.47000000000E+01 0. -1.
</event>
<event>
 5    1  0.7673937E-002  0.6000000E+02  0.7546771E-02  0.1259629E+00
         11   -1    0    0    0    0  0.00000000000E+00  0.00000000000E+00  0.30000000000E+02  0.30000000000E+02  0.00000000000E+00 0.  1.
        -11   -1    0    0    0    0 -0.00000000000E+00 -0.00000000000E+00 -0.30000000000E+02  0.30000000000E+02  0.00000000000E+00 0. -1.
         23    2    1    2    0    0  0.00000000000E+00  0.00000000000E+00  0.00000000000E+00  0.60000000000E+02  0.60000000000E+02 0.  0.
          5    1    3    3  501    0 -0.43116243647E+01  0.23168382461E+02 -0.17959564290E+02  0.30000000000E+02  0.47000000000E+01 0. -1.
         -5    1    3    3    0  501  0.43116243647E+01 -0.23168382461E+02  0.17959564290E+02  0.30000000000E+02  0.47000000000E+01 0.  1.
</event>
<event>
 5    1  0.7673937E-002  0.6000000E+02  0.7546771E-02  0.1259629E+00
         11   -1    0    0    0    0  0.00000000000E+00  0.00000000000E+00  0.30000000000E+02  0.30000000000E+02  0.00000000000E+00 0.  1.
        -11   -1    0    0    0    0 -0.00000000000E+00 -0.00000000000E+00 -0.30000000000E+02  0.30000000000E+02  0.00000000000E+00 0. -1.
         23    2    1    2    0    0  0.00000000000E+00  0.00000000000E+00  0.00000000000E+00  0.60000000000E+02  0.60000000000E+02 0.  0.
          5    1    3    3  501    0 -0.12753270416E+02 -0.10046452697E+02 -0.24785739487E+02  0.30000000000E+02  0.47000000000E+01 0. -1.
         -5    1    3    3    0  501  0.12753270416E+02  0.10046452697E+02  0.24785739487E+02  0.30000000000E+02  0.47000000000E+01 0.  1.
</event>
<event>
 5    1  0.7673937E-002  0.6000000E+02  0.7546771E-02  0.1259629E+00
         11   -1    0    0    0    0  0.00000000000E+00  0.00000000000E+00  0.30000000000E+02  0.30000000000E+02  0.00000000000E+00 0. -1.
        -11   -1    0    0    0    0 -0.00000000000E+00 -0.00000000000E+00 -0.30000000000E+02  0.30000000000E+02  0.00000000000E+00 0.  1.
         23    2    1    2    0    0  0.00000000000E+00  0.00000000000E+00  0.00000000000E+00  0.60000000000E+02  0.60000000000E+02 0.  0.
          5    1    3    3  501    0  0.64033090914E+01  0.15717882283E+02 -0.24286947302E+02  0.30000000000E+02  0.47000000000E+01 0.  1.
         -5    1    3    3    0  501 -0.64033090914E+01 -0.15717882283E+02  0.24286947302E+02  0.30000000000E+02  0.47000000000E+01 0. -1.
</event>
<event>
 5    1  0.7673937E-002  0.6000000E+02  0.7546771E-02  0.1259629E+00
         11   -1    0    0    0    0  0.00000000000E+00  0.00000000000E+00  0.30000000000E+02  0.30000000000E+02  0.00000000000E+00 0. -1.
        -11   -1    0    0    0    0 -0.00000000000E+00 -0.00000000000E+00 -0.30000000000E+02  0.30000000000E+02  0.00000000000E+00 0.  1.
         23    2    1    2    0    0  0.00000000000E+00  0.00000000000E+00  0.00000000000E+00  0.60000000000E+02  0.60000000000E+02 0.  0.
          5    1    3    3  501    0  0.66074517611E+01  0.96246718652E+01 -0.27232650857E+02  0.30000000000E+02  0.47000000000E+01 0.  1.
         -5    1    3    3    0  501 -0.66074517611E+01 -0.96246718652E+01  0.27232650857E+02  0.30000000000E+02  0.47000000000E+01 0. -1.
</event>
<event>
 5    1  0.7673937E-002  0.6000000E+02  0.7546771E-02  0.1259629E+00
         11   -1    0    0    0    0  0.00000000000E+00  0.00000000000E+00  0.30000000000E+02  0.30000000000E+02  0.00000000000E+00 0.  1.
        -11   -1    0    0    0    0 -0.00000000000E+00 -0.00000000000E+00 -0.30000000000E+02  0.30000000000E+02  0.00000000000E+00 0. -1.
         23    2    1    2    0    0  0.00000000000E+00  0.00000000000E+00  0.00000000000E+00  0.60000000000E+02  0.60000000000E+02 0.  0.
          5    1    3    3  501    0  0.10496005707E+02  0.17565126190E+02 -0.21429190515E+02  0.30000000000E+02  0.47000000000E+01 0. -1.
         -5    1    3    3    0  501 -0.10496005707E+02 -0.17565126190E+02  0.21429190515E+02  0.30000000000E+02  0.47000000000E+01 0.  1.
</event>
<event>
 5    1  0.7673937E-002  0.6000000E+02  0.7546771E-02  0.1259629E+00
         11   -1    0    0    0    0  0.00000000000E+00  0.00000000000E+00  0.30000000000E+02  0.30000000000E+02  0.00000000000E+00 0.  1.
        -11   -1    0    0    0    0 -0.00000000000E+00 -0.00000000000E+00 -0.30000000000E+02  0.30000000000E+02  0.00000000000E+00 0. -1.
         23    2    1    2    0    0  0.00000000000E+00  0.00000000000E+00  0.00000000000E+00  0.60000000000E+02  0.60000000000E+02 0.  0.
          5    1    3    3  501    0 -0.73652441376E+01  0.12751344163E+02  0.25711211578E+02  0.30000000000E+02  0.47000000000E+01 0.  1.
         -5    1    3    3    0  501  0.73652441376E+01 -0.12751344163E+02 -0.25711211578E+02  0.30000000000E+02  0.47000000000E+01 0. -1.
</event>
<event>
 5    1  0.7673937E-002  0.6000000E+02  0.7546771E-02  0.1259629E+00
         11   -1    0    0    0    0  0.00000000000E+00  0.00000000000E+00  0.30000000000E+02  0.30000000000E+02  0.00000000000E+00 0.  1.
        -11   -1    0    0    0    0 -0.00000000000E+00 -0.00000000000E+00 -0.30000000000E+02  0.30000000000E+02  0.00000000000E+00 0. -1.
         23    2    1    2    0    0  0.00000000000E+00  0.00000000000E+00  0.00000000000E+00  0.60000000000E+02  0.60000000000E+02 0.  0.
          5    1    3    3  501    0 -0.19285593732E+02 -0.16623640770E+02 -0.15153562022E+02  0.30000000000E+02  0.47000000000E+01 0. -1.
         -5    1    3    3    0  501  0.19285593732E+02  0.16623640770E+02  0.15153562022E+02  0.30000000000E+02  0.47000000000E+01 0.  1.
</event>
<event>
 5    1  0.7673937E-002  0.6000000E+02  0.7546771E-02  0.1259629E+00
         11   -1    0    0    0    0  0.00000000000E+00  0.00000000000E+00  0.30000000000E+02  0.30000000000E+02  0.00000000000E+00 0.  1.
        -11   -1    0    0    0    0 -0.00000000000E+00 -0.00000000000E+00 -0.30000000000E+02  0.30000000000E+02  0.00000000000E+00 0. -1.
         23    2    1    2    0    0  0.00000000000E+00  0.00000000000E+00  0.00000000000E+00  0.60000000000E+02  0.60000000000E+02 0.  0.
          5    1    3    3  501    0  0.18941184568E+02  0.84803081254E+00 -0.22768890419E+02  0.30000000000E+02  0.47000000000E+01 0. -1.
         -5    1    3    3    0  501 -0.18941184568E+02 -0.84803081254E+00  0.22768890419E+02  0.30000000000E+02  0.47000000000E+01 0.  1.
</event>
<event>
 5    1  0.7673937E-002  0.6000000E+02  0.7546771E-02  0.1259629E+00
         11   -1    0    0    0    0  0.00000000000E+00  0.00000000000E+00  0.30000000000E+02  0.30000000000E+02  0.00000000000E+00 0.  1.
        -11   -1    0    0    0    0 -0.00000000000E+00 -0.00000000000E+00 -0.30000000000E+02  0.30000000000E+02  0.00000000000E+00 0. -1.
         23    2    1    2    0    0  0.00000000000E+00  0.00000000000E+00  0.00000000000E+00  0.60000000000E+02  0.60000000000E+02 0.  0.
          5    1    3    3  501    0  0.28724116634E+02 -0.65810437422E+01  0.30862577451E+01  0.30000000000E+02  0.47000000000E+01 0. -1.
         -5    1    3    3    0  501 -0.28724116634E+02  0.65810437422E+01 -0.30862577451E+01  0.30000000000E+02  0.47000000000E+01 0.  1.
</event>
<event>
 5    1  0.7673937E-002  0.6000000E+02  0.7546771E-02  0.1259629E+00
         11   -1    0    0    0    0  0.00000000000E+00  0.00000000000E+00  0.30000000000E+02  0.30000000000E+02  0.00000000000E+00 0.  1.
        -11   -1    0    0    0    0 -0.00000000000E+00 -0.00000000000E+00 -0.30000000000E+02  0.30000000000E+02  0.00000000000E+00 0. -1.
         23    2    1    2    0    0  0.00000000000E+00  0.00000000000E+00  0.00000000000E+00  0.60000000000E+02  0.60000000000E+02 0.  0.
          5    1    3    3  501    0  0.96365398347E+01 -0.17213498653E+02 -0.22107522795E+02  0.30000000000E+02  0.47000000000E+01 0. -1.
         -5    1    3    3    0  501 -0.96365398347E+01  0.17213498653E+02  0.22107522795E+02  0.30000000000E+02  0.47000000000E+01 0.  1.
</event>
<event>
 5    1  0.7673937E-002  0.6000000E+02  0.7546771E-02  0.1259629E+00
         11   -1    0    0    0    0  0.00000000000E+00  0.00000000000E+00  0.30000000000E+02  0.30000000000E+02  0.00000000000E+00 0.  1.
        -11   -1    0    0    0    0 -0.00000000000E+00 -0.00000000000E+00 -0.30000000000E+02  0.30000000000E+02  0.00000000000E+00 0. -1.
         23    2    1    2    0    0  0.00000000000E+00  0.00000000000E+00  0.00000000000E+00  0.60000000000E+02  0.60000000000E+02 0.  0.
          5    1    3    3  501    0  0.24397372430E+02 -0.16413166815E+02  0.36450203830E+01  0.30000000000E+02  0.47000000000E+01 0. -1.
         -5    1    3    3    0  501 -0.24397372430E+02  0.16413166815E+02 -0.36450203830E+01  0.30000000000E+02  0.47000000000E+01 0.  1.
</event>
<event>
 5    1  0.7673937E-002  0.6000000E+02  0.7546771E-02  0.1259629E+00
         11   -1    0    0    0    0  0.00000000000E+00  0.00000000000E+00  0.30000000000E+02  0.30000000000E+02  0.00000000000E+00 0.  1.
        -11   -1    0    0    0    0 -0.00000000000E+00 -0.00000000000E+00 -0.30000000000E+02  0.30000000000E+02  0.00000000000E+00 0. -1.
         23    2    1    2    0    0  0.00000000000E+00  0.00000000000E+00  0.00000000000E+00  0.60000000000E+02  0.60000000000E+02 0.  0.
          5    1    3    3  501    0 -0.11142977578E+02 -0.21205381004E+02 -0.17437771279E+02  0.30000000000E+02  0.47000000000E+01 0. -1.
         -5    1    3    3    0  501  0.11142977578E+02  0.21205381004E+02  0.17437771279E+02  0.30000000000E+02  0.47000000000E+01 0.  1.
</event>
<event>
 5    1  0.7673937E-002  0.6000000E+02  0.7546771E-02  0.1259629E+00
         11   -1    0    0    0    0  0.00000000000E+00  0.00000000000E+00  0.30000000000E+02  0.30000000000E+02  0.00000000000E+00 0. -1.
        -11   -1    0    0    0    0 -0.00000000000E+00 -0.00000000000E+00 -0.30000000000E+02  0.30000000000E+02  0.00000000000E+00 0.  1.
         23    2    1    2    0    0  0.00000000000E+00  0.00000000000E+00  0.00000000000E+00  0.60000000000E+02  0.60000000000E+02 0.  0.
          5    1    3    3  501    0  0.16757677714E+02  0.10340609657E+02 -0.22139603193E+02  0.30000000000E+02  0.47000000000E+01 0.  1.
         -5    1    3    3    0  501 -0.16757677714E+02 -0.10340609657E+02  0.22139603193E+02  0.30000000000E+02  0.47000000000E+01 0. -1.
</event>
<event>
 5    1  0.7673937E-002  0.6000000E+02  0.7546771E-02  0.1259629E+00
         11   -1    0    0    0    0  0.00000000000E+00  0.00000000000E+00  0.30000000000E+02  0.30000000000E+02  0.00000000000E+00 0.  1.
        -11   -1    0    0    0    0 -0.00000000000E+00 -0.00000000000E+00 -0.30000000000E+02  0.30000000000E+02  0.00000000000E+00 0. -1.
         23    2    1    2    0    0  0.00000000000E+00  0.00000000000E+00  0.00000000000E+00  0.60000000000E+02  0.60000000000E+02 0.  0.
          5    1    3    3  501    0 -0.67463534432E+01  0.15389921679E+02  0.24403832198E+02  0.30000000000E+02  0.47000000000E+01 0.  1.
         -5    1    3    3    0  501  0.67463534432E+01 -0.15389921679E+02 -0.24403832198E+02  0.30000000000E+02  0.47000000000E+01 0. -1.
</event>
<event>
 5    1  0.7673937E-002  0.6000000E+02  0.7546771E-02  0.1259629E+00
         11   -1    0    0    0    0  0.00000000000E+00  0.00000000000E+00  0.30000000000E+02  0.30000000000E+02  0.00000000000E+00 0. -1.
        -11   -1    0    0    0    0 -0.00000000000E+00 -0.00000000000E+00 -0.30000000000E+02  0.30000000000E+02  0.00000000000E+00 0.  1.
         23    2    1    2    0    0  0.00000000000E+00  0.00000000000E+00  0.00000000000E+00  0.60000000000E+02  0.60000000000E+02 0.  0.
          5    1    3    3  501    0  0.20058396110E+02  0.12764607764E+02  0.17681502598E+02  0.30000000000E+02  0.47000000000E+01 0.  1.
         -5    1    3    3    0  501 -0.20058396110E+02 -0.12764607764E+02 -0.17681502598E+02  0.30000000000E+02  0.47000000000E+01 0. -1.
</event>
<event>
 5    1  0.7673937E-002  0.6000000E+02  0.7546771E-02  0.1259629E+00
         11   -1    0    0    0    0  0.00000000000E+00  0.00000000000E+00  0.30000000000E+02  0.30000000000E+02  0.00000000000E+00 0.  1.
        -11   -1    0    0    0    0 -0.00000000000E+00 -0.00000000000E+00 -0.30000000000E+02  0.30000000000E+02  0.00000000000E+00 0. -1.
         23    2    1    2    0    0  0.00000000000E+00  0.00000000000E+00  0.00000000000E+00  0.60000000000E+02  0.60000000000E+02 0.  0.
          5    1    3    3  501    0  0.57184569081E+01  0.11883372649E+01 -0.29048185918E+02  0.30000000000E+02  0.47000000000E+01 0. -1.
         -5    1    3    3    0  501 -0.57184569081E+01 -0.11883372649E+01  0.29048185918E+02  0.30000000000E+02  0.47000000000E+01 0.  1.
</event>
<event>
 5    1  0.7673937E-002  0.6000000E+02  0.7546771E-02  0.1259629E+00
         11   -1    0    0    0    0  0.00000000000E+00  0.00000000000E+00  0.30000000000E+02  0.30000000000E+02  0.00000000000E+00 0.  1.
        -11   -1    0    0    0    0 -0.00000000000E+00 -0.00000000000E+00 -0.30000000000E+02  0.30000000000E+02  0.00000000000E+00 0. -1.
         23    2    1    2    0    0  0.00000000000E+00  0.00000000000E+00  0.00000000000E+00  0.60000000000E+02  0.60000000000E+02 0.  0.
          5    1    3    3  501    0  0.16970861538E+02 -0.20405832250E+02  0.13172010812E+02  0.30000000000E+02  0.47000000000E+01 0. -1.
         -5    1    3    3    0  501 -0.16970861538E+02  0.20405832250E+02 -0.13172010812E+02  0.30000000000E+02  0.47000000000E+01 0.  1.
</event>
<event>
 5    1  0.7673937E-002  0.6000000E+02  0.7546771E-02  0.1259629E+00
         11   -1    0    0    0    0  0.00000000000E+00  0.00000000000E+00  0.30000000000E+02  0.30000000000E+02  0.00000000000E+00 0. -1.
        -11   -1    0    0    0    0 -0.00000000000E+00 -0.00000000000E+00 -0.30000000000E+02  0.30000000000E+02  0.00000000000E+00 0.  1.
         23    2    1    2    0    0  0.00000000000E+00  0.00000000000E+00  0.00000000000E+00  0.60000000000E+02  0.60000000000E+02 0.  0.
          5    1    3    3  501    0 -0.27908999207E+02 -0.15032589939E+01 -0.98355465364E+01  0.30000000000E+02  0.47000000000E+01 0.  1.
         -5    1    3    3    0  501  0.27908999207E+02  0.15032589939E+01  0.98355465364E+01  0.30000000000E+02  0.47000000000E+01 0. -1.
</event>
<event>
 5    1  0.7673937E-002  0.6000000E+02  0.7546771E-02  0.1259629E+00
         11   -1    0    0    0    0  0.00000000000E+00  0.00000000000E+00  0.30000000000E+02  0.30000000000E+02  0.00000000000E+00 0.  1.
        -11   -1    0    0    0    0 -0.00000000000E+00 -0.00000000000E+00 -0.30000000000E+02  0.30000000000E+02  0.00000000000E+00 0. -1.
         23    2    1    2    0    0  0.00000000000E+00  0.00000000000E+00  0.00000000000E+00  0.60000000000E+02  0.60000000000E+02 0.  0.
          5    1    3    3  501    0  0.20950589234E+02  0.13253727404E+02 -0.16227184619E+02  0.30000000000E+02  0.47000000000E+01 0. -1.
         -5    1    3    3    0  501 -0.20950589234E+02 -0.13253727404E+02  0.16227184619E+02  0.30000000000E+02  0.47000000000E+01 0.  1.
</event>
<event>
 5    1  0.7673937E-002  0.6000000E+02  0.7546771E-02  0.1259629E+00
         11   -1    0    0    0    0  0.00000000000E+00  0.00000000000E+00  0.30000000000E+02  0.30000000000E+02  0.00000000000E+00 0.  1.
        -11   -1    0    0    0    0 -0.00000000000E+00 -0.00000000000E+00 -0.30000000000E+02  0.30000000000E+02  0.00000000000E+00 0. -1.
         23    2    1    2    0    0  0.00000000000E+00  0.00000000000E+00  0.00000000000E+00  0.60000000000E+02  0.60000000000E+02 0.  0.
          5    1    3    3  501    0 -0.76070838934E+01  0.14216211032E+01 -0.28601071100E+02  0.30000000000E+02  0.47000000000E+01 0. -1.
         -5    1    3    3    0  501  0.76070838934E+01 -0.14216211032E+01  0.28601071100E+02  0.30000000000E+02  0.47000000000E+01 0.  1.
</event>
<event>
 5    1  0.7673937E-002  0.6000000E+02  0.7546771E-02  0.1259629E+00
         11   -1    0    0    0    0  0.00000000000E+00  0.00000000000E+00  0.30000000000E+02  0.30000000000E+02  0.00000000000E+00 0.  1.
        -11   -1    0    0    0    0 -0.00000000000E+00 -0.00000000000E+00 -0.30000000000E+02  0.30000000000E+02  0.00000000000E+00 0. -1.
         23    2    1    2    0    0  0.00000000000E+00  0.00000000000E+00  0.00000000000E+00  0.60000000000E+02  0.60000000000E+02 0.  0.
          5    1    3    3  501    0 -0.86234572244E+01  0.27919707619E+01 -0.28209056786E+02  0.30000000000E+02  0.47000000000E+01 0. -1.
         -5    1    3    3    0  501  0.86234572244E+01 -0.27919707619E+01  0.28209056786E+02  0.30000000000E+02  0.47000000000E+01 0.  1.
</event>
<event>
 5    1  0.7673937E-002  0.6000000E+02  0.7546771E-02  0.1259629E+00
         11   -1    0    0    0    0  0.00000000000E+00  0.00000000000E+00  0.30000000000E+02  0.30000000000E+02  0.00000000000E+00 0.  1.
        -11   -1    0    0    0    0 -0.00000000000E+00 -0.00000000000E+00 -0.30000000000E+02  0.30000000000E+02  0.00000000000E+00 0. -1.
         23    2    1    2    0    0  0.00000000000E+00  0.00000000000E+00  0.00000000000E+00  0.60000000000E+02  0.60000000000E+02 0.  0.
          5    1    3    3  501    0  0.61243662803E+01 -0.16855331400E+02 -0.23586011555E+02  0.30000000000E+02  0.47000000000E+01 0. -1.
         -5    1    3    3    0  501 -0.61243662803E+01  0.16855331400E+02  0.23586011555E+02  0.30000000000E+02  0.47000000000E+01 0.  1.
</event>
<event>
 5    1  0.7673937E-002  0.6000000E+02  0.7546771E-02  0.1259629E+00
         11   -1    0    0    0    0  0.00000000000E+00  0.00000000000E+00  0.30000000000E+02  0.30000000000E+02  0.00000000000E+00 0. -1.
        -11   -1    0    0    0    0 -0.00000000000E+00 -0.00000000000E+00 -0.30000000000E+02  0.30000000000E+02  0.00000000000E+00 0.  1.
         23    2    1    2    0    0  0.00000000000E+00  0.00000000000E+00  0.00000000000E+00  0.60000000000E+02  0.60000000000E+02 0.  0.
          5    1    3    3  501    0  0.24812732952E+02  0.29703737742E+01 -0.15919018911E+02  0.30000000000E+02  0.47000000000E+01 0.  1.
         -5    1    3    3    0  501 -0.24812732952E+02 -0.29703737742E+01  0.15919018911E+02  0.30000000000E+02  0.47000000000E+01 0. -1.
</event>
<event>
 5    1  0.7673937E-002  0.6000000E+02  0.7546771E-02  0.1259629E+00
         11   -1    0    0    0    0  0.00000000000E+00  0.00000000000E+00  0.30000000000E+02  0.30000000000E+02  0.00000000000E+00 0.  1.
        -11   -1    0    0    0    0 -0.00000000000E+00 -0.00000000000E+00 -0.30000000000E+02  0.30000000000E+02  0.00000000000E+00 0. -1.
         23    2    1    2    0    0  0.00000000000E+00  0.00000000000E+00  0.00000000000E+00  0.60000000000E+02  0.60000000000E+02 0.  0.
          5    1    3    3  501    0 -0.17660995031E+02 -0.59414085945E+01 -0.23036903404E+02  0.30000000000E+02  0.47000000000E+01 0. -1.
         -5    1    3    3    0  501  0.17660995031E+02  0.59414085945E+01  0.23036903404E+02  0.30000000000E+02  0.47000000000E+01 0.  1.
</event>
<event>
 5    1  0.7673937E-002  0.6000000E+02  0.7546771E-02  0.1259629E+00
         11   -1    0    0    0    0  0.00000000000E+00  0.00000000000E+00  0.30000000000E+02  0.30000000000E+02  0.00000000000E+00 0.  1.
        -11   -1    0    0    0    0 -0.00000000000E+00 -0.00000000000E+00 -0.30000000000E+02  0.30000000000E+02  0.00000000000E+00 0. -1.
         23    2    1    2    0    0  0.00000000000E+00  0.00000000000E+00  0.00000000000E+00  0.60000000000E+02  0.60000000000E+02 0.  0.
          5    1    3    3  501    0 -0.16558969727E+02  0.18919081014E+02 -0.15677336993E+02  0.30000000000E+02  0.47000000000E+01 0. -1.
         -5    1    3    3    0  501  0.16558969727E+02 -0.18919081014E+02  0.15677336993E+02  0.30000000000E+02  0.47000000000E+01 0.  1.
</event>
<event>
 5    1  0.7673937E-002  0.6000000E+02  0.7546771E-02  0.1259629E+00
         11   -1    0    0    0    0  0.00000000000E+00  0.00000000000E+00  0.30000000000E+02  0.30000000000E+02  0.00000000000E+00 0.  1.
        -11   -1    0    0    0    0 -0.00000000000E+00 -0.00000000000E+00 -0.30000000000E+02  0.30000000000E+02  0.00000000000E+00 0. -1.
         23    2    1    2    0    0  0.00000000000E+00  0.00000000000E+00  0.00000000000E+00  0.60000000000E+02  0.60000000000E+02 0.  0.
          5    1    3    3  501    0 -0.46105744673E+01 -0.24085316589E+02 -0.16629796388E+02  0.30000000000E+02  0.47000000000E+01 0. -1.
         -5    1    3    3    0  501  0.46105744673E+01  0.24085316589E+02  0.16629796388E+02  0.30000000000E+02  0.47000000000E+01 0.  1.
</event>
<event>
 5    1  0.7673937E-002  0.6000000E+02  0.7546771E-02  0.1259629E+00
         11   -1    0    0    0    0  0.00000000000E+00  0.00000000000E+00  0.30000000000E+02  0.30000000000E+02  0.00000000000E+00 0.  1.
        -11   -1    0    0    0    0 -0.00000000000E+00 -0.00000000000E+00 -0.30000000000E+02  0.30000000000E+02  0.00000000000E+00 0. -1.
         23    2    1    2    0    0  0.00000000000E+00  0.00000000000E+00  0.00000000000E+00  0.60000000000E+02  0.60000000000E+02 0.  0.
          5    1    3    3  501    0 -0.17764053366E+02  0.30822223798E+01 -0.23512726622E+02  0.30000000000E+02  0.47000000000E+01 0. -1.
         -5    1    3    3    0  501  0.17764053366E+02 -0.30822223798E+01  0.23512726622E+02  0.30000000000E+02  0.47000000000E+01 0.  1.
</event>
<event>
 5    1  0.7673937E-002  0.6000000E+02  0.7546771E-02  0.1259629E+00
         11   -1    0    0    0    0  0.00000000000E+00  0.00000000000E+00  0.30000000000E+02  0.30000000000E+02  0.00000000000E+00 0.  1.
        -11   -1    0    0    0    0 -0.00000000000E+00 -0.00000000000E+00 -0.30000000000E+02  0.30000000000E+02  0.00000000000E+00 0. -1.
         23    2    1    2    0    0  0.00000000000E+00  0.00000000000E+00  0.00000000000E+00  0.60000000000E+02  0.60000000000E+02 0.  0.
          5    1    3    3  501    0  0.78469091286E+01  0.23252915629E+02 -0.16602347180E+02  0.30000000000E+02  0.47000000000E+01 0. -1.
         -5    1    3    3    0  501 -0.78469091286E+01 -0.23252915629E+02  0.16602347180E+02  0.30000000000E+02  0.47000000000E+01 0.  1.
</event>
<event>
 5    1  0.7673937E-002  0.6000000E+02  0.7546771E-02  0.1259629E+00
         11   -1    0    0    0    0  0.00000000000E+00  0.00000000000E+00  0.30000000000E+02  0.30000000000E+02  0.00000000000E+00 0.  1.
        -11   -1    0    0    0    0 -0.00000000000E+00 -0.00000000000E+00 -0.30000000000E+02  0.30000000000E+02  0.00000000000E+00 0. -1.
         23    2    1    2    0    0  0.00000000000E+00  0.00000000000E+00  0.00000000000E+00  0.60000000000E+02  0.60000000000E+02 0.  0.
          5    1    3    3  501    0 -0.58199686755E+00 -0.37643362279E+01 -0.29383686842E+02  0.30000000000E+02  0.47000000000E+01 0. -1.
         -5    1    3    3    0  501  0.58199686755E+00  0.37643362279E+01  0.29383686842E+02  0.30000000000E+02  0.47000000000E+01 0.  1.
</event>
<event>
 5    1  0.7673937E-002  0.6000000E+02  0.7546771E-02  0.1259629E+00
         11   -1    0    0    0    0  0.00000000000E+00  0.00000000000E+00  0.30000000000E+02  0.30000000000E+02  0.00000000000E+00 0.  1.
        -11   -1    0    0    0    0 -0.00000000000E+00 -0.00000000000E+00 -0.30000000000E+02  0.30000000000E+02  0.00000000000E+00 0. -1.
         23    2    1    2    0    0  0.00000000000E+00  0.00000000000E+00  0.00000000000E+00  0.60000000000E+02  0.60000000000E+02 0.  0.
          5    1    3    3  501    0  0.16894975132E+01  0.22626301106E+02 -0.19055342988E+02  0.30000000000E+02  0.47000000000E+01 0. -1.
         -5    1    3    3    0  501 -0.16894975132E+01 -0.22626301106E+02  0.19055342988E+02  0.30000000000E+02  0.47000000000E+01 0.  1.
</event>
<event>
 5    1  0.7673937E-002  0.6000000E+02  0.7546771E-02  0.1259629E+00
         11   -1    0    0    0    0  0.00000000000E+00  0.00000000000E+00  0.30000000000E+02  0.30000000000E+02  0.00000000000E+00 0.  1.
        -11   -1    0    0    0    0 -0.00000000000E+00 -0.00000000000E+00 -0.30000000000E+02  0.30000000000E+02  0.00000000000E+00 0. -1.
         23    2    1    2    0    0  0.00000000000E+00  0.00000000000E+00  0.00000000000E+00  0.60000000000E+02  0.60000000000E+02 0.  0.
          5    1    3    3  501    0 -0.17106683881E+02 -0.23527260061E+02 -0.56337732130E+01  0.30000000000E+02  0.47000000000E+01 0. -1.
         -5    1    3    3    0  501  0.17106683881E+02  0.23527260061E+02  0.56337732130E+01  0.30000000000E+02  0.47000000000E+01 0.  1.
</event>
<event>
 5    1  0.7673937E-002  0.6000000E+02  0.7546771E-02  0.1259629E+00
         11   -1    0    0    0    0  0.00000000000E+00  0.00000000000E+00  0.30000000000E+02  0.30000000000E+02  0.00000000000E+00 0. -1.
        -11   -1    0    0    0    0 -0.00000000000E+00 -0.00000000000E+00 -0.30000000000E+02  0.30000000000E+02  0.00000000000E+00 0.  1.
         23    2    1    2    0    0  0.00000000000E+00  0.00000000000E+00  0.00000000000E+00  0.60000000000E+02  0.60000000000E+02 0.  0.
          5    1    3    3  501    0 -0.75234274879E+00 -0.27758051143E+02  0.10336081324E+02  0.30000000000E+02  0.47000000000E+01 0.  1.
         -5    1    3    3    0  501  0.75234274879E+00  0.27758051143E+02 -0.10336081324E+02  0.30000000000E+02  0.47000000000E+01 0. -1.
</event>
<event>
 5    1  0.7673937E-002  0.6000000E+02  0.7546771E-02  0.1259629E+00
         11   -1    0    0    0    0  0.00000000000E+00  0.00000000000E+00  0.30000000000E+02  0.30000000000E+02  0.00000000000E+00 0.  1.
        -11   -1    0    0    0    0 -0.00000000000E+00 -0.00000000000E+00 -0.30000000000E+02  0.30000000000E+02  0.00000000000E+00 0. -1.
         23    2    1    2    0    0  0.00000000000E+00  0.00000000000E+00  0.00000000000E+00  0.60000000000E+02  0.60000000000E+02 0.  0.
          5    1    3    3  501    0 -0.17559163277E+01 -0.19925821741E+02 -0.21858371069E+02  0.30000000000E+02  0.47000000000E+01 0. -1.
         -5    1    3    3    0  501  0.17559163277E+01  0.19925821741E+02  0.21858371069E+02  0.30000000000E+02  0.47000000000E+01 0.  1.
</event>
<event>
 5    1  0.7673937E-002  0.6000000E+02  0.7546771E-02  0.1259629E+00
         11   -1    0    0    0    0  0.00000000000E+00  0.00000000000E+00  0.30000000000E+02  0.30000000000E+02  0.00000000000E+00 0. -1.
        -11   -1    0    0    0    0 -0.00000000000E+00 -0.00000000000E+00 -0.30000000000E+02  0.30000000000E+02  0.00000000000E+00 0.  1.
         23    2    1    2    0    0  0.00000000000E+00  0.00000000000E+00  0.00000000000E+00  0.60000000000E+02  0.60000000000E+02 0.  0.
          5    1    3    3  501    0  0.17856046049E+02  0.13390774805E+02 -0.19487400279E+02  0.30000000000E+02  0.47000000000E+01 0.  1.
         -5    1    3    3    0  501 -0.17856046049E+02 -0.13390774805E+02  0.19487400279E+02  0.30000000000E+02  0.47000000000E+01 0. -1.
</event>
<event>
 5    1  0.7673937E-002  0.6000000E+02  0.7546771E-02  0.1259629E+00
         11   -1    0    0    0    0  0.00000000000E+00  0.00000000000E+00  0.30000000000E+02  0.30000000000E+02  0.00000000000E+00 0.  1.
        -11   -1    0    0    0    0 -0.00000000000E+00 -0.00000000000E+00 -0.30000000000E+02  0.30000000000E+02  0.00000000000E+00 0. -1.
         23    2    1    2    0    0  0.00000000000E+00  0.00000000000E+00  0.00000000000E+00  0.60000000000E+02  0.60000000000E+02 0.  0.
          5    1    3    3  501    0  0.24286999768E+02 -0.13632627598E+02 -0.10109555235E+02  0.30000000000E+02  0.47000000000E+01 0. -1.
         -5    1    3    3    0  501 -0.24286999768E+02  0.13632627598E+02  0.10109555235E+02  0.30000000000E+02  0.47000000000E+01 0.  1.
</event>
<event>
 5    1  0.7673937E-002  0.6000000E+02  0.7546771E-02  0.1259629E+00
         11   -1    0    0    0    0  0.00000000000E+00  0.00000000000E+00  0.30000000000E+02  0.30000000000E+02  0.00000000000E+00 0.  1.
        -11   -1    0    0    0    0 -0.00000000000E+00 -0.00000000000E+00 -0.30000000000E+02  0.30000000000E+02  0.00000000000E+00 0. -1.
         23    2    1    2    0    0  0.00000000000E+00  0.00000000000E+00  0.00000000000E+00  0.60000000000E+02  0.60000000000E+02 0.  0.
          5    1    3    3  501    0  0.17796977084E+02 -0.14224903866E+01 -0.23646440066E+02  0.30000000000E+02  0.47000000000E+01 0. -1.
         -5    1    3    3    0  501 -0.17796977084E+02  0.14224903866E+01  0.23646440066E+02  0.30000000000E+02  0.47000000000E+01 0.  1.
</event>
<event>
 5    1  0.7673937E-002  0.6000000E+02  0.7546771E-02  0.1259629E+00
         11   -1    0    0    0    0  0.00000000000E+00  0.00000000000E+00  0.30000000000E+02  0.30000000000E+02  0.00000000000E+00 0.  1.
        -11   -1    0    0    0    0 -0.00000000000E+00 -0.00000000000E+00 -0.30000000000E+02  0.30000000000E+02  0.00000000000E+00 0. -1.
         23    2    1    2    0    0  0.00000000000E+00  0.00000000000E+00  0.00000000000E+00  0.60000000000E+02  0.60000000000E+02 0.  0.
          5    1    3    3  501    0  0.28929533140E+02  0.41256018563E+01  0.48960720623E+01  0.30000000000E+02  0.47000000000E+01 0. -1.
         -5    1    3    3    0  501 -0.28929533140E+02 -0.41256018563E+01 -0.48960720623E+01  0.30000000000E+02  0.47000000000E+01 0.  1.
</event>
<event>
 5    1  0.7673937E-002  0.6000000E+02  0.7546771E-02  0.1259629E+00
         11   -1    0    0    0    0  0.00000000000E+00  0.00000000000E+00  0.30000000000E+02  0.30000000000E+02  0.00000000000E+00 0.  1.
        -11   -1    0    0    0    0 -0.00000000000E+00 -0.00000000000E+00 -0.30000000000E+02  0.30000000000E+02  0.00000000000E+00 0. -1.
         23    2    1    2    0    0  0.00000000000E+00  0.00000000000E+00  0.00000000000E+00  0.60000000000E+02  0.60000000000E+02 0.  0.
          5    1    3    3  501    0  0.16340798073E+02 -0.74257762632E+01 -0.23574269135E+02  0.30000000000E+02  0.47000000000E+01 0. -1.
         -5    1    3    3    0  501 -0.16340798073E+02  0.74257762632E+01  0.23574269135E+02  0.30000000000E+02  0.47000000000E+01 0.  1.
</event>
<event>
 5    1  0.7673937E-002  0.6000000E+02  0.7546771E-02  0.1259629E+00
         11   -1    0    0    0    0  0.00000000000E+00  0.00000000000E+00  0.30000000000E+02  0.30000000000E+02  0.00000000000E+00 0.  1.
        -11   -1    0    0    0    0 -0.00000000000E+00 -0.00000000000E+00 -0.30000000000E+02  0.30000000000E+02  0.00000000000E+00 0. -1.
         23    2    1    2    0    0  0.00000000000E+00  0.00000000000E+00  0.00000000000E+00  0.60000000000E+02  0.60000000000E+02 0.  0.
          5    1    3    3  501    0 -0.23760963661E+01  0.35998037977E+01 -0.29313914421E+02  0.30000000000E+02  0.47000000000E+01 0. -1.
         -5    1    3    3    0  501  0.23760963661E+01 -0.35998037977E+01  0.29313914421E+02  0.30000000000E+02  0.47000000000E+01 0.  1.
</event>
<event>
 5    1  0.7673937E-002  0.6000000E+02  0.7546771E-02  0.1259629E+00
         11   -1    0    0    0    0  0.00000000000E+00  0.00000000000E+00  0.30000000000E+02  0.30000000000E+02  0.00000000000E+00 0.  1.
        -11   -1    0    0    0    0 -0.00000000000E+00 -0.00000000000E+00 -0.30000000000E+02  0.30000000000E+02  0.00000000000E+00 0. -1.
         23    2    1    2    0    0  0.00000000000E+00  0.00000000000E+00  0.00000000000E+00  0.60000000000E+02  0.60000000000E+02 0.  0.
          5    1    3    3  501    0  0.11042393583E+02 -0.95427961216E+01 -0.25785860198E+02  0.30000000000E+02  0.47000000000E+01 0. -1.
         -5    1    3    3    0  501 -0.11042393583E+02  0.95427961216E+01  0.25785860198E+02  0.30000000000E+02  0.47000000000E+01 0.  1.
</event>
<event>
 5    1  0.7673937E-002  0.6000000E+02  0.7546771E-02  0.1259629E+00
         11   -1    0    0    0    0  0.00000000000E+00  0.00000000000E+00  0.30000000000E+02  0.30000000000E+02  0.00000000000E+00 0.  1.
        -11   -1    0    0    0    0 -0.00000000000E+00 -0.00000000000E+00 -0.30000000000E+02  0.30000000000E+02  0.00000000000E+00 0. -1.
         23    2    1    2    0    0  0.00000000000E+00  0.00000000000E+00  0.00000000000E+00  0.60000000000E+02  0.60000000000E+02 0.  0.
          5    1    3    3  501    0 -0.24649616408E+02  0.51126908106E+01 -0.15625837693E+02  0.30000000000E+02  0.47000000000E+01 0. -1.
         -5    1    3    3    0  501  0.24649616408E+02 -0.51126908106E+01  0.15625837693E+02  0.30000000000E+02  0.47000000000E+01 0.  1.
</event>
<event>
 5    1  0.7673937E-002  0.6000000E+02  0.7546771E-02  0.1259629E+00
         11   -1    0    0    0    0  0.00000000000E+00  0.00000000000E+00  0.30000000000E+02  0.30000000000E+02  0.00000000000E+00 0.  1.
        -11   -1    0    0    0    0 -0.00000000000E+00 -0.00000000000E+00 -0.30000000000E+02  0.30000000000E+02  0.00000000000E+00 0. -1.
         23    2    1    2    0    0  0.00000000000E+00  0.00000000000E+00  0.00000000000E+00  0.60000000000E+02  0.60000000000E+02 0.  0.
          5    1    3    3  501    0 -0.26518097460E+02  0.23926091446E+01 -0.12999074144E+02  0.30000000000E+02  0.47000000000E+01 0. -1.
         -5    1    3    3    0  501  0.26518097460E+02 -0.23926091446E+01  0.12999074144E+02  0.30000000000E+02  0.47000000000E+01 0.  1.
</event>
<event>
 5    1  0.7673937E-002  0.6000000E+02  0.7546771E-02  0.1259629E+00
         11   -1    0    0    0    0  0.00000000000E+00  0.00000000000E+00  0.30000000000E+02  0.30000000000E+02  0.00000000000E+00 0. -1.
        -11   -1    0    0    0    0 -0.00000000000E+00 -0.00000000000E+00 -0.30000000000E+02  0.30000000000E+02  0.00000000000E+00 0.  1.
         23    2    1    2    0    0  0.00000000000E+00  0.00000000000E+00  0.00000000000E+00  0.60000000000E+02  0.60000000000E+02 0.  0.
          5    1    3    3  501    0 -0.25063237719E+02  0.43241431913E+01 -0.15200194101E+02  0.30000000000E+02  0.47000000000E+01 0.  1.
         -5    1    3    3    0  501  0.25063237719E+02 -0.43241431913E+01  0.15200194101E+02  0.30000000000E+02  0.47000000000E+01 0. -1.
</event>
<event>
 5    1  0.7673937E-002  0.6000000E+02  0.7546771E-02  0.1259629E+00
         11   -1    0    0    0    0  0.00000000000E+00  0.00000000000E+00  0.30000000000E+02  0.30000000000E+02  0.00000000000E+00 0. -1.
        -11   -1    0    0    0    0 -0.00000000000E+00 -0.00000000000E+00 -0.30000000000E+02  0.30000000000E+02  0.00000000000E+00 0.  1.
         23    2    1    2    0    0  0.00000000000E+00  0.00000000000E+00  0.00000000000E+00  0.60000000000E+02  0.60000000000E+02 0.  0.
          5    1    3    3  501    0  0.80082623155E+01  0.25303606906E+02 -0.13172137724E+02  0.30000000000E+02  0.47000000000E+01 0.  1.
         -5    1    3    3    0  501 -0.80082623155E+01 -0.25303606906E+02  0.13172137724E+02  0.30000000000E+02  0.47000000000E+01 0. -1.
</event>
<event>
 5    1  0.7673937E-002  0.6000000E+02  0.7546771E-02  0.1259629E+00
         11   -1    0    0    0    0  0.00000000000E+00  0.00000000000E+00  0.30000000000E+02  0.30000000000E+02  0.00000000000E+00 0. -1.
        -11   -1    0    0    0    0 -0.00000000000E+00 -0.00000000000E+00 -0.30000000000E+02  0.30000000000E+02  0.00000000000E+00 0.  1.
         23    2    1    2    0    0  0.00000000000E+00  0.00000000000E+00  0.00000000000E+00  0.60000000000E+02  0.60000000000E+02 0.  0.
          5    1    3    3  501    0 -0.12886914728E+02 -0.25863848589E+02  0.65497148749E+01  0.30000000000E+02  0.47000000000E+01 0. -1.
         -5    1    3    3    0  501  0.12886914728E+02  0.25863848589E+02 -0.65497148749E+01  0.30000000000E+02  0.47000000000E+01 0.  1.
</event>
<event>
 5    1  0.7673937E-002  0.6000000E+02  0.7546771E-02  0.1259629E+00
         11   -1    0    0    0    0  0.00000000000E+00  0.00000000000E+00  0.30000000000E+02  0.30000000000E+02  0.00000000000E+00 0.  1.
        -11   -1    0    0    0    0 -0.00000000000E+00 -0.00000000000E+00 -0.30000000000E+02  0.30000000000E+02  0.00000000000E+00 0. -1.
         23    2    1    2    0    0  0.00000000000E+00  0.00000000000E+00  0.00000000000E+00  0.60000000000E+02  0.60000000000E+02 0.  0.
          5    1    3    3  501    0  0.15435201773E+02 -0.99185571310E+01 -0.23265570499E+02  0.30000000000E+02  0.47000000000E+01 0. -1.
         -5    1    3    3    0  501 -0.15435201773E+02  0.99185571310E+01  0.23265570499E+02  0.30000000000E+02  0.47000000000E+01 0.  1.
</event>
<event>
 5    1  0.7673937E-002  0.6000000E+02  0.7546771E-02  0.1259629E+00
         11   -1    0    0    0    0  0.00000000000E+00  0.00000000000E+00  0.30000000000E+02  0.30000000000E+02  0.00000000000E+00 0.  1.
        -11   -1    0    0    0    0 -0.00000000000E+00 -0.00000000000E+00 -0.30000000000E+02  0.30000000000E+02  0.00000000000E+00 0. -1.
         23    2    1    2    0    0  0.00000000000E+00  0.00000000000E+00  0.00000000000E+00  0.60000000000E+02  0.60000000000E+02 0.  0.
          5    1    3    3  501    0 -0.87695753177E+00 -0.18116092134E+02 -0.23429642577E+02  0.30000000000E+02  0.47000000000E+01 0. -1.
         -5    1    3    3    0  501  0.87695753177E+00  0.18116092134E+02  0.23429642577E+02  0.30000000000E+02  0.47000000000E+01 0.  1.
</event>
<event>
 5    1  0.7673937E-002  0.6000000E+02  0.7546771E-02  0.1259629E+00
         11   -1    0    0    0    0  0.00000000000E+00  0.00000000000E+00  0.30000000000E+02  0.30000000000E+02  0.00000000000E+00 0. -1.
        -11   -1    0    0    0    0 -0.00000000000E+00 -0.00000000000E+00 -0.30000000000E+02  0.30000000000E+02  0.00000000000E+00 0.  1.
         23    2    1    2    0    0  0.00000000000E+00  0.00000000000E+00  0.00000000000E+00  0.60000000000E+02  0.60000000000E+02 0.  0.
          5    1    3    3  501    0  0.39342854603E+01  0.16375258994E+02 -0.24377905792E+02  0.30000000000E+02  0.47000000000E+01 0.  1.
         -5    1    3    3    0  501 -0.39342854603E+01 -0.16375258994E+02  0.24377905792E+02  0.30000000000E+02  0.47000000000E+01 0. -1.
</event>
<event>
 5    1  0.7673937E-002  0.6000000E+02  0.7546771E-02  0.1259629E+00
         11   -1    0    0    0    0  0.00000000000E+00  0.00000000000E+00  0.30000000000E+02  0.30000000000E+02  0.00000000000E+00 0.  1.
        -11   -1    0    0    0    0 -0.00000000000E+00 -0.00000000000E+00 -0.30000000000E+02  0.30000000000E+02  0.00000000000E+00 0. -1.
         23    2    1    2    0    0  0.00000000000E+00  0.00000000000E+00  0.00000000000E+00  0.60000000000E+02  0.60000000000E+02 0.  0.
          5    1    3    3  501    0 -0.85102453182E+01  0.20055271623E+02  0.20081628538E+02  0.30000000000E+02  0.47000000000E+01 0. -1.
         -5    1    3    3    0  501  0.85102453182E+01 -0.20055271623E+02 -0.20081628538E+02  0.30000000000E+02  0.47000000000E+01 0.  1.
</event>
<event>
 5    1  0.7673937E-002  0.6000000E+02  0.7546771E-02  0.1259629E+00
         11   -1    0    0    0    0  0.00000000000E+00  0.00000000000E+00  0.30000000000E+02  0.30000000000E+02  0.00000000000E+00 0.  1.
        -11   -1    0    0    0    0 -0.00000000000E+00 -0.00000000000E+00 -0.30000000000E+02  0.30000000000E+02  0.00000000000E+00 0. -1.
         23    2    1    2    0    0  0.00000000000E+00  0.00000000000E+00  0.00000000000E+00  0.60000000000E+02  0.60000000000E+02 0.  0.
          5    1    3    3  501    0  0.16877901737E+02 -0.20071008394E+02 -0.13791339855E+02  0.30000000000E+02  0.47000000000E+01 0. -1.
         -5    1    3    3    0  501 -0.16877901737E+02  0.20071008394E+02  0.13791339855E+02  0.30000000000E+02  0.47000000000E+01 0.  1.
</event>
<event>
 5    1  0.7673937E-002  0.6000000E+02  0.7546771E-02  0.1259629E+00
         11   -1    0    0    0    0  0.00000000000E+00  0.00000000000E+00  0.30000000000E+02  0.30000000000E+02  0.00000000000E+00 0. -1.
        -11   -1    0    0    0    0 -0.00000000000E+00 -0.00000000000E+00 -0.30000000000E+02  0.30000000000E+02  0.00000000000E+00 0.  1.
         23    2    1    2    0    0  0.00000000000E+00  0.00000000000E+00  0.00000000000E+00  0.60000000000E+02  0.60000000000E+02 0.  0.
          5    1    3    3  501    0 -0.13221395985E+02  0.25005598323E+02 -0.88218331838E+01  0.30000000000E+02  0.47000000000E+01 0.  1.
         -5    1    3    3    0  501  0.13221395985E+02 -0.25005598323E+02  0.88218331838E+01  0.30000000000E+02  0.47000000000E+01 0. -1.
</event>
<event>
 5    1  0.7673937E-002  0.6000000E+02  0.7546771E-02  0.1259629E+00
         11   -1    0    0    0    0  0.00000000000E+00  0.00000000000E+00  0.30000000000E+02  0.30000000000E+02  0.00000000000E+00 0. -1.
        -11   -1    0    0    0    0 -0.00000000000E+00 -0.00000000000E+00 -0.30000000000E+02  0.30000000000E+02  0.00000000000E+00 0.  1.
         23    2    1    2    0    0  0.00000000000E+00  0.00000000000E+00  0.00000000000E+00  0.60000000000E+02  0.60000000000E+02 0.  0.
          5    1    3    3  501    0 -0.16166295027E+01 -0.79861236666E+01 -0.28487160930E+02  0.30000000000E+02  0.47000000000E+01 0.  1.
         -5    1    3    3    0  501  0.16166295027E+01  0.79861236666E+01  0.28487160930E+02  0.30000000000E+02  0.47000000000E+01 0. -1.
</event>
<event>
 5    1  0.7673937E-002  0.6000000E+02  0.7546771E-02  0.1259629E+00
         11   -1    0    0    0    0  0.00000000000E+00  0.00000000000E+00  0.30000000000E+02  0.30000000000E+02  0.00000000000E+00 0.  1.
        -11   -1    0    0    0    0 -0.00000000000E+00 -0.00000000000E+00 -0.30000000000E+02  0.30000000000E+02  0.00000000000E+00 0. -1.
         23    2    1    2    0    0  0.00000000000E+00  0.00000000000E+00  0.00000000000E+00  0.60000000000E+02  0.60000000000E+02 0.  0.
          5    1    3    3  501    0  0.12297075185E+02  0.56292558983E+01 -0.26362917516E+02  0.30000000000E+02  0.47000000000E+01 0. -1.
         -5    1    3    3    0  501 -0.12297075185E+02 -0.56292558983E+01  0.26362917516E+02  0.30000000000E+02  0.47000000000E+01 0.  1.
</event>
<event>
 5    1  0.7673937E-002  0.6000000E+02  0.7546771E-02  0.1259629E+00
         11   -1    0    0    0    0  0.00000000000E+00  0.00000000000E+00  0.30000000000E+02  0.30000000000E+02  0.00000000000E+00 0.  1.
        -11   -1    0    0    0    0 -0.00000000000E+00 -0.00000000000E+00 -0.30000000000E+02  0.30000000000E+02  0.00000000000E+00 0. -1.
         23    2    1    2    0    0  0.00000000000E+00  0.00000000000E+00  0.00000000000E+00  0.60000000000E+02  0.60000000000E+02 0.  0.
          5    1    3    3  501    0  0.12723293646E+02  0.93311282337E+00 -0.26742421342E+02  0.30000000000E+02  0.47000000000E+01 0. -1.
         -5    1    3    3    0  501 -0.12723293646E+02 -0.93311282337E+00  0.26742421342E+02  0.30000000000E+02  0.47000000000E+01 0.  1.
</event>
<event>
 5    1  0.7673937E-002  0.6000000E+02  0.7546771E-02  0.1259629E+00
         11   -1    0    0    0    0  0.00000000000E+00  0.00000000000E+00  0.30000000000E+02  0.30000000000E+02  0.00000000000E+00 0. -1.
        -11   -1    0    0    0    0 -0.00000000000E+00 -0.00000000000E+00 -0.30000000000E+02  0.30000000000E+02  0.00000000000E+00 0.  1.
         23    2    1    2    0    0  0.00000000000E+00  0.00000000000E+00  0.00000000000E+00  0.60000000000E+02  0.60000000000E+02 0.  0.
          5    1    3    3  501    0 -0.15548249340E-01 -0.17688459134E+02 -0.23770321237E+02  0.30000000000E+02  0.47000000000E+01 0.  1.
         -5    1    3    3    0  501  0.15548249340E-01  0.17688459134E+02  0.23770321237E+02  0.30000000000E+02  0.47000000000E+01 0. -1.
</event>
<event>
 5    1  0.7673937E-002  0.6000000E+02  0.7546771E-02  0.1259629E+00
         11   -1    0    0    0    0  0.00000000000E+00  0.00000000000E+00  0.30000000000E+02  0.30000000000E+02  0.00000000000E+00 0.  1.
        -11   -1    0    0    0    0 -0.00000000000E+00 -0.00000000000E+00 -0.30000000000E+02  0.30000000000E+02  0.00000000000E+00 0. -1.
         23    2    1    2    0    0  0.00000000000E+00  0.00000000000E+00  0.00000000000E+00  0.60000000000E+02  0.60000000000E+02 0.  0.
          5    1    3    3  501    0 -0.15575527188E+01  0.77468789345E+01 -0.28556433536E+02  0.30000000000E+02  0.47000000000E+01 0. -1.
         -5    1    3    3    0  501  0.15575527188E+01 -0.77468789345E+01  0.28556433536E+02  0.30000000000E+02  0.47000000000E+01 0.  1.
</event>
<event>
 5    1  0.7673937E-002  0.6000000E+02  0.7546771E-02  0.1259629E+00
         11   -1    0    0    0    0  0.00000000000E+00  0.00000000000E+00  0.30000000000E+02  0.30000000000E+02  0.00000000000E+00 0.  1.
        -11   -1    0    0    0    0 -0.00000000000E+00 -0.00000000000E+00 -0.30000000000E+02  0.30000000000E+02  0.00000000000E+00 0. -1.
         23    2    1    2    0    0  0.00000000000E+00  0.00000000000E+00  0.00000000000E+00  0.60000000000E+02  0.60000000000E+02 0.  0.
          5    1    3    3  501    0 -0.54944858666E+01 -0.97643043339E+01 -0.27429527629E+02  0.30000000000E+02  0.47000000000E+01 0. -1.
         -5    1    3    3    0  501  0.54944858666E+01  0.97643043339E+01  0.27429527629E+02  0.30000000000E+02  0.47000000000E+01 0.  1.
</event>
<event>
 5    1  0.7673937E-002  0.6000000E+02  0.7546771E-02  0.1259629E+00
         11   -1    0    0    0    0  0.00000000000E+00  0.00000000000E+00  0.30000000000E+02  0.30000000000E+02  0.00000000000E+00 0.  1.
        -11   -1    0    0    0    0 -0.00000000000E+00 -0.00000000000E+00 -0.30000000000E+02  0.30000000000E+02  0.00000000000E+00 0. -1.
         23    2    1    2    0    0  0.00000000000E+00  0.00000000000E+00  0.00000000000E+00  0.60000000000E+02  0.60000000000E+02 0.  0.
          5    1    3    3  501    0  0.20439745918E+02  0.55788999345E+01 -0.20712379446E+02  0.30000000000E+02  0.47000000000E+01 0. -1.
         -5    1    3    3    0  501 -0.20439745918E+02 -0.55788999345E+01  0.20712379446E+02  0.30000000000E+02  0.47000000000E+01 0.  1.
</event>
<event>
 5    1  0.7673937E-002  0.6000000E+02  0.7546771E-02  0.1259629E+00
         11   -1    0    0    0    0  0.00000000000E+00  0.00000000000E+00  0.30000000000E+02  0.30000000000E+02  0.00000000000E+00 0.  1.
        -11   -1    0    0    0    0 -0.00000000000E+00 -0.00000000000E+00 -0.30000000000E+02  0.30000000000E+02  0.00000000000E+00 0. -1.
         23    2    1    2    0    0  0.00000000000E+00  0.00000000000E+00  0.00000000000E+00  0.60000000000E+02  0.60000000000E+02 0.  0.
          5    1    3    3  501    0 -0.25601602176E+02 -0.13261265190E+02 -0.68269181633E+01  0.30000000000E+02  0.47000000000E+01 0. -1.
         -5    1    3    3    0  501  0.25601602176E+02  0.13261265190E+02  0.68269181633E+01  0.30000000000E+02  0.47000000000E+01 0.  1.
</event>
<event>
 5    1  0.7673937E-002  0.6000000E+02  0.7546771E-02  0.1259629E+00
         11   -1    0    0    0    0  0.00000000000E+00  0.00000000000E+00  0.30000000000E+02  0.30000000000E+02  0.00000000000E+00 0. -1.
        -11   -1    0    0    0    0 -0.00000000000E+00 -0.00000000000E+00 -0.30000000000E+02  0.30000000000E+02  0.00000000000E+00 0.  1.
         23    2    1    2    0    0  0.00000000000E+00  0.00000000000E+00  0.00000000000E+00  0.60000000000E+02  0.60000000000E+02 0.  0.
          5    1    3    3  501    0  0.20350026157E+02  0.53702388724E+00 -0.21529004639E+02  0.30000000000E+02  0.47000000000E+01 0.  1.
         -5    1    3    3    0  501 -0.20350026157E+02 -0.53702388724E+00  0.21529004639E+02  0.30000000000E+02  0.47000000000E+01 0. -1.
</event>
<event>
 5    1  0.7673937E-002  0.6000000E+02  0.7546771E-02  0.1259629E+00
         11   -1    0    0    0    0  0.00000000000E+00  0.00000000000E+00  0.30000000000E+02  0.30000000000E+02  0.00000000000E+00 0. -1.
        -11   -1    0    0    0    0 -0.00000000000E+00 -0.00000000000E+00 -0.30000000000E+02  0.30000000000E+02  0.00000000000E+00 0.  1.
         23    2    1    2    0    0  0.00000000000E+00  0.00000000000E+00  0.00000000000E+00  0.60000000000E+02  0.60000000000E+02 0.  0.
          5    1    3    3  501    0 -0.12309280288E+02 -0.26949874910E+02  0.30961451067E+00  0.30000000000E+02  0.47000000000E+01 0.  1.
         -5    1    3    3    0  501  0.12309280288E+02  0.26949874910E+02 -0.30961451067E+00  0.30000000000E+02  0.47000000000E+01 0. -1.
</event>
<event>
 5    1  0.7673937E-002  0.6000000E+02  0.7546771E-02  0.1259629E+00
         11   -1    0    0    0    0  0.00000000000E+00  0.00000000000E+00  0.30000000000E+02  0.30000000000E+02  0.00000000000E+00 0.  1.
        -11   -1    0    0    0    0 -0.00000000000E+00 -0.00000000000E+00 -0.30000000000E+02  0.30000000000E+02  0.00000000000E+00 0. -1.
         23    2    1    2    0    0  0.00000000000E+00  0.00000000000E+00  0.00000000000E+00  0.60000000000E+02  0.60000000000E+02 0.  0.
          5    1    3    3  501    0  0.27347379979E+02 -0.11391799497E+02 -0.50765390589E+00  0.30000000000E+02  0.47000000000E+01 0. -1.
         -5    1    3    3    0  501 -0.27347379979E+02  0.11391799497E+02  0.50765390589E+00  0.30000000000E+02  0.47000000000E+01 0.  1.
</event>
<event>
 5    1  0.7673937E-002  0.6000000E+02  0.7546771E-02  0.1259629E+00
         11   -1    0    0    0    0  0.00000000000E+00  0.00000000000E+00  0.30000000000E+02  0.30000000000E+02  0.00000000000E+00 0.  1.
        -11   -1    0    0    0    0 -0.00000000000E+00 -0.00000000000E+00 -0.30000000000E+02  0.30000000000E+02  0.00000000000E+00 0. -1.
         23    2    1    2    0    0  0.00000000000E+00  0.00000000000E+00  0.00000000000E+00  0.60000000000E+02  0.60000000000E+02 0.  0.
          5    1    3    3  501    0  0.15541654157E+02 -0.75366837790E+01 -0.24074164237E+02  0.30000000000E+02  0.47000000000E+01 0. -1.
         -5    1    3    3    0  501 -0.15541654157E+02  0.75366837790E+01  0.24074164237E+02  0.30000000000E+02  0.47000000000E+01 0.  1.
</event>
<event>
 5    1  0.7673937E-002  0.6000000E+02  0.7546771E-02  0.1259629E+00
         11   -1    0    0    0    0  0.00000000000E+00  0.00000000000E+00  0.30000000000E+02  0.30000000000E+02  0.00000000000E+00 0.  1.
        -11   -1    0    0    0    0 -0.00000000000E+00 -0.00000000000E+00 -0.30000000000E+02  0.30000000000E+02  0.00000000000E+00 0. -1.
         23    2    1    2    0    0  0.00000000000E+00  0.00000000000E+00  0.00000000000E+00  0.60000000000E+02  0.60000000000E+02 0.  0.
          5    1    3    3  501    0  0.17808724692E+02  0.43587415481E+00 -0.23676345549E+02  0.30000000000E+02  0.47000000000E+01 0. -1.
         -5    1    3    3    0  501 -0.17808724692E+02 -0.43587415481E+00  0.23676345549E+02  0.30000000000E+02  0.47000000000E+01 0.  1.
</event>
<event>
 5    1  0.7673937E-002  0.6000000E+02  0.7546771E-02  0.1259629E+00
         11   -1    0    0    0    0  0.00000000000E+00  0.00000000000E+00  0.30000000000E+02  0.30000000000E+02  0.00000000000E+00 0.  1.
        -11   -1    0    0    0    0 -0.00000000000E+00 -0.00000000000E+00 -0.30000000000E+02  0.30000000000E+02  0.00000000000E+00 0. -1.
         23    2    1    2    0    0  0.00000000000E+00  0.00000000000E+00  0.00000000000E+00  0.60000000000E+02  0.60000000000E+02 0.  0.
          5    1    3    3  501    0 -0.90858302041E+00 -0.11687959679E+01 -0.29592539480E+02  0.30000000000E+02  0.47000000000E+01 0. -1.
         -5    1    3    3    0  501  0.90858302041E+00  0.11687959679E+01  0.29592539480E+02  0.30000000000E+02  0.47000000000E+01 0.  1.
</event>
<event>
 5    1  0.7673937E-002  0.6000000E+02  0.7546771E-02  0.1259629E+00
         11   -1    0    0    0    0  0.00000000000E+00  0.00000000000E+00  0.30000000000E+02  0.30000000000E+02  0.00000000000E+00 0.  1.
        -11   -1    0    0    0    0 -0.00000000000E+00 -0.00000000000E+00 -0.30000000000E+02  0.30000000000E+02  0.00000000000E+00 0. -1.
         23    2    1    2    0    0  0.00000000000E+00  0.00000000000E+00  0.00000000000E+00  0.60000000000E+02  0.60000000000E+02 0.  0.
          5    1    3    3  501    0  0.23355444661E+02  0.73584280921E+01 -0.16681928567E+02  0.30000000000E+02  0.47000000000E+01 0. -1.
         -5    1    3    3    0  501 -0.23355444661E+02 -0.73584280921E+01  0.16681928567E+02  0.30000000000E+02  0.47000000000E+01 0.  1.
</event>
<event>
 5    1  0.7673937E-002  0.6000000E+02  0.7546771E-02  0.1259629E+00
         11   -1    0    0    0    0  0.00000000000E+00  0.00000000000E+00  0.30000000000E+02  0.30000000000E+02  0.00000000000E+00 0. -1.
        -11   -1    0    0    0    0 -0.00000000000E+00 -0.00000000000E+00 -0.30000000000E+02  0.30000000000E+02  0.00000000000E+00 0.  1.
         23    2    1    2    0    0  0.00000000000E+00  0.00000000000E+00  0.00000000000E+00  0.60000000000E+02  0.60000000000E+02 0.  0.
          5    1    3    3  501    0 -0.27765103358E+02  0.36807731141E+01 -0.96675200945E+01  0.30000000000E+02  0.47000000000E+01 0.  1.
         -5    1    3    3    0  501  0.27765103358E+02 -0.36807731141E+01  0.96675200945E+01  0.30000000000E+02  0.47000000000E+01 0. -1.
</event>
<event>
 5    1  0.7673937E-002  0.6000000E+02  0.7546771E-02  0.1259629E+00
         11   -1    0    0    0    0  0.00000000000E+00  0.00000000000E+00  0.30000000000E+02  0.30000000000E+02  0.00000000000E+00 0. -1.
        -11   -1    0    0    0    0 -0.00000000000E+00 -0.00000000000E+00 -0.30000000000E+02  0.30000000000E+02  0.00000000000E+00 0.  1.
         23    2    1    2    0    0  0.00000000000E+00  0.00000000000E+00  0.00000000000E+00  0.60000000000E+02  0.60000000000E+02 0.  0.
          5    1    3    3  501    0  0.20941489477E+02 -0.11315683490E+02  0.17644243414E+02  0.30000000000E+02  0.47000000000E+01 0. -1.
         -5    1    3    3    0  501 -0.20941489477E+02  0.11315683490E+02 -0.17644243414E+02  0.30000000000E+02  0.47000000000E+01 0.  1.
</event>
<event>
 5    1  0.7673937E-002  0.6000000E+02  0.7546771E-02  0.1259629E+00
         11   -1    0    0    0    0  0.00000000000E+00  0.00000000000E+00  0.30000000000E+02  0.30000000000E+02  0.00000000000E+00 0. -1.
        -11   -1    0    0    0    0 -0.00000000000E+00 -0.00000000000E+00 -0.30000000000E+02  0.30000000000E+02  0.00000000000E+00 0.  1.
         23    2    1    2    0    0  0.00000000000E+00  0.00000000000E+00  0.00000000000E+00  0.60000000000E+02  0.60000000000E+02 0.  0.
          5    1    3    3  501    0 -0.67598876199E+01  0.17721635870E+02 -0.22763074077E+02  0.30000000000E+02  0.47000000000E+01 0.  1.
         -5    1    3    3    0  501  0.67598876199E+01 -0.17721635870E+02  0.22763074077E+02  0.30000000000E+02  0.47000000000E+01 0. -1.
</event>
<event>
 5    1  0.7673937E-002  0.6000000E+02  0.7546771E-02  0.1259629E+00
         11   -1    0    0    0    0  0.00000000000E+00  0.00000000000E+00  0.30000000000E+02  0.30000000000E+02  0.00000000000E+00 0.  1.
        -11   -1    0    0    0    0 -0.00000000000E+00 -0.00000000000E+00 -0.30000000000E+02  0.30000000000E+02  0.00000000000E+00 0. -1.
         23    2    1    2    0    0  0.00000000000E+00  0.00000000000E+00  0.00000000000E+00  0.60000000000E+02  0.60000000000E+02 0.  0.
          5    1    3    3  501    0 -0.16655975694E+02 -0.15387355132E+02 -0.19071386308E+02  0.30000000000E+02  0.47000000000E+01 0. -1.
         -5    1    3    3    0  501  0.16655975694E+02  0.15387355132E+02  0.19071386308E+02  0.30000000000E+02  0.47000000000E+01 0.  1.
</event>
<event>
 5    1  0.7673937E-002  0.6000000E+02  0.7546771E-02  0.1259629E+00
         11   -1    0    0    0    0  0.00000000000E+00  0.00000000000E+00  0.30000000000E+02  0.30000000000E+02  0.00000000000E+00 0.  1.
        -11   -1    0    0    0    0 -0.00000000000E+00 -0.00000000000E+00 -0.30000000000E+02  0.30000000000E+02  0.00000000000E+00 0. -1.
         23    2    1    2    0    0  0.00000000000E+00  0.00000000000E+00  0.00000000000E+00  0.60000000000E+02  0.60000000000E+02 0.  0.
          5    1    3    3  501    0 -0.16566433459E+02  0.12718335478E+02  0.21016831947E+02  0.30000000000E+02  0.47000000000E+01 0.  1.
         -5    1    3    3    0  501  0.16566433459E+02 -0.12718335478E+02 -0.21016831947E+02  0.30000000000E+02  0.47000000000E+01 0. -1.
</event>
<event>
 5    1  0.7673937E-002  0.6000000E+02  0.7546771E-02  0.1259629E+00
         11   -1    0    0    0    0  0.00000000000E+00  0.00000000000E+00  0.30000000000E+02  0.30000000000E+02  0.00000000000E+00 0.  1.
        -11   -1    0    0    0    0 -0.00000000000E+00 -0.00000000000E+00 -0.30000000000E+02  0.30000000000E+02  0.00000000000E+00 0. -1.
         23    2    1    2    0    0  0.00000000000E+00  0.00000000000E+00  0.00000000000E+00  0.60000000000E+02  0.60000000000E+02 0.  0.
          5    1    3    3  501    0  0.25555506785E+02  0.78293610274E+01  0.12787774585E+02  0.30000000000E+02  0.47000000000E+01 0. -1.
         -5    1    3    3    0  501 -0.25555506785E+02 -0.78293610274E+01 -0.12787774585E+02  0.30000000000E+02  0.47000000000E+01 0.  1.
</event>
<event>
 5    1  0.7673937E-002  0.6000000E+02  0.7546771E-02  0.1259629E+00
         11   -1    0    0    0    0  0.00000000000E+00  0.00000000000E+00  0.30000000000E+02  0.30000000000E+02  0.00000000000E+00 0. -1.
        -11   -1    0    0    0    0 -0.00000000000E+00 -0.00000000000E+00 -0.30000000000E+02  0.30000000000E+02  0.00000000000E+00 0.  1.
         23    2    1    2    0    0  0.00000000000E+00  0.00000000000E+00  0.00000000000E+00  0.60000000000E+02  0.60000000000E+02 0.  0.
          5    1    3    3  501    0  0.14927377583E+02 -0.21306001959E+02 -0.14182301612E+02  0.30000000000E+02  0.47000000000E+01 0.  1.
         -5    1    3    3    0  501 -0.14927377583E+02  0.21306001959E+02  0.14182301612E+02  0.30000000000E+02  0.47000000000E+01 0. -1.
</event>
<event>
 5    1  0.7673937E-002  0.6000000E+02  0.7546771E-02  0.1259629E+00
         11   -1    0    0    0    0  0.00000000000E+00  0.00000000000E+00  0.30000000000E+02  0.30000000000E+02  0.00000000000E+00 0. -1.
        -11   -1    0    0    0    0 -0.00000000000E+00 -0.00000000000E+00 -0.30000000000E+02  0.30000000000E+02  0.00000000000E+00 0.  1.
         23    2    1    2    0    0  0.00000000000E+00  0.00000000000E+00  0.00000000000E+00  0.60000000000E+02  0.60000000000E+02 0.  0.
          5    1    3    3  501    0  0.16271343479E+02 -0.20815656414E+02  0.13411257565E+02  0.30000000000E+02  0.47000000000E+01 0.  1.
         -5    1    3    3    0  501 -0.16271343479E+02  0.20815656414E+02 -0.13411257565E+02  0.30000000000E+02  0.47000000000E+01 0. -1.
</event>
<event>
 5    1  0.7673937E-002  0.6000000E+02  0.7546771E-02  0.1259629E+00
         11   -1    0    0    0    0  0.00000000000E+00  0.00000000000E+00  0.30000000000E+02  0.30000000000E+02  0.00000000000E+00 0.  1.
        -11   -1    0    0    0    0 -0.00000000000E+00 -0.00000000000E+00 -0.30000000000E+02  0.30000000000E+02  0.00000000000E+00 0. -1.
         23    2    1    2    0    0  0.00000000000E+00  0.00000000000E+00  0.00000000000E+00  0.60000000000E+02  0.60000000000E+02 0.  0.
          5    1    3    3  501    0 -0.23732034495E+02  0.17677727012E+02  0.14827361251E+01  0.30000000000E+02  0.47000000000E+01 0. -1.
         -5    1    3    3    0  501  0.23732034495E+02 -0.17677727012E+02 -0.14827361251E+01  0.30000000000E+02  0.47000000000E+01 0.  1.
</event>
<event>
 5    1  0.7673937E-002  0.6000000E+02  0.7546771E-02  0.1259629E+00
         11   -1    0    0    0    0  0.00000000000E+00  0.00000000000E+00  0.30000000000E+02  0.30000000000E+02  0.00000000000E+00 0. -1.
        -11   -1    0    0    0    0 -0.00000000000E+00 -0.00000000000E+00 -0.30000000000E+02  0.30000000000E+02  0.00000000000E+00 0.  1.
         23    2    1    2    0    0  0.00000000000E+00  0.00000000000E+00  0.00000000000E+00  0.60000000000E+02  0.60000000000E+02 0.  0.
          5    1    3    3  501    0 -0.11450052557E+02 -0.23614002009E+02 -0.13754461297E+02  0.30000000000E+02  0.47000000000E+01 0.  1.
         -5    1    3    3    0  501  0.11450052557E+02  0.23614002009E+02  0.13754461297E+02  0.30000000000E+02  0.47000000000E+01 0. -1.
</event>
<event>
 5    1  0.7673937E-002  0.6000000E+02  0.7546771E-02  0.1259629E+00
         11   -1    0    0    0    0  0.00000000000E+00  0.00000000000E+00  0.30000000000E+02  0.30000000000E+02  0.00000000000E+00 0.  1.
        -11   -1    0    0    0    0 -0.00000000000E+00 -0.00000000000E+00 -0.30000000000E+02  0.30000000000E+02  0.00000000000E+00 0. -1.
         23    2    1    2    0    0  0.00000000000E+00  0.00000000000E+00  0.00000000000E+00  0.60000000000E+02  0.60000000000E+02 0.  0.
          5    1    3    3  501    0 -0.15790541121E+02  0.23537453641E+02 -0.86346445905E+01  0.30000000000E+02  0.47000000000E+01 0. -1.
         -5    1    3    3    0  501  0.15790541121E+02 -0.23537453641E+02  0.86346445905E+01  0.30000000000E+02  0.47000000000E+01 0.  1.
</event>
<event>
 5    1  0.7673937E-002  0.6000000E+02  0.7546771E-02  0.1259629E+00
         11   -1    0    0    0    0  0.00000000000E+00  0.00000000000E+00  0.30000000000E+02  0.30000000000E+02  0.00000000000E+00 0. -1.
        -11   -1    0    0    0    0 -0.00000000000E+00 -0.00000000000E+00 -0.30000000000E+02  0.30000000000E+02  0.00000000000E+00 0.  1.
         23    2    1    2    0    0  0.00000000000E+00  0.00000000000E+00  0.00000000000E+00  0.60000000000E+02  0.60000000000E+02 0.  0.
          5    1    3    3  501    0 -0.36827713167E+01  0.24889963903E+02 -0.15647264691E+02  0.30000000000E+02  0.47000000000E+01 0.  1.
         -5    1    3    3    0  501  0.36827713167E+01 -0.24889963903E+02  0.15647264691E+02  0.30000000000E+02  0.47000000000E+01 0. -1.
</event>
<event>
 5    1  0.7673937E-002  0.6000000E+02  0.7546771E-02  0.1259629E+00
         11   -1    0    0    0    0  0.00000000000E+00  0.00000000000E+00  0.30000000000E+02  0.30000000000E+02  0.00000000000E+00 0. -1.
        -11   -1    0    0    0    0 -0.00000000000E+00 -0.00000000000E+00 -0.30000000000E+02  0.30000000000E+02  0.00000000000E+00 0.  1.
         23    2    1    2    0    0  0.00000000000E+00  0.00000000000E+00  0.00000000000E+00  0.60000000000E+02  0.60000000000E+02 0.  0.
          5    1    3    3  501    0 -0.28261682306E+02 -0.64430160068E+01 -0.61379848441E+01  0.30000000000E+02  0.47000000000E+01 0.  1.
         -5    1    3    3    0  501  0.28261682306E+02  0.64430160068E+01  0.61379848441E+01  0.30000000000E+02  0.47000000000E+01 0. -1.
</event>
<event>
 5    1  0.7673937E-002  0.6000000E+02  0.7546771E-02  0.1259629E+00
         11   -1    0    0    0    0  0.00000000000E+00  0.00000000000E+00  0.30000000000E+02  0.30000000000E+02  0.00000000000E+00 0.  1.
        -11   -1    0    0    0    0 -0.00000000000E+00 -0.00000000000E+00 -0.30000000000E+02  0.30000000000E+02  0.00000000000E+00 0. -1.
         23    2    1    2    0    0  0.00000000000E+00  0.00000000000E+00  0.00000000000E+00  0.60000000000E+02  0.60000000000E+02 0.  0.
          5    1    3    3  501    0 -0.15729737404E+02 -0.16966963425E+02 -0.18509660001E+02  0.30000000000E+02  0.47000000000E+01 0. -1.
         -5    1    3    3    0  501  0.15729737404E+02  0.16966963425E+02  0.18509660001E+02  0.30000000000E+02  0.47000000000E+01 0.  1.
</event>
<event>
 5    1  0.7673937E-002  0.6000000E+02  0.7546771E-02  0.1259629E+00
         11   -1    0    0    0    0  0.00000000000E+00  0.00000000000E+00  0.30000000000E+02  0.30000000000E+02  0.00000000000E+00 0.  1.
        -11   -1    0    0    0    0 -0.00000000000E+00 -0.00000000000E+00 -0.30000000000E+02  0.30000000000E+02  0.00000000000E+00 0. -1.
         23    2    1    2    0    0  0.00000000000E+00  0.00000000000E+00  0.00000000000E+00  0.60000000000E+02  0.60000000000E+02 0.  0.
          5    1    3    3  501    0 -0.19522231996E+02  0.93285880835E+01 -0.20242774075E+02  0.30000000000E+02  0.47000000000E+01 0. -1.
         -5    1    3    3    0  501  0.19522231996E+02 -0.93285880835E+01  0.20242774075E+02  0.30000000000E+02  0.47000000000E+01 0.  1.
</event>
<event>
 5    1  0.7673937E-002  0.6000000E+02  0.7546771E-02  0.1259629E+00
         11   -1    0    0    0    0  0.00000000000E+00  0.00000000000E+00  0.30000000000E+02  0.30000000000E+02  0.00000000000E+00 0.  1.
        -11   -1    0    0    0    0 -0.00000000000E+00 -0.00000000000E+00 -0.30000000000E+02  0.30000000000E+02  0.00000000000E+00 0. -1.
         23    2    1    2    0    0  0.00000000000E+00  0.00000000000E+00  0.00000000000E+00  0.60000000000E+02  0.60000000000E+02 0.  0.
          5    1    3    3  501    0 -0.58781219319E+01 -0.17228256941E+02 -0.23378298598E+02  0.30000000000E+02  0.47000000000E+01 0. -1.
         -5    1    3    3    0  501  0.58781219319E+01  0.17228256941E+02  0.23378298598E+02  0.30000000000E+02  0.47000000000E+01 0.  1.
</event>
<event>
 5    1  0.7673937E-002  0.6000000E+02  0.7546771E-02  0.1259629E+00
         11   -1    0    0    0    0  0.00000000000E+00  0.00000000000E+00  0.30000000000E+02  0.30000000000E+02  0.00000000000E+00 0.  1.
        -11   -1    0    0    0    0 -0.00000000000E+00 -0.00000000000E+00 -0.30000000000E+02  0.30000000000E+02  0.00000000000E+00 0. -1.
         23    2    1    2    0    0  0.00000000000E+00  0.00000000000E+00  0.00000000000E+00  0.60000000000E+02  0.60000000000E+02 0.  0.
          5    1    3    3  501    0  0.97640971406E+01  0.18372071974E+01 -0.27914101754E+02  0.30000000000E+02  0.47000000000E+01 0. -1.
         -5    1    3    3    0  501 -0.97640971406E+01 -0.18372071974E+01  0.27914101754E+02  0.30000000000E+02  0.47000000000E+01 0.  1.
</event>
<event>
 5    1  0.7673937E-002  0.6000000E+02  0.7546771E-02  0.1259629E+00
         11   -1    0    0    0    0  0.00000000000E+00  0.00000000000E+00  0.30000000000E+02  0.30000000000E+02  0.00000000000E+00 0. -1.
        -11   -1    0    0    0    0 -0.00000000000E+00 -0.00000000000E+00 -0.30000000000E+02  0.30000000000E+02  0.00000000000E+00 0.  1.
         23    2    1    2    0    0  0.00000000000E+00  0.00000000000E+00  0.00000000000E+00  0.60000000000E+02  0.60000000000E+02 0.  0.
          5    1    3    3  501    0 -0.17316232458E+02  0.16495455624E+02 -0.17491656217E+02  0.30000000000E+02  0.47000000000E+01 0.  1.
         -5    1    3    3    0  501  0.17316232458E+02 -0.16495455624E+02  0.17491656217E+02  0.30000000000E+02  0.47000000000E+01 0. -1.
</event>
<event>
 5    1  0.7673937E-002  0.6000000E+02  0.7546771E-02  0.1259629E+00
         11   -1    0    0    0    0  0.00000000000E+00  0.00000000000E+00  0.30000000000E+02  0.30000000000E+02  0.00000000000E+00 0.  1.
        -11   -1    0    0    0    0 -0.00000000000E+00 -0.00000000000E+00 -0.30000000000E+02  0.30000000000E+02  0.00000000000E+00 0. -1.
         23    2    1    2    0    0  0.00000000000E+00  0.00000000000E+00  0.00000000000E+00  0.60000000000E+02  0.60000000000E+02 0.  0.
          5    1    3    3  501    0 -0.49919371299E+01 -0.19912131286E+01 -0.29138044443E+02  0.30000000000E+02  0.47000000000E+01 0. -1.
         -5    1    3    3    0  501  0.49919371299E+01  0.19912131286E+01  0.29138044443E+02  0.30000000000E+02  0.47000000000E+01 0.  1.
</event>
<event>
 5    1  0.7673937E-002  0.6000000E+02  0.7546771E-02  0.1259629E+00
         11   -1    0    0    0    0  0.00000000000E+00  0.00000000000E+00  0.30000000000E+02  0.30000000000E+02  0.00000000000E+00 0.  1.
        -11   -1    0    0    0    0 -0.00000000000E+00 -0.00000000000E+00 -0.30000000000E+02  0.30000000000E+02  0.00000000000E+00 0. -1.
         23    2    1    2    0    0  0.00000000000E+00  0.00000000000E+00  0.00000000000E+00  0.60000000000E+02  0.60000000000E+02 0.  0.
          5    1    3    3  501    0  0.28681558006E+02 -0.74258415878E+01 -0.36756913456E+00  0.30000000000E+02  0.47000000000E+01 0. -1.
         -5    1    3    3    0  501 -0.28681558006E+02  0.74258415878E+01  0.36756913456E+00  0.30000000000E+02  0.47000000000E+01 0.  1.
</event>
<event>
 5    1  0.7673937E-002  0.6000000E+02  0.7546771E-02  0.1259629E+00
         11   -1    0    0    0    0  0.00000000000E+00  0.00000000000E+00  0.30000000000E+02  0.30000000000E+02  0.00000000000E+00 0.  1.
        -11   -1    0    0    0    0 -0.00000000000E+00 -0.00000000000E+00 -0.30000000000E+02  0.30000000000E+02  0.00000000000E+00 0. -1.
         23    2    1    2    0    0  0.00000000000E+00  0.00000000000E+00  0.00000000000E+00  0.60000000000E+02  0.60000000000E+02 0.  0.
          5    1    3    3  501    0 -0.21812683748E+02 -0.92142113660E+01 -0.17810534428E+02  0.30000000000E+02  0.47000000000E+01 0. -1.
         -5    1    3    3    0  501  0.21812683748E+02  0.92142113660E+01  0.17810534428E+02  0.30000000000E+02  0.47000000000E+01 0.  1.
</event>
<event>
 5    1  0.7673937E-002  0.6000000E+02  0.7546771E-02  0.1259629E+00
         11   -1    0    0    0    0  0.00000000000E+00  0.00000000000E+00  0.30000000000E+02  0.30000000000E+02  0.00000000000E+00 0. -1.
        -11   -1    0    0    0    0 -0.00000000000E+00 -0.00000000000E+00 -0.30000000000E+02  0.30000000000E+02  0.00000000000E+00 0.  1.
         23    2    1    2    0    0  0.00000000000E+00  0.00000000000E+00  0.00000000000E+00  0.60000000000E+02  0.60000000000E+02 0.  0.
          5    1    3    3  501    0 -0.19952864034E+02 -0.15930756207E+02 -0.15033436850E+02  0.30000000000E+02  0.47000000000E+01 0.  1.
         -5    1    3    3    0  501  0.19952864034E+02  0.15930756207E+02  0.15033436850E+02  0.30000000000E+02  0.47000000000E+01 0. -1.
</event>
<event>
 5    1  0.7673937E-002  0.6000000E+02  0.7546771E-02  0.1259629E+00
         11   -1    0    0    0    0  0.00000000000E+00  0.00000000000E+00  0.30000000000E+02  0.30000000000E+02  0.00000000000E+00 0.  1.
        -11   -1    0    0    0    0 -0.00000000000E+00 -0.00000000000E+00 -0.30000000000E+02  0.30000000000E+02  0.00000000000E+00 0. -1.
         23    2    1    2    0    0  0.00000000000E+00  0.00000000000E+00  0.00000000000E+00  0.60000000000E+02  0.60000000000E+02 0.  0.
          5    1    3    3  501    0  0.25560612535E+02 -0.63561245955E+01 -0.13570731998E+02  0.30000000000E+02  0.47000000000E+01 0. -1.
         -5    1    3    3    0  501 -0.25560612535E+02  0.63561245955E+01  0.13570731998E+02  0.30000000000E+02  0.47000000000E+01 0.  1.
</event>
<event>
 5    1  0.7673937E-002  0.6000000E+02  0.7546771E-02  0.1259629E+00
         11   -1    0    0    0    0  0.00000000000E+00  0.00000000000E+00  0.30000000000E+02  0.30000000000E+02  0.00000000000E+00 0.  1.
        -11   -1    0    0    0    0 -0.00000000000E+00 -0.00000000000E+00 -0.30000000000E+02  0.30000000000E+02  0.00000000000E+00 0. -1.
         23    2    1    2    0    0  0.00000000000E+00  0.00000000000E+00  0.00000000000E+00  0.60000000000E+02  0.60000000000E+02 0.  0.
          5    1    3    3  501    0  0.12202712508E+00 -0.10992506052E+02 -0.27514721879E+02  0.30000000000E+02  0.47000000000E+01 0. -1.
         -5    1    3    3    0  501 -0.12202712508E+00  0.10992506052E+02  0.27514721879E+02  0.30000000000E+02  0.47000000000E+01 0.  1.
</event>
<event>
 5    1  0.7673937E-002  0.6000000E+02  0.7546771E-02  0.1259629E+00
         11   -1    0    0    0    0  0.00000000000E+00  0.00000000000E+00  0.30000000000E+02  0.30000000000E+02  0.00000000000E+00 0.  1.
        -11   -1    0    0    0    0 -0.00000000000E+00 -0.00000000000E+00 -0.30000000000E+02  0.30000000000E+02  0.00000000000E+00 0. -1.
         23    2    1    2    0    0  0.00000000000E+00  0.00000000000E+00  0.00000000000E+00  0.60000000000E+02  0.60000000000E+02 0.  0.
          5    1    3    3  501    0 -0.16014536870E+02  0.20678566655E+02 -0.13922696935E+02  0.30000000000E+02  0.47000000000E+01 0. -1.
         -5    1    3    3    0  501  0.16014536870E+02 -0.20678566655E+02  0.13922696935E+02  0.30000000000E+02  0.47000000000E+01 0.  1.
</event>
<event>
 5    1  0.7673937E-002  0.6000000E+02  0.7546771E-02  0.1259629E+00
         11   -1    0    0    0    0  0.00000000000E+00  0.00000000000E+00  0.30000000000E+02  0.30000000000E+02  0.00000000000E+00 0.  1.
        -11   -1    0    0    0    0 -0.00000000000E+00 -0.00000000000E+00 -0.30000000000E+02  0.30000000000E+02  0.00000000000E+00 0. -1.
         23    2    1    2    0    0  0.00000000000E+00  0.00000000000E+00  0.00000000000E+00  0.60000000000E+02  0.60000000000E+02 0.  0.
          5    1    3    3  501    0  0.26595629950E+02  0.10498938344E+02 -0.77688326822E+01  0.30000000000E+02  0.47000000000E+01 0. -1.
         -5    1    3    3    0  501 -0.26595629950E+02 -0.10498938344E+02  0.77688326822E+01  0.30000000000E+02  0.47000000000E+01 0.  1.
</event>
<event>
 5    1  0.7673937E-002  0.6000000E+02  0.7546771E-02  0.1259629E+00
         11   -1    0    0    0    0  0.00000000000E+00  0.00000000000E+00  0.30000000000E+02  0.30000000000E+02  0.00000000000E+00 0.  1.
        -11   -1    0    0    0    0 -0.00000000000E+00 -0.00000000000E+00 -0.30000000000E+02  0.30000000000E+02  0.00000000000E+00 0. -1.
         23    2    1    2    0    0  0.00000000000E+00  0.00000000000E+00  0.00000000000E+00  0.60000000000E+02  0.60000000000E+02 0.  0.
          5    1    3    3  501    0  0.49303247032E+01 -0.67281838252E+01 -0.28431205404E+02  0.30000000000E+02  0.47000000000E+01 0. -1.
         -5    1    3    3    0  501 -0.49303247032E+01  0.67281838252E+01  0.28431205404E+02  0.30000000000E+02  0.47000000000E+01 0.  1.
</event>
<event>
 5    1  0.7673937E-002  0.6000000E+02  0.7546771E-02  0.1259629E+00
         11   -1    0    0    0    0  0.00000000000E+00  0.00000000000E+00  0.30000000000E+02  0.30000000000E+02  0.00000000000E+00 0.  1.
        -11   -1    0    0    0    0 -0.00000000000E+00 -0.00000000000E+00 -0.30000000000E+02  0.30000000000E+02  0.00000000000E+00 0. -1.
         23    2    1    2    0    0  0.00000000000E+00  0.00000000000E+00  0.00000000000E+00  0.60000000000E+02  0.60000000000E+02 0.  0.
          5    1    3    3  501    0 -0.99265160963E+01 -0.22143605502E+02 -0.17001029780E+02  0.30000000000E+02  0.47000000000E+01 0. -1.
         -5    1    3    3    0  501  0.99265160963E+01  0.22143605502E+02  0.17001029780E+02  0.30000000000E+02  0.47000000000E+01 0.  1.
</event>
<event>
 5    1  0.7673937E-002  0.6000000E+02  0.7546771E-02  0.1259629E+00
         11   -1    0    0    0    0  0.00000000000E+00  0.00000000000E+00  0.30000000000E+02  0.30000000000E+02  0.00000000000E+00 0.  1.
        -11   -1    0    0    0    0 -0.00000000000E+00 -0.00000000000E+00 -0.30000000000E+02  0.30000000000E+02  0.00000000000E+00 0. -1.
         23    2    1    2    0    0  0.00000000000E+00  0.00000000000E+00  0.00000000000E+00  0.60000000000E+02  0.60000000000E+02 0.  0.
          5    1    3    3  501    0  0.20790777910E+02 -0.17719899305E+02 -0.11474263485E+02  0.30000000000E+02  0.47000000000E+01 0. -1.
         -5    1    3    3    0  501 -0.20790777910E+02  0.17719899305E+02  0.11474263485E+02  0.30000000000E+02  0.47000000000E+01 0.  1.
</event>
<event>
 5    1  0.7673937E-002  0.6000000E+02  0.7546771E-02  0.1259629E+00
         11   -1    0    0    0    0  0.00000000000E+00  0.00000000000E+00  0.30000000000E+02  0.30000000000E+02  0.00000000000E+00 0.  1.
        -11   -1    0    0    0    0 -0.00000000000E+00 -0.00000000000E+00 -0.30000000000E+02  0.30000000000E+02  0.00000000000E+00 0. -1.
         23    2    1    2    0    0  0.00000000000E+00  0.00000000000E+00  0.00000000000E+00  0.60000000000E+02  0.60000000000E+02 0.  0.
          5    1    3    3  501    0 -0.59505264960E+01 -0.27013360999E+02 -0.10619772218E+02  0.30000000000E+02  0.47000000000E+01 0.  1.
         -5    1    3    3    0  501  0.59505264960E+01  0.27013360999E+02  0.10619772218E+02  0.30000000000E+02  0.47000000000E+01 0. -1.
</event>
<event>
 5    1  0.7673937E-002  0.6000000E+02  0.7546771E-02  0.1259629E+00
         11   -1    0    0    0    0  0.00000000000E+00  0.00000000000E+00  0.30000000000E+02  0.30000000000E+02  0.00000000000E+00 0.  1.
        -11   -1    0    0    0    0 -0.00000000000E+00 -0.00000000000E+00 -0.30000000000E+02  0.30000000000E+02  0.00000000000E+00 0. -1.
         23    2    1    2    0    0  0.00000000000E+00  0.00000000000E+00  0.00000000000E+00  0.60000000000E+02  0.60000000000E+02 0.  0.
          5    1    3    3  501    0 -0.14700158573E+02 -0.25685715482E+02 -0.14350463874E+01  0.30000000000E+02  0.47000000000E+01 0. -1.
         -5    1    3    3    0  501  0.14700158573E+02  0.25685715482E+02  0.14350463874E+01  0.30000000000E+02  0.47000000000E+01 0.  1.
</event>
<event>
 5    1  0.7673937E-002  0.6000000E+02  0.7546771E-02  0.1259629E+00
         11   -1    0    0    0    0  0.00000000000E+00  0.00000000000E+00  0.30000000000E+02  0.30000000000E+02  0.00000000000E+00 0.  1.
        -11   -1    0    0    0    0 -0.00000000000E+00 -0.00000000000E+00 -0.30000000000E+02  0.30000000000E+02  0.00000000000E+00 0. -1.
         23    2    1    2    0    0  0.00000000000E+00  0.00000000000E+00  0.00000000000E+00  0.60000000000E+02  0.60000000000E+02 0.  0.
          5    1    3    3  501    0  0.19558195424E+02  0.16892457527E+01 -0.22193094434E+02  0.30000000000E+02  0.47000000000E+01 0. -1.
         -5    1    3    3    0  501 -0.19558195424E+02 -0.16892457527E+01  0.22193094434E+02  0.30000000000E+02  0.47000000000E+01 0.  1.
</event>
<event>
 5    1  0.7673937E-002  0.6000000E+02  0.7546771E-02  0.1259629E+00
         11   -1    0    0    0    0  0.00000000000E+00  0.00000000000E+00  0.30000000000E+02  0.30000000000E+02  0.00000000000E+00 0.  1.
        -11   -1    0    0    0    0 -0.00000000000E+00 -0.00000000000E+00 -0.30000000000E+02  0.30000000000E+02  0.00000000000E+00 0. -1.
         23    2    1    2    0    0  0.00000000000E+00  0.00000000000E+00  0.00000000000E+00  0.60000000000E+02  0.60000000000E+02 0.  0.
          5    1    3    3  501    0  0.18468062192E+02  0.22749690109E+02  0.43922976691E+01  0.30000000000E+02  0.47000000000E+01 0. -1.
         -5    1    3    3    0  501 -0.18468062192E+02 -0.22749690109E+02 -0.43922976691E+01  0.30000000000E+02  0.47000000000E+01 0.  1.
</event>
<event>
 5    1  0.7673937E-002  0.6000000E+02  0.7546771E-02  0.1259629E+00
         11   -1    0    0    0    0  0.00000000000E+00  0.00000000000E+00  0.30000000000E+02  0.30000000000E+02  0.00000000000E+00 0.  1.
        -11   -1    0    0    0    0 -0.00000000000E+00 -0.00000000000E+00 -0.30000000000E+02  0.30000000000E+02  0.00000000000E+00 0. -1.
         23    2    1    2    0    0  0.00000000000E+00  0.00000000000E+00  0.00000000000E+00  0.60000000000E+02  0.60000000000E+02 0.  0.
          5    1    3    3  501    0 -0.21464518329E+02  0.16809640552E+02  0.11602604768E+02  0.30000000000E+02  0.47000000000E+01 0.  1.
         -5    1    3    3    0  501  0.21464518329E+02 -0.16809640552E+02 -0.11602604768E+02  0.30000000000E+02  0.47000000000E+01 0. -1.
</event>
<event>
 5    1  0.7673937E-002  0.6000000E+02  0.7546771E-02  0.1259629E+00
         11   -1    0    0    0    0  0.00000000000E+00  0.00000000000E+00  0.30000000000E+02  0.30000000000E+02  0.00000000000E+00 0.  1.
        -11   -1    0    0    0    0 -0.00000000000E+00 -0.00000000000E+00 -0.30000000000E+02  0.30000000000E+02  0.00000000000E+00 0. -1.
         23    2    1    2    0    0  0.00000000000E+00  0.00000000000E+00  0.00000000000E+00  0.60000000000E+02  0.60000000000E+02 0.  0.
          5    1    3    3  501    0  0.16858595897E+02  0.13882311275E+02 -0.20024464488E+02  0.30000000000E+02  0.47000000000E+01 0. -1.
         -5    1    3    3    0  501 -0.16858595897E+02 -0.13882311275E+02  0.20024464488E+02  0.30000000000E+02  0.47000000000E+01 0.  1.
</event>
<event>
 5    1  0.7673937E-002  0.6000000E+02  0.7546771E-02  0.1259629E+00
         11   -1    0    0    0    0  0.00000000000E+00  0.00000000000E+00  0.30000000000E+02  0.30000000000E+02  0.00000000000E+00 0.  1.
        -11   -1    0    0    0    0 -0.00000000000E+00 -0.00000000000E+00 -0.30000000000E+02  0.30000000000E+02  0.00000000000E+00 0. -1.
         23    2    1    2    0    0  0.00000000000E+00  0.00000000000E+00  0.00000000000E+00  0.60000000000E+02  0.60000000000E+02 0.  0.
          5    1    3    3  501    0  0.20131111315E+02 -0.10560708820E+02 -0.19003152013E+02  0.30000000000E+02  0.47000000000E+01 0. -1.
         -5    1    3    3    0  501 -0.20131111315E+02  0.10560708820E+02  0.19003152013E+02  0.30000000000E+02  0.47000000000E+01 0.  1.
</event>
<event>
 5    1  0.7673937E-002  0.6000000E+02  0.7546771E-02  0.1259629E+00
         11   -1    0    0    0    0  0.00000000000E+00  0.00000000000E+00  0.30000000000E+02  0.30000000000E+02  0.00000000000E+00 0.  1.
        -11   -1    0    0    0    0 -0.00000000000E+00 -0.00000000000E+00 -0.30000000000E+02  0.30000000000E+02  0.00000000000E+00 0. -1.
         23    2    1    2    0    0  0.00000000000E+00  0.00000000000E+00  0.00000000000E+00  0.60000000000E+02  0.60000000000E+02 0.  0.
          5    1    3    3  501    0  0.65616910195E+01  0.14982951164E+02 -0.24705573974E+02  0.30000000000E+02  0.47000000000E+01 0. -1.
         -5    1    3    3    0  501 -0.65616910195E+01 -0.14982951164E+02  0.24705573974E+02  0.30000000000E+02  0.47000000000E+01 0.  1.
</event>
<event>
 5    1  0.7673937E-002  0.6000000E+02  0.7546771E-02  0.1259629E+00
         11   -1    0    0    0    0  0.00000000000E+00  0.00000000000E+00  0.30000000000E+02  0.30000000000E+02  0.00000000000E+00 0.  1.
        -11   -1    0    0    0    0 -0.00000000000E+00 -0.00000000000E+00 -0.30000000000E+02  0.30000000000E+02  0.00000000000E+00 0. -1.
         23    2    1    2    0    0  0.00000000000E+00  0.00000000000E+00  0.00000000000E+00  0.60000000000E+02  0.60000000000E+02 0.  0.
          5    1    3    3  501    0 -0.30013122002E+01  0.26584469696E+02 -0.12734523786E+02  0.30000000000E+02  0.47000000000E+01 0. -1.
         -5    1    3    3    0  501  0.30013122002E+01 -0.26584469696E+02  0.12734523786E+02  0.30000000000E+02  0.47000000000E+01 0.  1.
</event>
<event>
 5    1  0.7673937E-002  0.6000000E+02  0.7546771E-02  0.1259629E+00
         11   -1    0    0    0    0  0.00000000000E+00  0.00000000000E+00  0.30000000000E+02  0.30000000000E+02  0.00000000000E+00 0.  1.
        -11   -1    0    0    0    0 -0.00000000000E+00 -0.00000000000E+00 -0.30000000000E+02  0.30000000000E+02  0.00000000000E+00 0. -1.
         23    2    1    2    0    0  0.00000000000E+00  0.00000000000E+00  0.00000000000E+00  0.60000000000E+02  0.60000000000E+02 0.  0.
          5    1    3    3  501    0  0.25389761449E+02 -0.14749032506E+02  0.39668695073E+01  0.30000000000E+02  0.47000000000E+01 0.  1.
         -5    1    3    3    0  501 -0.25389761449E+02  0.14749032506E+02 -0.39668695073E+01  0.30000000000E+02  0.47000000000E+01 0. -1.
</event>
<event>
 5    1  0.7673937E-002  0.6000000E+02  0.7546771E-02  0.1259629E+00
         11   -1    0    0    0    0  0.00000000000E+00  0.00000000000E+00  0.30000000000E+02  0.30000000000E+02  0.00000000000E+00 0.  1.
        -11   -1    0    0    0    0 -0.00000000000E+00 -0.00000000000E+00 -0.30000000000E+02  0.30000000000E+02  0.00000000000E+00 0. -1.
         23    2    1    2    0    0  0.00000000000E+00  0.00000000000E+00  0.00000000000E+00  0.60000000000E+02  0.60000000000E+02 0.  0.
          5    1    3    3  501    0  0.16572824385E+02  0.26122993049E+01 -0.24421862833E+02  0.30000000000E+02  0.47000000000E+01 0. -1.
         -5    1    3    3    0  501 -0.16572824385E+02 -0.26122993049E+01  0.24421862833E+02  0.30000000000E+02  0.47000000000E+01 0.  1.
</event>
<event>
 5    1  0.7673937E-002  0.6000000E+02  0.7546771E-02  0.1259629E+00
         11   -1    0    0    0    0  0.00000000000E+00  0.00000000000E+00  0.30000000000E+02  0.30000000000E+02  0.00000000000E+00 0.  1.
        -11   -1    0    0    0    0 -0.00000000000E+00 -0.00000000000E+00 -0.30000000000E+02  0.30000000000E+02  0.00000000000E+00 0. -1.
         23    2    1    2    0    0  0.00000000000E+00  0.00000000000E+00  0.00000000000E+00  0.60000000000E+02  0.60000000000E+02 0.  0.
          5    1    3    3  501    0 -0.17280067443E+01  0.28523485768E+02 -0.78316506775E+01  0.30000000000E+02  0.47000000000E+01 0. -1.
         -5    1    3    3    0  501  0.17280067443E+01 -0.28523485768E+02  0.78316506775E+01  0.30000000000E+02  0.47000000000E+01 0.  1.
</event>
<event>
 5    1  0.7673937E-002  0.6000000E+02  0.7546771E-02  0.1259629E+00
         11   -1    0    0    0    0  0.00000000000E+00  0.00000000000E+00  0.30000000000E+02  0.30000000000E+02  0.00000000000E+00 0. -1.
        -11   -1    0    0    0    0 -0.00000000000E+00 -0.00000000000E+00 -0.30000000000E+02  0.30000000000E+02  0.00000000000E+00 0.  1.
         23    2    1    2    0    0  0.00000000000E+00  0.00000000000E+00  0.00000000000E+00  0.60000000000E+02  0.60000000000E+02 0.  0.
          5    1    3    3  501    0 -0.62201374855E+01 -0.15613318994E+02 -0.24401724522E+02  0.30000000000E+02  0.47000000000E+01 0.  1.
         -5    1    3    3    0  501  0.62201374855E+01  0.15613318994E+02  0.24401724522E+02  0.30000000000E+02  0.47000000000E+01 0. -1.
</event>
<event>
 5    1  0.7673937E-002  0.6000000E+02  0.7546771E-02  0.1259629E+00
         11   -1    0    0    0    0  0.00000000000E+00  0.00000000000E+00  0.30000000000E+02  0.30000000000E+02  0.00000000000E+00 0.  1.
        -11   -1    0    0    0    0 -0.00000000000E+00 -0.00000000000E+00 -0.30000000000E+02  0.30000000000E+02  0.00000000000E+00 0. -1.
         23    2    1    2    0    0  0.00000000000E+00  0.00000000000E+00  0.00000000000E+00  0.60000000000E+02  0.60000000000E+02 0.  0.
          5    1    3    3  501    0  0.23778058096E+02 -0.11097816657E+02 -0.13760538457E+02  0.30000000000E+02  0.47000000000E+01 0. -1.
         -5    1    3    3    0  501 -0.23778058096E+02  0.11097816657E+02  0.13760538457E+02  0.30000000000E+02  0.47000000000E+01 0.  1.
</event>
<event>
 5    1  0.7673937E-002  0.6000000E+02  0.7546771E-02  0.1259629E+00
         11   -1    0    0    0    0  0.00000000000E+00  0.00000000000E+00  0.30000000000E+02  0.30000000000E+02  0.00000000000E+00 0.  1.
        -11   -1    0    0    0    0 -0.00000000000E+00 -0.00000000000E+00 -0.30000000000E+02  0.30000000000E+02  0.00000000000E+00 0. -1.
         23    2    1    2    0    0  0.00000000000E+00  0.00000000000E+00  0.00000000000E+00  0.60000000000E+02  0.60000000000E+02 0.  0.
          5    1    3    3  501    0  0.26213967113E+02 -0.10097986760E+02 -0.94217085286E+01  0.30000000000E+02  0.47000000000E+01 0. -1.
         -5    1    3    3    0  501 -0.26213967113E+02  0.10097986760E+02  0.94217085286E+01  0.30000000000E+02  0.47000000000E+01 0.  1.
</event>
<event>
 5    1  0.7673937E-002  0.6000000E+02  0.7546771E-02  0.1259629E+00
         11   -1    0    0    0    0  0.00000000000E+00  0.00000000000E+00  0.30000000000E+02  0.30000000000E+02  0.00000000000E+00 0. -1.
        -11   -1    0    0    0    0 -0.00000000000E+00 -0.00000000000E+00 -0.30000000000E+02  0.30000000000E+02  0.00000000000E+00 0.  1.
         23    2    1    2    0    0  0.00000000000E+00  0.00000000000E+00  0.00000000000E+00  0.60000000000E+02  0.60000000000E+02 0.  0.
          5    1    3    3  501    0  0.25948245148E+01  0.89251956699E+01 -0.28133925570E+02  0.30000000000E+02  0.47000000000E+01 0.  1.
         -5    1    3    3    0  501 -0.25948245148E+01 -0.89251956699E+01  0.28133925570E+02  0.30000000000E+02  0.47000000000E+01 0. -1.
</event>
<event>
 5    1  0.7673937E-002  0.6000000E+02  0.7546771E-02  0.1259629E+00
         11   -1    0    0    0    0  0.00000000000E+00  0.00000000000E+00  0.30000000000E+02  0.30000000000E+02  0.00000000000E+00 0. -1.
        -11   -1    0    0    0    0 -0.00000000000E+00 -0.00000000000E+00 -0.30000000000E+02  0.30000000000E+02  0.00000000000E+00 0.  1.
         23    2    1    2    0    0  0.00000000000E+00  0.00000000000E+00  0.00000000000E+00  0.60000000000E+02  0.60000000000E+02 0.  0.
          5    1    3    3  501    0 -0.67795880605E+01 -0.24507234513E+02 -0.15209952079E+02  0.30000000000E+02  0.47000000000E+01 0.  1.
         -5    1    3    3    0  501  0.67795880605E+01  0.24507234513E+02  0.15209952079E+02  0.30000000000E+02  0.47000000000E+01 0. -1.
</event>
<event>
 5    1  0.7673937E-002  0.6000000E+02  0.7546771E-02  0.1259629E+00
         11   -1    0    0    0    0  0.00000000000E+00  0.00000000000E+00  0.30000000000E+02  0.30000000000E+02  0.00000000000E+00 0.  1.
        -11   -1    0    0    0    0 -0.00000000000E+00 -0.00000000000E+00 -0.30000000000E+02  0.30000000000E+02  0.00000000000E+00 0. -1.
         23    2    1    2    0    0  0.00000000000E+00  0.00000000000E+00  0.00000000000E+00  0.60000000000E+02  0.60000000000E+02 0.  0.
          5    1    3    3  501    0  0.23008582894E+02 -0.54892060010E+01 -0.17843310530E+02  0.30000000000E+02  0.47000000000E+01 0. -1.
         -5    1    3    3    0  501 -0.23008582894E+02  0.54892060010E+01  0.17843310530E+02  0.30000000000E+02  0.47000000000E+01 0.  1.
</event>
<event>
 5    1  0.7673937E-002  0.6000000E+02  0.7546771E-02  0.1259629E+00
         11   -1    0    0    0    0  0.00000000000E+00  0.00000000000E+00  0.30000000000E+02  0.30000000000E+02  0.00000000000E+00 0. -1.
        -11   -1    0    0    0    0 -0.00000000000E+00 -0.00000000000E+00 -0.30000000000E+02  0.30000000000E+02  0.00000000000E+00 0.  1.
         23    2    1    2    0    0  0.00000000000E+00  0.00000000000E+00  0.00000000000E+00  0.60000000000E+02  0.60000000000E+02 0.  0.
          5    1    3    3  501    0 -0.16649813263E+02 -0.20316587465E+01 -0.24424702272E+02  0.30000000000E+02  0.47000000000E+01 0.  1.
         -5    1    3    3    0  501  0.16649813263E+02  0.20316587465E+01  0.24424702272E+02  0.30000000000E+02  0.47000000000E+01 0. -1.
</event>
<event>
 5    1  0.7673937E-002  0.6000000E+02  0.7546771E-02  0.1259629E+00
         11   -1    0    0    0    0  0.00000000000E+00  0.00000000000E+00  0.30000000000E+02  0.30000000000E+02  0.00000000000E+00 0.  1.
        -11   -1    0    0    0    0 -0.00000000000E+00 -0.00000000000E+00 -0.30000000000E+02  0.30000000000E+02  0.00000000000E+00 0. -1.
         23    2    1    2    0    0  0.00000000000E+00  0.00000000000E+00  0.00000000000E+00  0.60000000000E+02  0.60000000000E+02 0.  0.
          5    1    3    3  501    0  0.14349447225E+02 -0.21149788318E+02 -0.14989657049E+02  0.30000000000E+02  0.47000000000E+01 0. -1.
         -5    1    3    3    0  501 -0.14349447225E+02  0.21149788318E+02  0.14989657049E+02  0.30000000000E+02  0.47000000000E+01 0.  1.
</event>
<event>
 5    1  0.7673937E-002  0.6000000E+02  0.7546771E-02  0.1259629E+00
         11   -1    0    0    0    0  0.00000000000E+00  0.00000000000E+00  0.30000000000E+02  0.30000000000E+02  0.00000000000E+00 0.  1.
        -11   -1    0    0    0    0 -0.00000000000E+00 -0.00000000000E+00 -0.30000000000E+02  0.30000000000E+02  0.00000000000E+00 0. -1.
         23    2    1    2    0    0  0.00000000000E+00  0.00000000000E+00  0.00000000000E+00  0.60000000000E+02  0.60000000000E+02 0.  0.
          5    1    3    3  501    0 -0.19468335849E+02 -0.17808411964E+02  0.13481630562E+02  0.30000000000E+02  0.47000000000E+01 0.  1.
         -5    1    3    3    0  501  0.19468335849E+02  0.17808411964E+02 -0.13481630562E+02  0.30000000000E+02  0.47000000000E+01 0. -1.
</event>
<event>
 5    1  0.7673937E-002  0.6000000E+02  0.7546771E-02  0.1259629E+00
         11   -1    0    0    0    0  0.00000000000E+00  0.00000000000E+00  0.30000000000E+02  0.30000000000E+02  0.00000000000E+00 0.  1.
        -11   -1    0    0    0    0 -0.00000000000E+00 -0.00000000000E+00 -0.30000000000E+02  0.30000000000E+02  0.00000000000E+00 0. -1.
         23    2    1    2    0    0  0.00000000000E+00  0.00000000000E+00  0.00000000000E+00  0.60000000000E+02  0.60000000000E+02 0.  0.
          5    1    3    3  501    0 -0.19282212907E+02  0.18644739716E+02 -0.12588881855E+02  0.30000000000E+02  0.47000000000E+01 0. -1.
         -5    1    3    3    0  501  0.19282212907E+02 -0.18644739716E+02  0.12588881855E+02  0.30000000000E+02  0.47000000000E+01 0.  1.
</event>
<event>
 5    1  0.7673937E-002  0.6000000E+02  0.7546771E-02  0.1259629E+00
         11   -1    0    0    0    0  0.00000000000E+00  0.00000000000E+00  0.30000000000E+02  0.30000000000E+02  0.00000000000E+00 0.  1.
        -11   -1    0    0    0    0 -0.00000000000E+00 -0.00000000000E+00 -0.30000000000E+02  0.30000000000E+02  0.00000000000E+00 0. -1.
         23    2    1    2    0    0  0.00000000000E+00  0.00000000000E+00  0.00000000000E+00  0.60000000000E+02  0.60000000000E+02 0.  0.
          5    1    3    3  501    0  0.27720368590E+02  0.27370535886E+01 -0.10099490229E+02  0.30000000000E+02  0.47000000000E+01 0. -1.
         -5    1    3    3    0  501 -0.27720368590E+02 -0.27370535886E+01  0.10099490229E+02  0.30000000000E+02  0.47000000000E+01 0.  1.
</event>
<event>
 5    1  0.7673937E-002  0.6000000E+02  0.7546771E-02  0.1259629E+00
         11   -1    0    0    0    0  0.00000000000E+00  0.00000000000E+00  0.30000000000E+02  0.30000000000E+02  0.00000000000E+00 0.  1.
        -11   -1    0    0    0    0 -0.00000000000E+00 -0.00000000000E+00 -0.30000000000E+02  0.30000000000E+02  0.00000000000E+00 0. -1.
         23    2    1    2    0    0  0.00000000000E+00  0.00000000000E+00  0.00000000000E+00  0.60000000000E+02  0.60000000000E+02 0.  0.
          5    1    3    3  501    0 -0.29542263600E+02  0.20330907678E+01 -0.10154818048E+01  0.30000000000E+02  0.47000000000E+01 0. -1.
         -5    1    3    3    0  501  0.29542263600E+02 -0.20330907678E+01  0.10154818048E+01  0.30000000000E+02  0.47000000000E+01 0.  1.
</event>
<event>
 5    1  0.7673937E-002  0.6000000E+02  0.7546771E-02  0.1259629E+00
         11   -1    0    0    0    0  0.00000000000E+00  0.00000000000E+00  0.30000000000E+02  0.30000000000E+02  0.00000000000E+00 0.  1.
        -11   -1    0    0    0    0 -0.00000000000E+00 -0.00000000000E+00 -0.30000000000E+02  0.30000000000E+02  0.00000000000E+00 0. -1.
         23    2    1    2    0    0  0.00000000000E+00  0.00000000000E+00  0.00000000000E+00  0.60000000000E+02  0.60000000000E+02 0.  0.
          5    1    3    3  501    0  0.29568172414E+02 -0.14701236875E+01 -0.12132256328E+01  0.30000000000E+02  0.47000000000E+01 0. -1.
         -5    1    3    3    0  501 -0.29568172414E+02  0.14701236875E+01  0.12132256328E+01  0.30000000000E+02  0.47000000000E+01 0.  1.
</event>
<event>
 5    1  0.7673937E-002  0.6000000E+02  0.7546771E-02  0.1259629E+00
         11   -1    0    0    0    0  0.00000000000E+00  0.00000000000E+00  0.30000000000E+02  0.30000000000E+02  0.00000000000E+00 0.  1.
        -11   -1    0    0    0    0 -0.00000000000E+00 -0.00000000000E+00 -0.30000000000E+02  0.30000000000E+02  0.00000000000E+00 0. -1.
         23    2    1    2    0    0  0.00000000000E+00  0.00000000000E+00  0.00000000000E+00  0.60000000000E+02  0.60000000000E+02 0.  0.
          5    1    3    3  501    0  0.18164908080E+02 -0.23277975032E+02 -0.24661696713E+01  0.30000000000E+02  0.47000000000E+01 0. -1.
         -5    1    3    3    0  501 -0.18164908080E+02  0.23277975032E+02  0.24661696713E+01  0.30000000000E+02  0.47000000000E+01 0.  1.
</event>
<event>
 5    1  0.7673937E-002  0.6000000E+02  0.7546771E-02  0.1259629E+00
         11   -1    0    0    0    0  0.00000000000E+00  0.00000000000E+00  0.30000000000E+02  0.30000000000E+02  0.00000000000E+00 0.  1.
        -11   -1    0    0    0    0 -0.00000000000E+00 -0.00000000000E+00 -0.30000000000E+02  0.30000000000E+02  0.00000000000E+00 0. -1.
         23    2    1    2    0    0  0.00000000000E+00  0.00000000000E+00  0.00000000000E+00  0.60000000000E+02  0.60000000000E+02 0.  0.
          5    1    3    3  501    0  0.19882410343E+02  0.99369574671E+01 -0.19592259575E+02  0.30000000000E+02  0.47000000000E+01 0. -1.
         -5    1    3    3    0  501 -0.19882410343E+02 -0.99369574671E+01  0.19592259575E+02  0.30000000000E+02  0.47000000000E+01 0.  1.
</event>
<event>
 5    1  0.7673937E-002  0.6000000E+02  0.7546771E-02  0.1259629E+00
         11   -1    0    0    0    0  0.00000000000E+00  0.00000000000E+00  0.30000000000E+02  0.30000000000E+02  0.00000000000E+00 0.  1.
        -11   -1    0    0    0    0 -0.00000000000E+00 -0.00000000000E+00 -0.30000000000E+02  0.30000000000E+02  0.00000000000E+00 0. -1.
         23    2    1    2    0    0  0.00000000000E+00  0.00000000000E+00  0.00000000000E+00  0.60000000000E+02  0.60000000000E+02 0.  0.
          5    1    3    3  501    0 -0.17644021839E+02 -0.13423621145E+01  0.23765448813E+02  0.30000000000E+02  0.47000000000E+01 0.  1.
         -5    1    3    3    0  501  0.17644021839E+02  0.13423621145E+01 -0.23765448813E+02  0.30000000000E+02  0.47000000000E+01 0. -1.
</event>
<event>
 5    1  0.7673937E-002  0.6000000E+02  0.7546771E-02  0.1259629E+00
         11   -1    0    0    0    0  0.00000000000E+00  0.00000000000E+00  0.30000000000E+02  0.30000000000E+02  0.00000000000E+00 0.  1.
        -11   -1    0    0    0    0 -0.00000000000E+00 -0.00000000000E+00 -0.30000000000E+02  0.30000000000E+02  0.00000000000E+00 0. -1.
         23    2    1    2    0    0  0.00000000000E+00  0.00000000000E+00  0.00000000000E+00  0.60000000000E+02  0.60000000000E+02 0.  0.
          5    1    3    3  501    0 -0.92426722325E+01 -0.27930937131E+02  0.35136535088E+01  0.30000000000E+02  0.47000000000E+01 0.  1.
         -5    1    3    3    0  501  0.92426722325E+01  0.27930937131E+02 -0.35136535088E+01  0.30000000000E+02  0.47000000000E+01 0.  1.
</event>
<event>
 5    1  0.7673937E-002  0.6000000E+02  0.7546771E-02  0.1259629E+00
         11   -1    0    0    0    0  0.00000000000E+00  0.00000000000E+00  0.30000000000E+02  0.30000000000E+02  0.00000000000E+00 0.  1.
        -11   -1    0    0    0    0 -0.00000000000E+00 -0.00000000000E+00 -0.30000000000E+02  0.30000000000E+02  0.00000000000E+00 0. -1.
         23    2    1    2    0    0  0.00000000000E+00  0.00000000000E+00  0.00000000000E+00  0.60000000000E+02  0.60000000000E+02 0.  0.
          5    1    3    3  501    0 -0.16709580116E+02  0.21230719820E+02 -0.12163735787E+02  0.30000000000E+02  0.47000000000E+01 0. -1.
         -5    1    3    3    0  501  0.16709580116E+02 -0.21230719820E+02  0.12163735787E+02  0.30000000000E+02  0.47000000000E+01 0.  1.
</event>
<event>
 5    1  0.7673937E-002  0.6000000E+02  0.7546771E-02  0.1259629E+00
         11   -1    0    0    0    0  0.00000000000E+00  0.00000000000E+00  0.30000000000E+02  0.30000000000E+02  0.00000000000E+00 0.  1.
        -11   -1    0    0    0    0 -0.00000000000E+00 -0.00000000000E+00 -0.30000000000E+02  0.30000000000E+02  0.00000000000E+00 0. -1.
         23    2    1    2    0    0  0.00000000000E+00  0.00000000000E+00  0.00000000000E+00  0.60000000000E+02  0.60000000000E+02 0.  0.
          5    1    3    3  501    0 -0.21215801395E+02 -0.19923690326E+02 -0.55539476913E+01  0.30000000000E+02  0.47000000000E+01 0. -1.
         -5    1    3    3    0  501  0.21215801395E+02  0.19923690326E+02  0.55539476913E+01  0.30000000000E+02  0.47000000000E+01 0.  1.
</event>
<event>
 5    1  0.7673937E-002  0.6000000E+02  0.7546771E-02  0.1259629E+00
         11   -1    0    0    0    0  0.00000000000E+00  0.00000000000E+00  0.30000000000E+02  0.30000000000E+02  0.00000000000E+00 0. -1.
        -11   -1    0    0    0    0 -0.00000000000E+00 -0.00000000000E+00 -0.30000000000E+02  0.30000000000E+02  0.00000000000E+00 0.  1.
         23    2    1    2    0    0  0.00000000000E+00  0.00000000000E+00  0.00000000000E+00  0.60000000000E+02  0.60000000000E+02 0.  0.
          5    1    3    3  501    0 -0.22026696521E+02 -0.80588206817E+01 -0.18104973062E+02  0.30000000000E+02  0.47000000000E+01 0.  1.
         -5    1    3    3    0  501  0.22026696521E+02  0.80588206817E+01  0.18104973062E+02  0.30000000000E+02  0.47000000000E+01 0. -1.
</event>
<event>
 5    1  0.7673937E-002  0.6000000E+02  0.7546771E-02  0.1259629E+00
         11   -1    0    0    0    0  0.00000000000E+00  0.00000000000E+00  0.30000000000E+02  0.30000000000E+02  0.00000000000E+00 0.  1.
        -11   -1    0    0    0    0 -0.00000000000E+00 -0.00000000000E+00 -0.30000000000E+02  0.30000000000E+02  0.00000000000E+00 0. -1.
         23    2    1    2    0    0  0.00000000000E+00  0.00000000000E+00  0.00000000000E+00  0.60000000000E+02  0.60000000000E+02 0.  0.
          5    1    3    3  501    0  0.18922856113E+00 -0.27210511948E+02 -0.11724428859E+02  0.30000000000E+02  0.47000000000E+01 0. -1.
         -5    1    3    3    0  501 -0.18922856113E+00  0.27210511948E+02  0.11724428859E+02  0.30000000000E+02  0.47000000000E+01 0.  1.
</event>
<event>
 5    1  0.7673937E-002  0.6000000E+02  0.7546771E-02  0.1259629E+00
         11   -1    0    0    0    0  0.00000000000E+00  0.00000000000E+00  0.30000000000E+02  0.30000000000E+02  0.00000000000E+00 0. -1.
        -11   -1    0    0    0    0 -0.00000000000E+00 -0.00000000000E+00 -0.30000000000E+02  0.30000000000E+02  0.00000000000E+00 0.  1.
         23    2    1    2    0    0  0.00000000000E+00  0.00000000000E+00  0.00000000000E+00  0.60000000000E+02  0.60000000000E+02 0.  0.
          5    1    3    3  501    0  0.28271564384E+01 -0.26649653601E+02 -0.12637766789E+02  0.30000000000E+02  0.47000000000E+01 0.  1.
         -5    1    3    3    0  501 -0.28271564384E+01  0.26649653601E+02  0.12637766789E+02  0.30000000000E+02  0.47000000000E+01 0. -1.
</event>
<event>
 5    1  0.7673937E-002  0.6000000E+02  0.7546771E-02  0.1259629E+00
         11   -1    0    0    0    0  0.00000000000E+00  0.00000000000E+00  0.30000000000E+02  0.30000000000E+02  0.00000000000E+00 0.  1.
        -11   -1    0    0    0    0 -0.00000000000E+00 -0.00000000000E+00 -0.30000000000E+02  0.30000000000E+02  0.00000000000E+00 0. -1.
         23    2    1    2    0    0  0.00000000000E+00  0.00000000000E+00  0.00000000000E+00  0.60000000000E+02  0.60000000000E+02 0.  0.
          5    1    3    3  501    0 -0.21373067631E+02 -0.72111003059E+01 -0.19212027806E+02  0.30000000000E+02  0.47000000000E+01 0. -1.
         -5    1    3    3    0  501  0.21373067631E+02  0.72111003059E+01  0.19212027806E+02  0.30000000000E+02  0.47000000000E+01 0.  1.
</event>
<event>
 5    1  0.7673937E-002  0.6000000E+02  0.7546771E-02  0.1259629E+00
         11   -1    0    0    0    0  0.00000000000E+00  0.00000000000E+00  0.30000000000E+02  0.30000000000E+02  0.00000000000E+00 0.  1.
        -11   -1    0    0    0    0 -0.00000000000E+00 -0.00000000000E+00 -0.30000000000E+02  0.30000000000E+02  0.00000000000E+00 0. -1.
         23    2    1    2    0    0  0.00000000000E+00  0.00000000000E+00  0.00000000000E+00  0.60000000000E+02  0.60000000000E+02 0.  0.
          5    1    3    3  501    0 -0.17678366985E+02  0.12477652847E+02 -0.20240887336E+02  0.30000000000E+02  0.47000000000E+01 0. -1.
         -5    1    3    3    0  501  0.17678366985E+02 -0.12477652847E+02  0.20240887336E+02  0.30000000000E+02  0.47000000000E+01 0.  1.
</event>
<event>
 5    1  0.7673937E-002  0.6000000E+02  0.7546771E-02  0.1259629E+00
         11   -1    0    0    0    0  0.00000000000E+00  0.00000000000E+00  0.30000000000E+02  0.30000000000E+02  0.00000000000E+00 0. -1.
        -11   -1    0    0    0    0 -0.00000000000E+00 -0.00000000000E+00 -0.30000000000E+02  0.30000000000E+02  0.00000000000E+00 0.  1.
         23    2    1    2    0    0  0.00000000000E+00  0.00000000000E+00  0.00000000000E+00  0.60000000000E+02  0.60000000000E+02 0.  0.
          5    1    3    3  501    0 -0.66363325407E+01 -0.28851784499E+02  0.12015080599E+01  0.30000000000E+02  0.47000000000E+01 0.  1.
         -5    1    3    3    0  501  0.66363325407E+01  0.28851784499E+02 -0.12015080599E+01  0.30000000000E+02  0.47000000000E+01 0. -1.
</event>
<event>
 5    1  0.7673937E-002  0.6000000E+02  0.7546771E-02  0.1259629E+00
         11   -1    0    0    0    0  0.00000000000E+00  0.00000000000E+00  0.30000000000E+02  0.30000000000E+02  0.00000000000E+00 0.  1.
        -11   -1    0    0    0    0 -0.00000000000E+00 -0.00000000000E+00 -0.30000000000E+02  0.30000000000E+02  0.00000000000E+00 0. -1.
         23    2    1    2    0    0  0.00000000000E+00  0.00000000000E+00  0.00000000000E+00  0.60000000000E+02  0.60000000000E+02 0.  0.
          5    1    3    3  501    0 -0.26127612744E+02 -0.43714859392E+01 -0.13272074554E+02  0.30000000000E+02  0.47000000000E+01 0. -1.
         -5    1    3    3    0  501  0.26127612744E+02  0.43714859392E+01  0.13272074554E+02  0.30000000000E+02  0.47000000000E+01 0.  1.
</event>
<event>
 5    1  0.7673937E-002  0.6000000E+02  0.7546771E-02  0.1259629E+00
         11   -1    0    0    0    0  0.00000000000E+00  0.00000000000E+00  0.30000000000E+02  0.30000000000E+02  0.00000000000E+00 0.  1.
        -11   -1    0    0    0    0 -0.00000000000E+00 -0.00000000000E+00 -0.30000000000E+02  0.30000000000E+02  0.00000000000E+00 0. -1.
         23    2    1    2    0    0  0.00000000000E+00  0.00000000000E+00  0.00000000000E+00  0.60000000000E+02  0.60000000000E+02 0.  0.
          5    1    3    3  501    0  0.58104017117E+01  0.11752122728E+02 -0.26571353811E+02  0.30000000000E+02  0.47000000000E+01 0. -1.
         -5    1    3    3    0  501 -0.58104017117E+01 -0.11752122728E+02  0.26571353811E+02  0.30000000000E+02  0.47000000000E+01 0.  1.
</event>
<event>
 5    1  0.7673937E-002  0.6000000E+02  0.7546771E-02  0.1259629E+00
         11   -1    0    0    0    0  0.00000000000E+00  0.00000000000E+00  0.30000000000E+02  0.30000000000E+02  0.00000000000E+00 0.  1.
        -11   -1    0    0    0    0 -0.00000000000E+00 -0.00000000000E+00 -0.30000000000E+02  0.30000000000E+02  0.00000000000E+00 0. -1.
         23    2    1    2    0    0  0.00000000000E+00  0.00000000000E+00  0.00000000000E+00  0.60000000000E+02  0.60000000000E+02 0.  0.
          5    1    3    3  501    0 -0.27458155487E+02  0.11118224318E+02  0.58718415594E+00  0.30000000000E+02  0.47000000000E+01 0. -1.
         -5    1    3    3    0  501  0.27458155487E+02 -0.11118224318E+02 -0.58718415594E+00  0.30000000000E+02  0.47000000000E+01 0.  1.
</event>
<event>
 5    1  0.7673937E-002  0.6000000E+02  0.7546771E-02  0.1259629E+00
         11   -1    0    0    0    0  0.00000000000E+00  0.00000000000E+00  0.30000000000E+02  0.30000000000E+02  0.00000000000E+00 0.  1.
        -11   -1    0    0    0    0 -0.00000000000E+00 -0.00000000000E+00 -0.30000000000E+02  0.30000000000E+02  0.00000000000E+00 0. -1.
         23    2    1    2    0    0  0.00000000000E+00  0.00000000000E+00  0.00000000000E+00  0.60000000000E+02  0.60000000000E+02 0.  0.
          5    1    3    3  501    0  0.94246577607E+01 -0.16542472542E+02 -0.22703136971E+02  0.30000000000E+02  0.47000000000E+01 0. -1.
         -5    1    3    3    0  501 -0.94246577607E+01  0.16542472542E+02  0.22703136971E+02  0.30000000000E+02  0.47000000000E+01 0.  1.
</event>
<event>
 5    1  0.7673937E-002  0.6000000E+02  0.7546771E-02  0.1259629E+00
         11   -1    0    0    0    0  0.00000000000E+00  0.00000000000E+00  0.30000000000E+02  0.30000000000E+02  0.00000000000E+00 0.  1.
        -11   -1    0    0    0    0 -0.00000000000E+00 -0.00000000000E+00 -0.30000000000E+02  0.30000000000E+02  0.00000000000E+00 0. -1.
         23    2    1    2    0    0  0.00000000000E+00  0.00000000000E+00  0.00000000000E+00  0.60000000000E+02  0.60000000000E+02 0.  0.
          5    1    3    3  501    0  0.16510942679E+02 -0.22835634259E+02 -0.91560133160E+01  0.30000000000E+02  0.47000000000E+01 0. -1.
         -5    1    3    3    0  501 -0.16510942679E+02  0.22835634259E+02  0.91560133160E+01  0.30000000000E+02  0.47000000000E+01 0.  1.
</event>
<event>
 5    1  0.7673937E-002  0.6000000E+02  0.7546771E-02  0.1259629E+00
         11   -1    0    0    0    0  0.00000000000E+00  0.00000000000E+00  0.30000000000E+02  0.30000000000E+02  0.00000000000E+00 0.  1.
        -11   -1    0    0    0    0 -0.00000000000E+00 -0.00000000000E+00 -0.30000000000E+02  0.30000000000E+02  0.00000000000E+00 0. -1.
         23    2    1    2    0    0  0.00000000000E+00  0.00000000000E+00  0.00000000000E+00  0.60000000000E+02  0.60000000000E+02 0.  0.
          5    1    3    3  501    0  0.45505114179E+01  0.21274496754E+02  0.20114637299E+02  0.30000000000E+02  0.47000000000E+01 0.  1.
         -5    1    3    3    0  501 -0.45505114179E+01 -0.21274496754E+02 -0.20114637299E+02  0.30000000000E+02  0.47000000000E+01 0. -1.
</event>
<event>
 5    1  0.7673937E-002  0.6000000E+02  0.7546771E-02  0.1259629E+00
         11   -1    0    0    0    0  0.00000000000E+00  0.00000000000E+00  0.30000000000E+02  0.30000000000E+02  0.00000000000E+00 0.  1.
        -11   -1    0    0    0    0 -0.00000000000E+00 -0.00000000000E+00 -0.30000000000E+02  0.30000000000E+02  0.00000000000E+00 0. -1.
         23    2    1    2    0    0  0.00000000000E+00  0.00000000000E+00  0.00000000000E+00  0.60000000000E+02  0.60000000000E+02 0.  0.
          5    1    3    3  501    0  0.76610474910E+01 -0.21173969378E+02  0.19258280611E+02  0.30000000000E+02  0.47000000000E+01 0.  1.
         -5    1    3    3    0  501 -0.76610474910E+01  0.21173969378E+02 -0.19258280611E+02  0.30000000000E+02  0.47000000000E+01 0. -1.
</event>
<event>
 5    1  0.7673937E-002  0.6000000E+02  0.7546771E-02  0.1259629E+00
         11   -1    0    0    0    0  0.00000000000E+00  0.00000000000E+00  0.30000000000E+02  0.30000000000E+02  0.00000000000E+00 0.  1.
        -11   -1    0    0    0    0 -0.00000000000E+00 -0.00000000000E+00 -0.30000000000E+02  0.30000000000E+02  0.00000000000E+00 0. -1.
         23    2    1    2    0    0  0.00000000000E+00  0.00000000000E+00  0.00000000000E+00  0.60000000000E+02  0.60000000000E+02 0.  0.
          5    1    3    3  501    0  0.44703919162E+01 -0.16579895094E+02 -0.24146069552E+02  0.30000000000E+02  0.47000000000E+01 0. -1.
         -5    1    3    3    0  501 -0.44703919162E+01  0.16579895094E+02  0.24146069552E+02  0.30000000000E+02  0.47000000000E+01 0.  1.
</event>
<event>
 5    1  0.7673937E-002  0.6000000E+02  0.7546771E-02  0.1259629E+00
         11   -1    0    0    0    0  0.00000000000E+00  0.00000000000E+00  0.30000000000E+02  0.30000000000E+02  0.00000000000E+00 0. -1.
        -11   -1    0    0    0    0 -0.00000000000E+00 -0.00000000000E+00 -0.30000000000E+02  0.30000000000E+02  0.00000000000E+00 0.  1.
         23    2    1    2    0    0  0.00000000000E+00  0.00000000000E+00  0.00000000000E+00  0.60000000000E+02  0.60000000000E+02 0.  0.
          5    1    3    3  501    0  0.39628866532E+00  0.14270207769E+02 -0.25963707854E+02  0.30000000000E+02  0.47000000000E+01 0.  1.
         -5    1    3    3    0  501 -0.39628866532E+00 -0.14270207769E+02  0.25963707854E+02  0.30000000000E+02  0.47000000000E+01 0. -1.
</event>
<event>
 5    1  0.7673937E-002  0.6000000E+02  0.7546771E-02  0.1259629E+00
         11   -1    0    0    0    0  0.00000000000E+00  0.00000000000E+00  0.30000000000E+02  0.30000000000E+02  0.00000000000E+00 0. -1.
        -11   -1    0    0    0    0 -0.00000000000E+00 -0.00000000000E+00 -0.30000000000E+02  0.30000000000E+02  0.00000000000E+00 0.  1.
         23    2    1    2    0    0  0.00000000000E+00  0.00000000000E+00  0.00000000000E+00  0.60000000000E+02  0.60000000000E+02 0.  0.
          5    1    3    3  501    0  0.15338017362E+02 -0.14464627632E+02 -0.20818976220E+02  0.30000000000E+02  0.47000000000E+01 0.  1.
         -5    1    3    3    0  501 -0.15338017362E+02  0.14464627632E+02  0.20818976220E+02  0.30000000000E+02  0.47000000000E+01 0. -1.
</event>
<event>
 5    1  0.7673937E-002  0.6000000E+02  0.7546771E-02  0.1259629E+00
         11   -1    0    0    0    0  0.00000000000E+00  0.00000000000E+00  0.30000000000E+02  0.30000000000E+02  0.00000000000E+00 0. -1.
        -11   -1    0    0    0    0 -0.00000000000E+00 -0.00000000000E+00 -0.30000000000E+02  0.30000000000E+02  0.00000000000E+00 0.  1.
         23    2    1    2    0    0  0.00000000000E+00  0.00000000000E+00  0.00000000000E+00  0.60000000000E+02  0.60000000000E+02 0.  0.
          5    1    3    3  501    0  0.25966126588E+00 -0.18628530197E+02  0.23039540767E+02  0.30000000000E+02  0.47000000000E+01 0. -1.
         -5    1    3    3    0  501 -0.25966126588E+00  0.18628530197E+02 -0.23039540767E+02  0.30000000000E+02  0.47000000000E+01 0.  1.
</event>
<event>
 5    1  0.7673937E-002  0.6000000E+02  0.7546771E-02  0.1259629E+00
         11   -1    0    0    0    0  0.00000000000E+00  0.00000000000E+00  0.30000000000E+02  0.30000000000E+02  0.00000000000E+00 0.  1.
        -11   -1    0    0    0    0 -0.00000000000E+00 -0.00000000000E+00 -0.30000000000E+02  0.30000000000E+02  0.00000000000E+00 0. -1.
         23    2    1    2    0    0  0.00000000000E+00  0.00000000000E+00  0.00000000000E+00  0.60000000000E+02  0.60000000000E+02 0.  0.
          5    1    3    3  501    0 -0.75458869593E+01 -0.17492546658E+02  0.22693179624E+02  0.30000000000E+02  0.47000000000E+01 0.  1.
         -5    1    3    3    0  501  0.75458869593E+01  0.17492546658E+02 -0.22693179624E+02  0.30000000000E+02  0.47000000000E+01 0.  1.
</event>
<event>
 5    1  0.7673937E-002  0.6000000E+02  0.7546771E-02  0.1259629E+00
         11   -1    0    0    0    0  0.00000000000E+00  0.00000000000E+00  0.30000000000E+02  0.30000000000E+02  0.00000000000E+00 0.  1.
        -11   -1    0    0    0    0 -0.00000000000E+00 -0.00000000000E+00 -0.30000000000E+02  0.30000000000E+02  0.00000000000E+00 0. -1.
         23    2    1    2    0    0  0.00000000000E+00  0.00000000000E+00  0.00000000000E+00  0.60000000000E+02  0.60000000000E+02 0.  0.
          5    1    3    3  501    0  0.20843339521E+02  0.34781147098E+01  0.20769398540E+02  0.30000000000E+02  0.47000000000E+01 0.  1.
         -5    1    3    3    0  501 -0.20843339521E+02 -0.34781147098E+01 -0.20769398540E+02  0.30000000000E+02  0.47000000000E+01 0. -1.
</event>
<event>
 5    1  0.7673937E-002  0.6000000E+02  0.7546771E-02  0.1259629E+00
         11   -1    0    0    0    0  0.00000000000E+00  0.00000000000E+00  0.30000000000E+02  0.30000000000E+02  0.00000000000E+00 0. -1.
        -11   -1    0    0    0    0 -0.00000000000E+00 -0.00000000000E+00 -0.30000000000E+02  0.30000000000E+02  0.00000000000E+00 0.  1.
         23    2    1    2    0    0  0.00000000000E+00  0.00000000000E+00  0.00000000000E+00  0.60000000000E+02  0.60000000000E+02 0.  0.
          5    1    3    3  501    0 -0.12389222558E+02  0.74584900461E+01 -0.25860937544E+02  0.30000000000E+02  0.47000000000E+01 0.  1.
         -5    1    3    3    0  501  0.12389222558E+02 -0.74584900461E+01  0.25860937544E+02  0.30000000000E+02  0.47000000000E+01 0. -1.
</event>
<event>
 5    1  0.7673937E-002  0.6000000E+02  0.7546771E-02  0.1259629E+00
         11   -1    0    0    0    0  0.00000000000E+00  0.00000000000E+00  0.30000000000E+02  0.30000000000E+02  0.00000000000E+00 0. -1.
        -11   -1    0    0    0    0 -0.00000000000E+00 -0.00000000000E+00 -0.30000000000E+02  0.30000000000E+02  0.00000000000E+00 0.  1.
         23    2    1    2    0    0  0.00000000000E+00  0.00000000000E+00  0.00000000000E+00  0.60000000000E+02  0.60000000000E+02 0.  0.
          5    1    3    3  501    0  0.18281141141E+02  0.94791314721E+00 -0.23298311940E+02  0.30000000000E+02  0.47000000000E+01 0.  1.
         -5    1    3    3    0  501 -0.18281141141E+02 -0.94791314721E+00  0.23298311940E+02  0.30000000000E+02  0.47000000000E+01 0. -1.
</event>
<event>
 5    1  0.7673937E-002  0.6000000E+02  0.7546771E-02  0.1259629E+00
         11   -1    0    0    0    0  0.00000000000E+00  0.00000000000E+00  0.30000000000E+02  0.30000000000E+02  0.00000000000E+00 0.  1.
        -11   -1    0    0    0    0 -0.00000000000E+00 -0.00000000000E+00 -0.30000000000E+02  0.30000000000E+02  0.00000000000E+00 0. -1.
         23    2    1    2    0    0  0.00000000000E+00  0.00000000000E+00  0.00000000000E+00  0.60000000000E+02  0.60000000000E+02 0.  0.
          5    1    3    3  501    0 -0.22031947765E+01 -0.23593193230E+02 -0.17788118675E+02  0.30000000000E+02  0.47000000000E+01 0. -1.
         -5    1    3    3    0  501  0.22031947765E+01  0.23593193230E+02  0.17788118675E+02  0.30000000000E+02  0.47000000000E+01 0.  1.
</event>
<event>
 5    1  0.7673937E-002  0.6000000E+02  0.7546771E-02  0.1259629E+00
         11   -1    0    0    0    0  0.00000000000E+00  0.00000000000E+00  0.30000000000E+02  0.30000000000E+02  0.00000000000E+00 0.  1.
        -11   -1    0    0    0    0 -0.00000000000E+00 -0.00000000000E+00 -0.30000000000E+02  0.30000000000E+02  0.00000000000E+00 0. -1.
         23    2    1    2    0    0  0.00000000000E+00  0.00000000000E+00  0.00000000000E+00  0.60000000000E+02  0.60000000000E+02 0.  0.
          5    1    3    3  501    0 -0.19257139966E+02 -0.97747628174E+01 -0.20286117721E+02  0.30000000000E+02  0.47000000000E+01 0. -1.
         -5    1    3    3    0  501  0.19257139966E+02  0.97747628174E+01  0.20286117721E+02  0.30000000000E+02  0.47000000000E+01 0.  1.
</event>
<event>
 5    1  0.7673937E-002  0.6000000E+02  0.7546771E-02  0.1259629E+00
         11   -1    0    0    0    0  0.00000000000E+00  0.00000000000E+00  0.30000000000E+02  0.30000000000E+02  0.00000000000E+00 0.  1.
        -11   -1    0    0    0    0 -0.00000000000E+00 -0.00000000000E+00 -0.30000000000E+02  0.30000000000E+02  0.00000000000E+00 0. -1.
         23    2    1    2    0    0  0.00000000000E+00  0.00000000000E+00  0.00000000000E+00  0.60000000000E+02  0.60000000000E+02 0.  0.
          5    1    3    3  501    0 -0.24128757811E+02  0.60038854016E+01  0.16114167884E+02  0.30000000000E+02  0.47000000000E+01 0.  1.
         -5    1    3    3    0  501  0.24128757811E+02 -0.60038854016E+01 -0.16114167884E+02  0.30000000000E+02  0.47000000000E+01 0. -1.
</event>
<event>
 5    1  0.7673937E-002  0.6000000E+02  0.7546771E-02  0.1259629E+00
         11   -1    0    0    0    0  0.00000000000E+00  0.00000000000E+00  0.30000000000E+02  0.30000000000E+02  0.00000000000E+00 0. -1.
        -11   -1    0    0    0    0 -0.00000000000E+00 -0.00000000000E+00 -0.30000000000E+02  0.30000000000E+02  0.00000000000E+00 0.  1.
         23    2    1    2    0    0  0.00000000000E+00  0.00000000000E+00  0.00000000000E+00  0.60000000000E+02  0.60000000000E+02 0.  0.
          5    1    3    3  501    0  0.61874865698E+01  0.19770905692E+02 -0.21183396755E+02  0.30000000000E+02  0.47000000000E+01 0.  1.
         -5    1    3    3    0  501 -0.61874865698E+01 -0.19770905692E+02  0.21183396755E+02  0.30000000000E+02  0.47000000000E+01 0. -1.
</event>
<event>
 5    1  0.7673937E-002  0.6000000E+02  0.7546771E-02  0.1259629E+00
         11   -1    0    0    0    0  0.00000000000E+00  0.00000000000E+00  0.30000000000E+02  0.30000000000E+02  0.00000000000E+00 0.  1.
        -11   -1    0    0    0    0 -0.00000000000E+00 -0.00000000000E+00 -0.30000000000E+02  0.30000000000E+02  0.00000000000E+00 0. -1.
         23    2    1    2    0    0  0.00000000000E+00  0.00000000000E+00  0.00000000000E+00  0.60000000000E+02  0.60000000000E+02 0.  0.
          5    1    3    3  501    0  0.10096650491E+02 -0.26818335727E+02  0.75328957041E+01  0.30000000000E+02  0.47000000000E+01 0.  1.
         -5    1    3    3    0  501 -0.10096650491E+02  0.26818335727E+02 -0.75328957041E+01  0.30000000000E+02  0.47000000000E+01 0. -1.
</event>
<event>
 5    1  0.7673937E-002  0.6000000E+02  0.7546771E-02  0.1259629E+00
         11   -1    0    0    0    0  0.00000000000E+00  0.00000000000E+00  0.30000000000E+02  0.30000000000E+02  0.00000000000E+00 0.  1.
        -11   -1    0    0    0    0 -0.00000000000E+00 -0.00000000000E+00 -0.30000000000E+02  0.30000000000E+02  0.00000000000E+00 0. -1.
         23    2    1    2    0    0  0.00000000000E+00  0.00000000000E+00  0.00000000000E+00  0.60000000000E+02  0.60000000000E+02 0.  0.
          5    1    3    3  501    0 -0.19514672586E-01  0.25725236131E+02 -0.14701083129E+02  0.30000000000E+02  0.47000000000E+01 0. -1.
         -5    1    3    3    0  501  0.19514672586E-01 -0.25725236131E+02  0.14701083129E+02  0.30000000000E+02  0.47000000000E+01 0.  1.
</event>
<event>
 5    1  0.7673937E-002  0.6000000E+02  0.7546771E-02  0.1259629E+00
         11   -1    0    0    0    0  0.00000000000E+00  0.00000000000E+00  0.30000000000E+02  0.30000000000E+02  0.00000000000E+00 0. -1.
        -11   -1    0    0    0    0 -0.00000000000E+00 -0.00000000000E+00 -0.30000000000E+02  0.30000000000E+02  0.00000000000E+00 0.  1.
         23    2    1    2    0    0  0.00000000000E+00  0.00000000000E+00  0.00000000000E+00  0.60000000000E+02  0.60000000000E+02 0.  0.
          5    1    3    3  501    0  0.47469249674E+01 -0.29237286503E+02  0.74684758651E+00  0.30000000000E+02  0.47000000000E+01 0.  1.
         -5    1    3    3    0  501 -0.47469249674E+01  0.29237286503E+02 -0.74684758651E+00  0.30000000000E+02  0.47000000000E+01 0. -1.
</event>
<event>
 5    1  0.7673937E-002  0.6000000E+02  0.7546771E-02  0.1259629E+00
         11   -1    0    0    0    0  0.00000000000E+00  0.00000000000E+00  0.30000000000E+02  0.30000000000E+02  0.00000000000E+00 0.  1.
        -11   -1    0    0    0    0 -0.00000000000E+00 -0.00000000000E+00 -0.30000000000E+02  0.30000000000E+02  0.00000000000E+00 0. -1.
         23    2    1    2    0    0  0.00000000000E+00  0.00000000000E+00  0.00000000000E+00  0.60000000000E+02  0.60000000000E+02 0.  0.
          5    1    3    3  501    0  0.70587650928E+01  0.14217046323E+02 -0.25019181226E+02  0.30000000000E+02  0.47000000000E+01 0. -1.
         -5    1    3    3    0  501 -0.70587650928E+01 -0.14217046323E+02  0.25019181226E+02  0.30000000000E+02  0.47000000000E+01 0.  1.
</event>
<event>
 5    1  0.7673937E-002  0.6000000E+02  0.7546771E-02  0.1259629E+00
         11   -1    0    0    0    0  0.00000000000E+00  0.00000000000E+00  0.30000000000E+02  0.30000000000E+02  0.00000000000E+00 0.  1.
        -11   -1    0    0    0    0 -0.00000000000E+00 -0.00000000000E+00 -0.30000000000E+02  0.30000000000E+02  0.00000000000E+00 0. -1.
         23    2    1    2    0    0  0.00000000000E+00  0.00000000000E+00  0.00000000000E+00  0.60000000000E+02  0.60000000000E+02 0.  0.
          5    1    3    3  501    0  0.10737795151E+02  0.59698083174E+01 -0.26962402414E+02  0.30000000000E+02  0.47000000000E+01 0. -1.
         -5    1    3    3    0  501 -0.10737795151E+02 -0.59698083174E+01  0.26962402414E+02  0.30000000000E+02  0.47000000000E+01 0.  1.
</event>
<event>
 5    1  0.7673937E-002  0.6000000E+02  0.7546771E-02  0.1259629E+00
         11   -1    0    0    0    0  0.00000000000E+00  0.00000000000E+00  0.30000000000E+02  0.30000000000E+02  0.00000000000E+00 0.  1.
        -11   -1    0    0    0    0 -0.00000000000E+00 -0.00000000000E+00 -0.30000000000E+02  0.30000000000E+02  0.00000000000E+00 0. -1.
         23    2    1    2    0    0  0.00000000000E+00  0.00000000000E+00  0.00000000000E+00  0.60000000000E+02  0.60000000000E+02 0.  0.
          5    1    3    3  501    0 -0.18093691603E+02 -0.20273108975E+02  0.11812255359E+02  0.30000000000E+02  0.47000000000E+01 0.  1.
         -5    1    3    3    0  501  0.18093691603E+02  0.20273108975E+02 -0.11812255359E+02  0.30000000000E+02  0.47000000000E+01 0. -1.
</event>
<event>
 5    1  0.7673937E-002  0.6000000E+02  0.7546771E-02  0.1259629E+00
         11   -1    0    0    0    0  0.00000000000E+00  0.00000000000E+00  0.30000000000E+02  0.30000000000E+02  0.00000000000E+00 0.  1.
        -11   -1    0    0    0    0 -0.00000000000E+00 -0.00000000000E+00 -0.30000000000E+02  0.30000000000E+02  0.00000000000E+00 0. -1.
         23    2    1    2    0    0  0.00000000000E+00  0.00000000000E+00  0.00000000000E+00  0.60000000000E+02  0.60000000000E+02 0.  0.
          5    1    3    3  501    0 -0.20622344078E+02  0.59817736259E+00 -0.21266666607E+02  0.30000000000E+02  0.47000000000E+01 0. -1.
         -5    1    3    3    0  501  0.20622344078E+02 -0.59817736259E+00  0.21266666607E+02  0.30000000000E+02  0.47000000000E+01 0.  1.
</event>
<event>
 5    1  0.7673937E-002  0.6000000E+02  0.7546771E-02  0.1259629E+00
         11   -1    0    0    0    0  0.00000000000E+00  0.00000000000E+00  0.30000000000E+02  0.30000000000E+02  0.00000000000E+00 0. -1.
        -11   -1    0    0    0    0 -0.00000000000E+00 -0.00000000000E+00 -0.30000000000E+02  0.30000000000E+02  0.00000000000E+00 0.  1.
         23    2    1    2    0    0  0.00000000000E+00  0.00000000000E+00  0.00000000000E+00  0.60000000000E+02  0.60000000000E+02 0.  0.
          5    1    3    3  501    0 -0.33420789407E+01  0.24241786787E+02 -0.16705576366E+02  0.30000000000E+02  0.47000000000E+01 0.  1.
         -5    1    3    3    0  501  0.33420789407E+01 -0.24241786787E+02  0.16705576366E+02  0.30000000000E+02  0.47000000000E+01 0. -1.
</event>
<event>
 5    1  0.7673937E-002  0.6000000E+02  0.7546771E-02  0.1259629E+00
         11   -1    0    0    0    0  0.00000000000E+00  0.00000000000E+00  0.30000000000E+02  0.30000000000E+02  0.00000000000E+00 0.  1.
        -11   -1    0    0    0    0 -0.00000000000E+00 -0.00000000000E+00 -0.30000000000E+02  0.30000000000E+02  0.00000000000E+00 0. -1.
         23    2    1    2    0    0  0.00000000000E+00  0.00000000000E+00  0.00000000000E+00  0.60000000000E+02  0.60000000000E+02 0.  0.
          5    1    3    3  501    0 -0.93613873509E+01  0.89602412703E+01 -0.26645609455E+02  0.30000000000E+02  0.47000000000E+01 0. -1.
         -5    1    3    3    0  501  0.93613873509E+01 -0.89602412703E+01  0.26645609455E+02  0.30000000000E+02  0.47000000000E+01 0.  1.
</event>
<event>
 5    1  0.7673937E-002  0.6000000E+02  0.7546771E-02  0.1259629E+00
         11   -1    0    0    0    0  0.00000000000E+00  0.00000000000E+00  0.30000000000E+02  0.30000000000E+02  0.00000000000E+00 0. -1.
        -11   -1    0    0    0    0 -0.00000000000E+00 -0.00000000000E+00 -0.30000000000E+02  0.30000000000E+02  0.00000000000E+00 0.  1.
         23    2    1    2    0    0  0.00000000000E+00  0.00000000000E+00  0.00000000000E+00  0.60000000000E+02  0.60000000000E+02 0.  0.
          5    1    3    3  501    0 -0.16713539493E+02  0.24339303577E+02 -0.24831228345E+01  0.30000000000E+02  0.47000000000E+01 0. -1.
         -5    1    3    3    0  501  0.16713539493E+02 -0.24339303577E+02  0.24831228345E+01  0.30000000000E+02  0.47000000000E+01 0.  1.
</event>
<event>
 5    1  0.7673937E-002  0.6000000E+02  0.7546771E-02  0.1259629E+00
         11   -1    0    0    0    0  0.00000000000E+00  0.00000000000E+00  0.30000000000E+02  0.30000000000E+02  0.00000000000E+00 0.  1.
        -11   -1    0    0    0    0 -0.00000000000E+00 -0.00000000000E+00 -0.30000000000E+02  0.30000000000E+02  0.00000000000E+00 0. -1.
         23    2    1    2    0    0  0.00000000000E+00  0.00000000000E+00  0.00000000000E+00  0.60000000000E+02  0.60000000000E+02 0.  0.
          5    1    3    3  501    0  0.23550709212E+02  0.24142512782E-01  0.17979808473E+02  0.30000000000E+02  0.47000000000E+01 0. -1.
         -5    1    3    3    0  501 -0.23550709212E+02 -0.24142512782E-01 -0.17979808473E+02  0.30000000000E+02  0.47000000000E+01 0.  1.
</event>
<event>
 5    1  0.7673937E-002  0.6000000E+02  0.7546771E-02  0.1259629E+00
         11   -1    0    0    0    0  0.00000000000E+00  0.00000000000E+00  0.30000000000E+02  0.30000000000E+02  0.00000000000E+00 0. -1.
        -11   -1    0    0    0    0 -0.00000000000E+00 -0.00000000000E+00 -0.30000000000E+02  0.30000000000E+02  0.00000000000E+00 0.  1.
         23    2    1    2    0    0  0.00000000000E+00  0.00000000000E+00  0.00000000000E+00  0.60000000000E+02  0.60000000000E+02 0.  0.
          5    1    3    3  501    0  0.16021775477E+02 -0.38790618377E+01 -0.24620430334E+02  0.30000000000E+02  0.47000000000E+01 0.  1.
         -5    1    3    3    0  501 -0.16021775477E+02  0.38790618377E+01  0.24620430334E+02  0.30000000000E+02  0.47000000000E+01 0. -1.
</event>
<event>
 5    1  0.7673937E-002  0.6000000E+02  0.7546771E-02  0.1259629E+00
         11   -1    0    0    0    0  0.00000000000E+00  0.00000000000E+00  0.30000000000E+02  0.30000000000E+02  0.00000000000E+00 0.  1.
        -11   -1    0    0    0    0 -0.00000000000E+00 -0.00000000000E+00 -0.30000000000E+02  0.30000000000E+02  0.00000000000E+00 0. -1.
         23    2    1    2    0    0  0.00000000000E+00  0.00000000000E+00  0.00000000000E+00  0.60000000000E+02  0.60000000000E+02 0.  0.
          5    1    3    3  501    0  0.64962760027E+01 -0.13458960347E+02 -0.25584463733E+02  0.30000000000E+02  0.47000000000E+01 0. -1.
         -5    1    3    3    0  501 -0.64962760027E+01  0.13458960347E+02  0.25584463733E+02  0.30000000000E+02  0.47000000000E+01 0.  1.
</event>
<event>
 5    1  0.7673937E-002  0.6000000E+02  0.7546771E-02  0.1259629E+00
         11   -1    0    0    0    0  0.00000000000E+00  0.00000000000E+00  0.30000000000E+02  0.30000000000E+02  0.00000000000E+00 0.  1.
        -11   -1    0    0    0    0 -0.00000000000E+00 -0.00000000000E+00 -0.30000000000E+02  0.30000000000E+02  0.00000000000E+00 0. -1.
         23    2    1    2    0    0  0.00000000000E+00  0.00000000000E+00  0.00000000000E+00  0.60000000000E+02  0.60000000000E+02 0.  0.
          5    1    3    3  501    0 -0.16307893536E+02  0.13480984839E+02 -0.20741881694E+02  0.30000000000E+02  0.47000000000E+01 0. -1.
         -5    1    3    3    0  501  0.16307893536E+02 -0.13480984839E+02  0.20741881694E+02  0.30000000000E+02  0.47000000000E+01 0.  1.
</event>
<event>
 5    1  0.7673937E-002  0.6000000E+02  0.7546771E-02  0.1259629E+00
         11   -1    0    0    0    0  0.00000000000E+00  0.00000000000E+00  0.30000000000E+02  0.30000000000E+02  0.00000000000E+00 0.  1.
        -11   -1    0    0    0    0 -0.00000000000E+00 -0.00000000000E+00 -0.30000000000E+02  0.30000000000E+02  0.00000000000E+00 0. -1.
         23    2    1    2    0    0  0.00000000000E+00  0.00000000000E+00  0.00000000000E+00  0.60000000000E+02  0.60000000000E+02 0.  0.
          5    1    3    3  501    0  0.25489966108E+02 -0.65626957514E+01  0.13605243559E+02  0.30000000000E+02  0.47000000000E+01 0. -1.
         -5    1    3    3    0  501 -0.25489966108E+02  0.65626957514E+01 -0.13605243559E+02  0.30000000000E+02  0.47000000000E+01 0.  1.
</event>
<event>
 5    1  0.7673937E-002  0.6000000E+02  0.7546771E-02  0.1259629E+00
         11   -1    0    0    0    0  0.00000000000E+00  0.00000000000E+00  0.30000000000E+02  0.30000000000E+02  0.00000000000E+00 0. -1.
        -11   -1    0    0    0    0 -0.00000000000E+00 -0.00000000000E+00 -0.30000000000E+02  0.30000000000E+02  0.00000000000E+00 0.  1.
         23    2    1    2    0    0  0.00000000000E+00  0.00000000000E+00  0.00000000000E+00  0.60000000000E+02  0.60000000000E+02 0.  0.
          5    1    3    3  501    0  0.61187203300E+01 -0.36965110217E+01 -0.28754253038E+02  0.30000000000E+02  0.47000000000E+01 0.  1.
         -5    1    3    3    0  501 -0.61187203300E+01  0.36965110217E+01  0.28754253038E+02  0.30000000000E+02  0.47000000000E+01 0. -1.
</event>
<event>
 5    1  0.7673937E-002  0.6000000E+02  0.7546771E-02  0.1259629E+00
         11   -1    0    0    0    0  0.00000000000E+00  0.00000000000E+00  0.30000000000E+02  0.30000000000E+02  0.00000000000E+00 0. -1.
        -11   -1    0    0    0    0 -0.00000000000E+00 -0.00000000000E+00 -0.30000000000E+02  0.30000000000E+02  0.00000000000E+00 0.  1.
         23    2    1    2    0    0  0.00000000000E+00  0.00000000000E+00  0.00000000000E+00  0.60000000000E+02  0.60000000000E+02 0.  0.
          5    1    3    3  501    0  0.57804298731E+00 -0.21907952481E+02  0.19940348152E+02  0.30000000000E+02  0.47000000000E+01 0. -1.
         -5    1    3    3    0  501 -0.57804298731E+00  0.21907952481E+02 -0.19940348152E+02  0.30000000000E+02  0.47000000000E+01 0.  1.
</event>
<event>
 5    1  0.7673937E-002  0.6000000E+02  0.7546771E-02  0.1259629E+00
         11   -1    0    0    0    0  0.00000000000E+00  0.00000000000E+00  0.30000000000E+02  0.30000000000E+02  0.00000000000E+00 0.  1.
        -11   -1    0    0    0    0 -0.00000000000E+00 -0.00000000000E+00 -0.30000000000E+02  0.30000000000E+02  0.00000000000E+00 0. -1.
         23    2    1    2    0    0  0.00000000000E+00  0.00000000000E+00  0.00000000000E+00  0.60000000000E+02  0.60000000000E+02 0.  0.
          5    1    3    3  501    0 -0.22624321105E+02  0.19103743682E+02  0.10474119765E+01  0.30000000000E+02  0.47000000000E+01 0. -1.
         -5    1    3    3    0  501  0.22624321105E+02 -0.19103743682E+02 -0.10474119765E+01  0.30000000000E+02  0.47000000000E+01 0.  1.
</event>
<event>
 5    1  0.7673937E-002  0.6000000E+02  0.7546771E-02  0.1259629E+00
         11   -1    0    0    0    0  0.00000000000E+00  0.00000000000E+00  0.30000000000E+02  0.30000000000E+02  0.00000000000E+00 0. -1.
        -11   -1    0    0    0    0 -0.00000000000E+00 -0.00000000000E+00 -0.30000000000E+02  0.30000000000E+02  0.00000000000E+00 0.  1.
         23    2    1    2    0    0  0.00000000000E+00  0.00000000000E+00  0.00000000000E+00  0.60000000000E+02  0.60000000000E+02 0.  0.
          5    1    3    3  501    0 -0.27472108745E+02  0.10557057104E+02  0.34266290177E+01  0.30000000000E+02  0.47000000000E+01 0.  1.
         -5    1    3    3    0  501  0.27472108745E+02 -0.10557057104E+02 -0.34266290177E+01  0.30000000000E+02  0.47000000000E+01 0. -1.
</event>
<event>
 5    1  0.7673937E-002  0.6000000E+02  0.7546771E-02  0.1259629E+00
         11   -1    0    0    0    0  0.00000000000E+00  0.00000000000E+00  0.30000000000E+02  0.30000000000E+02  0.00000000000E+00 0. -1.
        -11   -1    0    0    0    0 -0.00000000000E+00 -0.00000000000E+00 -0.30000000000E+02  0.30000000000E+02  0.00000000000E+00 0.  1.
         23    2    1    2    0    0  0.00000000000E+00  0.00000000000E+00  0.00000000000E+00  0.60000000000E+02  0.60000000000E+02 0.  0.
          5    1    3    3  501    0 -0.12043098022E+02 -0.21713430542E+02 -0.16167891765E+02  0.30000000000E+02  0.47000000000E+01 0.  1.
         -5    1    3    3    0  501  0.12043098022E+02  0.21713430542E+02  0.16167891765E+02  0.30000000000E+02  0.47000000000E+01 0. -1.
</event>
<event>
 5    1  0.7673937E-002  0.6000000E+02  0.7546771E-02  0.1259629E+00
         11   -1    0    0    0    0  0.00000000000E+00  0.00000000000E+00  0.30000000000E+02  0.30000000000E+02  0.00000000000E+00 0.  1.
        -11   -1    0    0    0    0 -0.00000000000E+00 -0.00000000000E+00 -0.30000000000E+02  0.30000000000E+02  0.00000000000E+00 0. -1.
         23    2    1    2    0    0  0.00000000000E+00  0.00000000000E+00  0.00000000000E+00  0.60000000000E+02  0.60000000000E+02 0.  0.
          5    1    3    3  501    0 -0.19616524396E+02 -0.13059654386E+02 -0.17959604615E+02  0.30000000000E+02  0.47000000000E+01 0. -1.
         -5    1    3    3    0  501  0.19616524396E+02  0.13059654386E+02  0.17959604615E+02  0.30000000000E+02  0.47000000000E+01 0.  1.
</event>
<event>
 5    1  0.7673937E-002  0.6000000E+02  0.7546771E-02  0.1259629E+00
         11   -1    0    0    0    0  0.00000000000E+00  0.00000000000E+00  0.30000000000E+02  0.30000000000E+02  0.00000000000E+00 0.  1.
        -11   -1    0    0    0    0 -0.00000000000E+00 -0.00000000000E+00 -0.30000000000E+02  0.30000000000E+02  0.00000000000E+00 0. -1.
         23    2    1    2    0    0  0.00000000000E+00  0.00000000000E+00  0.00000000000E+00  0.60000000000E+02  0.60000000000E+02 0.  0.
          5    1    3    3  501    0  0.27382257708E+02 -0.11314920185E+02  0.30748013135E+00  0.30000000000E+02  0.47000000000E+01 0. -1.
         -5    1    3    3    0  501 -0.27382257708E+02  0.11314920185E+02 -0.30748013135E+00  0.30000000000E+02  0.47000000000E+01 0.  1.
</event>
<event>
 5    1  0.7673937E-002  0.6000000E+02  0.7546771E-02  0.1259629E+00
         11   -1    0    0    0    0  0.00000000000E+00  0.00000000000E+00  0.30000000000E+02  0.30000000000E+02  0.00000000000E+00 0.  1.
        -11   -1    0    0    0    0 -0.00000000000E+00 -0.00000000000E+00 -0.30000000000E+02  0.30000000000E+02  0.00000000000E+00 0. -1.
         23    2    1    2    0    0  0.00000000000E+00  0.00000000000E+00  0.00000000000E+00  0.60000000000E+02  0.60000000000E+02 0.  0.
          5    1    3    3  501    0  0.23032612711E+02  0.58621826745E+01 -0.17693037218E+02  0.30000000000E+02  0.47000000000E+01 0. -1.
         -5    1    3    3    0  501 -0.23032612711E+02 -0.58621826745E+01  0.17693037218E+02  0.30000000000E+02  0.47000000000E+01 0.  1.
</event>
<event>
 5    1  0.7673937E-002  0.6000000E+02  0.7546771E-02  0.1259629E+00
         11   -1    0    0    0    0  0.00000000000E+00  0.00000000000E+00  0.30000000000E+02  0.30000000000E+02  0.00000000000E+00 0.  1.
        -11   -1    0    0    0    0 -0.00000000000E+00 -0.00000000000E+00 -0.30000000000E+02  0.30000000000E+02  0.00000000000E+00 0. -1.
         23    2    1    2    0    0  0.00000000000E+00  0.00000000000E+00  0.00000000000E+00  0.60000000000E+02  0.60000000000E+02 0.  0.
          5    1    3    3  501    0 -0.88488854205E+01  0.22376563267E+02  0.17288627568E+02  0.30000000000E+02  0.47000000000E+01 0. -1.
         -5    1    3    3    0  501  0.88488854205E+01 -0.22376563267E+02 -0.17288627568E+02  0.30000000000E+02  0.47000000000E+01 0.  1.
</event>
<event>
 5    1  0.7673937E-002  0.6000000E+02  0.7546771E-02  0.1259629E+00
         11   -1    0    0    0    0  0.00000000000E+00  0.00000000000E+00  0.30000000000E+02  0.30000000000E+02  0.00000000000E+00 0.  1.
        -11   -1    0    0    0    0 -0.00000000000E+00 -0.00000000000E+00 -0.30000000000E+02  0.30000000000E+02  0.00000000000E+00 0. -1.
         23    2    1    2    0    0  0.00000000000E+00  0.00000000000E+00  0.00000000000E+00  0.60000000000E+02  0.60000000000E+02 0.  0.
          5    1    3    3  501    0 -0.21891156033E+02  0.14387030095E+02 -0.13845600478E+02  0.30000000000E+02  0.47000000000E+01 0. -1.
         -5    1    3    3    0  501  0.21891156033E+02 -0.14387030095E+02  0.13845600478E+02  0.30000000000E+02  0.47000000000E+01 0.  1.
</event>
<event>
 5    1  0.7673937E-002  0.6000000E+02  0.7546771E-02  0.1259629E+00
         11   -1    0    0    0    0  0.00000000000E+00  0.00000000000E+00  0.30000000000E+02  0.30000000000E+02  0.00000000000E+00 0.  1.
        -11   -1    0    0    0    0 -0.00000000000E+00 -0.00000000000E+00 -0.30000000000E+02  0.30000000000E+02  0.00000000000E+00 0. -1.
         23    2    1    2    0    0  0.00000000000E+00  0.00000000000E+00  0.00000000000E+00  0.60000000000E+02  0.60000000000E+02 0.  0.
          5    1    3    3  501    0  0.16264106925E+02 -0.39700223578E+01 -0.24446426087E+02  0.30000000000E+02  0.47000000000E+01 0. -1.
         -5    1    3    3    0  501 -0.16264106925E+02  0.39700223578E+01  0.24446426087E+02  0.30000000000E+02  0.47000000000E+01 0.  1.
</event>
<event>
 5    1  0.7673937E-002  0.6000000E+02  0.7546771E-02  0.1259629E+00
         11   -1    0    0    0    0  0.00000000000E+00  0.00000000000E+00  0.30000000000E+02  0.30000000000E+02  0.00000000000E+00 0.  1.
        -11   -1    0    0    0    0 -0.00000000000E+00 -0.00000000000E+00 -0.30000000000E+02  0.30000000000E+02  0.00000000000E+00 0. -1.
         23    2    1    2    0    0  0.00000000000E+00  0.00000000000E+00  0.00000000000E+00  0.60000000000E+02  0.60000000000E+02 0.  0.
          5    1    3    3  501    0 -0.19623043900E+02  0.90112230036E+01 -0.20289012004E+02  0.30000000000E+02  0.47000000000E+01 0. -1.
         -5    1    3    3    0  501  0.19623043900E+02 -0.90112230036E+01  0.20289012004E+02  0.30000000000E+02  0.47000000000E+01 0.  1.
</event>
<event>
 5    1  0.7673937E-002  0.6000000E+02  0.7546771E-02  0.1259629E+00
         11   -1    0    0    0    0  0.00000000000E+00  0.00000000000E+00  0.30000000000E+02  0.30000000000E+02  0.00000000000E+00 0. -1.
        -11   -1    0    0    0    0 -0.00000000000E+00 -0.00000000000E+00 -0.30000000000E+02  0.30000000000E+02  0.00000000000E+00 0.  1.
         23    2    1    2    0    0  0.00000000000E+00  0.00000000000E+00  0.00000000000E+00  0.60000000000E+02  0.60000000000E+02 0.  0.
          5    1    3    3  501    0 -0.20254408168E+02 -0.20540502725E+02 -0.67643697114E+01  0.30000000000E+02  0.47000000000E+01 0. -1.
         -5    1    3    3    0  501  0.20254408168E+02  0.20540502725E+02  0.67643697114E+01  0.30000000000E+02  0.47000000000E+01 0.  1.
</event>
<event>
 5    1  0.7673937E-002  0.6000000E+02  0.7546771E-02  0.1259629E+00
         11   -1    0    0    0    0  0.00000000000E+00  0.00000000000E+00  0.30000000000E+02  0.30000000000E+02  0.00000000000E+00 0.  1.
        -11   -1    0    0    0    0 -0.00000000000E+00 -0.00000000000E+00 -0.30000000000E+02  0.30000000000E+02  0.00000000000E+00 0. -1.
         23    2    1    2    0    0  0.00000000000E+00  0.00000000000E+00  0.00000000000E+00  0.60000000000E+02  0.60000000000E+02 0.  0.
          5    1    3    3  501    0 -0.13188585708E+02  0.11742391766E+02 -0.23792592180E+02  0.30000000000E+02  0.47000000000E+01 0. -1.
         -5    1    3    3    0  501  0.13188585708E+02 -0.11742391766E+02  0.23792592180E+02  0.30000000000E+02  0.47000000000E+01 0.  1.
</event>
<event>
 5    1  0.7673937E-002  0.6000000E+02  0.7546771E-02  0.1259629E+00
         11   -1    0    0    0    0  0.00000000000E+00  0.00000000000E+00  0.30000000000E+02  0.30000000000E+02  0.00000000000E+00 0. -1.
        -11   -1    0    0    0    0 -0.00000000000E+00 -0.00000000000E+00 -0.30000000000E+02  0.30000000000E+02  0.00000000000E+00 0.  1.
         23    2    1    2    0    0  0.00000000000E+00  0.00000000000E+00  0.00000000000E+00  0.60000000000E+02  0.60000000000E+02 0.  0.
          5    1    3    3  501    0 -0.20872773556E+01 -0.17862980690E+02  0.23547127088E+02  0.30000000000E+02  0.47000000000E+01 0. -1.
         -5    1    3    3    0  501  0.20872773556E+01  0.17862980690E+02 -0.23547127088E+02  0.30000000000E+02  0.47000000000E+01 0.  1.
</event>
<event>
 5    1  0.7673937E-002  0.6000000E+02  0.7546771E-02  0.1259629E+00
         11   -1    0    0    0    0  0.00000000000E+00  0.00000000000E+00  0.30000000000E+02  0.30000000000E+02  0.00000000000E+00 0.  1.
        -11   -1    0    0    0    0 -0.00000000000E+00 -0.00000000000E+00 -0.30000000000E+02  0.30000000000E+02  0.00000000000E+00 0. -1.
         23    2    1    2    0    0  0.00000000000E+00  0.00000000000E+00  0.00000000000E+00  0.60000000000E+02  0.60000000000E+02 0.  0.
          5    1    3    3  501    0  0.21041393999E+02 -0.48733636758E+00 -0.20855029174E+02  0.30000000000E+02  0.47000000000E+01 0. -1.
         -5    1    3    3    0  501 -0.21041393999E+02  0.48733636758E+00  0.20855029174E+02  0.30000000000E+02  0.47000000000E+01 0.  1.
</event>
<event>
 5    1  0.7673937E-002  0.6000000E+02  0.7546771E-02  0.1259629E+00
         11   -1    0    0    0    0  0.00000000000E+00  0.00000000000E+00  0.30000000000E+02  0.30000000000E+02  0.00000000000E+00 0.  1.
        -11   -1    0    0    0    0 -0.00000000000E+00 -0.00000000000E+00 -0.30000000000E+02  0.30000000000E+02  0.00000000000E+00 0. -1.
         23    2    1    2    0    0  0.00000000000E+00  0.00000000000E+00  0.00000000000E+00  0.60000000000E+02  0.60000000000E+02 0.  0.
          5    1    3    3  501    0 -0.22999916637E+02 -0.16114511212E+01  0.18609595911E+02  0.30000000000E+02  0.47000000000E+01 0. -1.
         -5    1    3    3    0  501  0.22999916637E+02  0.16114511212E+01 -0.18609595911E+02  0.30000000000E+02  0.47000000000E+01 0.  1.
</event>
<event>
 5    1  0.7673937E-002  0.6000000E+02  0.7546771E-02  0.1259629E+00
         11   -1    0    0    0    0  0.00000000000E+00  0.00000000000E+00  0.30000000000E+02  0.30000000000E+02  0.00000000000E+00 0.  1.
        -11   -1    0    0    0    0 -0.00000000000E+00 -0.00000000000E+00 -0.30000000000E+02  0.30000000000E+02  0.00000000000E+00 0. -1.
         23    2    1    2    0    0  0.00000000000E+00  0.00000000000E+00  0.00000000000E+00  0.60000000000E+02  0.60000000000E+02 0.  0.
          5    1    3    3  501    0 -0.10602347747E+02 -0.17299735137E+01 -0.27613536787E+02  0.30000000000E+02  0.47000000000E+01 0. -1.
         -5    1    3    3    0  501  0.10602347747E+02  0.17299735137E+01  0.27613536787E+02  0.30000000000E+02  0.47000000000E+01 0.  1.
</event>
<event>
 5    1  0.7673937E-002  0.6000000E+02  0.7546771E-02  0.1259629E+00
         11   -1    0    0    0    0  0.00000000000E+00  0.00000000000E+00  0.30000000000E+02  0.30000000000E+02  0.00000000000E+00 0. -1.
        -11   -1    0    0    0    0 -0.00000000000E+00 -0.00000000000E+00 -0.30000000000E+02  0.30000000000E+02  0.00000000000E+00 0.  1.
         23    2    1    2    0    0  0.00000000000E+00  0.00000000000E+00  0.00000000000E+00  0.60000000000E+02  0.60000000000E+02 0.  0.
          5    1    3    3  501    0 -0.56625105720E+01  0.21967636750E+02 -0.19059614625E+02  0.30000000000E+02  0.47000000000E+01 0.  1.
         -5    1    3    3    0  501  0.56625105720E+01 -0.21967636750E+02  0.19059614625E+02  0.30000000000E+02  0.47000000000E+01 0. -1.
</event>
<event>
 5    1  0.7673937E-002  0.6000000E+02  0.7546771E-02  0.1259629E+00
         11   -1    0    0    0    0  0.00000000000E+00  0.00000000000E+00  0.30000000000E+02  0.30000000000E+02  0.00000000000E+00 0. -1.
        -11   -1    0    0    0    0 -0.00000000000E+00 -0.00000000000E+00 -0.30000000000E+02  0.30000000000E+02  0.00000000000E+00 0.  1.
         23    2    1    2    0    0  0.00000000000E+00  0.00000000000E+00  0.00000000000E+00  0.60000000000E+02  0.60000000000E+02 0.  0.
          5    1    3    3  501    0  0.28580304513E+02 -0.20798498440E+01 -0.75332873671E+01  0.30000000000E+02  0.47000000000E+01 0.  1.
         -5    1    3    3    0  501 -0.28580304513E+02  0.20798498440E+01  0.75332873671E+01  0.30000000000E+02  0.47000000000E+01 0. -1.
</event>
<event>
 5    1  0.7673937E-002  0.6000000E+02  0.7546771E-02  0.1259629E+00
         11   -1    0    0    0    0  0.00000000000E+00  0.00000000000E+00  0.30000000000E+02  0.30000000000E+02  0.00000000000E+00 0.  1.
        -11   -1    0    0    0    0 -0.00000000000E+00 -0.00000000000E+00 -0.30000000000E+02  0.30000000000E+02  0.00000000000E+00 0. -1.
         23    2    1    2    0    0  0.00000000000E+00  0.00000000000E+00  0.00000000000E+00  0.60000000000E+02  0.60000000000E+02 0.  0.
          5    1    3    3  501    0 -0.30625542074E+01 -0.63030663993E+01  0.28788923490E+02  0.30000000000E+02  0.47000000000E+01 0. -1.
         -5    1    3    3    0  501  0.30625542074E+01  0.63030663993E+01 -0.28788923490E+02  0.30000000000E+02  0.47000000000E+01 0. -1.
</event>
<event>
 5    1  0.7673937E-002  0.6000000E+02  0.7546771E-02  0.1259629E+00
         11   -1    0    0    0    0  0.00000000000E+00  0.00000000000E+00  0.30000000000E+02  0.30000000000E+02  0.00000000000E+00 0. -1.
        -11   -1    0    0    0    0 -0.00000000000E+00 -0.00000000000E+00 -0.30000000000E+02  0.30000000000E+02  0.00000000000E+00 0.  1.
         23    2    1    2    0    0  0.00000000000E+00  0.00000000000E+00  0.00000000000E+00  0.60000000000E+02  0.60000000000E+02 0.  0.
          5    1    3    3  501    0  0.29502494977E+02  0.21608476160E+01  0.16862762947E+01  0.30000000000E+02  0.47000000000E+01 0.  1.
         -5    1    3    3    0  501 -0.29502494977E+02 -0.21608476160E+01 -0.16862762947E+01  0.30000000000E+02  0.47000000000E+01 0. -1.
</event>
<event>
 5    1  0.7673937E-002  0.6000000E+02  0.7546771E-02  0.1259629E+00
         11   -1    0    0    0    0  0.00000000000E+00  0.00000000000E+00  0.30000000000E+02  0.30000000000E+02  0.00000000000E+00 0.  1.
        -11   -1    0    0    0    0 -0.00000000000E+00 -0.00000000000E+00 -0.30000000000E+02  0.30000000000E+02  0.00000000000E+00 0. -1.
         23    2    1    2    0    0  0.00000000000E+00  0.00000000000E+00  0.00000000000E+00  0.60000000000E+02  0.60000000000E+02 0.  0.
          5    1    3    3  501    0  0.13084274579E+02 -0.53140767613E+01 -0.26047501740E+02  0.30000000000E+02  0.47000000000E+01 0. -1.
         -5    1    3    3    0  501 -0.13084274579E+02  0.53140767613E+01  0.26047501740E+02  0.30000000000E+02  0.47000000000E+01 0.  1.
</event>
<event>
 5    1  0.7673937E-002  0.6000000E+02  0.7546771E-02  0.1259629E+00
         11   -1    0    0    0    0  0.00000000000E+00  0.00000000000E+00  0.30000000000E+02  0.30000000000E+02  0.00000000000E+00 0.  1.
        -11   -1    0    0    0    0 -0.00000000000E+00 -0.00000000000E+00 -0.30000000000E+02  0.30000000000E+02  0.00000000000E+00 0. -1.
         23    2    1    2    0    0  0.00000000000E+00  0.00000000000E+00  0.00000000000E+00  0.60000000000E+02  0.60000000000E+02 0.  0.
          5    1    3    3  501    0 -0.23028797108E+02  0.18562217799E+02 -0.17402799019E+01  0.30000000000E+02  0.47000000000E+01 0. -1.
         -5    1    3    3    0  501  0.23028797108E+02 -0.18562217799E+02  0.17402799019E+01  0.30000000000E+02  0.47000000000E+01 0.  1.
</event>
<event>
 5    1  0.7673937E-002  0.6000000E+02  0.7546771E-02  0.1259629E+00
         11   -1    0    0    0    0  0.00000000000E+00  0.00000000000E+00  0.30000000000E+02  0.30000000000E+02  0.00000000000E+00 0.  1.
        -11   -1    0    0    0    0 -0.00000000000E+00 -0.00000000000E+00 -0.30000000000E+02  0.30000000000E+02  0.00000000000E+00 0. -1.
         23    2    1    2    0    0  0.00000000000E+00  0.00000000000E+00  0.00000000000E+00  0.60000000000E+02  0.60000000000E+02 0.  0.
          5    1    3    3  501    0  0.72200350899E+01 -0.23931252446E+02 -0.15908370427E+02  0.30000000000E+02  0.47000000000E+01 0. -1.
         -5    1    3    3    0  501 -0.72200350899E+01  0.23931252446E+02  0.15908370427E+02  0.30000000000E+02  0.47000000000E+01 0.  1.
</event>
<event>
 5    1  0.7673937E-002  0.6000000E+02  0.7546771E-02  0.1259629E+00
         11   -1    0    0    0    0  0.00000000000E+00  0.00000000000E+00  0.30000000000E+02  0.30000000000E+02  0.00000000000E+00 0.  1.
        -11   -1    0    0    0    0 -0.00000000000E+00 -0.00000000000E+00 -0.30000000000E+02  0.30000000000E+02  0.00000000000E+00 0. -1.
         23    2    1    2    0    0  0.00000000000E+00  0.00000000000E+00  0.00000000000E+00  0.60000000000E+02  0.60000000000E+02 0.  0.
          5    1    3    3  501    0 -0.18028465892E+02  0.23507681867E+02 -0.52279138681E+00  0.30000000000E+02  0.47000000000E+01 0. -1.
         -5    1    3    3    0  501  0.18028465892E+02 -0.23507681867E+02  0.52279138681E+00  0.30000000000E+02  0.47000000000E+01 0.  1.
</event>
<event>
 5    1  0.7673937E-002  0.6000000E+02  0.7546771E-02  0.1259629E+00
         11   -1    0    0    0    0  0.00000000000E+00  0.00000000000E+00  0.30000000000E+02  0.30000000000E+02  0.00000000000E+00 0. -1.
        -11   -1    0    0    0    0 -0.00000000000E+00 -0.00000000000E+00 -0.30000000000E+02  0.30000000000E+02  0.00000000000E+00 0.  1.
         23    2    1    2    0    0  0.00000000000E+00  0.00000000000E+00  0.00000000000E+00  0.60000000000E+02  0.60000000000E+02 0.  0.
          5    1    3    3  501    0  0.11319479533E+02  0.25421180608E+02  0.10175606105E+02  0.30000000000E+02  0.47000000000E+01 0. -1.
         -5    1    3    3    0  501 -0.11319479533E+02 -0.25421180608E+02 -0.10175606105E+02  0.30000000000E+02  0.47000000000E+01 0.  1.
</event>
<event>
 5    1  0.7673937E-002  0.6000000E+02  0.7546771E-02  0.1259629E+00
         11   -1    0    0    0    0  0.00000000000E+00  0.00000000000E+00  0.30000000000E+02  0.30000000000E+02  0.00000000000E+00 0.  1.
        -11   -1    0    0    0    0 -0.00000000000E+00 -0.00000000000E+00 -0.30000000000E+02  0.30000000000E+02  0.00000000000E+00 0. -1.
         23    2    1    2    0    0  0.00000000000E+00  0.00000000000E+00  0.00000000000E+00  0.60000000000E+02  0.60000000000E+02 0.  0.
          5    1    3    3  501    0 -0.60485079546E+01  0.84704664095E+00 -0.28993241687E+02  0.30000000000E+02  0.47000000000E+01 0. -1.
         -5    1    3    3    0  501  0.60485079546E+01 -0.84704664095E+00  0.28993241687E+02  0.30000000000E+02  0.47000000000E+01 0.  1.
</event>
<event>
 5    1  0.7673937E-002  0.6000000E+02  0.7546771E-02  0.1259629E+00
         11   -1    0    0    0    0  0.00000000000E+00  0.00000000000E+00  0.30000000000E+02  0.30000000000E+02  0.00000000000E+00 0.  1.
        -11   -1    0    0    0    0 -0.00000000000E+00 -0.00000000000E+00 -0.30000000000E+02  0.30000000000E+02  0.00000000000E+00 0. -1.
         23    2    1    2    0    0  0.00000000000E+00  0.00000000000E+00  0.00000000000E+00  0.60000000000E+02  0.60000000000E+02 0.  0.
          5    1    3    3  501    0  0.20735738285E+02 -0.19315647919E+02 -0.86512948874E+01  0.30000000000E+02  0.47000000000E+01 0. -1.
         -5    1    3    3    0  501 -0.20735738285E+02  0.19315647919E+02  0.86512948874E+01  0.30000000000E+02  0.47000000000E+01 0.  1.
</event>
<event>
 5    1  0.7673937E-002  0.6000000E+02  0.7546771E-02  0.1259629E+00
         11   -1    0    0    0    0  0.00000000000E+00  0.00000000000E+00  0.30000000000E+02  0.30000000000E+02  0.00000000000E+00 0.  1.
        -11   -1    0    0    0    0 -0.00000000000E+00 -0.00000000000E+00 -0.30000000000E+02  0.30000000000E+02  0.00000000000E+00 0. -1.
         23    2    1    2    0    0  0.00000000000E+00  0.00000000000E+00  0.00000000000E+00  0.60000000000E+02  0.60000000000E+02 0.  0.
          5    1    3    3  501    0  0.25593696500E+02  0.96543464783E+01 -0.11387110851E+02  0.30000000000E+02  0.47000000000E+01 0. -1.
         -5    1    3    3    0  501 -0.25593696500E+02 -0.96543464783E+01  0.11387110851E+02  0.30000000000E+02  0.47000000000E+01 0.  1.
</event>
<event>
 5    1  0.7673937E-002  0.6000000E+02  0.7546771E-02  0.1259629E+00
         11   -1    0    0    0    0  0.00000000000E+00  0.00000000000E+00  0.30000000000E+02  0.30000000000E+02  0.00000000000E+00 0.  1.
        -11   -1    0    0    0    0 -0.00000000000E+00 -0.00000000000E+00 -0.30000000000E+02  0.30000000000E+02  0.00000000000E+00 0. -1.
         23    2    1    2    0    0  0.00000000000E+00  0.00000000000E+00  0.00000000000E+00  0.60000000000E+02  0.60000000000E+02 0.  0.
          5    1    3    3  501    0 -0.21213929056E+02  0.60343423001E-01  0.20685153436E+02  0.30000000000E+02  0.47000000000E+01 0. -1.
         -5    1    3    3    0  501  0.21213929056E+02 -0.60343423001E-01 -0.20685153436E+02  0.30000000000E+02  0.47000000000E+01 0.  1.
</event>
<event>
 5    1  0.7673937E-002  0.6000000E+02  0.7546771E-02  0.1259629E+00
         11   -1    0    0    0    0  0.00000000000E+00  0.00000000000E+00  0.30000000000E+02  0.30000000000E+02  0.00000000000E+00 0.  1.
        -11   -1    0    0    0    0 -0.00000000000E+00 -0.00000000000E+00 -0.30000000000E+02  0.30000000000E+02  0.00000000000E+00 0. -1.
         23    2    1    2    0    0  0.00000000000E+00  0.00000000000E+00  0.00000000000E+00  0.60000000000E+02  0.60000000000E+02 0.  0.
          5    1    3    3  501    0  0.18427385967E+02 -0.23164714648E+02 -0.13181205175E+01  0.30000000000E+02  0.47000000000E+01 0. -1.
         -5    1    3    3    0  501 -0.18427385967E+02  0.23164714648E+02  0.13181205175E+01  0.30000000000E+02  0.47000000000E+01 0.  1.
</event>
<event>
 5    1  0.7673937E-002  0.6000000E+02  0.7546771E-02  0.1259629E+00
         11   -1    0    0    0    0  0.00000000000E+00  0.00000000000E+00  0.30000000000E+02  0.30000000000E+02  0.00000000000E+00 0.  1.
        -11   -1    0    0    0    0 -0.00000000000E+00 -0.00000000000E+00 -0.30000000000E+02  0.30000000000E+02  0.00000000000E+00 0. -1.
         23    2    1    2    0    0  0.00000000000E+00  0.00000000000E+00  0.00000000000E+00  0.60000000000E+02  0.60000000000E+02 0.  0.
          5    1    3    3  501    0  0.11283570273E+02 -0.26296281249E+02  0.76874335349E+01  0.30000000000E+02  0.47000000000E+01 0. -1.
         -5    1    3    3    0  501 -0.11283570273E+02  0.26296281249E+02 -0.76874335349E+01  0.30000000000E+02  0.47000000000E+01 0.  1.
</event>
<event>
 5    1  0.7673937E-002  0.6000000E+02  0.7546771E-02  0.1259629E+00
         11   -1    0    0    0    0  0.00000000000E+00  0.00000000000E+00  0.30000000000E+02  0.30000000000E+02  0.00000000000E+00 0.  1.
        -11   -1    0    0    0    0 -0.00000000000E+00 -0.00000000000E+00 -0.30000000000E+02  0.30000000000E+02  0.00000000000E+00 0. -1.
         23    2    1    2    0    0  0.00000000000E+00  0.00000000000E+00  0.00000000000E+00  0.60000000000E+02  0.60000000000E+02 0.  0.
          5    1    3    3  501    0 -0.34894256290E+00  0.93464483507E+01 -0.28114625061E+02  0.30000000000E+02  0.47000000000E+01 0. -1.
         -5    1    3    3    0  501  0.34894256290E+00 -0.93464483507E+01  0.28114625061E+02  0.30000000000E+02  0.47000000000E+01 0.  1.
</event>
<event>
 5    1  0.7673937E-002  0.6000000E+02  0.7546771E-02  0.1259629E+00
         11   -1    0    0    0    0  0.00000000000E+00  0.00000000000E+00  0.30000000000E+02  0.30000000000E+02  0.00000000000E+00 0. -1.
        -11   -1    0    0    0    0 -0.00000000000E+00 -0.00000000000E+00 -0.30000000000E+02  0.30000000000E+02  0.00000000000E+00 0.  1.
         23    2    1    2    0    0  0.00000000000E+00  0.00000000000E+00  0.00000000000E+00  0.60000000000E+02  0.60000000000E+02 0.  0.
          5    1    3    3  501    0 -0.91075365000E+01 -0.25370786993E+02 -0.12299835213E+02  0.30000000000E+02  0.47000000000E+01 0.  1.
         -5    1    3    3    0  501  0.91075365000E+01  0.25370786993E+02  0.12299835213E+02  0.30000000000E+02  0.47000000000E+01 0. -1.
</event>
<event>
 5    1  0.7673937E-002  0.6000000E+02  0.7546771E-02  0.1259629E+00
         11   -1    0    0    0    0  0.00000000000E+00  0.00000000000E+00  0.30000000000E+02  0.30000000000E+02  0.00000000000E+00 0.  1.
        -11   -1    0    0    0    0 -0.00000000000E+00 -0.00000000000E+00 -0.30000000000E+02  0.30000000000E+02  0.00000000000E+00 0. -1.
         23    2    1    2    0    0  0.00000000000E+00  0.00000000000E+00  0.00000000000E+00  0.60000000000E+02  0.60000000000E+02 0.  0.
          5    1    3    3  501    0 -0.12513577603E+01 -0.11590393318E+02 -0.27239803349E+02  0.30000000000E+02  0.47000000000E+01 0. -1.
         -5    1    3    3    0  501  0.12513577603E+01  0.11590393318E+02  0.27239803349E+02  0.30000000000E+02  0.47000000000E+01 0.  1.
</event>
<event>
 5    1  0.7673937E-002  0.6000000E+02  0.7546771E-02  0.1259629E+00
         11   -1    0    0    0    0  0.00000000000E+00  0.00000000000E+00  0.30000000000E+02  0.30000000000E+02  0.00000000000E+00 0.  1.
        -11   -1    0    0    0    0 -0.00000000000E+00 -0.00000000000E+00 -0.30000000000E+02  0.30000000000E+02  0.00000000000E+00 0. -1.
         23    2    1    2    0    0  0.00000000000E+00  0.00000000000E+00  0.00000000000E+00  0.60000000000E+02  0.60000000000E+02 0.  0.
          5    1    3    3  501    0  0.26630766276E+02 -0.73430830890E+01  0.10714075709E+02  0.30000000000E+02  0.47000000000E+01 0. -1.
         -5    1    3    3    0  501 -0.26630766276E+02  0.73430830890E+01 -0.10714075709E+02  0.30000000000E+02  0.47000000000E+01 0.  1.
</event>
<event>
 5    1  0.7673937E-002  0.6000000E+02  0.7546771E-02  0.1259629E+00
         11   -1    0    0    0    0  0.00000000000E+00  0.00000000000E+00  0.30000000000E+02  0.30000000000E+02  0.00000000000E+00 0.  1.
        -11   -1    0    0    0    0 -0.00000000000E+00 -0.00000000000E+00 -0.30000000000E+02  0.30000000000E+02  0.00000000000E+00 0. -1.
         23    2    1    2    0    0  0.00000000000E+00  0.00000000000E+00  0.00000000000E+00  0.60000000000E+02  0.60000000000E+02 0.  0.
          5    1    3    3  501    0 -0.99026305412E+00  0.19952004973E+02 -0.21882570156E+02  0.30000000000E+02  0.47000000000E+01 0. -1.
         -5    1    3    3    0  501  0.99026305412E+00 -0.19952004973E+02  0.21882570156E+02  0.30000000000E+02  0.47000000000E+01 0.  1.
</event>
<event>
 5    1  0.7673937E-002  0.6000000E+02  0.7546771E-02  0.1259629E+00
         11   -1    0    0    0    0  0.00000000000E+00  0.00000000000E+00  0.30000000000E+02  0.30000000000E+02  0.00000000000E+00 0.  1.
        -11   -1    0    0    0    0 -0.00000000000E+00 -0.00000000000E+00 -0.30000000000E+02  0.30000000000E+02  0.00000000000E+00 0. -1.
         23    2    1    2    0    0  0.00000000000E+00  0.00000000000E+00  0.00000000000E+00  0.60000000000E+02  0.60000000000E+02 0.  0.
          5    1    3    3  501    0 -0.28040747851E+02  0.87826492448E+01  0.38067745138E+01  0.30000000000E+02  0.47000000000E+01 0. -1.
         -5    1    3    3    0  501  0.28040747851E+02 -0.87826492448E+01 -0.38067745138E+01  0.30000000000E+02  0.47000000000E+01 0.  1.
</event>
<event>
 5    1  0.7673937E-002  0.6000000E+02  0.7546771E-02  0.1259629E+00
         11   -1    0    0    0    0  0.00000000000E+00  0.00000000000E+00  0.30000000000E+02  0.30000000000E+02  0.00000000000E+00 0.  1.
        -11   -1    0    0    0    0 -0.00000000000E+00 -0.00000000000E+00 -0.30000000000E+02  0.30000000000E+02  0.00000000000E+00 0. -1.
         23    2    1    2    0    0  0.00000000000E+00  0.00000000000E+00  0.00000000000E+00  0.60000000000E+02  0.60000000000E+02 0.  0.
          5    1    3    3  501    0  0.48738230057E+01 -0.25298642674E+02  0.14633336194E+02  0.30000000000E+02  0.47000000000E+01 0. -1.
         -5    1    3    3    0  501 -0.48738230057E+01  0.25298642674E+02 -0.14633336194E+02  0.30000000000E+02  0.47000000000E+01 0.  1.
</event>
<event>
 5    1  0.7673937E-002  0.6000000E+02  0.7546771E-02  0.1259629E+00
         11   -1    0    0    0    0  0.00000000000E+00  0.00000000000E+00  0.30000000000E+02  0.30000000000E+02  0.00000000000E+00 0. -1.
        -11   -1    0    0    0    0 -0.00000000000E+00 -0.00000000000E+00 -0.30000000000E+02  0.30000000000E+02  0.00000000000E+00 0.  1.
         23    2    1    2    0    0  0.00000000000E+00  0.00000000000E+00  0.00000000000E+00  0.60000000000E+02  0.60000000000E+02 0.  0.
          5    1    3    3  501    0 -0.17490161821E+01  0.11263440908E+02 -0.27349329815E+02  0.30000000000E+02  0.47000000000E+01 0.  1.
         -5    1    3    3    0  501  0.17490161821E+01 -0.11263440908E+02  0.27349329815E+02  0.30000000000E+02  0.47000000000E+01 0. -1.
</event>
<event>
 5    1  0.7673937E-002  0.6000000E+02  0.7546771E-02  0.1259629E+00
         11   -1    0    0    0    0  0.00000000000E+00  0.00000000000E+00  0.30000000000E+02  0.30000000000E+02  0.00000000000E+00 0.  1.
        -11   -1    0    0    0    0 -0.00000000000E+00 -0.00000000000E+00 -0.30000000000E+02  0.30000000000E+02  0.00000000000E+00 0. -1.
         23    2    1    2    0    0  0.00000000000E+00  0.00000000000E+00  0.00000000000E+00  0.60000000000E+02  0.60000000000E+02 0.  0.
          5    1    3    3  501    0  0.13242796865E+02 -0.18806537210E+02 -0.18677593243E+02  0.30000000000E+02  0.47000000000E+01 0. -1.
         -5    1    3    3    0  501 -0.13242796865E+02  0.18806537210E+02  0.18677593243E+02  0.30000000000E+02  0.47000000000E+01 0.  1.
</event>
<event>
 5    1  0.7673937E-002  0.6000000E+02  0.7546771E-02  0.1259629E+00
         11   -1    0    0    0    0  0.00000000000E+00  0.00000000000E+00  0.30000000000E+02  0.30000000000E+02  0.00000000000E+00 0.  1.
        -11   -1    0    0    0    0 -0.00000000000E+00 -0.00000000000E+00 -0.30000000000E+02  0.30000000000E+02  0.00000000000E+00 0. -1.
         23    2    1    2    0    0  0.00000000000E+00  0.00000000000E+00  0.00000000000E+00  0.60000000000E+02  0.60000000000E+02 0.  0.
          5    1    3    3  501    0  0.71221894007E+01 -0.28758878563E+02 -0.33364946378E+00  0.30000000000E+02  0.47000000000E+01 0.  1.
         -5    1    3    3    0  501 -0.71221894007E+01  0.28758878563E+02  0.33364946378E+00  0.30000000000E+02  0.47000000000E+01 0. -1.
</event>
<event>
 5    1  0.7673937E-002  0.6000000E+02  0.7546771E-02  0.1259629E+00
         11   -1    0    0    0    0  0.00000000000E+00  0.00000000000E+00  0.30000000000E+02  0.30000000000E+02  0.00000000000E+00 0.  1.
        -11   -1    0    0    0    0 -0.00000000000E+00 -0.00000000000E+00 -0.30000000000E+02  0.30000000000E+02  0.00000000000E+00 0. -1.
         23    2    1    2    0    0  0.00000000000E+00  0.00000000000E+00  0.00000000000E+00  0.60000000000E+02  0.60000000000E+02 0.  0.
          5    1    3    3  501    0  0.11776212132E+02  0.54485165370E+01 -0.26637276426E+02  0.30000000000E+02  0.47000000000E+01 0. -1.
         -5    1    3    3    0  501 -0.11776212132E+02 -0.54485165370E+01  0.26637276426E+02  0.30000000000E+02  0.47000000000E+01 0.  1.
</event>
<event>
 5    1  0.7673937E-002  0.6000000E+02  0.7546771E-02  0.1259629E+00
         11   -1    0    0    0    0  0.00000000000E+00  0.00000000000E+00  0.30000000000E+02  0.30000000000E+02  0.00000000000E+00 0. -1.
        -11   -1    0    0    0    0 -0.00000000000E+00 -0.00000000000E+00 -0.30000000000E+02  0.30000000000E+02  0.00000000000E+00 0.  1.
         23    2    1    2    0    0  0.00000000000E+00  0.00000000000E+00  0.00000000000E+00  0.60000000000E+02  0.60000000000E+02 0.  0.
          5    1    3    3  501    0 -0.28076911622E+02  0.92828525697E+01  0.18508597787E+01  0.30000000000E+02  0.47000000000E+01 0.  1.
         -5    1    3    3    0  501  0.28076911622E+02 -0.92828525697E+01 -0.18508597787E+01  0.30000000000E+02  0.47000000000E+01 0. -1.
</event>
<event>
 5    1  0.7673937E-002  0.6000000E+02  0.7546771E-02  0.1259629E+00
         11   -1    0    0    0    0  0.00000000000E+00  0.00000000000E+00  0.30000000000E+02  0.30000000000E+02  0.00000000000E+00 0.  1.
        -11   -1    0    0    0    0 -0.00000000000E+00 -0.00000000000E+00 -0.30000000000E+02  0.30000000000E+02  0.00000000000E+00 0. -1.
         23    2    1    2    0    0  0.00000000000E+00  0.00000000000E+00  0.00000000000E+00  0.60000000000E+02  0.60000000000E+02 0.  0.
          5    1    3    3  501    0 -0.14669946659E+02 -0.25709109086E+02  0.13207479129E+01  0.30000000000E+02  0.47000000000E+01 0. -1.
         -5    1    3    3    0  501  0.14669946659E+02  0.25709109086E+02 -0.13207479129E+01  0.30000000000E+02  0.47000000000E+01 0.  1.
</event>
<event>
 5    1  0.7673937E-002  0.6000000E+02  0.7546771E-02  0.1259629E+00
         11   -1    0    0    0    0  0.00000000000E+00  0.00000000000E+00  0.30000000000E+02  0.30000000000E+02  0.00000000000E+00 0.  1.
        -11   -1    0    0    0    0 -0.00000000000E+00 -0.00000000000E+00 -0.30000000000E+02  0.30000000000E+02  0.00000000000E+00 0. -1.
         23    2    1    2    0    0  0.00000000000E+00  0.00000000000E+00  0.00000000000E+00  0.60000000000E+02  0.60000000000E+02 0.  0.
          5    1    3    3  501    0  0.14587076277E+02 -0.14537926602E+02 -0.21302016238E+02  0.30000000000E+02  0.47000000000E+01 0. -1.
         -5    1    3    3    0  501 -0.14587076277E+02  0.14537926602E+02  0.21302016238E+02  0.30000000000E+02  0.47000000000E+01 0.  1.
</event>
<event>
 5    1  0.7673937E-002  0.6000000E+02  0.7546771E-02  0.1259629E+00
         11   -1    0    0    0    0  0.00000000000E+00  0.00000000000E+00  0.30000000000E+02  0.30000000000E+02  0.00000000000E+00 0. -1.
        -11   -1    0    0    0    0 -0.00000000000E+00 -0.00000000000E+00 -0.30000000000E+02  0.30000000000E+02  0.00000000000E+00 0.  1.
         23    2    1    2    0    0  0.00000000000E+00  0.00000000000E+00  0.00000000000E+00  0.60000000000E+02  0.60000000000E+02 0.  0.
          5    1    3    3  501    0 -0.19718097110E+02 -0.97405243382E+01 -0.19855196598E+02  0.30000000000E+02  0.47000000000E+01 0.  1.
         -5    1    3    3    0  501  0.19718097110E+02  0.97405243382E+01  0.19855196598E+02  0.30000000000E+02  0.47000000000E+01 0. -1.
</event>
<event>
 5    1  0.7673937E-002  0.6000000E+02  0.7546771E-02  0.1259629E+00
         11   -1    0    0    0    0  0.00000000000E+00  0.00000000000E+00  0.30000000000E+02  0.30000000000E+02  0.00000000000E+00 0. -1.
        -11   -1    0    0    0    0 -0.00000000000E+00 -0.00000000000E+00 -0.30000000000E+02  0.30000000000E+02  0.00000000000E+00 0.  1.
         23    2    1    2    0    0  0.00000000000E+00  0.00000000000E+00  0.00000000000E+00  0.60000000000E+02  0.60000000000E+02 0.  0.
          5    1    3    3  501    0  0.13679112800E+02 -0.53643681722E+01 -0.25729660455E+02  0.30000000000E+02  0.47000000000E+01 0.  1.
         -5    1    3    3    0  501 -0.13679112800E+02  0.53643681722E+01  0.25729660455E+02  0.30000000000E+02  0.47000000000E+01 0. -1.
</event>
<event>
 5    1  0.7673937E-002  0.6000000E+02  0.7546771E-02  0.1259629E+00
         11   -1    0    0    0    0  0.00000000000E+00  0.00000000000E+00  0.30000000000E+02  0.30000000000E+02  0.00000000000E+00 0.  1.
        -11   -1    0    0    0    0 -0.00000000000E+00 -0.00000000000E+00 -0.30000000000E+02  0.30000000000E+02  0.00000000000E+00 0. -1.
         23    2    1    2    0    0  0.00000000000E+00  0.00000000000E+00  0.00000000000E+00  0.60000000000E+02  0.60000000000E+02 0.  0.
          5    1    3    3  501    0  0.13645205249E+02 -0.21873927317E+02 -0.14603070823E+02  0.30000000000E+02  0.47000000000E+01 0. -1.
         -5    1    3    3    0  501 -0.13645205249E+02  0.21873927317E+02  0.14603070823E+02  0.30000000000E+02  0.47000000000E+01 0.  1.
</event>
<event>
 5    1  0.7673937E-002  0.6000000E+02  0.7546771E-02  0.1259629E+00
         11   -1    0    0    0    0  0.00000000000E+00  0.00000000000E+00  0.30000000000E+02  0.30000000000E+02  0.00000000000E+00 0.  1.
        -11   -1    0    0    0    0 -0.00000000000E+00 -0.00000000000E+00 -0.30000000000E+02  0.30000000000E+02  0.00000000000E+00 0. -1.
         23    2    1    2    0    0  0.00000000000E+00  0.00000000000E+00  0.00000000000E+00  0.60000000000E+02  0.60000000000E+02 0.  0.
          5    1    3    3  501    0 -0.13285508633E+02  0.58862356077E+01 -0.25821647715E+02  0.30000000000E+02  0.47000000000E+01 0. -1.
         -5    1    3    3    0  501  0.13285508633E+02 -0.58862356077E+01  0.25821647715E+02  0.30000000000E+02  0.47000000000E+01 0.  1.
</event>
<event>
 5    1  0.7673937E-002  0.6000000E+02  0.7546771E-02  0.1259629E+00
         11   -1    0    0    0    0  0.00000000000E+00  0.00000000000E+00  0.30000000000E+02  0.30000000000E+02  0.00000000000E+00 0.  1.
        -11   -1    0    0    0    0 -0.00000000000E+00 -0.00000000000E+00 -0.30000000000E+02  0.30000000000E+02  0.00000000000E+00 0. -1.
         23    2    1    2    0    0  0.00000000000E+00  0.00000000000E+00  0.00000000000E+00  0.60000000000E+02  0.60000000000E+02 0.  0.
          5    1    3    3  501    0 -0.14029844417E+02 -0.21104796529E+02 -0.15351254968E+02  0.30000000000E+02  0.47000000000E+01 0. -1.
         -5    1    3    3    0  501  0.14029844417E+02  0.21104796529E+02  0.15351254968E+02  0.30000000000E+02  0.47000000000E+01 0.  1.
</event>
<event>
 5    1  0.7673937E-002  0.6000000E+02  0.7546771E-02  0.1259629E+00
         11   -1    0    0    0    0  0.00000000000E+00  0.00000000000E+00  0.30000000000E+02  0.30000000000E+02  0.00000000000E+00 0. -1.
        -11   -1    0    0    0    0 -0.00000000000E+00 -0.00000000000E+00 -0.30000000000E+02  0.30000000000E+02  0.00000000000E+00 0.  1.
         23    2    1    2    0    0  0.00000000000E+00  0.00000000000E+00  0.00000000000E+00  0.60000000000E+02  0.60000000000E+02 0.  0.
          5    1    3    3  501    0 -0.22300085358E+02  0.40023689201E+01 -0.19094429451E+02  0.30000000000E+02  0.47000000000E+01 0.  1.
         -5    1    3    3    0  501  0.22300085358E+02 -0.40023689201E+01  0.19094429451E+02  0.30000000000E+02  0.47000000000E+01 0. -1.
</event>
<event>
 5    1  0.7673937E-002  0.6000000E+02  0.7546771E-02  0.1259629E+00
         11   -1    0    0    0    0  0.00000000000E+00  0.00000000000E+00  0.30000000000E+02  0.30000000000E+02  0.00000000000E+00 0.  1.
        -11   -1    0    0    0    0 -0.00000000000E+00 -0.00000000000E+00 -0.30000000000E+02  0.30000000000E+02  0.00000000000E+00 0. -1.
         23    2    1    2    0    0  0.00000000000E+00  0.00000000000E+00  0.00000000000E+00  0.60000000000E+02  0.60000000000E+02 0.  0.
          5    1    3    3  501    0 -0.16900923575E+01 -0.29530663625E+02 -0.17301715766E+01  0.30000000000E+02  0.47000000000E+01 0.  1.
         -5    1    3    3    0  501  0.16900923575E+01  0.29530663625E+02  0.17301715766E+01  0.30000000000E+02  0.47000000000E+01 0. -1.
</event>
<event>
 5    1  0.7673937E-002  0.6000000E+02  0.7546771E-02  0.1259629E+00
         11   -1    0    0    0    0  0.00000000000E+00  0.00000000000E+00  0.30000000000E+02  0.30000000000E+02  0.00000000000E+00 0. -1.
        -11   -1    0    0    0    0 -0.00000000000E+00 -0.00000000000E+00 -0.30000000000E+02  0.30000000000E+02  0.00000000000E+00 0.  1.
         23    2    1    2    0    0  0.00000000000E+00  0.00000000000E+00  0.00000000000E+00  0.60000000000E+02  0.60000000000E+02 0.  0.
          5    1    3    3  501    0 -0.18240610405E+02  0.42980892018E+01  0.22950306343E+02  0.30000000000E+02  0.47000000000E+01 0. -1.
         -5    1    3    3    0  501  0.18240610405E+02 -0.42980892018E+01 -0.22950306343E+02  0.30000000000E+02  0.47000000000E+01 0.  1.
</event>
<event>
 5    1  0.7673937E-002  0.6000000E+02  0.7546771E-02  0.1259629E+00
         11   -1    0    0    0    0  0.00000000000E+00  0.00000000000E+00  0.30000000000E+02  0.30000000000E+02  0.00000000000E+00 0.  1.
        -11   -1    0    0    0    0 -0.00000000000E+00 -0.00000000000E+00 -0.30000000000E+02  0.30000000000E+02  0.00000000000E+00 0. -1.
         23    2    1    2    0    0  0.00000000000E+00  0.00000000000E+00  0.00000000000E+00  0.60000000000E+02  0.60000000000E+02 0.  0.
          5    1    3    3  501    0 -0.12082083187E+02 -0.22089527109E+02 -0.15620053071E+02  0.30000000000E+02  0.47000000000E+01 0. -1.
         -5    1    3    3    0  501  0.12082083187E+02  0.22089527109E+02  0.15620053071E+02  0.30000000000E+02  0.47000000000E+01 0.  1.
</event>
<event>
 5    1  0.7673937E-002  0.6000000E+02  0.7546771E-02  0.1259629E+00
         11   -1    0    0    0    0  0.00000000000E+00  0.00000000000E+00  0.30000000000E+02  0.30000000000E+02  0.00000000000E+00 0.  1.
        -11   -1    0    0    0    0 -0.00000000000E+00 -0.00000000000E+00 -0.30000000000E+02  0.30000000000E+02  0.00000000000E+00 0. -1.
         23    2    1    2    0    0  0.00000000000E+00  0.00000000000E+00  0.00000000000E+00  0.60000000000E+02  0.60000000000E+02 0.  0.
          5    1    3    3  501    0 -0.67012805962E+01  0.14637693457E+02 -0.24874500369E+02  0.30000000000E+02  0.47000000000E+01 0. -1.
         -5    1    3    3    0  501  0.67012805962E+01 -0.14637693457E+02  0.24874500369E+02  0.30000000000E+02  0.47000000000E+01 0.  1.
</event>
<event>
 5    1  0.7673937E-002  0.6000000E+02  0.7546771E-02  0.1259629E+00
         11   -1    0    0    0    0  0.00000000000E+00  0.00000000000E+00  0.30000000000E+02  0.30000000000E+02  0.00000000000E+00 0.  1.
        -11   -1    0    0    0    0 -0.00000000000E+00 -0.00000000000E+00 -0.30000000000E+02  0.30000000000E+02  0.00000000000E+00 0. -1.
         23    2    1    2    0    0  0.00000000000E+00  0.00000000000E+00  0.00000000000E+00  0.60000000000E+02  0.60000000000E+02 0.  0.
          5    1    3    3  501    0 -0.20412702971E+02  0.16560344405E+02 -0.13674302564E+02  0.30000000000E+02  0.47000000000E+01 0. -1.
         -5    1    3    3    0  501  0.20412702971E+02 -0.16560344405E+02  0.13674302564E+02  0.30000000000E+02  0.47000000000E+01 0.  1.
</event>
<event>
 5    1  0.7673937E-002  0.6000000E+02  0.7546771E-02  0.1259629E+00
         11   -1    0    0    0    0  0.00000000000E+00  0.00000000000E+00  0.30000000000E+02  0.30000000000E+02  0.00000000000E+00 0.  1.
        -11   -1    0    0    0    0 -0.00000000000E+00 -0.00000000000E+00 -0.30000000000E+02  0.30000000000E+02  0.00000000000E+00 0. -1.
         23    2    1    2    0    0  0.00000000000E+00  0.00000000000E+00  0.00000000000E+00  0.60000000000E+02  0.60000000000E+02 0.  0.
          5    1    3    3  501    0 -0.23223953338E+02  0.16825668471E+02 -0.74468027948E+01  0.30000000000E+02  0.47000000000E+01 0. -1.
         -5    1    3    3    0  501  0.23223953338E+02 -0.16825668471E+02  0.74468027948E+01  0.30000000000E+02  0.47000000000E+01 0.  1.
</event>
<event>
 5    1  0.7673937E-002  0.6000000E+02  0.7546771E-02  0.1259629E+00
         11   -1    0    0    0    0  0.00000000000E+00  0.00000000000E+00  0.30000000000E+02  0.30000000000E+02  0.00000000000E+00 0.  1.
        -11   -1    0    0    0    0 -0.00000000000E+00 -0.00000000000E+00 -0.30000000000E+02  0.30000000000E+02  0.00000000000E+00 0. -1.
         23    2    1    2    0    0  0.00000000000E+00  0.00000000000E+00  0.00000000000E+00  0.60000000000E+02  0.60000000000E+02 0.  0.
          5    1    3    3  501    0 -0.10639741566E+02 -0.24419662535E+02 -0.12976362397E+02  0.30000000000E+02  0.47000000000E+01 0. -1.
         -5    1    3    3    0  501  0.10639741566E+02  0.24419662535E+02  0.12976362397E+02  0.30000000000E+02  0.47000000000E+01 0.  1.
</event>
<event>
 5    1  0.7673937E-002  0.6000000E+02  0.7546771E-02  0.1259629E+00
         11   -1    0    0    0    0  0.00000000000E+00  0.00000000000E+00  0.30000000000E+02  0.30000000000E+02  0.00000000000E+00 0.  1.
        -11   -1    0    0    0    0 -0.00000000000E+00 -0.00000000000E+00 -0.30000000000E+02  0.30000000000E+02  0.00000000000E+00 0. -1.
         23    2    1    2    0    0  0.00000000000E+00  0.00000000000E+00  0.00000000000E+00  0.60000000000E+02  0.60000000000E+02 0.  0.
          5    1    3    3  501    0 -0.13578279956E+02  0.13196208778E+02 -0.22790357332E+02  0.30000000000E+02  0.47000000000E+01 0. -1.
         -5    1    3    3    0  501  0.13578279956E+02 -0.13196208778E+02  0.22790357332E+02  0.30000000000E+02  0.47000000000E+01 0.  1.
</event>
<event>
 5    1  0.7673937E-002  0.6000000E+02  0.7546771E-02  0.1259629E+00
         11   -1    0    0    0    0  0.00000000000E+00  0.00000000000E+00  0.30000000000E+02  0.30000000000E+02  0.00000000000E+00 0. -1.
        -11   -1    0    0    0    0 -0.00000000000E+00 -0.00000000000E+00 -0.30000000000E+02  0.30000000000E+02  0.00000000000E+00 0.  1.
         23    2    1    2    0    0  0.00000000000E+00  0.00000000000E+00  0.00000000000E+00  0.60000000000E+02  0.60000000000E+02 0.  0.
          5    1    3    3  501    0  0.27441077202E+02  0.24778065972E+01 -0.10897603243E+02  0.30000000000E+02  0.47000000000E+01 0.  1.
         -5    1    3    3    0  501 -0.27441077202E+02 -0.24778065972E+01  0.10897603243E+02  0.30000000000E+02  0.47000000000E+01 0. -1.
</event>
<event>
 5    1  0.7673937E-002  0.6000000E+02  0.7546771E-02  0.1259629E+00
         11   -1    0    0    0    0  0.00000000000E+00  0.00000000000E+00  0.30000000000E+02  0.30000000000E+02  0.00000000000E+00 0.  1.
        -11   -1    0    0    0    0 -0.00000000000E+00 -0.00000000000E+00 -0.30000000000E+02  0.30000000000E+02  0.00000000000E+00 0. -1.
         23    2    1    2    0    0  0.00000000000E+00  0.00000000000E+00  0.00000000000E+00  0.60000000000E+02  0.60000000000E+02 0.  0.
          5    1    3    3  501    0 -0.23172388477E+02 -0.18359326782E+02  0.19711753774E+01  0.30000000000E+02  0.47000000000E+01 0. -1.
         -5    1    3    3    0  501  0.23172388477E+02  0.18359326782E+02 -0.19711753774E+01  0.30000000000E+02  0.47000000000E+01 0.  1.
</event>
<event>
 5    1  0.7673937E-002  0.6000000E+02  0.7546771E-02  0.1259629E+00
         11   -1    0    0    0    0  0.00000000000E+00  0.00000000000E+00  0.30000000000E+02  0.30000000000E+02  0.00000000000E+00 0.  1.
        -11   -1    0    0    0    0 -0.00000000000E+00 -0.00000000000E+00 -0.30000000000E+02  0.30000000000E+02  0.00000000000E+00 0. -1.
         23    2    1    2    0    0  0.00000000000E+00  0.00000000000E+00  0.00000000000E+00  0.60000000000E+02  0.60000000000E+02 0.  0.
          5    1    3    3  501    0  0.21804077474E+02  0.18771545291E+02  0.70796393204E+01  0.30000000000E+02  0.47000000000E+01 0. -1.
         -5    1    3    3    0  501 -0.21804077474E+02 -0.18771545291E+02 -0.70796393204E+01  0.30000000000E+02  0.47000000000E+01 0.  1.
</event>
<event>
 5    1  0.7673937E-002  0.6000000E+02  0.7546771E-02  0.1259629E+00
         11   -1    0    0    0    0  0.00000000000E+00  0.00000000000E+00  0.30000000000E+02  0.30000000000E+02  0.00000000000E+00 0. -1.
        -11   -1    0    0    0    0 -0.00000000000E+00 -0.00000000000E+00 -0.30000000000E+02  0.30000000000E+02  0.00000000000E+00 0.  1.
         23    2    1    2    0    0  0.00000000000E+00  0.00000000000E+00  0.00000000000E+00  0.60000000000E+02  0.60000000000E+02 0.  0.
          5    1    3    3  501    0  0.17010509812E+02  0.11504832487E+02 -0.21358637255E+02  0.30000000000E+02  0.47000000000E+01 0.  1.
         -5    1    3    3    0  501 -0.17010509812E+02 -0.11504832487E+02  0.21358637255E+02  0.30000000000E+02  0.47000000000E+01 0. -1.
</event>
<event>
 5    1  0.7673937E-002  0.6000000E+02  0.7546771E-02  0.1259629E+00
         11   -1    0    0    0    0  0.00000000000E+00  0.00000000000E+00  0.30000000000E+02  0.30000000000E+02  0.00000000000E+00 0. -1.
        -11   -1    0    0    0    0 -0.00000000000E+00 -0.00000000000E+00 -0.30000000000E+02  0.30000000000E+02  0.00000000000E+00 0.  1.
         23    2    1    2    0    0  0.00000000000E+00  0.00000000000E+00  0.00000000000E+00  0.60000000000E+02  0.60000000000E+02 0.  0.
          5    1    3    3  501    0  0.21311473817E+02 -0.17839425025E+02 -0.10270637689E+02  0.30000000000E+02  0.47000000000E+01 0.  1.
         -5    1    3    3    0  501 -0.21311473817E+02  0.17839425025E+02  0.10270637689E+02  0.30000000000E+02  0.47000000000E+01 0. -1.
</event>
<event>
 5    1  0.7673937E-002  0.6000000E+02  0.7546771E-02  0.1259629E+00
         11   -1    0    0    0    0  0.00000000000E+00  0.00000000000E+00  0.30000000000E+02  0.30000000000E+02  0.00000000000E+00 0.  1.
        -11   -1    0    0    0    0 -0.00000000000E+00 -0.00000000000E+00 -0.30000000000E+02  0.30000000000E+02  0.00000000000E+00 0. -1.
         23    2    1    2    0    0  0.00000000000E+00  0.00000000000E+00  0.00000000000E+00  0.60000000000E+02  0.60000000000E+02 0.  0.
          5    1    3    3  501    0  0.52624247546E+01 -0.21711974524E+02  0.19462966063E+02  0.30000000000E+02  0.47000000000E+01 0. -1.
         -5    1    3    3    0  501 -0.52624247546E+01  0.21711974524E+02 -0.19462966063E+02  0.30000000000E+02  0.47000000000E+01 0.  1.
</event>
<event>
 5    1  0.7673937E-002  0.6000000E+02  0.7546771E-02  0.1259629E+00
         11   -1    0    0    0    0  0.00000000000E+00  0.00000000000E+00  0.30000000000E+02  0.30000000000E+02  0.00000000000E+00 0.  1.
        -11   -1    0    0    0    0 -0.00000000000E+00 -0.00000000000E+00 -0.30000000000E+02  0.30000000000E+02  0.00000000000E+00 0. -1.
         23    2    1    2    0    0  0.00000000000E+00  0.00000000000E+00  0.00000000000E+00  0.60000000000E+02  0.60000000000E+02 0.  0.
          5    1    3    3  501    0  0.90041396588E+01  0.46235929459E+01 -0.27847043959E+02  0.30000000000E+02  0.47000000000E+01 0. -1.
         -5    1    3    3    0  501 -0.90041396588E+01 -0.46235929459E+01  0.27847043959E+02  0.30000000000E+02  0.47000000000E+01 0.  1.
</event>
<event>
 5    1  0.7673937E-002  0.6000000E+02  0.7546771E-02  0.1259629E+00
         11   -1    0    0    0    0  0.00000000000E+00  0.00000000000E+00  0.30000000000E+02  0.30000000000E+02  0.00000000000E+00 0.  1.
        -11   -1    0    0    0    0 -0.00000000000E+00 -0.00000000000E+00 -0.30000000000E+02  0.30000000000E+02  0.00000000000E+00 0. -1.
         23    2    1    2    0    0  0.00000000000E+00  0.00000000000E+00  0.00000000000E+00  0.60000000000E+02  0.60000000000E+02 0.  0.
          5    1    3    3  501    0 -0.12127896179E+02  0.24919592506E+02 -0.10480364669E+02  0.30000000000E+02  0.47000000000E+01 0. -1.
         -5    1    3    3    0  501  0.12127896179E+02 -0.24919592506E+02  0.10480364669E+02  0.30000000000E+02  0.47000000000E+01 0.  1.
</event>
<event>
 5    1  0.7673937E-002  0.6000000E+02  0.7546771E-02  0.1259629E+00
         11   -1    0    0    0    0  0.00000000000E+00  0.00000000000E+00  0.30000000000E+02  0.30000000000E+02  0.00000000000E+00 0. -1.
        -11   -1    0    0    0    0 -0.00000000000E+00 -0.00000000000E+00 -0.30000000000E+02  0.30000000000E+02  0.00000000000E+00 0.  1.
         23    2    1    2    0    0  0.00000000000E+00  0.00000000000E+00  0.00000000000E+00  0.60000000000E+02  0.60000000000E+02 0.  0.
          5    1    3    3  501    0  0.18464985720E+02  0.17292173791E+02  0.15425142720E+02  0.30000000000E+02  0.47000000000E+01 0. -1.
         -5    1    3    3    0  501 -0.18464985720E+02 -0.17292173791E+02 -0.15425142720E+02  0.30000000000E+02  0.47000000000E+01 0.  1.
</event>
<event>
 5    1  0.7673937E-002  0.6000000E+02  0.7546771E-02  0.1259629E+00
         11   -1    0    0    0    0  0.00000000000E+00  0.00000000000E+00  0.30000000000E+02  0.30000000000E+02  0.00000000000E+00 0.  1.
        -11   -1    0    0    0    0 -0.00000000000E+00 -0.00000000000E+00 -0.30000000000E+02  0.30000000000E+02  0.00000000000E+00 0. -1.
         23    2    1    2    0    0  0.00000000000E+00  0.00000000000E+00  0.00000000000E+00  0.60000000000E+02  0.60000000000E+02 0.  0.
          5    1    3    3  501    0 -0.12477620822E+02  0.66521915303E+01 -0.26037805715E+02  0.30000000000E+02  0.47000000000E+01 0. -1.
         -5    1    3    3    0  501  0.12477620822E+02 -0.66521915303E+01  0.26037805715E+02  0.30000000000E+02  0.47000000000E+01 0.  1.
</event>
<event>
 5    1  0.7673937E-002  0.6000000E+02  0.7546771E-02  0.1259629E+00
         11   -1    0    0    0    0  0.00000000000E+00  0.00000000000E+00  0.30000000000E+02  0.30000000000E+02  0.00000000000E+00 0.  1.
        -11   -1    0    0    0    0 -0.00000000000E+00 -0.00000000000E+00 -0.30000000000E+02  0.30000000000E+02  0.00000000000E+00 0. -1.
         23    2    1    2    0    0  0.00000000000E+00  0.00000000000E+00  0.00000000000E+00  0.60000000000E+02  0.60000000000E+02 0.  0.
          5    1    3    3  501    0  0.15637867647E+02 -0.65499763802E+01 -0.24299483634E+02  0.30000000000E+02  0.47000000000E+01 0. -1.
         -5    1    3    3    0  501 -0.15637867647E+02  0.65499763802E+01  0.24299483634E+02  0.30000000000E+02  0.47000000000E+01 0.  1.
</event>
<event>
 5    1  0.7673937E-002  0.6000000E+02  0.7546771E-02  0.1259629E+00
         11   -1    0    0    0    0  0.00000000000E+00  0.00000000000E+00  0.30000000000E+02  0.30000000000E+02  0.00000000000E+00 0.  1.
        -11   -1    0    0    0    0 -0.00000000000E+00 -0.00000000000E+00 -0.30000000000E+02  0.30000000000E+02  0.00000000000E+00 0. -1.
         23    2    1    2    0    0  0.00000000000E+00  0.00000000000E+00  0.00000000000E+00  0.60000000000E+02  0.60000000000E+02 0.  0.
          5    1    3    3  501    0  0.27226649979E+02  0.62018093441E+01 -0.99074260927E+01  0.30000000000E+02  0.47000000000E+01 0. -1.
         -5    1    3    3    0  501 -0.27226649979E+02 -0.62018093441E+01  0.99074260927E+01  0.30000000000E+02  0.47000000000E+01 0.  1.
</event>
<event>
 5    1  0.7673937E-002  0.6000000E+02  0.7546771E-02  0.1259629E+00
         11   -1    0    0    0    0  0.00000000000E+00  0.00000000000E+00  0.30000000000E+02  0.30000000000E+02  0.00000000000E+00 0.  1.
        -11   -1    0    0    0    0 -0.00000000000E+00 -0.00000000000E+00 -0.30000000000E+02  0.30000000000E+02  0.00000000000E+00 0. -1.
         23    2    1    2    0    0  0.00000000000E+00  0.00000000000E+00  0.00000000000E+00  0.60000000000E+02  0.60000000000E+02 0.  0.
          5    1    3    3  501    0  0.17367951436E+02 -0.22958808109E+02 -0.70112333553E+01  0.30000000000E+02  0.47000000000E+01 0. -1.
         -5    1    3    3    0  501 -0.17367951436E+02  0.22958808109E+02  0.70112333553E+01  0.30000000000E+02  0.47000000000E+01 0.  1.
</event>
<event>
 5    1  0.7673937E-002  0.6000000E+02  0.7546771E-02  0.1259629E+00
         11   -1    0    0    0    0  0.00000000000E+00  0.00000000000E+00  0.30000000000E+02  0.30000000000E+02  0.00000000000E+00 0.  1.
        -11   -1    0    0    0    0 -0.00000000000E+00 -0.00000000000E+00 -0.30000000000E+02  0.30000000000E+02  0.00000000000E+00 0. -1.
         23    2    1    2    0    0  0.00000000000E+00  0.00000000000E+00  0.00000000000E+00  0.60000000000E+02  0.60000000000E+02 0.  0.
          5    1    3    3  501    0  0.23197959610E+02 -0.39456029664E+01  0.18005468257E+02  0.30000000000E+02  0.47000000000E+01 0. -1.
         -5    1    3    3    0  501 -0.23197959610E+02  0.39456029664E+01 -0.18005468257E+02  0.30000000000E+02  0.47000000000E+01 0.  1.
</event>
<event>
 5    1  0.7673937E-002  0.6000000E+02  0.7546771E-02  0.1259629E+00
         11   -1    0    0    0    0  0.00000000000E+00  0.00000000000E+00  0.30000000000E+02  0.30000000000E+02  0.00000000000E+00 0.  1.
        -11   -1    0    0    0    0 -0.00000000000E+00 -0.00000000000E+00 -0.30000000000E+02  0.30000000000E+02  0.00000000000E+00 0. -1.
         23    2    1    2    0    0  0.00000000000E+00  0.00000000000E+00  0.00000000000E+00  0.60000000000E+02  0.60000000000E+02 0.  0.
          5    1    3    3  501    0  0.27435731895E+02  0.11121071907E+02 -0.12297865783E+01  0.30000000000E+02  0.47000000000E+01 0. -1.
         -5    1    3    3    0  501 -0.27435731895E+02 -0.11121071907E+02  0.12297865783E+01  0.30000000000E+02  0.47000000000E+01 0.  1.
</event>
<event>
 5    1  0.7673937E-002  0.6000000E+02  0.7546771E-02  0.1259629E+00
         11   -1    0    0    0    0  0.00000000000E+00  0.00000000000E+00  0.30000000000E+02  0.30000000000E+02  0.00000000000E+00 0.  1.
        -11   -1    0    0    0    0 -0.00000000000E+00 -0.00000000000E+00 -0.30000000000E+02  0.30000000000E+02  0.00000000000E+00 0. -1.
         23    2    1    2    0    0  0.00000000000E+00  0.00000000000E+00  0.00000000000E+00  0.60000000000E+02  0.60000000000E+02 0.  0.
          5    1    3    3  501    0 -0.20363181873E+02  0.16588087666E+02 -0.13714451196E+02  0.30000000000E+02  0.47000000000E+01 0. -1.
         -5    1    3    3    0  501  0.20363181873E+02 -0.16588087666E+02  0.13714451196E+02  0.30000000000E+02  0.47000000000E+01 0.  1.
</event>
<event>
 5    1  0.7673937E-002  0.6000000E+02  0.7546771E-02  0.1259629E+00
         11   -1    0    0    0    0  0.00000000000E+00  0.00000000000E+00  0.30000000000E+02  0.30000000000E+02  0.00000000000E+00 0.  1.
        -11   -1    0    0    0    0 -0.00000000000E+00 -0.00000000000E+00 -0.30000000000E+02  0.30000000000E+02  0.00000000000E+00 0. -1.
         23    2    1    2    0    0  0.00000000000E+00  0.00000000000E+00  0.00000000000E+00  0.60000000000E+02  0.60000000000E+02 0.  0.
          5    1    3    3  501    0  0.15655310667E+02 -0.24310027350E+02  0.64686797843E+01  0.30000000000E+02  0.47000000000E+01 0. -1.
         -5    1    3    3    0  501 -0.15655310667E+02  0.24310027350E+02 -0.64686797843E+01  0.30000000000E+02  0.47000000000E+01 0.  1.
</event>
<event>
 5    1  0.7673937E-002  0.6000000E+02  0.7546771E-02  0.1259629E+00
         11   -1    0    0    0    0  0.00000000000E+00  0.00000000000E+00  0.30000000000E+02  0.30000000000E+02  0.00000000000E+00 0.  1.
        -11   -1    0    0    0    0 -0.00000000000E+00 -0.00000000000E+00 -0.30000000000E+02  0.30000000000E+02  0.00000000000E+00 0. -1.
         23    2    1    2    0    0  0.00000000000E+00  0.00000000000E+00  0.00000000000E+00  0.60000000000E+02  0.60000000000E+02 0.  0.
          5    1    3    3  501    0 -0.24278340332E+02 -0.57415032026E+01 -0.15984596701E+02  0.30000000000E+02  0.47000000000E+01 0. -1.
         -5    1    3    3    0  501  0.24278340332E+02  0.57415032026E+01  0.15984596701E+02  0.30000000000E+02  0.47000000000E+01 0.  1.
</event>
<event>
 5    1  0.7673937E-002  0.6000000E+02  0.7546771E-02  0.1259629E+00
         11   -1    0    0    0    0  0.00000000000E+00  0.00000000000E+00  0.30000000000E+02  0.30000000000E+02  0.00000000000E+00 0.  1.
        -11   -1    0    0    0    0 -0.00000000000E+00 -0.00000000000E+00 -0.30000000000E+02  0.30000000000E+02  0.00000000000E+00 0. -1.
         23    2    1    2    0    0  0.00000000000E+00  0.00000000000E+00  0.00000000000E+00  0.60000000000E+02  0.60000000000E+02 0.  0.
          5    1    3    3  501    0  0.20422961959E+02  0.16571309583E+01 -0.21402489149E+02  0.30000000000E+02  0.47000000000E+01 0. -1.
         -5    1    3    3    0  501 -0.20422961959E+02 -0.16571309583E+01  0.21402489149E+02  0.30000000000E+02  0.47000000000E+01 0.  1.
</event>
<event>
 5    1  0.7673937E-002  0.6000000E+02  0.7546771E-02  0.1259629E+00
         11   -1    0    0    0    0  0.00000000000E+00  0.00000000000E+00  0.30000000000E+02  0.30000000000E+02  0.00000000000E+00 0.  1.
        -11   -1    0    0    0    0 -0.00000000000E+00 -0.00000000000E+00 -0.30000000000E+02  0.30000000000E+02  0.00000000000E+00 0. -1.
         23    2    1    2    0    0  0.00000000000E+00  0.00000000000E+00  0.00000000000E+00  0.60000000000E+02  0.60000000000E+02 0.  0.
          5    1    3    3  501    0  0.84768870920E+01  0.25165431343E+02 -0.13143570692E+02  0.30000000000E+02  0.47000000000E+01 0. -1.
         -5    1    3    3    0  501 -0.84768870920E+01 -0.25165431343E+02  0.13143570692E+02  0.30000000000E+02  0.47000000000E+01 0.  1.
</event>
<event>
 5    1  0.7673937E-002  0.6000000E+02  0.7546771E-02  0.1259629E+00
         11   -1    0    0    0    0  0.00000000000E+00  0.00000000000E+00  0.30000000000E+02  0.30000000000E+02  0.00000000000E+00 0. -1.
        -11   -1    0    0    0    0 -0.00000000000E+00 -0.00000000000E+00 -0.30000000000E+02  0.30000000000E+02  0.00000000000E+00 0.  1.
         23    2    1    2    0    0  0.00000000000E+00  0.00000000000E+00  0.00000000000E+00  0.60000000000E+02  0.60000000000E+02 0.  0.
          5    1    3    3  501    0 -0.13927339395E+01  0.27847951244E+02 -0.10023068576E+02  0.30000000000E+02  0.47000000000E+01 0.  1.
         -5    1    3    3    0  501  0.13927339395E+01 -0.27847951244E+02  0.10023068576E+02  0.30000000000E+02  0.47000000000E+01 0. -1.
</event>
<event>
 5    1  0.7673937E-002  0.6000000E+02  0.7546771E-02  0.1259629E+00
         11   -1    0    0    0    0  0.00000000000E+00  0.00000000000E+00  0.30000000000E+02  0.30000000000E+02  0.00000000000E+00 0.  1.
        -11   -1    0    0    0    0 -0.00000000000E+00 -0.00000000000E+00 -0.30000000000E+02  0.30000000000E+02  0.00000000000E+00 0. -1.
         23    2    1    2    0    0  0.00000000000E+00  0.00000000000E+00  0.00000000000E+00  0.60000000000E+02  0.60000000000E+02 0.  0.
          5    1    3    3  501    0 -0.13932694967E+02 -0.23159837722E+02 -0.12141331379E+02  0.30000000000E+02  0.47000000000E+01 0. -1.
         -5    1    3    3    0  501  0.13932694967E+02  0.23159837722E+02  0.12141331379E+02  0.30000000000E+02  0.47000000000E+01 0.  1.
</event>
<event>
 5    1  0.7673937E-002  0.6000000E+02  0.7546771E-02  0.1259629E+00
         11   -1    0    0    0    0  0.00000000000E+00  0.00000000000E+00  0.30000000000E+02  0.30000000000E+02  0.00000000000E+00 0. -1.
        -11   -1    0    0    0    0 -0.00000000000E+00 -0.00000000000E+00 -0.30000000000E+02  0.30000000000E+02  0.00000000000E+00 0.  1.
         23    2    1    2    0    0  0.00000000000E+00  0.00000000000E+00  0.00000000000E+00  0.60000000000E+02  0.60000000000E+02 0.  0.
          5    1    3    3  501    0  0.17146137710E+01 -0.99258805419E+01 -0.27864798494E+02  0.30000000000E+02  0.47000000000E+01 0.  1.
         -5    1    3    3    0  501 -0.17146137710E+01  0.99258805419E+01  0.27864798494E+02  0.30000000000E+02  0.47000000000E+01 0. -1.
</event>
<event>
 5    1  0.7673937E-002  0.6000000E+02  0.7546771E-02  0.1259629E+00
         11   -1    0    0    0    0  0.00000000000E+00  0.00000000000E+00  0.30000000000E+02  0.30000000000E+02  0.00000000000E+00 0. -1.
        -11   -1    0    0    0    0 -0.00000000000E+00 -0.00000000000E+00 -0.30000000000E+02  0.30000000000E+02  0.00000000000E+00 0.  1.
         23    2    1    2    0    0  0.00000000000E+00  0.00000000000E+00  0.00000000000E+00  0.60000000000E+02  0.60000000000E+02 0.  0.
          5    1    3    3  501    0  0.52850265027E+01 -0.16507520367E+02 -0.24030819092E+02  0.30000000000E+02  0.47000000000E+01 0.  1.
         -5    1    3    3    0  501 -0.52850265027E+01  0.16507520367E+02  0.24030819092E+02  0.30000000000E+02  0.47000000000E+01 0. -1.
</event>
<event>
 5    1  0.7673937E-002  0.6000000E+02  0.7546771E-02  0.1259629E+00
         11   -1    0    0    0    0  0.00000000000E+00  0.00000000000E+00  0.30000000000E+02  0.30000000000E+02  0.00000000000E+00 0. -1.
        -11   -1    0    0    0    0 -0.00000000000E+00 -0.00000000000E+00 -0.30000000000E+02  0.30000000000E+02  0.00000000000E+00 0.  1.
         23    2    1    2    0    0  0.00000000000E+00  0.00000000000E+00  0.00000000000E+00  0.60000000000E+02  0.60000000000E+02 0.  0.
          5    1    3    3  501    0 -0.11237277839E+02 -0.27414707954E+02  0.25956605207E+00  0.30000000000E+02  0.47000000000E+01 0.  1.
         -5    1    3    3    0  501  0.11237277839E+02  0.27414707954E+02 -0.25956605207E+00  0.30000000000E+02  0.47000000000E+01 0. -1.
</event>
<event>
 5    1  0.7673937E-002  0.6000000E+02  0.7546771E-02  0.1259629E+00
         11   -1    0    0    0    0  0.00000000000E+00  0.00000000000E+00  0.30000000000E+02  0.30000000000E+02  0.00000000000E+00 0.  1.
        -11   -1    0    0    0    0 -0.00000000000E+00 -0.00000000000E+00 -0.30000000000E+02  0.30000000000E+02  0.00000000000E+00 0. -1.
         23    2    1    2    0    0  0.00000000000E+00  0.00000000000E+00  0.00000000000E+00  0.60000000000E+02  0.60000000000E+02 0.  0.
          5    1    3    3  501    0  0.38620673737E+01 -0.23399172473E+02 -0.17761564210E+02  0.30000000000E+02  0.47000000000E+01 0. -1.
         -5    1    3    3    0  501 -0.38620673737E+01  0.23399172473E+02  0.17761564210E+02  0.30000000000E+02  0.47000000000E+01 0.  1.
</event>
<event>
 5    1  0.7673937E-002  0.6000000E+02  0.7546771E-02  0.1259629E+00
         11   -1    0    0    0    0  0.00000000000E+00  0.00000000000E+00  0.30000000000E+02  0.30000000000E+02  0.00000000000E+00 0.  1.
        -11   -1    0    0    0    0 -0.00000000000E+00 -0.00000000000E+00 -0.30000000000E+02  0.30000000000E+02  0.00000000000E+00 0. -1.
         23    2    1    2    0    0  0.00000000000E+00  0.00000000000E+00  0.00000000000E+00  0.60000000000E+02  0.60000000000E+02 0.  0.
          5    1    3    3  501    0  0.86064623530E+01  0.27769483503E+02 -0.57179184782E+01  0.30000000000E+02  0.47000000000E+01 0. -1.
         -5    1    3    3    0  501 -0.86064623530E+01 -0.27769483503E+02  0.57179184782E+01  0.30000000000E+02  0.47000000000E+01 0.  1.
</event>
<event>
 5    1  0.7673937E-002  0.6000000E+02  0.7546771E-02  0.1259629E+00
         11   -1    0    0    0    0  0.00000000000E+00  0.00000000000E+00  0.30000000000E+02  0.30000000000E+02  0.00000000000E+00 0.  1.
        -11   -1    0    0    0    0 -0.00000000000E+00 -0.00000000000E+00 -0.30000000000E+02  0.30000000000E+02  0.00000000000E+00 0. -1.
         23    2    1    2    0    0  0.00000000000E+00  0.00000000000E+00  0.00000000000E+00  0.60000000000E+02  0.60000000000E+02 0.  0.
          5    1    3    3  501    0 -0.13288799484E+02  0.16076100809E+02 -0.21044638060E+02  0.30000000000E+02  0.47000000000E+01 0. -1.
         -5    1    3    3    0  501  0.13288799484E+02 -0.16076100809E+02  0.21044638060E+02  0.30000000000E+02  0.47000000000E+01 0.  1.
</event>
<event>
 5    1  0.7673937E-002  0.6000000E+02  0.7546771E-02  0.1259629E+00
         11   -1    0    0    0    0  0.00000000000E+00  0.00000000000E+00  0.30000000000E+02  0.30000000000E+02  0.00000000000E+00 0.  1.
        -11   -1    0    0    0    0 -0.00000000000E+00 -0.00000000000E+00 -0.30000000000E+02  0.30000000000E+02  0.00000000000E+00 0. -1.
         23    2    1    2    0    0  0.00000000000E+00  0.00000000000E+00  0.00000000000E+00  0.60000000000E+02  0.60000000000E+02 0.  0.
          5    1    3    3  501    0 -0.20147986358E+02  0.18954450769E+02 -0.10615905130E+02  0.30000000000E+02  0.47000000000E+01 0. -1.
         -5    1    3    3    0  501  0.20147986358E+02 -0.18954450769E+02  0.10615905130E+02  0.30000000000E+02  0.47000000000E+01 0.  1.
</event>
<event>
 5    1  0.7673937E-002  0.6000000E+02  0.7546771E-02  0.1259629E+00
         11   -1    0    0    0    0  0.00000000000E+00  0.00000000000E+00  0.30000000000E+02  0.30000000000E+02  0.00000000000E+00 0.  1.
        -11   -1    0    0    0    0 -0.00000000000E+00 -0.00000000000E+00 -0.30000000000E+02  0.30000000000E+02  0.00000000000E+00 0. -1.
         23    2    1    2    0    0  0.00000000000E+00  0.00000000000E+00  0.00000000000E+00  0.60000000000E+02  0.60000000000E+02 0.  0.
          5    1    3    3  501    0  0.68159659512E+01  0.89208389307E+01 -0.27420270621E+02  0.30000000000E+02  0.47000000000E+01 0. -1.
         -5    1    3    3    0  501 -0.68159659512E+01 -0.89208389307E+01  0.27420270621E+02  0.30000000000E+02  0.47000000000E+01 0.  1.
</event>
<event>
 5    1  0.7673937E-002  0.6000000E+02  0.7546771E-02  0.1259629E+00
         11   -1    0    0    0    0  0.00000000000E+00  0.00000000000E+00  0.30000000000E+02  0.30000000000E+02  0.00000000000E+00 0.  1.
        -11   -1    0    0    0    0 -0.00000000000E+00 -0.00000000000E+00 -0.30000000000E+02  0.30000000000E+02  0.00000000000E+00 0. -1.
         23    2    1    2    0    0  0.00000000000E+00  0.00000000000E+00  0.00000000000E+00  0.60000000000E+02  0.60000000000E+02 0.  0.
          5    1    3    3  501    0  0.86290483270E+01 -0.29837446220E+01 -0.28187706416E+02  0.30000000000E+02  0.47000000000E+01 0. -1.
         -5    1    3    3    0  501 -0.86290483270E+01  0.29837446220E+01  0.28187706416E+02  0.30000000000E+02  0.47000000000E+01 0.  1.
</event>
<event>
 5    1  0.7673937E-002  0.6000000E+02  0.7546771E-02  0.1259629E+00
         11   -1    0    0    0    0  0.00000000000E+00  0.00000000000E+00  0.30000000000E+02  0.30000000000E+02  0.00000000000E+00 0.  1.
        -11   -1    0    0    0    0 -0.00000000000E+00 -0.00000000000E+00 -0.30000000000E+02  0.30000000000E+02  0.00000000000E+00 0. -1.
         23    2    1    2    0    0  0.00000000000E+00  0.00000000000E+00  0.00000000000E+00  0.60000000000E+02  0.60000000000E+02 0.  0.
          5    1    3    3  501    0  0.23174560029E+02 -0.51941863044E+01 -0.17716382139E+02  0.30000000000E+02  0.47000000000E+01 0. -1.
         -5    1    3    3    0  501 -0.23174560029E+02  0.51941863044E+01  0.17716382139E+02  0.30000000000E+02  0.47000000000E+01 0.  1.
</event>
<event>
 5    1  0.7673937E-002  0.6000000E+02  0.7546771E-02  0.1259629E+00
         11   -1    0    0    0    0  0.00000000000E+00  0.00000000000E+00  0.30000000000E+02  0.30000000000E+02  0.00000000000E+00 0. -1.
        -11   -1    0    0    0    0 -0.00000000000E+00 -0.00000000000E+00 -0.30000000000E+02  0.30000000000E+02  0.00000000000E+00 0.  1.
         23    2    1    2    0    0  0.00000000000E+00  0.00000000000E+00  0.00000000000E+00  0.60000000000E+02  0.60000000000E+02 0.  0.
          5    1    3    3  501    0 -0.16009325557E+02 -0.10355260695E+01  0.24910623857E+02  0.30000000000E+02  0.47000000000E+01 0. -1.
         -5    1    3    3    0  501  0.16009325557E+02  0.10355260695E+01 -0.24910623857E+02  0.30000000000E+02  0.47000000000E+01 0.  1.
</event>
<event>
 5    1  0.7673937E-002  0.6000000E+02  0.7546771E-02  0.1259629E+00
         11   -1    0    0    0    0  0.00000000000E+00  0.00000000000E+00  0.30000000000E+02  0.30000000000E+02  0.00000000000E+00 0. -1.
        -11   -1    0    0    0    0 -0.00000000000E+00 -0.00000000000E+00 -0.30000000000E+02  0.30000000000E+02  0.00000000000E+00 0.  1.
         23    2    1    2    0    0  0.00000000000E+00  0.00000000000E+00  0.00000000000E+00  0.60000000000E+02  0.60000000000E+02 0.  0.
          5    1    3    3  501    0  0.63478621770E+01  0.23877616201E+02  0.16354635133E+02  0.30000000000E+02  0.47000000000E+01 0.  1.
         -5    1    3    3    0  501 -0.63478621770E+01 -0.23877616201E+02 -0.16354635133E+02  0.30000000000E+02  0.47000000000E+01 0. -1.
</event>
<event>
 5    1  0.7673937E-002  0.6000000E+02  0.7546771E-02  0.1259629E+00
         11   -1    0    0    0    0  0.00000000000E+00  0.00000000000E+00  0.30000000000E+02  0.30000000000E+02  0.00000000000E+00 0.  1.
        -11   -1    0    0    0    0 -0.00000000000E+00 -0.00000000000E+00 -0.30000000000E+02  0.30000000000E+02  0.00000000000E+00 0. -1.
         23    2    1    2    0    0  0.00000000000E+00  0.00000000000E+00  0.00000000000E+00  0.60000000000E+02  0.60000000000E+02 0.  0.
          5    1    3    3  501    0 -0.27000036669E+02 -0.12058828314E+02 -0.18688712020E+01  0.30000000000E+02  0.47000000000E+01 0. -1.
         -5    1    3    3    0  501  0.27000036669E+02  0.12058828314E+02  0.18688712020E+01  0.30000000000E+02  0.47000000000E+01 0.  1.
</event>
<event>
 5    1  0.7673937E-002  0.6000000E+02  0.7546771E-02  0.1259629E+00
         11   -1    0    0    0    0  0.00000000000E+00  0.00000000000E+00  0.30000000000E+02  0.30000000000E+02  0.00000000000E+00 0.  1.
        -11   -1    0    0    0    0 -0.00000000000E+00 -0.00000000000E+00 -0.30000000000E+02  0.30000000000E+02  0.00000000000E+00 0. -1.
         23    2    1    2    0    0  0.00000000000E+00  0.00000000000E+00  0.00000000000E+00  0.60000000000E+02  0.60000000000E+02 0.  0.
          5    1    3    3  501    0 -0.21533199431E+02 -0.11968413587E+02 -0.16461725258E+02  0.30000000000E+02  0.47000000000E+01 0. -1.
         -5    1    3    3    0  501  0.21533199431E+02  0.11968413587E+02  0.16461725258E+02  0.30000000000E+02  0.47000000000E+01 0.  1.
</event>
<event>
 5    1  0.7673937E-002  0.6000000E+02  0.7546771E-02  0.1259629E+00
         11   -1    0    0    0    0  0.00000000000E+00  0.00000000000E+00  0.30000000000E+02  0.30000000000E+02  0.00000000000E+00 0. -1.
        -11   -1    0    0    0    0 -0.00000000000E+00 -0.00000000000E+00 -0.30000000000E+02  0.30000000000E+02  0.00000000000E+00 0.  1.
         23    2    1    2    0    0  0.00000000000E+00  0.00000000000E+00  0.00000000000E+00  0.60000000000E+02  0.60000000000E+02 0.  0.
          5    1    3    3  501    0  0.14760463271E+02 -0.14482349158E+02 -0.21220280085E+02  0.30000000000E+02  0.47000000000E+01 0.  1.
         -5    1    3    3    0  501 -0.14760463271E+02  0.14482349158E+02  0.21220280085E+02  0.30000000000E+02  0.47000000000E+01 0. -1.
</event>
<event>
 5    1  0.7673937E-002  0.6000000E+02  0.7546771E-02  0.1259629E+00
         11   -1    0    0    0    0  0.00000000000E+00  0.00000000000E+00  0.30000000000E+02  0.30000000000E+02  0.00000000000E+00 0.  1.
        -11   -1    0    0    0    0 -0.00000000000E+00 -0.00000000000E+00 -0.30000000000E+02  0.30000000000E+02  0.00000000000E+00 0. -1.
         23    2    1    2    0    0  0.00000000000E+00  0.00000000000E+00  0.00000000000E+00  0.60000000000E+02  0.60000000000E+02 0.  0.
          5    1    3    3  501    0  0.70772763123E+00  0.14470103036E+02 -0.25846184239E+02  0.30000000000E+02  0.47000000000E+01 0. -1.
         -5    1    3    3    0  501 -0.70772763123E+00 -0.14470103036E+02  0.25846184239E+02  0.30000000000E+02  0.47000000000E+01 0.  1.
</event>
<event>
 5    1  0.7673937E-002  0.6000000E+02  0.7546771E-02  0.1259629E+00
         11   -1    0    0    0    0  0.00000000000E+00  0.00000000000E+00  0.30000000000E+02  0.30000000000E+02  0.00000000000E+00 0.  1.
        -11   -1    0    0    0    0 -0.00000000000E+00 -0.00000000000E+00 -0.30000000000E+02  0.30000000000E+02  0.00000000000E+00 0. -1.
         23    2    1    2    0    0  0.00000000000E+00  0.00000000000E+00  0.00000000000E+00  0.60000000000E+02  0.60000000000E+02 0.  0.
          5    1    3    3  501    0  0.14309568239E+01  0.19350977876E+01 -0.29531639967E+02  0.30000000000E+02  0.47000000000E+01 0. -1.
         -5    1    3    3    0  501 -0.14309568239E+01 -0.19350977876E+01  0.29531639967E+02  0.30000000000E+02  0.47000000000E+01 0.  1.
</event>
<event>
 5    1  0.7673937E-002  0.6000000E+02  0.7546771E-02  0.1259629E+00
         11   -1    0    0    0    0  0.00000000000E+00  0.00000000000E+00  0.30000000000E+02  0.30000000000E+02  0.00000000000E+00 0. -1.
        -11   -1    0    0    0    0 -0.00000000000E+00 -0.00000000000E+00 -0.30000000000E+02  0.30000000000E+02  0.00000000000E+00 0.  1.
         23    2    1    2    0    0  0.00000000000E+00  0.00000000000E+00  0.00000000000E+00  0.60000000000E+02  0.60000000000E+02 0.  0.
          5    1    3    3  501    0 -0.58304595198E+01 -0.25225706977E+02 -0.14407617752E+02  0.30000000000E+02  0.47000000000E+01 0.  1.
         -5    1    3    3    0  501  0.58304595198E+01  0.25225706977E+02  0.14407617752E+02  0.30000000000E+02  0.47000000000E+01 0. -1.
</event>
<event>
 5    1  0.7673937E-002  0.6000000E+02  0.7546771E-02  0.1259629E+00
         11   -1    0    0    0    0  0.00000000000E+00  0.00000000000E+00  0.30000000000E+02  0.30000000000E+02  0.00000000000E+00 0.  1.
        -11   -1    0    0    0    0 -0.00000000000E+00 -0.00000000000E+00 -0.30000000000E+02  0.30000000000E+02  0.00000000000E+00 0. -1.
         23    2    1    2    0    0  0.00000000000E+00  0.00000000000E+00  0.00000000000E+00  0.60000000000E+02  0.60000000000E+02 0.  0.
          5    1    3    3  501    0  0.19257214028E+02  0.10612830898E+02 -0.19860451359E+02  0.30000000000E+02  0.47000000000E+01 0. -1.
         -5    1    3    3    0  501 -0.19257214028E+02 -0.10612830898E+02  0.19860451359E+02  0.30000000000E+02  0.47000000000E+01 0.  1.
</event>
<event>
 5    1  0.7673937E-002  0.6000000E+02  0.7546771E-02  0.1259629E+00
         11   -1    0    0    0    0  0.00000000000E+00  0.00000000000E+00  0.30000000000E+02  0.30000000000E+02  0.00000000000E+00 0.  1.
        -11   -1    0    0    0    0 -0.00000000000E+00 -0.00000000000E+00 -0.30000000000E+02  0.30000000000E+02  0.00000000000E+00 0. -1.
         23    2    1    2    0    0  0.00000000000E+00  0.00000000000E+00  0.00000000000E+00  0.60000000000E+02  0.60000000000E+02 0.  0.
          5    1    3    3  501    0 -0.17616957356E+02 -0.10382361155E+02 -0.21442000614E+02  0.30000000000E+02  0.47000000000E+01 0. -1.
         -5    1    3    3    0  501  0.17616957356E+02  0.10382361155E+02  0.21442000614E+02  0.30000000000E+02  0.47000000000E+01 0.  1.
</event>
<event>
 5    1  0.7673937E-002  0.6000000E+02  0.7546771E-02  0.1259629E+00
         11   -1    0    0    0    0  0.00000000000E+00  0.00000000000E+00  0.30000000000E+02  0.30000000000E+02  0.00000000000E+00 0.  1.
        -11   -1    0    0    0    0 -0.00000000000E+00 -0.00000000000E+00 -0.30000000000E+02  0.30000000000E+02  0.00000000000E+00 0. -1.
         23    2    1    2    0    0  0.00000000000E+00  0.00000000000E+00  0.00000000000E+00  0.60000000000E+02  0.60000000000E+02 0.  0.
          5    1    3    3  501    0 -0.12803893972E+02  0.34351022804E+01 -0.26498497532E+02  0.30000000000E+02  0.47000000000E+01 0. -1.
         -5    1    3    3    0  501  0.12803893972E+02 -0.34351022804E+01  0.26498497532E+02  0.30000000000E+02  0.47000000000E+01 0.  1.
</event>
<event>
 5    1  0.7673937E-002  0.6000000E+02  0.7546771E-02  0.1259629E+00
         11   -1    0    0    0    0  0.00000000000E+00  0.00000000000E+00  0.30000000000E+02  0.30000000000E+02  0.00000000000E+00 0.  1.
        -11   -1    0    0    0    0 -0.00000000000E+00 -0.00000000000E+00 -0.30000000000E+02  0.30000000000E+02  0.00000000000E+00 0. -1.
         23    2    1    2    0    0  0.00000000000E+00  0.00000000000E+00  0.00000000000E+00  0.60000000000E+02  0.60000000000E+02 0.  0.
          5    1    3    3  501    0  0.16230684748E+02  0.17655607712E+02 -0.17399838761E+02  0.30000000000E+02  0.47000000000E+01 0. -1.
         -5    1    3    3    0  501 -0.16230684748E+02 -0.17655607712E+02  0.17399838761E+02  0.30000000000E+02  0.47000000000E+01 0.  1.
</event>
<event>
 5    1  0.7673937E-002  0.6000000E+02  0.7546771E-02  0.1259629E+00
         11   -1    0    0    0    0  0.00000000000E+00  0.00000000000E+00  0.30000000000E+02  0.30000000000E+02  0.00000000000E+00 0.  1.
        -11   -1    0    0    0    0 -0.00000000000E+00 -0.00000000000E+00 -0.30000000000E+02  0.30000000000E+02  0.00000000000E+00 0. -1.
         23    2    1    2    0    0  0.00000000000E+00  0.00000000000E+00  0.00000000000E+00  0.60000000000E+02  0.60000000000E+02 0.  0.
          5    1    3    3  501    0 -0.15517468372E+02  0.28417794419E+01 -0.25080718987E+02  0.30000000000E+02  0.47000000000E+01 0. -1.
         -5    1    3    3    0  501  0.15517468372E+02 -0.28417794419E+01  0.25080718987E+02  0.30000000000E+02  0.47000000000E+01 0.  1.
</event>
<event>
 5    1  0.7673937E-002  0.6000000E+02  0.7546771E-02  0.1259629E+00
         11   -1    0    0    0    0  0.00000000000E+00  0.00000000000E+00  0.30000000000E+02  0.30000000000E+02  0.00000000000E+00 0.  1.
        -11   -1    0    0    0    0 -0.00000000000E+00 -0.00000000000E+00 -0.30000000000E+02  0.30000000000E+02  0.00000000000E+00 0. -1.
         23    2    1    2    0    0  0.00000000000E+00  0.00000000000E+00  0.00000000000E+00  0.60000000000E+02  0.60000000000E+02 0.  0.
          5    1    3    3  501    0  0.19292674200E+02 -0.12570190428E+02 -0.18646528760E+02  0.30000000000E+02  0.47000000000E+01 0. -1.
         -5    1    3    3    0  501 -0.19292674200E+02  0.12570190428E+02  0.18646528760E+02  0.30000000000E+02  0.47000000000E+01 0.  1.
</event>
<event>
 5    1  0.7673937E-002  0.6000000E+02  0.7546771E-02  0.1259629E+00
         11   -1    0    0    0    0  0.00000000000E+00  0.00000000000E+00  0.30000000000E+02  0.30000000000E+02  0.00000000000E+00 0. -1.
        -11   -1    0    0    0    0 -0.00000000000E+00 -0.00000000000E+00 -0.30000000000E+02  0.30000000000E+02  0.00000000000E+00 0.  1.
         23    2    1    2    0    0  0.00000000000E+00  0.00000000000E+00  0.00000000000E+00  0.60000000000E+02  0.60000000000E+02 0.  0.
          5    1    3    3  501    0 -0.58345337220E+01  0.27336035932E+02  0.98290058397E+01  0.30000000000E+02  0.47000000000E+01 0.  1.
         -5    1    3    3    0  501  0.58345337220E+01 -0.27336035932E+02 -0.98290058397E+01  0.30000000000E+02  0.47000000000E+01 0. -1.
</event>
<event>
 5    1  0.7673937E-002  0.6000000E+02  0.7546771E-02  0.1259629E+00
         11   -1    0    0    0    0  0.00000000000E+00  0.00000000000E+00  0.30000000000E+02  0.30000000000E+02  0.00000000000E+00 0.  1.
        -11   -1    0    0    0    0 -0.00000000000E+00 -0.00000000000E+00 -0.30000000000E+02  0.30000000000E+02  0.00000000000E+00 0. -1.
         23    2    1    2    0    0  0.00000000000E+00  0.00000000000E+00  0.00000000000E+00  0.60000000000E+02  0.60000000000E+02 0.  0.
          5    1    3    3  501    0  0.13485559514E+02 -0.55401213129E+01 -0.25794509889E+02  0.30000000000E+02  0.47000000000E+01 0. -1.
         -5    1    3    3    0  501 -0.13485559514E+02  0.55401213129E+01  0.25794509889E+02  0.30000000000E+02  0.47000000000E+01 0.  1.
</event>
<event>
 5    1  0.7673937E-002  0.6000000E+02  0.7546771E-02  0.1259629E+00
         11   -1    0    0    0    0  0.00000000000E+00  0.00000000000E+00  0.30000000000E+02  0.30000000000E+02  0.00000000000E+00 0.  1.
        -11   -1    0    0    0    0 -0.00000000000E+00 -0.00000000000E+00 -0.30000000000E+02  0.30000000000E+02  0.00000000000E+00 0. -1.
         23    2    1    2    0    0  0.00000000000E+00  0.00000000000E+00  0.00000000000E+00  0.60000000000E+02  0.60000000000E+02 0.  0.
          5    1    3    3  501    0 -0.57742370167E+01  0.21556781029E+02  0.19490340647E+02  0.30000000000E+02  0.47000000000E+01 0.  1.
         -5    1    3    3    0  501  0.57742370167E+01 -0.21556781029E+02 -0.19490340647E+02  0.30000000000E+02  0.47000000000E+01 0. -1.
</event>
<event>
 5    1  0.7673937E-002  0.6000000E+02  0.7546771E-02  0.1259629E+00
         11   -1    0    0    0    0  0.00000000000E+00  0.00000000000E+00  0.30000000000E+02  0.30000000000E+02  0.00000000000E+00 0.  1.
        -11   -1    0    0    0    0 -0.00000000000E+00 -0.00000000000E+00 -0.30000000000E+02  0.30000000000E+02  0.00000000000E+00 0. -1.
         23    2    1    2    0    0  0.00000000000E+00  0.00000000000E+00  0.00000000000E+00  0.60000000000E+02  0.60000000000E+02 0.  0.
          5    1    3    3  501    0  0.22558124671E+02  0.95414146250E+01 -0.16673404520E+02  0.30000000000E+02  0.47000000000E+01 0. -1.
         -5    1    3    3    0  501 -0.22558124671E+02 -0.95414146250E+01  0.16673404520E+02  0.30000000000E+02  0.47000000000E+01 0.  1.
</event>
<event>
 5    1  0.7673937E-002  0.6000000E+02  0.7546771E-02  0.1259629E+00
         11   -1    0    0    0    0  0.00000000000E+00  0.00000000000E+00  0.30000000000E+02  0.30000000000E+02  0.00000000000E+00 0.  1.
        -11   -1    0    0    0    0 -0.00000000000E+00 -0.00000000000E+00 -0.30000000000E+02  0.30000000000E+02  0.00000000000E+00 0. -1.
         23    2    1    2    0    0  0.00000000000E+00  0.00000000000E+00  0.00000000000E+00  0.60000000000E+02  0.60000000000E+02 0.  0.
          5    1    3    3  501    0  0.14022450403E+02 -0.77657011508E+01 -0.24919365368E+02  0.30000000000E+02  0.47000000000E+01 0. -1.
         -5    1    3    3    0  501 -0.14022450403E+02  0.77657011508E+01  0.24919365368E+02  0.30000000000E+02  0.47000000000E+01 0.  1.
</event>
<event>
 5    1  0.7673937E-002  0.6000000E+02  0.7546771E-02  0.1259629E+00
         11   -1    0    0    0    0  0.00000000000E+00  0.00000000000E+00  0.30000000000E+02  0.30000000000E+02  0.00000000000E+00 0.  1.
        -11   -1    0    0    0    0 -0.00000000000E+00 -0.00000000000E+00 -0.30000000000E+02  0.30000000000E+02  0.00000000000E+00 0. -1.
         23    2    1    2    0    0  0.00000000000E+00  0.00000000000E+00  0.00000000000E+00  0.60000000000E+02  0.60000000000E+02 0.  0.
          5    1    3    3  501    0  0.32292045193E+01 -0.43217246596E+01 -0.29134257055E+02  0.30000000000E+02  0.47000000000E+01 0. -1.
         -5    1    3    3    0  501 -0.32292045193E+01  0.43217246596E+01  0.29134257055E+02  0.30000000000E+02  0.47000000000E+01 0.  1.
</event>
<event>
 5    1  0.7673937E-002  0.6000000E+02  0.7546771E-02  0.1259629E+00
         11   -1    0    0    0    0  0.00000000000E+00  0.00000000000E+00  0.30000000000E+02  0.30000000000E+02  0.00000000000E+00 0. -1.
        -11   -1    0    0    0    0 -0.00000000000E+00 -0.00000000000E+00 -0.30000000000E+02  0.30000000000E+02  0.00000000000E+00 0.  1.
         23    2    1    2    0    0  0.00000000000E+00  0.00000000000E+00  0.00000000000E+00  0.60000000000E+02  0.60000000000E+02 0.  0.
          5    1    3    3  501    0 -0.25348945724E+02 -0.13108456688E+02 -0.79692731123E+01  0.30000000000E+02  0.47000000000E+01 0.  1.
         -5    1    3    3    0  501  0.25348945724E+02  0.13108456688E+02  0.79692731123E+01  0.30000000000E+02  0.47000000000E+01 0. -1.
</event>
<event>
 5    1  0.7673937E-002  0.6000000E+02  0.7546771E-02  0.1259629E+00
         11   -1    0    0    0    0  0.00000000000E+00  0.00000000000E+00  0.30000000000E+02  0.30000000000E+02  0.00000000000E+00 0.  1.
        -11   -1    0    0    0    0 -0.00000000000E+00 -0.00000000000E+00 -0.30000000000E+02  0.30000000000E+02  0.00000000000E+00 0. -1.
         23    2    1    2    0    0  0.00000000000E+00  0.00000000000E+00  0.00000000000E+00  0.60000000000E+02  0.60000000000E+02 0.  0.
          5    1    3    3  501    0 -0.12835387625E+02  0.24595931708E+02  0.10402065560E+02  0.30000000000E+02  0.47000000000E+01 0. -1.
         -5    1    3    3    0  501  0.12835387625E+02 -0.24595931708E+02 -0.10402065560E+02  0.30000000000E+02  0.47000000000E+01 0.  1.
</event>
<event>
 5    1  0.7673937E-002  0.6000000E+02  0.7546771E-02  0.1259629E+00
         11   -1    0    0    0    0  0.00000000000E+00  0.00000000000E+00  0.30000000000E+02  0.30000000000E+02  0.00000000000E+00 0.  1.
        -11   -1    0    0    0    0 -0.00000000000E+00 -0.00000000000E+00 -0.30000000000E+02  0.30000000000E+02  0.00000000000E+00 0. -1.
         23    2    1    2    0    0  0.00000000000E+00  0.00000000000E+00  0.00000000000E+00  0.60000000000E+02  0.60000000000E+02 0.  0.
          5    1    3    3  501    0 -0.32453658471E+01 -0.27797793886E+02 -0.97293502132E+01  0.30000000000E+02  0.47000000000E+01 0. -1.
         -5    1    3    3    0  501  0.32453658471E+01  0.27797793886E+02  0.97293502132E+01  0.30000000000E+02  0.47000000000E+01 0.  1.
</event>
<event>
 5    1  0.7673937E-002  0.6000000E+02  0.7546771E-02  0.1259629E+00
         11   -1    0    0    0    0  0.00000000000E+00  0.00000000000E+00  0.30000000000E+02  0.30000000000E+02  0.00000000000E+00 0.  1.
        -11   -1    0    0    0    0 -0.00000000000E+00 -0.00000000000E+00 -0.30000000000E+02  0.30000000000E+02  0.00000000000E+00 0. -1.
         23    2    1    2    0    0  0.00000000000E+00  0.00000000000E+00  0.00000000000E+00  0.60000000000E+02  0.60000000000E+02 0.  0.
          5    1    3    3  501    0  0.23750852025E+02 -0.56258454434E+01  0.16797526340E+02  0.30000000000E+02  0.47000000000E+01 0. -1.
         -5    1    3    3    0  501 -0.23750852025E+02  0.56258454434E+01 -0.16797526340E+02  0.30000000000E+02  0.47000000000E+01 0.  1.
</event>
<event>
 5    1  0.7673937E-002  0.6000000E+02  0.7546771E-02  0.1259629E+00
         11   -1    0    0    0    0  0.00000000000E+00  0.00000000000E+00  0.30000000000E+02  0.30000000000E+02  0.00000000000E+00 0. -1.
        -11   -1    0    0    0    0 -0.00000000000E+00 -0.00000000000E+00 -0.30000000000E+02  0.30000000000E+02  0.00000000000E+00 0.  1.
         23    2    1    2    0    0  0.00000000000E+00  0.00000000000E+00  0.00000000000E+00  0.60000000000E+02  0.60000000000E+02 0.  0.
          5    1    3    3  501    0 -0.10239431019E+02  0.23924706447E+02 -0.14165891213E+02  0.30000000000E+02  0.47000000000E+01 0.  1.
         -5    1    3    3    0  501  0.10239431019E+02 -0.23924706447E+02  0.14165891213E+02  0.30000000000E+02  0.47000000000E+01 0. -1.
</event>
<event>
 5    1  0.7673937E-002  0.6000000E+02  0.7546771E-02  0.1259629E+00
         11   -1    0    0    0    0  0.00000000000E+00  0.00000000000E+00  0.30000000000E+02  0.30000000000E+02  0.00000000000E+00 0.  1.
        -11   -1    0    0    0    0 -0.00000000000E+00 -0.00000000000E+00 -0.30000000000E+02  0.30000000000E+02  0.00000000000E+00 0. -1.
         23    2    1    2    0    0  0.00000000000E+00  0.00000000000E+00  0.00000000000E+00  0.60000000000E+02  0.60000000000E+02 0.  0.
          5    1    3    3  501    0  0.19706780955E+02  0.11570535419E+02 -0.18859360925E+02  0.30000000000E+02  0.47000000000E+01 0. -1.
         -5    1    3    3    0  501 -0.19706780955E+02 -0.11570535419E+02  0.18859360925E+02  0.30000000000E+02  0.47000000000E+01 0.  1.
</event>
<event>
 5    1  0.7673937E-002  0.6000000E+02  0.7546771E-02  0.1259629E+00
         11   -1    0    0    0    0  0.00000000000E+00  0.00000000000E+00  0.30000000000E+02  0.30000000000E+02  0.00000000000E+00 0.  1.
        -11   -1    0    0    0    0 -0.00000000000E+00 -0.00000000000E+00 -0.30000000000E+02  0.30000000000E+02  0.00000000000E+00 0. -1.
         23    2    1    2    0    0  0.00000000000E+00  0.00000000000E+00  0.00000000000E+00  0.60000000000E+02  0.60000000000E+02 0.  0.
          5    1    3    3  501    0 -0.21210184919E+02  0.24281383574E+01 -0.20546099382E+02  0.30000000000E+02  0.47000000000E+01 0. -1.
         -5    1    3    3    0  501  0.21210184919E+02 -0.24281383574E+01  0.20546099382E+02  0.30000000000E+02  0.47000000000E+01 0.  1.
</event>
<event>
 5    1  0.7673937E-002  0.6000000E+02  0.7546771E-02  0.1259629E+00
         11   -1    0    0    0    0  0.00000000000E+00  0.00000000000E+00  0.30000000000E+02  0.30000000000E+02  0.00000000000E+00 0.  1.
        -11   -1    0    0    0    0 -0.00000000000E+00 -0.00000000000E+00 -0.30000000000E+02  0.30000000000E+02  0.00000000000E+00 0. -1.
         23    2    1    2    0    0  0.00000000000E+00  0.00000000000E+00  0.00000000000E+00  0.60000000000E+02  0.60000000000E+02 0.  0.
          5    1    3    3  501    0 -0.13168884586E+02  0.29817485214E+01 -0.26374223297E+02  0.30000000000E+02  0.47000000000E+01 0. -1.
         -5    1    3    3    0  501  0.13168884586E+02 -0.29817485214E+01  0.26374223297E+02  0.30000000000E+02  0.47000000000E+01 0.  1.
</event>
<event>
 5    1  0.7673937E-002  0.6000000E+02  0.7546771E-02  0.1259629E+00
         11   -1    0    0    0    0  0.00000000000E+00  0.00000000000E+00  0.30000000000E+02  0.30000000000E+02  0.00000000000E+00 0.  1.
        -11   -1    0    0    0    0 -0.00000000000E+00 -0.00000000000E+00 -0.30000000000E+02  0.30000000000E+02  0.00000000000E+00 0. -1.
         23    2    1    2    0    0  0.00000000000E+00  0.00000000000E+00  0.00000000000E+00  0.60000000000E+02  0.60000000000E+02 0.  0.
          5    1    3    3  501    0  0.15212139842E+02  0.20048517866E+02 -0.15638341754E+02  0.30000000000E+02  0.47000000000E+01 0. -1.
         -5    1    3    3    0  501 -0.15212139842E+02 -0.20048517866E+02  0.15638341754E+02  0.30000000000E+02  0.47000000000E+01 0.  1.
</event>
<event>
 5    1  0.7673937E-002  0.6000000E+02  0.7546771E-02  0.1259629E+00
         11   -1    0    0    0    0  0.00000000000E+00  0.00000000000E+00  0.30000000000E+02  0.30000000000E+02  0.00000000000E+00 0.  1.
        -11   -1    0    0    0    0 -0.00000000000E+00 -0.00000000000E+00 -0.30000000000E+02  0.30000000000E+02  0.00000000000E+00 0. -1.
         23    2    1    2    0    0  0.00000000000E+00  0.00000000000E+00  0.00000000000E+00  0.60000000000E+02  0.60000000000E+02 0.  0.
          5    1    3    3  501    0 -0.28296306141E+02  0.56875001489E+01 -0.66993582412E+01  0.30000000000E+02  0.47000000000E+01 0. -1.
         -5    1    3    3    0  501  0.28296306141E+02 -0.56875001489E+01  0.66993582412E+01  0.30000000000E+02  0.47000000000E+01 0.  1.
</event>
<event>
 5    1  0.7673937E-002  0.6000000E+02  0.7546771E-02  0.1259629E+00
         11   -1    0    0    0    0  0.00000000000E+00  0.00000000000E+00  0.30000000000E+02  0.30000000000E+02  0.00000000000E+00 0.  1.
        -11   -1    0    0    0    0 -0.00000000000E+00 -0.00000000000E+00 -0.30000000000E+02  0.30000000000E+02  0.00000000000E+00 0. -1.
         23    2    1    2    0    0  0.00000000000E+00  0.00000000000E+00  0.00000000000E+00  0.60000000000E+02  0.60000000000E+02 0.  0.
          5    1    3    3  501    0  0.23309321851E+02  0.97796432298E+01 -0.15457816572E+02  0.30000000000E+02  0.47000000000E+01 0. -1.
         -5    1    3    3    0  501 -0.23309321851E+02 -0.97796432298E+01  0.15457816572E+02  0.30000000000E+02  0.47000000000E+01 0.  1.
</event>
<event>
 5    1  0.7673937E-002  0.6000000E+02  0.7546771E-02  0.1259629E+00
         11   -1    0    0    0    0  0.00000000000E+00  0.00000000000E+00  0.30000000000E+02  0.30000000000E+02  0.00000000000E+00 0.  1.
        -11   -1    0    0    0    0 -0.00000000000E+00 -0.00000000000E+00 -0.30000000000E+02  0.30000000000E+02  0.00000000000E+00 0. -1.
         23    2    1    2    0    0  0.00000000000E+00  0.00000000000E+00  0.00000000000E+00  0.60000000000E+02  0.60000000000E+02 0.  0.
          5    1    3    3  501    0 -0.24232649685E-02  0.22470414709E+02 -0.19312960854E+02  0.30000000000E+02  0.47000000000E+01 0. -1.
         -5    1    3    3    0  501  0.24232649685E-02 -0.22470414709E+02  0.19312960854E+02  0.30000000000E+02  0.47000000000E+01 0.  1.
</event>
<event>
 5    1  0.7673937E-002  0.6000000E+02  0.7546771E-02  0.1259629E+00
         11   -1    0    0    0    0  0.00000000000E+00  0.00000000000E+00  0.30000000000E+02  0.30000000000E+02  0.00000000000E+00 0.  1.
        -11   -1    0    0    0    0 -0.00000000000E+00 -0.00000000000E+00 -0.30000000000E+02  0.30000000000E+02  0.00000000000E+00 0. -1.
         23    2    1    2    0    0  0.00000000000E+00  0.00000000000E+00  0.00000000000E+00  0.60000000000E+02  0.60000000000E+02 0.  0.
          5    1    3    3  501    0  0.66636062216E+01 -0.17155283404E+02 -0.23220736497E+02  0.30000000000E+02  0.47000000000E+01 0. -1.
         -5    1    3    3    0  501 -0.66636062216E+01  0.17155283404E+02  0.23220736497E+02  0.30000000000E+02  0.47000000000E+01 0.  1.
</event>
<event>
 5    1  0.7673937E-002  0.6000000E+02  0.7546771E-02  0.1259629E+00
         11   -1    0    0    0    0  0.00000000000E+00  0.00000000000E+00  0.30000000000E+02  0.30000000000E+02  0.00000000000E+00 0. -1.
        -11   -1    0    0    0    0 -0.00000000000E+00 -0.00000000000E+00 -0.30000000000E+02  0.30000000000E+02  0.00000000000E+00 0.  1.
         23    2    1    2    0    0  0.00000000000E+00  0.00000000000E+00  0.00000000000E+00  0.60000000000E+02  0.60000000000E+02 0.  0.
          5    1    3    3  501    0 -0.10706254805E+01 -0.18846938202E+02 -0.22837615495E+02  0.30000000000E+02  0.47000000000E+01 0.  1.
         -5    1    3    3    0  501  0.10706254805E+01  0.18846938202E+02  0.22837615495E+02  0.30000000000E+02  0.47000000000E+01 0. -1.
</event>
<event>
 5    1  0.7673937E-002  0.6000000E+02  0.7546771E-02  0.1259629E+00
         11   -1    0    0    0    0  0.00000000000E+00  0.00000000000E+00  0.30000000000E+02  0.30000000000E+02  0.00000000000E+00 0.  1.
        -11   -1    0    0    0    0 -0.00000000000E+00 -0.00000000000E+00 -0.30000000000E+02  0.30000000000E+02  0.00000000000E+00 0. -1.
         23    2    1    2    0    0  0.00000000000E+00  0.00000000000E+00  0.00000000000E+00  0.60000000000E+02  0.60000000000E+02 0.  0.
          5    1    3    3  501    0 -0.14990082478E+02  0.94632719876E+01 -0.23741396559E+02  0.30000000000E+02  0.47000000000E+01 0. -1.
         -5    1    3    3    0  501  0.14990082478E+02 -0.94632719876E+01  0.23741396559E+02  0.30000000000E+02  0.47000000000E+01 0.  1.
</event>
<event>
 5    1  0.7673937E-002  0.6000000E+02  0.7546771E-02  0.1259629E+00
         11   -1    0    0    0    0  0.00000000000E+00  0.00000000000E+00  0.30000000000E+02  0.30000000000E+02  0.00000000000E+00 0.  1.
        -11   -1    0    0    0    0 -0.00000000000E+00 -0.00000000000E+00 -0.30000000000E+02  0.30000000000E+02  0.00000000000E+00 0. -1.
         23    2    1    2    0    0  0.00000000000E+00  0.00000000000E+00  0.00000000000E+00  0.60000000000E+02  0.60000000000E+02 0.  0.
          5    1    3    3  501    0 -0.89518307618E+01  0.20076125487E+02 -0.19867659939E+02  0.30000000000E+02  0.47000000000E+01 0. -1.
         -5    1    3    3    0  501  0.89518307618E+01 -0.20076125487E+02  0.19867659939E+02  0.30000000000E+02  0.47000000000E+01 0.  1.
</event>
<event>
 5    1  0.7673937E-002  0.6000000E+02  0.7546771E-02  0.1259629E+00
         11   -1    0    0    0    0  0.00000000000E+00  0.00000000000E+00  0.30000000000E+02  0.30000000000E+02  0.00000000000E+00 0.  1.
        -11   -1    0    0    0    0 -0.00000000000E+00 -0.00000000000E+00 -0.30000000000E+02  0.30000000000E+02  0.00000000000E+00 0. -1.
         23    2    1    2    0    0  0.00000000000E+00  0.00000000000E+00  0.00000000000E+00  0.60000000000E+02  0.60000000000E+02 0.  0.
          5    1    3    3  501    0  0.70213368185E+01  0.13865205671E+02 -0.25226313662E+02  0.30000000000E+02  0.47000000000E+01 0. -1.
         -5    1    3    3    0  501 -0.70213368185E+01 -0.13865205671E+02  0.25226313662E+02  0.30000000000E+02  0.47000000000E+01 0.  1.
</event>
<event>
 5    1  0.7673937E-002  0.6000000E+02  0.7546771E-02  0.1259629E+00
         11   -1    0    0    0    0  0.00000000000E+00  0.00000000000E+00  0.30000000000E+02  0.30000000000E+02  0.00000000000E+00 0. -1.
        -11   -1    0    0    0    0 -0.00000000000E+00 -0.00000000000E+00 -0.30000000000E+02  0.30000000000E+02  0.00000000000E+00 0.  1.
         23    2    1    2    0    0  0.00000000000E+00  0.00000000000E+00  0.00000000000E+00  0.60000000000E+02  0.60000000000E+02 0.  0.
          5    1    3    3  501    0 -0.15910574942E+01 -0.27552447340E+02 -0.10781520375E+02  0.30000000000E+02  0.47000000000E+01 0.  1.
         -5    1    3    3    0  501  0.15910574942E+01  0.27552447340E+02  0.10781520375E+02  0.30000000000E+02  0.47000000000E+01 0. -1.
</event>
<event>
 5    1  0.7673937E-002  0.6000000E+02  0.7546771E-02  0.1259629E+00
         11   -1    0    0    0    0  0.00000000000E+00  0.00000000000E+00  0.30000000000E+02  0.30000000000E+02  0.00000000000E+00 0.  1.
        -11   -1    0    0    0    0 -0.00000000000E+00 -0.00000000000E+00 -0.30000000000E+02  0.30000000000E+02  0.00000000000E+00 0. -1.
         23    2    1    2    0    0  0.00000000000E+00  0.00000000000E+00  0.00000000000E+00  0.60000000000E+02  0.60000000000E+02 0.  0.
          5    1    3    3  501    0 -0.25329228222E+02 -0.98992627427E+01 -0.11762006411E+02  0.30000000000E+02  0.47000000000E+01 0. -1.
         -5    1    3    3    0  501  0.25329228222E+02  0.98992627427E+01  0.11762006411E+02  0.30000000000E+02  0.47000000000E+01 0.  1.
</event>
<event>
 5    1  0.7673937E-002  0.6000000E+02  0.7546771E-02  0.1259629E+00
         11   -1    0    0    0    0  0.00000000000E+00  0.00000000000E+00  0.30000000000E+02  0.30000000000E+02  0.00000000000E+00 0. -1.
        -11   -1    0    0    0    0 -0.00000000000E+00 -0.00000000000E+00 -0.30000000000E+02  0.30000000000E+02  0.00000000000E+00 0.  1.
         23    2    1    2    0    0  0.00000000000E+00  0.00000000000E+00  0.00000000000E+00  0.60000000000E+02  0.60000000000E+02 0.  0.
          5    1    3    3  501    0 -0.27971241470E+02  0.73130941951E+01 -0.64836952357E+01  0.30000000000E+02  0.47000000000E+01 0.  1.
         -5    1    3    3    0  501  0.27971241470E+02 -0.73130941951E+01  0.64836952357E+01  0.30000000000E+02  0.47000000000E+01 0. -1.
</event>
<event>
 5    1  0.7673937E-002  0.6000000E+02  0.7546771E-02  0.1259629E+00
         11   -1    0    0    0    0  0.00000000000E+00  0.00000000000E+00  0.30000000000E+02  0.30000000000E+02  0.00000000000E+00 0.  1.
        -11   -1    0    0    0    0 -0.00000000000E+00 -0.00000000000E+00 -0.30000000000E+02  0.30000000000E+02  0.00000000000E+00 0. -1.
         23    2    1    2    0    0  0.00000000000E+00  0.00000000000E+00  0.00000000000E+00  0.60000000000E+02  0.60000000000E+02 0.  0.
          5    1    3    3  501    0  0.13666131556E+02  0.24813289579E+02 -0.86860525318E+01  0.30000000000E+02  0.47000000000E+01 0. -1.
         -5    1    3    3    0  501 -0.13666131556E+02 -0.24813289579E+02  0.86860525318E+01  0.30000000000E+02  0.47000000000E+01 0.  1.
</event>
<event>
 5    1  0.7673937E-002  0.6000000E+02  0.7546771E-02  0.1259629E+00
         11   -1    0    0    0    0  0.00000000000E+00  0.00000000000E+00  0.30000000000E+02  0.30000000000E+02  0.00000000000E+00 0.  1.
        -11   -1    0    0    0    0 -0.00000000000E+00 -0.00000000000E+00 -0.30000000000E+02  0.30000000000E+02  0.00000000000E+00 0. -1.
         23    2    1    2    0    0  0.00000000000E+00  0.00000000000E+00  0.00000000000E+00  0.60000000000E+02  0.60000000000E+02 0.  0.
          5    1    3    3  501    0 -0.95275387397E+00 -0.36631051124E+01 -0.29386798413E+02  0.30000000000E+02  0.47000000000E+01 0. -1.
         -5    1    3    3    0  501  0.95275387397E+00  0.36631051124E+01  0.29386798413E+02  0.30000000000E+02  0.47000000000E+01 0.  1.
</event>
<event>
 5    1  0.7673937E-002  0.6000000E+02  0.7546771E-02  0.1259629E+00
         11   -1    0    0    0    0  0.00000000000E+00  0.00000000000E+00  0.30000000000E+02  0.30000000000E+02  0.00000000000E+00 0.  1.
        -11   -1    0    0    0    0 -0.00000000000E+00 -0.00000000000E+00 -0.30000000000E+02  0.30000000000E+02  0.00000000000E+00 0. -1.
         23    2    1    2    0    0  0.00000000000E+00  0.00000000000E+00  0.00000000000E+00  0.60000000000E+02  0.60000000000E+02 0.  0.
          5    1    3    3  501    0  0.27481871336E+02 -0.76745233599E+01  0.79848881681E+01  0.30000000000E+02  0.47000000000E+01 0.  1.
         -5    1    3    3    0  501 -0.27481871336E+02  0.76745233599E+01 -0.79848881681E+01  0.30000000000E+02  0.47000000000E+01 0. -1.
</event>
<event>
 5    1  0.7673937E-002  0.6000000E+02  0.7546771E-02  0.1259629E+00
         11   -1    0    0    0    0  0.00000000000E+00  0.00000000000E+00  0.30000000000E+02  0.30000000000E+02  0.00000000000E+00 0.  1.
        -11   -1    0    0    0    0 -0.00000000000E+00 -0.00000000000E+00 -0.30000000000E+02  0.30000000000E+02  0.00000000000E+00 0. -1.
         23    2    1    2    0    0  0.00000000000E+00  0.00000000000E+00  0.00000000000E+00  0.60000000000E+02  0.60000000000E+02 0.  0.
          5    1    3    3  501    0 -0.26088488401E+02 -0.34936701221E+01 -0.13604963874E+02  0.30000000000E+02  0.47000000000E+01 0. -1.
         -5    1    3    3    0  501  0.26088488401E+02  0.34936701221E+01  0.13604963874E+02  0.30000000000E+02  0.47000000000E+01 0.  1.
</event>
<event>
 5    1  0.7673937E-002  0.6000000E+02  0.7546771E-02  0.1259629E+00
         11   -1    0    0    0    0  0.00000000000E+00  0.00000000000E+00  0.30000000000E+02  0.30000000000E+02  0.00000000000E+00 0.  1.
        -11   -1    0    0    0    0 -0.00000000000E+00 -0.00000000000E+00 -0.30000000000E+02  0.30000000000E+02  0.00000000000E+00 0. -1.
         23    2    1    2    0    0  0.00000000000E+00  0.00000000000E+00  0.00000000000E+00  0.60000000000E+02  0.60000000000E+02 0.  0.
          5    1    3    3  501    0  0.54945990420E+01 -0.15522090839E+02 -0.24632987585E+02  0.30000000000E+02  0.47000000000E+01 0. -1.
         -5    1    3    3    0  501 -0.54945990420E+01  0.15522090839E+02  0.24632987585E+02  0.30000000000E+02  0.47000000000E+01 0.  1.
</event>
<event>
 5    1  0.7673937E-002  0.6000000E+02  0.7546771E-02  0.1259629E+00
         11   -1    0    0    0    0  0.00000000000E+00  0.00000000000E+00  0.30000000000E+02  0.30000000000E+02  0.00000000000E+00 0.  1.
        -11   -1    0    0    0    0 -0.00000000000E+00 -0.00000000000E+00 -0.30000000000E+02  0.30000000000E+02  0.00000000000E+00 0. -1.
         23    2    1    2    0    0  0.00000000000E+00  0.00000000000E+00  0.00000000000E+00  0.60000000000E+02  0.60000000000E+02 0.  0.
          5    1    3    3  501    0  0.24839945805E+02 -0.12909118556E+02 -0.97078190401E+01  0.30000000000E+02  0.47000000000E+01 0. -1.
         -5    1    3    3    0  501 -0.24839945805E+02  0.12909118556E+02  0.97078190401E+01  0.30000000000E+02  0.47000000000E+01 0.  1.
</event>
<event>
 5    1  0.7673937E-002  0.6000000E+02  0.7546771E-02  0.1259629E+00
         11   -1    0    0    0    0  0.00000000000E+00  0.00000000000E+00  0.30000000000E+02  0.30000000000E+02  0.00000000000E+00 0.  1.
        -11   -1    0    0    0    0 -0.00000000000E+00 -0.00000000000E+00 -0.30000000000E+02  0.30000000000E+02  0.00000000000E+00 0. -1.
         23    2    1    2    0    0  0.00000000000E+00  0.00000000000E+00  0.00000000000E+00  0.60000000000E+02  0.60000000000E+02 0.  0.
          5    1    3    3  501    0  0.22884330947E+02 -0.18677460410E+02  0.23172979393E+01  0.30000000000E+02  0.47000000000E+01 0. -1.
         -5    1    3    3    0  501 -0.22884330947E+02  0.18677460410E+02 -0.23172979393E+01  0.30000000000E+02  0.47000000000E+01 0.  1.
</event>
<event>
 5    1  0.7673937E-002  0.6000000E+02  0.7546771E-02  0.1259629E+00
         11   -1    0    0    0    0  0.00000000000E+00  0.00000000000E+00  0.30000000000E+02  0.30000000000E+02  0.00000000000E+00 0.  1.
        -11   -1    0    0    0    0 -0.00000000000E+00 -0.00000000000E+00 -0.30000000000E+02  0.30000000000E+02  0.00000000000E+00 0. -1.
         23    2    1    2    0    0  0.00000000000E+00  0.00000000000E+00  0.00000000000E+00  0.60000000000E+02  0.60000000000E+02 0.  0.
          5    1    3    3  501    0 -0.13756321518E+02 -0.71603656975E+01  0.25246837057E+02  0.30000000000E+02  0.47000000000E+01 0.  1.
         -5    1    3    3    0  501  0.13756321518E+02  0.71603656975E+01 -0.25246837057E+02  0.30000000000E+02  0.47000000000E+01 0. -1.
</event>
<event>
 5    1  0.7673937E-002  0.6000000E+02  0.7546771E-02  0.1259629E+00
         11   -1    0    0    0    0  0.00000000000E+00  0.00000000000E+00  0.30000000000E+02  0.30000000000E+02  0.00000000000E+00 0. -1.
        -11   -1    0    0    0    0 -0.00000000000E+00 -0.00000000000E+00 -0.30000000000E+02  0.30000000000E+02  0.00000000000E+00 0.  1.
         23    2    1    2    0    0  0.00000000000E+00  0.00000000000E+00  0.00000000000E+00  0.60000000000E+02  0.60000000000E+02 0.  0.
          5    1    3    3  501    0 -0.39874024997E+01 -0.31550986759E+01 -0.29189997836E+02  0.30000000000E+02  0.47000000000E+01 0.  1.
         -5    1    3    3    0  501  0.39874024997E+01  0.31550986759E+01  0.29189997836E+02  0.30000000000E+02  0.47000000000E+01 0. -1.
</event>
<event>
 5    1  0.7673937E-002  0.6000000E+02  0.7546771E-02  0.1259629E+00
         11   -1    0    0    0    0  0.00000000000E+00  0.00000000000E+00  0.30000000000E+02  0.30000000000E+02  0.00000000000E+00 0. -1.
        -11   -1    0    0    0    0 -0.00000000000E+00 -0.00000000000E+00 -0.30000000000E+02  0.30000000000E+02  0.00000000000E+00 0.  1.
         23    2    1    2    0    0  0.00000000000E+00  0.00000000000E+00  0.00000000000E+00  0.60000000000E+02  0.60000000000E+02 0.  0.
          5    1    3    3  501    0  0.27688639102E+02 -0.32833489030E+00 -0.10542365051E+02  0.30000000000E+02  0.47000000000E+01 0.  1.
         -5    1    3    3    0  501 -0.27688639102E+02  0.32833489030E+00  0.10542365051E+02  0.30000000000E+02  0.47000000000E+01 0. -1.
</event>
<event>
 5    1  0.7673937E-002  0.6000000E+02  0.7546771E-02  0.1259629E+00
         11   -1    0    0    0    0  0.00000000000E+00  0.00000000000E+00  0.30000000000E+02  0.30000000000E+02  0.00000000000E+00 0.  1.
        -11   -1    0    0    0    0 -0.00000000000E+00 -0.00000000000E+00 -0.30000000000E+02  0.30000000000E+02  0.00000000000E+00 0. -1.
         23    2    1    2    0    0  0.00000000000E+00  0.00000000000E+00  0.00000000000E+00  0.60000000000E+02  0.60000000000E+02 0.  0.
          5    1    3    3  501    0  0.58882518668E+01  0.19706767864E+02 -0.21327957950E+02  0.30000000000E+02  0.47000000000E+01 0. -1.
         -5    1    3    3    0  501 -0.58882518668E+01 -0.19706767864E+02  0.21327957950E+02  0.30000000000E+02  0.47000000000E+01 0.  1.
</event>
<event>
 5    1  0.7673937E-002  0.6000000E+02  0.7546771E-02  0.1259629E+00
         11   -1    0    0    0    0  0.00000000000E+00  0.00000000000E+00  0.30000000000E+02  0.30000000000E+02  0.00000000000E+00 0.  1.
        -11   -1    0    0    0    0 -0.00000000000E+00 -0.00000000000E+00 -0.30000000000E+02  0.30000000000E+02  0.00000000000E+00 0. -1.
         23    2    1    2    0    0  0.00000000000E+00  0.00000000000E+00  0.00000000000E+00  0.60000000000E+02  0.60000000000E+02 0.  0.
          5    1    3    3  501    0 -0.20138689832E+01 -0.24241760202E+02 -0.16917192262E+02  0.30000000000E+02  0.47000000000E+01 0. -1.
         -5    1    3    3    0  501  0.20138689832E+01  0.24241760202E+02  0.16917192262E+02  0.30000000000E+02  0.47000000000E+01 0.  1.
</event>
<event>
 5    1  0.7673937E-002  0.6000000E+02  0.7546771E-02  0.1259629E+00
         11   -1    0    0    0    0  0.00000000000E+00  0.00000000000E+00  0.30000000000E+02  0.30000000000E+02  0.00000000000E+00 0. -1.
        -11   -1    0    0    0    0 -0.00000000000E+00 -0.00000000000E+00 -0.30000000000E+02  0.30000000000E+02  0.00000000000E+00 0.  1.
         23    2    1    2    0    0  0.00000000000E+00  0.00000000000E+00  0.00000000000E+00  0.60000000000E+02  0.60000000000E+02 0.  0.
          5    1    3    3  501    0 -0.31528384441E+01 -0.29460568405E+02 -0.21099532152E+00  0.30000000000E+02  0.47000000000E+01 0.  1.
         -5    1    3    3    0  501  0.31528384441E+01  0.29460568405E+02  0.21099532152E+00  0.30000000000E+02  0.47000000000E+01 0. -1.
</event>
<event>
 5    1  0.7673937E-002  0.6000000E+02  0.7546771E-02  0.1259629E+00
         11   -1    0    0    0    0  0.00000000000E+00  0.00000000000E+00  0.30000000000E+02  0.30000000000E+02  0.00000000000E+00 0.  1.
        -11   -1    0    0    0    0 -0.00000000000E+00 -0.00000000000E+00 -0.30000000000E+02  0.30000000000E+02  0.00000000000E+00 0. -1.
         23    2    1    2    0    0  0.00000000000E+00  0.00000000000E+00  0.00000000000E+00  0.60000000000E+02  0.60000000000E+02 0.  0.
          5    1    3    3  501    0 -0.21020527766E+02 -0.13795043541E+02 -0.15676229972E+02  0.30000000000E+02  0.47000000000E+01 0. -1.
         -5    1    3    3    0  501  0.21020527766E+02  0.13795043541E+02  0.15676229972E+02  0.30000000000E+02  0.47000000000E+01 0.  1.
</event>
<event>
 5    1  0.7673937E-002  0.6000000E+02  0.7546771E-02  0.1259629E+00
         11   -1    0    0    0    0  0.00000000000E+00  0.00000000000E+00  0.30000000000E+02  0.30000000000E+02  0.00000000000E+00 0. -1.
        -11   -1    0    0    0    0 -0.00000000000E+00 -0.00000000000E+00 -0.30000000000E+02  0.30000000000E+02  0.00000000000E+00 0.  1.
         23    2    1    2    0    0  0.00000000000E+00  0.00000000000E+00  0.00000000000E+00  0.60000000000E+02  0.60000000000E+02 0.  0.
          5    1    3    3  501    0 -0.27638434795E+01 -0.65101416579E+01 -0.28773064224E+02  0.30000000000E+02  0.47000000000E+01 0.  1.
         -5    1    3    3    0  501  0.27638434795E+01  0.65101416579E+01  0.28773064224E+02  0.30000000000E+02  0.47000000000E+01 0. -1.
</event>
<event>
 5    1  0.7673937E-002  0.6000000E+02  0.7546771E-02  0.1259629E+00
         11   -1    0    0    0    0  0.00000000000E+00  0.00000000000E+00  0.30000000000E+02  0.30000000000E+02  0.00000000000E+00 0. -1.
        -11   -1    0    0    0    0 -0.00000000000E+00 -0.00000000000E+00 -0.30000000000E+02  0.30000000000E+02  0.00000000000E+00 0.  1.
         23    2    1    2    0    0  0.00000000000E+00  0.00000000000E+00  0.00000000000E+00  0.60000000000E+02  0.60000000000E+02 0.  0.
          5    1    3    3  501    0 -0.21482284154E+02 -0.15180490916E+02 -0.13637234436E+02  0.30000000000E+02  0.47000000000E+01 0.  1.
         -5    1    3    3    0  501  0.21482284154E+02  0.15180490916E+02  0.13637234436E+02  0.30000000000E+02  0.47000000000E+01 0. -1.
</event>
<event>
 5    1  0.7673937E-002  0.6000000E+02  0.7546771E-02  0.1259629E+00
         11   -1    0    0    0    0  0.00000000000E+00  0.00000000000E+00  0.30000000000E+02  0.30000000000E+02  0.00000000000E+00 0. -1.
        -11   -1    0    0    0    0 -0.00000000000E+00 -0.00000000000E+00 -0.30000000000E+02  0.30000000000E+02  0.00000000000E+00 0.  1.
         23    2    1    2    0    0  0.00000000000E+00  0.00000000000E+00  0.00000000000E+00  0.60000000000E+02  0.60000000000E+02 0.  0.
          5    1    3    3  501    0 -0.88231531626E+01 -0.21931497745E+02 -0.17862569102E+02  0.30000000000E+02  0.47000000000E+01 0.  1.
         -5    1    3    3    0  501  0.88231531626E+01  0.21931497745E+02  0.17862569102E+02  0.30000000000E+02  0.47000000000E+01 0. -1.
</event>
<event>
 5    1  0.7673937E-002  0.6000000E+02  0.7546771E-02  0.1259629E+00
         11   -1    0    0    0    0  0.00000000000E+00  0.00000000000E+00  0.30000000000E+02  0.30000000000E+02  0.00000000000E+00 0. -1.
        -11   -1    0    0    0    0 -0.00000000000E+00 -0.00000000000E+00 -0.30000000000E+02  0.30000000000E+02  0.00000000000E+00 0.  1.
         23    2    1    2    0    0  0.00000000000E+00  0.00000000000E+00  0.00000000000E+00  0.60000000000E+02  0.60000000000E+02 0.  0.
          5    1    3    3  501    0  0.20923771013E+02  0.40424700673E+01 -0.20585534785E+02  0.30000000000E+02  0.47000000000E+01 0.  1.
         -5    1    3    3    0  501 -0.20923771013E+02 -0.40424700673E+01  0.20585534785E+02  0.30000000000E+02  0.47000000000E+01 0. -1.
</event>
<event>
 5    1  0.7673937E-002  0.6000000E+02  0.7546771E-02  0.1259629E+00
         11   -1    0    0    0    0  0.00000000000E+00  0.00000000000E+00  0.30000000000E+02  0.30000000000E+02  0.00000000000E+00 0. -1.
        -11   -1    0    0    0    0 -0.00000000000E+00 -0.00000000000E+00 -0.30000000000E+02  0.30000000000E+02  0.00000000000E+00 0.  1.
         23    2    1    2    0    0  0.00000000000E+00  0.00000000000E+00  0.00000000000E+00  0.60000000000E+02  0.60000000000E+02 0.  0.
          5    1    3    3  501    0 -0.58678001000E+01 -0.27221297077E+02 -0.10123236015E+02  0.30000000000E+02  0.47000000000E+01 0.  1.
         -5    1    3    3    0  501  0.58678001000E+01  0.27221297077E+02  0.10123236015E+02  0.30000000000E+02  0.47000000000E+01 0. -1.
</event>
<event>
 5    1  0.7673937E-002  0.6000000E+02  0.7546771E-02  0.1259629E+00
         11   -1    0    0    0    0  0.00000000000E+00  0.00000000000E+00  0.30000000000E+02  0.30000000000E+02  0.00000000000E+00 0. -1.
        -11   -1    0    0    0    0 -0.00000000000E+00 -0.00000000000E+00 -0.30000000000E+02  0.30000000000E+02  0.00000000000E+00 0.  1.
         23    2    1    2    0    0  0.00000000000E+00  0.00000000000E+00  0.00000000000E+00  0.60000000000E+02  0.60000000000E+02 0.  0.
          5    1    3    3  501    0  0.13785811147E+02 -0.10867553799E+02 -0.23869597513E+02  0.30000000000E+02  0.47000000000E+01 0.  1.
         -5    1    3    3    0  501 -0.13785811147E+02  0.10867553799E+02  0.23869597513E+02  0.30000000000E+02  0.47000000000E+01 0. -1.
</event>
<event>
 5    1  0.7673937E-002  0.6000000E+02  0.7546771E-02  0.1259629E+00
         11   -1    0    0    0    0  0.00000000000E+00  0.00000000000E+00  0.30000000000E+02  0.30000000000E+02  0.00000000000E+00 0.  1.
        -11   -1    0    0    0    0 -0.00000000000E+00 -0.00000000000E+00 -0.30000000000E+02  0.30000000000E+02  0.00000000000E+00 0. -1.
         23    2    1    2    0    0  0.00000000000E+00  0.00000000000E+00  0.00000000000E+00  0.60000000000E+02  0.60000000000E+02 0.  0.
          5    1    3    3  501    0 -0.79406118657E+01  0.11726056368E+02 -0.26026069339E+02  0.30000000000E+02  0.47000000000E+01 0. -1.
         -5    1    3    3    0  501  0.79406118657E+01 -0.11726056368E+02  0.26026069339E+02  0.30000000000E+02  0.47000000000E+01 0.  1.
</event>
<event>
 5    1  0.7673937E-002  0.6000000E+02  0.7546771E-02  0.1259629E+00
         11   -1    0    0    0    0  0.00000000000E+00  0.00000000000E+00  0.30000000000E+02  0.30000000000E+02  0.00000000000E+00 0.  1.
        -11   -1    0    0    0    0 -0.00000000000E+00 -0.00000000000E+00 -0.30000000000E+02  0.30000000000E+02  0.00000000000E+00 0. -1.
         23    2    1    2    0    0  0.00000000000E+00  0.00000000000E+00  0.00000000000E+00  0.60000000000E+02  0.60000000000E+02 0.  0.
          5    1    3    3  501    0  0.11322451251E+02 -0.22739340182E+02 -0.15252360662E+02  0.30000000000E+02  0.47000000000E+01 0. -1.
         -5    1    3    3    0  501 -0.11322451251E+02  0.22739340182E+02  0.15252360662E+02  0.30000000000E+02  0.47000000000E+01 0.  1.
</event>
<event>
 5    1  0.7673937E-002  0.6000000E+02  0.7546771E-02  0.1259629E+00
         11   -1    0    0    0    0  0.00000000000E+00  0.00000000000E+00  0.30000000000E+02  0.30000000000E+02  0.00000000000E+00 0.  1.
        -11   -1    0    0    0    0 -0.00000000000E+00 -0.00000000000E+00 -0.30000000000E+02  0.30000000000E+02  0.00000000000E+00 0. -1.
         23    2    1    2    0    0  0.00000000000E+00  0.00000000000E+00  0.00000000000E+00  0.60000000000E+02  0.60000000000E+02 0.  0.
          5    1    3    3  501    0  0.17671889484E+02 -0.16950549861E+02  0.16682121613E+02  0.30000000000E+02  0.47000000000E+01 0. -1.
         -5    1    3    3    0  501 -0.17671889484E+02  0.16950549861E+02 -0.16682121613E+02  0.30000000000E+02  0.47000000000E+01 0.  1.
</event>
<event>
 5    1  0.7673937E-002  0.6000000E+02  0.7546771E-02  0.1259629E+00
         11   -1    0    0    0    0  0.00000000000E+00  0.00000000000E+00  0.30000000000E+02  0.30000000000E+02  0.00000000000E+00 0.  1.
        -11   -1    0    0    0    0 -0.00000000000E+00 -0.00000000000E+00 -0.30000000000E+02  0.30000000000E+02  0.00000000000E+00 0. -1.
         23    2    1    2    0    0  0.00000000000E+00  0.00000000000E+00  0.00000000000E+00  0.60000000000E+02  0.60000000000E+02 0.  0.
          5    1    3    3  501    0 -0.76717994778E+01 -0.25267252163E+02 -0.13439473982E+02  0.30000000000E+02  0.47000000000E+01 0. -1.
         -5    1    3    3    0  501  0.76717994778E+01  0.25267252163E+02  0.13439473982E+02  0.30000000000E+02  0.47000000000E+01 0.  1.
</event>
<event>
 5    1  0.7673937E-002  0.6000000E+02  0.7546771E-02  0.1259629E+00
         11   -1    0    0    0    0  0.00000000000E+00  0.00000000000E+00  0.30000000000E+02  0.30000000000E+02  0.00000000000E+00 0.  1.
        -11   -1    0    0    0    0 -0.00000000000E+00 -0.00000000000E+00 -0.30000000000E+02  0.30000000000E+02  0.00000000000E+00 0. -1.
         23    2    1    2    0    0  0.00000000000E+00  0.00000000000E+00  0.00000000000E+00  0.60000000000E+02  0.60000000000E+02 0.  0.
          5    1    3    3  501    0  0.16473879971E+02 -0.20671530596E+02  0.13386900370E+02  0.30000000000E+02  0.47000000000E+01 0. -1.
         -5    1    3    3    0  501 -0.16473879971E+02  0.20671530596E+02 -0.13386900370E+02  0.30000000000E+02  0.47000000000E+01 0.  1.
</event>
<event>
 5    1  0.7673937E-002  0.6000000E+02  0.7546771E-02  0.1259629E+00
         11   -1    0    0    0    0  0.00000000000E+00  0.00000000000E+00  0.30000000000E+02  0.30000000000E+02  0.00000000000E+00 0.  1.
        -11   -1    0    0    0    0 -0.00000000000E+00 -0.00000000000E+00 -0.30000000000E+02  0.30000000000E+02  0.00000000000E+00 0. -1.
         23    2    1    2    0    0  0.00000000000E+00  0.00000000000E+00  0.00000000000E+00  0.60000000000E+02  0.60000000000E+02 0.  0.
          5    1    3    3  501    0 -0.91306234634E+01  0.23660983450E+01 -0.28088134395E+02  0.30000000000E+02  0.47000000000E+01 0. -1.
         -5    1    3    3    0  501  0.91306234634E+01 -0.23660983450E+01  0.28088134395E+02  0.30000000000E+02  0.47000000000E+01 0.  1.
</event>
<event>
 5    1  0.7673937E-002  0.6000000E+02  0.7546771E-02  0.1259629E+00
         11   -1    0    0    0    0  0.00000000000E+00  0.00000000000E+00  0.30000000000E+02  0.30000000000E+02  0.00000000000E+00 0.  1.
        -11   -1    0    0    0    0 -0.00000000000E+00 -0.00000000000E+00 -0.30000000000E+02  0.30000000000E+02  0.00000000000E+00 0. -1.
         23    2    1    2    0    0  0.00000000000E+00  0.00000000000E+00  0.00000000000E+00  0.60000000000E+02  0.60000000000E+02 0.  0.
          5    1    3    3  501    0  0.20340347254E+02 -0.20777450330E+02 -0.56989324750E+01  0.30000000000E+02  0.47000000000E+01 0. -1.
         -5    1    3    3    0  501 -0.20340347254E+02  0.20777450330E+02  0.56989324750E+01  0.30000000000E+02  0.47000000000E+01 0.  1.
</event>
<event>
 5    1  0.7673937E-002  0.6000000E+02  0.7546771E-02  0.1259629E+00
         11   -1    0    0    0    0  0.00000000000E+00  0.00000000000E+00  0.30000000000E+02  0.30000000000E+02  0.00000000000E+00 0.  1.
        -11   -1    0    0    0    0 -0.00000000000E+00 -0.00000000000E+00 -0.30000000000E+02  0.30000000000E+02  0.00000000000E+00 0. -1.
         23    2    1    2    0    0  0.00000000000E+00  0.00000000000E+00  0.00000000000E+00  0.60000000000E+02  0.60000000000E+02 0.  0.
          5    1    3    3  501    0 -0.17662603624E+02 -0.13748357894E+02 -0.19414558672E+02  0.30000000000E+02  0.47000000000E+01 0. -1.
         -5    1    3    3    0  501  0.17662603624E+02  0.13748357894E+02  0.19414558672E+02  0.30000000000E+02  0.47000000000E+01 0.  1.
</event>
<event>
 5    1  0.7673937E-002  0.6000000E+02  0.7546771E-02  0.1259629E+00
         11   -1    0    0    0    0  0.00000000000E+00  0.00000000000E+00  0.30000000000E+02  0.30000000000E+02  0.00000000000E+00 0. -1.
        -11   -1    0    0    0    0 -0.00000000000E+00 -0.00000000000E+00 -0.30000000000E+02  0.30000000000E+02  0.00000000000E+00 0.  1.
         23    2    1    2    0    0  0.00000000000E+00  0.00000000000E+00  0.00000000000E+00  0.60000000000E+02  0.60000000000E+02 0.  0.
          5    1    3    3  501    0 -0.64366607480E+01 -0.23062867880E+02 -0.17452321438E+02  0.30000000000E+02  0.47000000000E+01 0.  1.
         -5    1    3    3    0  501  0.64366607480E+01  0.23062867880E+02  0.17452321438E+02  0.30000000000E+02  0.47000000000E+01 0. -1.
</event>
<event>
 5    1  0.7673937E-002  0.6000000E+02  0.7546771E-02  0.1259629E+00
         11   -1    0    0    0    0  0.00000000000E+00  0.00000000000E+00  0.30000000000E+02  0.30000000000E+02  0.00000000000E+00 0. -1.
        -11   -1    0    0    0    0 -0.00000000000E+00 -0.00000000000E+00 -0.30000000000E+02  0.30000000000E+02  0.00000000000E+00 0.  1.
         23    2    1    2    0    0  0.00000000000E+00  0.00000000000E+00  0.00000000000E+00  0.60000000000E+02  0.60000000000E+02 0.  0.
          5    1    3    3  501    0  0.25445962630E+02  0.10886038242E+01 -0.15140275015E+02  0.30000000000E+02  0.47000000000E+01 0.  1.
         -5    1    3    3    0  501 -0.25445962630E+02 -0.10886038242E+01  0.15140275015E+02  0.30000000000E+02  0.47000000000E+01 0. -1.
</event>
<event>
 5    1  0.7673937E-002  0.6000000E+02  0.7546771E-02  0.1259629E+00
         11   -1    0    0    0    0  0.00000000000E+00  0.00000000000E+00  0.30000000000E+02  0.30000000000E+02  0.00000000000E+00 0.  1.
        -11   -1    0    0    0    0 -0.00000000000E+00 -0.00000000000E+00 -0.30000000000E+02  0.30000000000E+02  0.00000000000E+00 0. -1.
         23    2    1    2    0    0  0.00000000000E+00  0.00000000000E+00  0.00000000000E+00  0.60000000000E+02  0.60000000000E+02 0.  0.
          5    1    3    3  501    0  0.11607753514E+02  0.17216043373E+02 -0.21137121586E+02  0.30000000000E+02  0.47000000000E+01 0. -1.
         -5    1    3    3    0  501 -0.11607753514E+02 -0.17216043373E+02  0.21137121586E+02  0.30000000000E+02  0.47000000000E+01 0.  1.
</event>
<event>
 5    1  0.7673937E-002  0.6000000E+02  0.7546771E-02  0.1259629E+00
         11   -1    0    0    0    0  0.00000000000E+00  0.00000000000E+00  0.30000000000E+02  0.30000000000E+02  0.00000000000E+00 0. -1.
        -11   -1    0    0    0    0 -0.00000000000E+00 -0.00000000000E+00 -0.30000000000E+02  0.30000000000E+02  0.00000000000E+00 0.  1.
         23    2    1    2    0    0  0.00000000000E+00  0.00000000000E+00  0.00000000000E+00  0.60000000000E+02  0.60000000000E+02 0.  0.
          5    1    3    3  501    0 -0.10395869646E+02 -0.27297987608E+02  0.49654573656E+01  0.30000000000E+02  0.47000000000E+01 0. -1.
         -5    1    3    3    0  501  0.10395869646E+02  0.27297987608E+02 -0.49654573656E+01  0.30000000000E+02  0.47000000000E+01 0.  1.
</event>
<event>
 5    1  0.7673937E-002  0.6000000E+02  0.7546771E-02  0.1259629E+00
         11   -1    0    0    0    0  0.00000000000E+00  0.00000000000E+00  0.30000000000E+02  0.30000000000E+02  0.00000000000E+00 0.  1.
        -11   -1    0    0    0    0 -0.00000000000E+00 -0.00000000000E+00 -0.30000000000E+02  0.30000000000E+02  0.00000000000E+00 0. -1.
         23    2    1    2    0    0  0.00000000000E+00  0.00000000000E+00  0.00000000000E+00  0.60000000000E+02  0.60000000000E+02 0.  0.
          5    1    3    3  501    0 -0.14545013269E+02  0.52359561387E+01 -0.25277210137E+02  0.30000000000E+02  0.47000000000E+01 0. -1.
         -5    1    3    3    0  501  0.14545013269E+02 -0.52359561387E+01  0.25277210137E+02  0.30000000000E+02  0.47000000000E+01 0.  1.
</event>
<event>
 5    1  0.7673937E-002  0.6000000E+02  0.7546771E-02  0.1259629E+00
         11   -1    0    0    0    0  0.00000000000E+00  0.00000000000E+00  0.30000000000E+02  0.30000000000E+02  0.00000000000E+00 0. -1.
        -11   -1    0    0    0    0 -0.00000000000E+00 -0.00000000000E+00 -0.30000000000E+02  0.30000000000E+02  0.00000000000E+00 0.  1.
         23    2    1    2    0    0  0.00000000000E+00  0.00000000000E+00  0.00000000000E+00  0.60000000000E+02  0.60000000000E+02 0.  0.
          5    1    3    3  501    0  0.83600144827E+01  0.93419389406E+01 -0.26846756502E+02  0.30000000000E+02  0.47000000000E+01 0.  1.
         -5    1    3    3    0  501 -0.83600144827E+01 -0.93419389406E+01  0.26846756502E+02  0.30000000000E+02  0.47000000000E+01 0. -1.
</event>
<event>
 5    1  0.7673937E-002  0.6000000E+02  0.7546771E-02  0.1259629E+00
         11   -1    0    0    0    0  0.00000000000E+00  0.00000000000E+00  0.30000000000E+02  0.30000000000E+02  0.00000000000E+00 0.  1.
        -11   -1    0    0    0    0 -0.00000000000E+00 -0.00000000000E+00 -0.30000000000E+02  0.30000000000E+02  0.00000000000E+00 0. -1.
         23    2    1    2    0    0  0.00000000000E+00  0.00000000000E+00  0.00000000000E+00  0.60000000000E+02  0.60000000000E+02 0.  0.
          5    1    3    3  501    0 -0.14497279236E+02  0.70266570048E+01  0.24866945653E+02  0.30000000000E+02  0.47000000000E+01 0.  1.
         -5    1    3    3    0  501  0.14497279236E+02 -0.70266570048E+01 -0.24866945653E+02  0.30000000000E+02  0.47000000000E+01 0. -1.
</event>
<event>
 5    1  0.7673937E-002  0.6000000E+02  0.7546771E-02  0.1259629E+00
         11   -1    0    0    0    0  0.00000000000E+00  0.00000000000E+00  0.30000000000E+02  0.30000000000E+02  0.00000000000E+00 0. -1.
        -11   -1    0    0    0    0 -0.00000000000E+00 -0.00000000000E+00 -0.30000000000E+02  0.30000000000E+02  0.00000000000E+00 0.  1.
         23    2    1    2    0    0  0.00000000000E+00  0.00000000000E+00  0.00000000000E+00  0.60000000000E+02  0.60000000000E+02 0.  0.
          5    1    3    3  501    0 -0.12951883430E+02  0.40284476059E+01 -0.26342557308E+02  0.30000000000E+02  0.47000000000E+01 0.  1.
         -5    1    3    3    0  501  0.12951883430E+02 -0.40284476059E+01  0.26342557308E+02  0.30000000000E+02  0.47000000000E+01 0. -1.
</event>
<event>
 5    1  0.7673937E-002  0.6000000E+02  0.7546771E-02  0.1259629E+00
         11   -1    0    0    0    0  0.00000000000E+00  0.00000000000E+00  0.30000000000E+02  0.30000000000E+02  0.00000000000E+00 0.  1.
        -11   -1    0    0    0    0 -0.00000000000E+00 -0.00000000000E+00 -0.30000000000E+02  0.30000000000E+02  0.00000000000E+00 0. -1.
         23    2    1    2    0    0  0.00000000000E+00  0.00000000000E+00  0.00000000000E+00  0.60000000000E+02  0.60000000000E+02 0.  0.
          5    1    3    3  501    0 -0.27380529333E+01 -0.17748022329E+02  0.23567366623E+02  0.30000000000E+02  0.47000000000E+01 0.  1.
         -5    1    3    3    0  501  0.27380529333E+01  0.17748022329E+02 -0.23567366623E+02  0.30000000000E+02  0.47000000000E+01 0. -1.
</event>
<event>
 5    1  0.7673937E-002  0.6000000E+02  0.7546771E-02  0.1259629E+00
         11   -1    0    0    0    0  0.00000000000E+00  0.00000000000E+00  0.30000000000E+02  0.30000000000E+02  0.00000000000E+00 0.  1.
        -11   -1    0    0    0    0 -0.00000000000E+00 -0.00000000000E+00 -0.30000000000E+02  0.30000000000E+02  0.00000000000E+00 0. -1.
         23    2    1    2    0    0  0.00000000000E+00  0.00000000000E+00  0.00000000000E+00  0.60000000000E+02  0.60000000000E+02 0.  0.
          5    1    3    3  501    0 -0.19578646154E+01  0.27113380730E+02  0.11787338611E+02  0.30000000000E+02  0.47000000000E+01 0. -1.
         -5    1    3    3    0  501  0.19578646154E+01 -0.27113380730E+02 -0.11787338611E+02  0.30000000000E+02  0.47000000000E+01 0.  1.
</event>
<event>
 5    1  0.7673937E-002  0.6000000E+02  0.7546771E-02  0.1259629E+00
         11   -1    0    0    0    0  0.00000000000E+00  0.00000000000E+00  0.30000000000E+02  0.30000000000E+02  0.00000000000E+00 0.  1.
        -11   -1    0    0    0    0 -0.00000000000E+00 -0.00000000000E+00 -0.30000000000E+02  0.30000000000E+02  0.00000000000E+00 0. -1.
         23    2    1    2    0    0  0.00000000000E+00  0.00000000000E+00  0.00000000000E+00  0.60000000000E+02  0.60000000000E+02 0.  0.
          5    1    3    3  501    0  0.25284924083E+02 -0.10934929362E+02  0.10909167427E+02  0.30000000000E+02  0.47000000000E+01 0. -1.
         -5    1    3    3    0  501 -0.25284924083E+02  0.10934929362E+02 -0.10909167427E+02  0.30000000000E+02  0.47000000000E+01 0.  1.
</event>
<event>
 5    1  0.7673937E-002  0.6000000E+02  0.7546771E-02  0.1259629E+00
         11   -1    0    0    0    0  0.00000000000E+00  0.00000000000E+00  0.30000000000E+02  0.30000000000E+02  0.00000000000E+00 0.  1.
        -11   -1    0    0    0    0 -0.00000000000E+00 -0.00000000000E+00 -0.30000000000E+02  0.30000000000E+02  0.00000000000E+00 0. -1.
         23    2    1    2    0    0  0.00000000000E+00  0.00000000000E+00  0.00000000000E+00  0.60000000000E+02  0.60000000000E+02 0.  0.
          5    1    3    3  501    0 -0.10620544186E+02  0.20175308484E+02 -0.18922763243E+02  0.30000000000E+02  0.47000000000E+01 0. -1.
         -5    1    3    3    0  501  0.10620544186E+02 -0.20175308484E+02  0.18922763243E+02  0.30000000000E+02  0.47000000000E+01 0.  1.
</event>
<event>
 5    1  0.7673937E-002  0.6000000E+02  0.7546771E-02  0.1259629E+00
         11   -1    0    0    0    0  0.00000000000E+00  0.00000000000E+00  0.30000000000E+02  0.30000000000E+02  0.00000000000E+00 0.  1.
        -11   -1    0    0    0    0 -0.00000000000E+00 -0.00000000000E+00 -0.30000000000E+02  0.30000000000E+02  0.00000000000E+00 0. -1.
         23    2    1    2    0    0  0.00000000000E+00  0.00000000000E+00  0.00000000000E+00  0.60000000000E+02  0.60000000000E+02 0.  0.
          5    1    3    3  501    0 -0.53301198205E+01 -0.16158804374E+02 -0.24256810670E+02  0.30000000000E+02  0.47000000000E+01 0. -1.
         -5    1    3    3    0  501  0.53301198205E+01  0.16158804374E+02  0.24256810670E+02  0.30000000000E+02  0.47000000000E+01 0.  1.
</event>
<event>
 5    1  0.7673937E-002  0.6000000E+02  0.7546771E-02  0.1259629E+00
         11   -1    0    0    0    0  0.00000000000E+00  0.00000000000E+00  0.30000000000E+02  0.30000000000E+02  0.00000000000E+00 0.  1.
        -11   -1    0    0    0    0 -0.00000000000E+00 -0.00000000000E+00 -0.30000000000E+02  0.30000000000E+02  0.00000000000E+00 0. -1.
         23    2    1    2    0    0  0.00000000000E+00  0.00000000000E+00  0.00000000000E+00  0.60000000000E+02  0.60000000000E+02 0.  0.
          5    1    3    3  501    0  0.21874560779E+02  0.18571662067E+02  0.73828828237E+01  0.30000000000E+02  0.47000000000E+01 0. -1.
         -5    1    3    3    0  501 -0.21874560779E+02 -0.18571662067E+02 -0.73828828237E+01  0.30000000000E+02  0.47000000000E+01 0.  1.
</event>
<event>
 5    1  0.7673937E-002  0.6000000E+02  0.7546771E-02  0.1259629E+00
         11   -1    0    0    0    0  0.00000000000E+00  0.00000000000E+00  0.30000000000E+02  0.30000000000E+02  0.00000000000E+00 0.  1.
        -11   -1    0    0    0    0 -0.00000000000E+00 -0.00000000000E+00 -0.30000000000E+02  0.30000000000E+02  0.00000000000E+00 0. -1.
         23    2    1    2    0    0  0.00000000000E+00  0.00000000000E+00  0.00000000000E+00  0.60000000000E+02  0.60000000000E+02 0.  0.
          5    1    3    3  501    0  0.26597571263E+02  0.10412873426E+02 -0.78772628457E+01  0.30000000000E+02  0.47000000000E+01 0. -1.
         -5    1    3    3    0  501 -0.26597571263E+02 -0.10412873426E+02  0.78772628457E+01  0.30000000000E+02  0.47000000000E+01 0.  1.
</event>
<event>
 5    1  0.7673937E-002  0.6000000E+02  0.7546771E-02  0.1259629E+00
         11   -1    0    0    0    0  0.00000000000E+00  0.00000000000E+00  0.30000000000E+02  0.30000000000E+02  0.00000000000E+00 0.  1.
        -11   -1    0    0    0    0 -0.00000000000E+00 -0.00000000000E+00 -0.30000000000E+02  0.30000000000E+02  0.00000000000E+00 0. -1.
         23    2    1    2    0    0  0.00000000000E+00  0.00000000000E+00  0.00000000000E+00  0.60000000000E+02  0.60000000000E+02 0.  0.
          5    1    3    3  501    0  0.21933019302E+02  0.75557354321E+01  0.18432675508E+02  0.30000000000E+02  0.47000000000E+01 0.  1.
         -5    1    3    3    0  501 -0.21933019302E+02 -0.75557354321E+01 -0.18432675508E+02  0.30000000000E+02  0.47000000000E+01 0. -1.
</event>
<event>
 5    1  0.7673937E-002  0.6000000E+02  0.7546771E-02  0.1259629E+00
         11   -1    0    0    0    0  0.00000000000E+00  0.00000000000E+00  0.30000000000E+02  0.30000000000E+02  0.00000000000E+00 0. -1.
        -11   -1    0    0    0    0 -0.00000000000E+00 -0.00000000000E+00 -0.30000000000E+02  0.30000000000E+02  0.00000000000E+00 0.  1.
         23    2    1    2    0    0  0.00000000000E+00  0.00000000000E+00  0.00000000000E+00  0.60000000000E+02  0.60000000000E+02 0.  0.
          5    1    3    3  501    0 -0.16040380590E+02 -0.24799317612E+02 -0.23685515600E+01  0.30000000000E+02  0.47000000000E+01 0.  1.
         -5    1    3    3    0  501  0.16040380590E+02  0.24799317612E+02  0.23685515600E+01  0.30000000000E+02  0.47000000000E+01 0. -1.
</event>
<event>
 5    1  0.7673937E-002  0.6000000E+02  0.7546771E-02  0.1259629E+00
         11   -1    0    0    0    0  0.00000000000E+00  0.00000000000E+00  0.30000000000E+02  0.30000000000E+02  0.00000000000E+00 0. -1.
        -11   -1    0    0    0    0 -0.00000000000E+00 -0.00000000000E+00 -0.30000000000E+02  0.30000000000E+02  0.00000000000E+00 0.  1.
         23    2    1    2    0    0  0.00000000000E+00  0.00000000000E+00  0.00000000000E+00  0.60000000000E+02  0.60000000000E+02 0.  0.
          5    1    3    3  501    0 -0.10518033982E+02 -0.22378153211E+02  0.16324803827E+02  0.30000000000E+02  0.47000000000E+01 0. -1.
         -5    1    3    3    0  501  0.10518033982E+02  0.22378153211E+02 -0.16324803827E+02  0.30000000000E+02  0.47000000000E+01 0.  1.
</event>
<event>
 5    1  0.7673937E-002  0.6000000E+02  0.7546771E-02  0.1259629E+00
         11   -1    0    0    0    0  0.00000000000E+00  0.00000000000E+00  0.30000000000E+02  0.30000000000E+02  0.00000000000E+00 0.  1.
        -11   -1    0    0    0    0 -0.00000000000E+00 -0.00000000000E+00 -0.30000000000E+02  0.30000000000E+02  0.00000000000E+00 0. -1.
         23    2    1    2    0    0  0.00000000000E+00  0.00000000000E+00  0.00000000000E+00  0.60000000000E+02  0.60000000000E+02 0.  0.
          5    1    3    3  501    0  0.24946212462E+02  0.15150366461E+02 -0.51051816737E+01  0.30000000000E+02  0.47000000000E+01 0. -1.
         -5    1    3    3    0  501 -0.24946212462E+02 -0.15150366461E+02  0.51051816737E+01  0.30000000000E+02  0.47000000000E+01 0.  1.
</event>
<event>
 5    1  0.7673937E-002  0.6000000E+02  0.7546771E-02  0.1259629E+00
         11   -1    0    0    0    0  0.00000000000E+00  0.00000000000E+00  0.30000000000E+02  0.30000000000E+02  0.00000000000E+00 0.  1.
        -11   -1    0    0    0    0 -0.00000000000E+00 -0.00000000000E+00 -0.30000000000E+02  0.30000000000E+02  0.00000000000E+00 0. -1.
         23    2    1    2    0    0  0.00000000000E+00  0.00000000000E+00  0.00000000000E+00  0.60000000000E+02  0.60000000000E+02 0.  0.
          5    1    3    3  501    0  0.23240844650E+02  0.17054063560E+02 -0.68506974855E+01  0.30000000000E+02  0.47000000000E+01 0. -1.
         -5    1    3    3    0  501 -0.23240844650E+02 -0.17054063560E+02  0.68506974855E+01  0.30000000000E+02  0.47000000000E+01 0.  1.
</event>
<event>
 5    1  0.7673937E-002  0.6000000E+02  0.7546771E-02  0.1259629E+00
         11   -1    0    0    0    0  0.00000000000E+00  0.00000000000E+00  0.30000000000E+02  0.30000000000E+02  0.00000000000E+00 0.  1.
        -11   -1    0    0    0    0 -0.00000000000E+00 -0.00000000000E+00 -0.30000000000E+02  0.30000000000E+02  0.00000000000E+00 0. -1.
         23    2    1    2    0    0  0.00000000000E+00  0.00000000000E+00  0.00000000000E+00  0.60000000000E+02  0.60000000000E+02 0.  0.
          5    1    3    3  501    0 -0.65514507232E+01  0.19397204258E+02 -0.21418145587E+02  0.30000000000E+02  0.47000000000E+01 0. -1.
         -5    1    3    3    0  501  0.65514507232E+01 -0.19397204258E+02  0.21418145587E+02  0.30000000000E+02  0.47000000000E+01 0.  1.
</event>
<event>
 5    1  0.7673937E-002  0.6000000E+02  0.7546771E-02  0.1259629E+00
         11   -1    0    0    0    0  0.00000000000E+00  0.00000000000E+00  0.30000000000E+02  0.30000000000E+02  0.00000000000E+00 0. -1.
        -11   -1    0    0    0    0 -0.00000000000E+00 -0.00000000000E+00 -0.30000000000E+02  0.30000000000E+02  0.00000000000E+00 0.  1.
         23    2    1    2    0    0  0.00000000000E+00  0.00000000000E+00  0.00000000000E+00  0.60000000000E+02  0.60000000000E+02 0.  0.
          5    1    3    3  501    0  0.52854261383E+01  0.28790729575E+02 -0.45900066540E+01  0.30000000000E+02  0.47000000000E+01 0.  1.
         -5    1    3    3    0  501 -0.52854261383E+01 -0.28790729575E+02  0.45900066540E+01  0.30000000000E+02  0.47000000000E+01 0. -1.
</event>
<event>
 5    1  0.7673937E-002  0.6000000E+02  0.7546771E-02  0.1259629E+00
         11   -1    0    0    0    0  0.00000000000E+00  0.00000000000E+00  0.30000000000E+02  0.30000000000E+02  0.00000000000E+00 0.  1.
        -11   -1    0    0    0    0 -0.00000000000E+00 -0.00000000000E+00 -0.30000000000E+02  0.30000000000E+02  0.00000000000E+00 0. -1.
         23    2    1    2    0    0  0.00000000000E+00  0.00000000000E+00  0.00000000000E+00  0.60000000000E+02  0.60000000000E+02 0.  0.
          5    1    3    3  501    0  0.14929646527E+02 -0.23357415159E+02  0.10461683022E+02  0.30000000000E+02  0.47000000000E+01 0. -1.
         -5    1    3    3    0  501 -0.14929646527E+02  0.23357415159E+02 -0.10461683022E+02  0.30000000000E+02  0.47000000000E+01 0.  1.
</event>
<event>
 5    1  0.7673937E-002  0.6000000E+02  0.7546771E-02  0.1259629E+00
         11   -1    0    0    0    0  0.00000000000E+00  0.00000000000E+00  0.30000000000E+02  0.30000000000E+02  0.00000000000E+00 0.  1.
        -11   -1    0    0    0    0 -0.00000000000E+00 -0.00000000000E+00 -0.30000000000E+02  0.30000000000E+02  0.00000000000E+00 0. -1.
         23    2    1    2    0    0  0.00000000000E+00  0.00000000000E+00  0.00000000000E+00  0.60000000000E+02  0.60000000000E+02 0.  0.
          5    1    3    3  501    0 -0.12529297915E+02  0.26790082631E+02  0.17939248541E+01  0.30000000000E+02  0.47000000000E+01 0. -1.
         -5    1    3    3    0  501  0.12529297915E+02 -0.26790082631E+02 -0.17939248541E+01  0.30000000000E+02  0.47000000000E+01 0.  1.
</event>
<event>
 5    1  0.7673937E-002  0.6000000E+02  0.7546771E-02  0.1259629E+00
         11   -1    0    0    0    0  0.00000000000E+00  0.00000000000E+00  0.30000000000E+02  0.30000000000E+02  0.00000000000E+00 0.  1.
        -11   -1    0    0    0    0 -0.00000000000E+00 -0.00000000000E+00 -0.30000000000E+02  0.30000000000E+02  0.00000000000E+00 0. -1.
         23    2    1    2    0    0  0.00000000000E+00  0.00000000000E+00  0.00000000000E+00  0.60000000000E+02  0.60000000000E+02 0.  0.
          5    1    3    3  501    0 -0.23400877111E+02 -0.14297137576E+02 -0.11220552908E+02  0.30000000000E+02  0.47000000000E+01 0. -1.
         -5    1    3    3    0  501  0.23400877111E+02  0.14297137576E+02  0.11220552908E+02  0.30000000000E+02  0.47000000000E+01 0.  1.
</event>
<event>
 5    1  0.7673937E-002  0.6000000E+02  0.7546771E-02  0.1259629E+00
         11   -1    0    0    0    0  0.00000000000E+00  0.00000000000E+00  0.30000000000E+02  0.30000000000E+02  0.00000000000E+00 0.  1.
        -11   -1    0    0    0    0 -0.00000000000E+00 -0.00000000000E+00 -0.30000000000E+02  0.30000000000E+02  0.00000000000E+00 0. -1.
         23    2    1    2    0    0  0.00000000000E+00  0.00000000000E+00  0.00000000000E+00  0.60000000000E+02  0.60000000000E+02 0.  0.
          5    1    3    3  501    0  0.19444492074E+02 -0.16632942708E+02  0.14938773204E+02  0.30000000000E+02  0.47000000000E+01 0. -1.
         -5    1    3    3    0  501 -0.19444492074E+02  0.16632942708E+02 -0.14938773204E+02  0.30000000000E+02  0.47000000000E+01 0.  1.
</event>
<event>
 5    1  0.7673937E-002  0.6000000E+02  0.7546771E-02  0.1259629E+00
         11   -1    0    0    0    0  0.00000000000E+00  0.00000000000E+00  0.30000000000E+02  0.30000000000E+02  0.00000000000E+00 0. -1.
        -11   -1    0    0    0    0 -0.00000000000E+00 -0.00000000000E+00 -0.30000000000E+02  0.30000000000E+02  0.00000000000E+00 0.  1.
         23    2    1    2    0    0  0.00000000000E+00  0.00000000000E+00  0.00000000000E+00  0.60000000000E+02  0.60000000000E+02 0.  0.
          5    1    3    3  501    0  0.26702897916E+02 -0.54267208508E+01 -0.11636835639E+02  0.30000000000E+02  0.47000000000E+01 0.  1.
         -5    1    3    3    0  501 -0.26702897916E+02  0.54267208508E+01  0.11636835639E+02  0.30000000000E+02  0.47000000000E+01 0. -1.
</event>
<event>
 5    1  0.7673937E-002  0.6000000E+02  0.7546771E-02  0.1259629E+00
         11   -1    0    0    0    0  0.00000000000E+00  0.00000000000E+00  0.30000000000E+02  0.30000000000E+02  0.00000000000E+00 0. -1.
        -11   -1    0    0    0    0 -0.00000000000E+00 -0.00000000000E+00 -0.30000000000E+02  0.30000000000E+02  0.00000000000E+00 0.  1.
         23    2    1    2    0    0  0.00000000000E+00  0.00000000000E+00  0.00000000000E+00  0.60000000000E+02  0.60000000000E+02 0.  0.
          5    1    3    3  501    0 -0.55786827071E+01  0.18612246280E+02 -0.22369009537E+02  0.30000000000E+02  0.47000000000E+01 0.  1.
         -5    1    3    3    0  501  0.55786827071E+01 -0.18612246280E+02  0.22369009537E+02  0.30000000000E+02  0.47000000000E+01 0. -1.
</event>
<event>
 5    1  0.7673937E-002  0.6000000E+02  0.7546771E-02  0.1259629E+00
         11   -1    0    0    0    0  0.00000000000E+00  0.00000000000E+00  0.30000000000E+02  0.30000000000E+02  0.00000000000E+00 0.  1.
        -11   -1    0    0    0    0 -0.00000000000E+00 -0.00000000000E+00 -0.30000000000E+02  0.30000000000E+02  0.00000000000E+00 0. -1.
         23    2    1    2    0    0  0.00000000000E+00  0.00000000000E+00  0.00000000000E+00  0.60000000000E+02  0.60000000000E+02 0.  0.
          5    1    3    3  501    0  0.13469134122E+02  0.95927850186E+01 -0.24585989945E+02  0.30000000000E+02  0.47000000000E+01 0. -1.
         -5    1    3    3    0  501 -0.13469134122E+02 -0.95927850186E+01  0.24585989945E+02  0.30000000000E+02  0.47000000000E+01 0.  1.
</event>
<event>
 5    1  0.7673937E-002  0.6000000E+02  0.7546771E-02  0.1259629E+00
         11   -1    0    0    0    0  0.00000000000E+00  0.00000000000E+00  0.30000000000E+02  0.30000000000E+02  0.00000000000E+00 0.  1.
        -11   -1    0    0    0    0 -0.00000000000E+00 -0.00000000000E+00 -0.30000000000E+02  0.30000000000E+02  0.00000000000E+00 0. -1.
         23    2    1    2    0    0  0.00000000000E+00  0.00000000000E+00  0.00000000000E+00  0.60000000000E+02  0.60000000000E+02 0.  0.
          5    1    3    3  501    0 -0.24057615255E+02  0.23799635586E+01 -0.17131168136E+02  0.30000000000E+02  0.47000000000E+01 0. -1.
         -5    1    3    3    0  501  0.24057615255E+02 -0.23799635586E+01  0.17131168136E+02  0.30000000000E+02  0.47000000000E+01 0.  1.
</event>
<event>
 5    1  0.7673937E-002  0.6000000E+02  0.7546771E-02  0.1259629E+00
         11   -1    0    0    0    0  0.00000000000E+00  0.00000000000E+00  0.30000000000E+02  0.30000000000E+02  0.00000000000E+00 0.  1.
        -11   -1    0    0    0    0 -0.00000000000E+00 -0.00000000000E+00 -0.30000000000E+02  0.30000000000E+02  0.00000000000E+00 0. -1.
         23    2    1    2    0    0  0.00000000000E+00  0.00000000000E+00  0.00000000000E+00  0.60000000000E+02  0.60000000000E+02 0.  0.
          5    1    3    3  501    0 -0.20656005410E+02 -0.13582566136E+02  0.16332585149E+02  0.30000000000E+02  0.47000000000E+01 0.  1.
         -5    1    3    3    0  501  0.20656005410E+02  0.13582566136E+02 -0.16332585149E+02  0.30000000000E+02  0.47000000000E+01 0. -1.
</event>
<event>
 5    1  0.7673937E-002  0.6000000E+02  0.7546771E-02  0.1259629E+00
         11   -1    0    0    0    0  0.00000000000E+00  0.00000000000E+00  0.30000000000E+02  0.30000000000E+02  0.00000000000E+00 0. -1.
        -11   -1    0    0    0    0 -0.00000000000E+00 -0.00000000000E+00 -0.30000000000E+02  0.30000000000E+02  0.00000000000E+00 0.  1.
         23    2    1    2    0    0  0.00000000000E+00  0.00000000000E+00  0.00000000000E+00  0.60000000000E+02  0.60000000000E+02 0.  0.
          5    1    3    3  501    0  0.10264362800E+02 -0.67651004589E+01 -0.26958973869E+02  0.30000000000E+02  0.47000000000E+01 0.  1.
         -5    1    3    3    0  501 -0.10264362800E+02  0.67651004589E+01  0.26958973869E+02  0.30000000000E+02  0.47000000000E+01 0. -1.
</event>
<event>
 5    1  0.7673937E-002  0.6000000E+02  0.7546771E-02  0.1259629E+00
         11   -1    0    0    0    0  0.00000000000E+00  0.00000000000E+00  0.30000000000E+02  0.30000000000E+02  0.00000000000E+00 0. -1.
        -11   -1    0    0    0    0 -0.00000000000E+00 -0.00000000000E+00 -0.30000000000E+02  0.30000000000E+02  0.00000000000E+00 0.  1.
         23    2    1    2    0    0  0.00000000000E+00  0.00000000000E+00  0.00000000000E+00  0.60000000000E+02  0.60000000000E+02 0.  0.
          5    1    3    3  501    0  0.27851692126E+02  0.22463627050E+01  0.98563228595E+01  0.30000000000E+02  0.47000000000E+01 0.  1.
         -5    1    3    3    0  501 -0.27851692126E+02 -0.22463627050E+01 -0.98563228595E+01  0.30000000000E+02  0.47000000000E+01 0. -1.
</event>
<event>
 5    1  0.7673937E-002  0.6000000E+02  0.7546771E-02  0.1259629E+00
         11   -1    0    0    0    0  0.00000000000E+00  0.00000000000E+00  0.30000000000E+02  0.30000000000E+02  0.00000000000E+00 0.  1.
        -11   -1    0    0    0    0 -0.00000000000E+00 -0.00000000000E+00 -0.30000000000E+02  0.30000000000E+02  0.00000000000E+00 0. -1.
         23    2    1    2    0    0  0.00000000000E+00  0.00000000000E+00  0.00000000000E+00  0.60000000000E+02  0.60000000000E+02 0.  0.
          5    1    3    3  501    0  0.84007114735E+00 -0.29354878635E+02 -0.39364172545E+01  0.30000000000E+02  0.47000000000E+01 0. -1.
         -5    1    3    3    0  501 -0.84007114735E+00  0.29354878635E+02  0.39364172545E+01  0.30000000000E+02  0.47000000000E+01 0.  1.
</event>
<event>
 5    1  0.7673937E-002  0.6000000E+02  0.7546771E-02  0.1259629E+00
         11   -1    0    0    0    0  0.00000000000E+00  0.00000000000E+00  0.30000000000E+02  0.30000000000E+02  0.00000000000E+00 0.  1.
        -11   -1    0    0    0    0 -0.00000000000E+00 -0.00000000000E+00 -0.30000000000E+02  0.30000000000E+02  0.00000000000E+00 0. -1.
         23    2    1    2    0    0  0.00000000000E+00  0.00000000000E+00  0.00000000000E+00  0.60000000000E+02  0.60000000000E+02 0.  0.
          5    1    3    3  501    0  0.11327552308E+02  0.13926942126E+02 -0.23571950317E+02  0.30000000000E+02  0.47000000000E+01 0. -1.
         -5    1    3    3    0  501 -0.11327552308E+02 -0.13926942126E+02  0.23571950317E+02  0.30000000000E+02  0.47000000000E+01 0.  1.
</event>
<event>
 5    1  0.7673937E-002  0.6000000E+02  0.7546771E-02  0.1259629E+00
         11   -1    0    0    0    0  0.00000000000E+00  0.00000000000E+00  0.30000000000E+02  0.30000000000E+02  0.00000000000E+00 0. -1.
        -11   -1    0    0    0    0 -0.00000000000E+00 -0.00000000000E+00 -0.30000000000E+02  0.30000000000E+02  0.00000000000E+00 0.  1.
         23    2    1    2    0    0  0.00000000000E+00  0.00000000000E+00  0.00000000000E+00  0.60000000000E+02  0.60000000000E+02 0.  0.
          5    1    3    3  501    0  0.54498676722E+01  0.26848327708E+02  0.11286108349E+02  0.30000000000E+02  0.47000000000E+01 0.  1.
         -5    1    3    3    0  501 -0.54498676722E+01 -0.26848327708E+02 -0.11286108349E+02  0.30000000000E+02  0.47000000000E+01 0. -1.
</event>
<event>
 5    1  0.7673937E-002  0.6000000E+02  0.7546771E-02  0.1259629E+00
         11   -1    0    0    0    0  0.00000000000E+00  0.00000000000E+00  0.30000000000E+02  0.30000000000E+02  0.00000000000E+00 0. -1.
        -11   -1    0    0    0    0 -0.00000000000E+00 -0.00000000000E+00 -0.30000000000E+02  0.30000000000E+02  0.00000000000E+00 0.  1.
         23    2    1    2    0    0  0.00000000000E+00  0.00000000000E+00  0.00000000000E+00  0.60000000000E+02  0.60000000000E+02 0.  0.
          5    1    3    3  501    0  0.66269681240E+01 -0.26772513469E+02  0.10827087146E+02  0.30000000000E+02  0.47000000000E+01 0. -1.
         -5    1    3    3    0  501 -0.66269681240E+01  0.26772513469E+02 -0.10827087146E+02  0.30000000000E+02  0.47000000000E+01 0.  1.
</event>
<event>
 5    1  0.7673937E-002  0.6000000E+02  0.7546771E-02  0.1259629E+00
         11   -1    0    0    0    0  0.00000000000E+00  0.00000000000E+00  0.30000000000E+02  0.30000000000E+02  0.00000000000E+00 0.  1.
        -11   -1    0    0    0    0 -0.00000000000E+00 -0.00000000000E+00 -0.30000000000E+02  0.30000000000E+02  0.00000000000E+00 0. -1.
         23    2    1    2    0    0  0.00000000000E+00  0.00000000000E+00  0.00000000000E+00  0.60000000000E+02  0.60000000000E+02 0.  0.
          5    1    3    3  501    0 -0.16635710327E+02  0.20906337499E+02 -0.12809691421E+02  0.30000000000E+02  0.47000000000E+01 0. -1.
         -5    1    3    3    0  501  0.16635710327E+02 -0.20906337499E+02  0.12809691421E+02  0.30000000000E+02  0.47000000000E+01 0.  1.
</event>
<event>
 5    1  0.7673937E-002  0.6000000E+02  0.7546771E-02  0.1259629E+00
         11   -1    0    0    0    0  0.00000000000E+00  0.00000000000E+00  0.30000000000E+02  0.30000000000E+02  0.00000000000E+00 0.  1.
        -11   -1    0    0    0    0 -0.00000000000E+00 -0.00000000000E+00 -0.30000000000E+02  0.30000000000E+02  0.00000000000E+00 0. -1.
         23    2    1    2    0    0  0.00000000000E+00  0.00000000000E+00  0.00000000000E+00  0.60000000000E+02  0.60000000000E+02 0.  0.
          5    1    3    3  501    0  0.14778569978E+02 -0.17282641723E+02 -0.18995108962E+02  0.30000000000E+02  0.47000000000E+01 0. -1.
         -5    1    3    3    0  501 -0.14778569978E+02  0.17282641723E+02  0.18995108962E+02  0.30000000000E+02  0.47000000000E+01 0.  1.
</event>
<event>
 5    1  0.7673937E-002  0.6000000E+02  0.7546771E-02  0.1259629E+00
         11   -1    0    0    0    0  0.00000000000E+00  0.00000000000E+00  0.30000000000E+02  0.30000000000E+02  0.00000000000E+00 0.  1.
        -11   -1    0    0    0    0 -0.00000000000E+00 -0.00000000000E+00 -0.30000000000E+02  0.30000000000E+02  0.00000000000E+00 0. -1.
         23    2    1    2    0    0  0.00000000000E+00  0.00000000000E+00  0.00000000000E+00  0.60000000000E+02  0.60000000000E+02 0.  0.
          5    1    3    3  501    0 -0.24049296744E+02  0.13669957519E+02 -0.10614781559E+02  0.30000000000E+02  0.47000000000E+01 0. -1.
         -5    1    3    3    0  501  0.24049296744E+02 -0.13669957519E+02  0.10614781559E+02  0.30000000000E+02  0.47000000000E+01 0.  1.
</event>
<event>
 5    1  0.7673937E-002  0.6000000E+02  0.7546771E-02  0.1259629E+00
         11   -1    0    0    0    0  0.00000000000E+00  0.00000000000E+00  0.30000000000E+02  0.30000000000E+02  0.00000000000E+00 0.  1.
        -11   -1    0    0    0    0 -0.00000000000E+00 -0.00000000000E+00 -0.30000000000E+02  0.30000000000E+02  0.00000000000E+00 0. -1.
         23    2    1    2    0    0  0.00000000000E+00  0.00000000000E+00  0.00000000000E+00  0.60000000000E+02  0.60000000000E+02 0.  0.
          5    1    3    3  501    0  0.43093821123E+01  0.19306408560E+02 -0.22059052889E+02  0.30000000000E+02  0.47000000000E+01 0. -1.
         -5    1    3    3    0  501 -0.43093821123E+01 -0.19306408560E+02  0.22059052889E+02  0.30000000000E+02  0.47000000000E+01 0.  1.
</event>
<event>
 5    1  0.7673937E-002  0.6000000E+02  0.7546771E-02  0.1259629E+00
         11   -1    0    0    0    0  0.00000000000E+00  0.00000000000E+00  0.30000000000E+02  0.30000000000E+02  0.00000000000E+00 0.  1.
        -11   -1    0    0    0    0 -0.00000000000E+00 -0.00000000000E+00 -0.30000000000E+02  0.30000000000E+02  0.00000000000E+00 0. -1.
         23    2    1    2    0    0  0.00000000000E+00  0.00000000000E+00  0.00000000000E+00  0.60000000000E+02  0.60000000000E+02 0.  0.
          5    1    3    3  501    0 -0.53245429473E+01 -0.16624958131E+02 -0.23940969269E+02  0.30000000000E+02  0.47000000000E+01 0. -1.
         -5    1    3    3    0  501  0.53245429473E+01  0.16624958131E+02  0.23940969269E+02  0.30000000000E+02  0.47000000000E+01 0.  1.
</event>
<event>
 5    1  0.7673937E-002  0.6000000E+02  0.7546771E-02  0.1259629E+00
         11   -1    0    0    0    0  0.00000000000E+00  0.00000000000E+00  0.30000000000E+02  0.30000000000E+02  0.00000000000E+00 0. -1.
        -11   -1    0    0    0    0 -0.00000000000E+00 -0.00000000000E+00 -0.30000000000E+02  0.30000000000E+02  0.00000000000E+00 0.  1.
         23    2    1    2    0    0  0.00000000000E+00  0.00000000000E+00  0.00000000000E+00  0.60000000000E+02  0.60000000000E+02 0.  0.
          5    1    3    3  501    0 -0.33919441218E+01  0.14697890942E+02 -0.25502484525E+02  0.30000000000E+02  0.47000000000E+01 0.  1.
         -5    1    3    3    0  501  0.33919441218E+01 -0.14697890942E+02  0.25502484525E+02  0.30000000000E+02  0.47000000000E+01 0. -1.
</event>
<event>
 5    1  0.7673937E-002  0.6000000E+02  0.7546771E-02  0.1259629E+00
         11   -1    0    0    0    0  0.00000000000E+00  0.00000000000E+00  0.30000000000E+02  0.30000000000E+02  0.00000000000E+00 0.  1.
        -11   -1    0    0    0    0 -0.00000000000E+00 -0.00000000000E+00 -0.30000000000E+02  0.30000000000E+02  0.00000000000E+00 0. -1.
         23    2    1    2    0    0  0.00000000000E+00  0.00000000000E+00  0.00000000000E+00  0.60000000000E+02  0.60000000000E+02 0.  0.
          5    1    3    3  501    0  0.19071277391E+02  0.12002696202E+02 -0.19238806163E+02  0.30000000000E+02  0.47000000000E+01 0. -1.
         -5    1    3    3    0  501 -0.19071277391E+02 -0.12002696202E+02  0.19238806163E+02  0.30000000000E+02  0.47000000000E+01 0.  1.
</event>
<event>
 5    1  0.7673937E-002  0.6000000E+02  0.7546771E-02  0.1259629E+00
         11   -1    0    0    0    0  0.00000000000E+00  0.00000000000E+00  0.30000000000E+02  0.30000000000E+02  0.00000000000E+00 0.  1.
        -11   -1    0    0    0    0 -0.00000000000E+00 -0.00000000000E+00 -0.30000000000E+02  0.30000000000E+02  0.00000000000E+00 0. -1.
         23    2    1    2    0    0  0.00000000000E+00  0.00000000000E+00  0.00000000000E+00  0.60000000000E+02  0.60000000000E+02 0.  0.
          5    1    3    3  501    0 -0.28001434848E+01 -0.29350285403E+02  0.29376764989E+01  0.30000000000E+02  0.47000000000E+01 0. -1.
         -5    1    3    3    0  501  0.28001434848E+01  0.29350285403E+02 -0.29376764989E+01  0.30000000000E+02  0.47000000000E+01 0.  1.
</event>
<event>
 5    1  0.7673937E-002  0.6000000E+02  0.7546771E-02  0.1259629E+00
         11   -1    0    0    0    0  0.00000000000E+00  0.00000000000E+00  0.30000000000E+02  0.30000000000E+02  0.00000000000E+00 0.  1.
        -11   -1    0    0    0    0 -0.00000000000E+00 -0.00000000000E+00 -0.30000000000E+02  0.30000000000E+02  0.00000000000E+00 0. -1.
         23    2    1    2    0    0  0.00000000000E+00  0.00000000000E+00  0.00000000000E+00  0.60000000000E+02  0.60000000000E+02 0.  0.
          5    1    3    3  501    0 -0.98167772659E+01  0.17846772986E+02 -0.21518215031E+02  0.30000000000E+02  0.47000000000E+01 0. -1.
         -5    1    3    3    0  501  0.98167772659E+01 -0.17846772986E+02  0.21518215031E+02  0.30000000000E+02  0.47000000000E+01 0.  1.
</event>
<event>
 5    1  0.7673937E-002  0.6000000E+02  0.7546771E-02  0.1259629E+00
         11   -1    0    0    0    0  0.00000000000E+00  0.00000000000E+00  0.30000000000E+02  0.30000000000E+02  0.00000000000E+00 0.  1.
        -11   -1    0    0    0    0 -0.00000000000E+00 -0.00000000000E+00 -0.30000000000E+02  0.30000000000E+02  0.00000000000E+00 0. -1.
         23    2    1    2    0    0  0.00000000000E+00  0.00000000000E+00  0.00000000000E+00  0.60000000000E+02  0.60000000000E+02 0.  0.
          5    1    3    3  501    0 -0.24754900449E+02 -0.20292983086E+01 -0.16155087499E+02  0.30000000000E+02  0.47000000000E+01 0. -1.
         -5    1    3    3    0  501  0.24754900449E+02  0.20292983086E+01  0.16155087499E+02  0.30000000000E+02  0.47000000000E+01 0.  1.
</event>
<event>
 5    1  0.7673937E-002  0.6000000E+02  0.7546771E-02  0.1259629E+00
         11   -1    0    0    0    0  0.00000000000E+00  0.00000000000E+00  0.30000000000E+02  0.30000000000E+02  0.00000000000E+00 0.  1.
        -11   -1    0    0    0    0 -0.00000000000E+00 -0.00000000000E+00 -0.30000000000E+02  0.30000000000E+02  0.00000000000E+00 0. -1.
         23    2    1    2    0    0  0.00000000000E+00  0.00000000000E+00  0.00000000000E+00  0.60000000000E+02  0.60000000000E+02 0.  0.
          5    1    3    3  501    0 -0.11655150890E+01 -0.28263228614E+02 -0.88171130698E+01  0.30000000000E+02  0.47000000000E+01 0. -1.
         -5    1    3    3    0  501  0.11655150890E+01  0.28263228614E+02  0.88171130698E+01  0.30000000000E+02  0.47000000000E+01 0.  1.
</event>
<event>
 5    1  0.7673937E-002  0.6000000E+02  0.7546771E-02  0.1259629E+00
         11   -1    0    0    0    0  0.00000000000E+00  0.00000000000E+00  0.30000000000E+02  0.30000000000E+02  0.00000000000E+00 0. -1.
        -11   -1    0    0    0    0 -0.00000000000E+00 -0.00000000000E+00 -0.30000000000E+02  0.30000000000E+02  0.00000000000E+00 0.  1.
         23    2    1    2    0    0  0.00000000000E+00  0.00000000000E+00  0.00000000000E+00  0.60000000000E+02  0.60000000000E+02 0.  0.
          5    1    3    3  501    0  0.21542931288E+02  0.11038389534E+02 -0.17087014602E+02  0.30000000000E+02  0.47000000000E+01 0.  1.
         -5    1    3    3    0  501 -0.21542931288E+02 -0.11038389534E+02  0.17087014602E+02  0.30000000000E+02  0.47000000000E+01 0. -1.
</event>
<event>
 5    1  0.7673937E-002  0.6000000E+02  0.7546771E-02  0.1259629E+00
         11   -1    0    0    0    0  0.00000000000E+00  0.00000000000E+00  0.30000000000E+02  0.30000000000E+02  0.00000000000E+00 0.  1.
        -11   -1    0    0    0    0 -0.00000000000E+00 -0.00000000000E+00 -0.30000000000E+02  0.30000000000E+02  0.00000000000E+00 0. -1.
         23    2    1    2    0    0  0.00000000000E+00  0.00000000000E+00  0.00000000000E+00  0.60000000000E+02  0.60000000000E+02 0.  0.
          5    1    3    3  501    0 -0.18298669850E+01  0.27678709779E+02 -0.10413962348E+02  0.30000000000E+02  0.47000000000E+01 0. -1.
         -5    1    3    3    0  501  0.18298669850E+01 -0.27678709779E+02  0.10413962348E+02  0.30000000000E+02  0.47000000000E+01 0.  1.
</event>
<event>
 5    1  0.7673937E-002  0.6000000E+02  0.7546771E-02  0.1259629E+00
         11   -1    0    0    0    0  0.00000000000E+00  0.00000000000E+00  0.30000000000E+02  0.30000000000E+02  0.00000000000E+00 0.  1.
        -11   -1    0    0    0    0 -0.00000000000E+00 -0.00000000000E+00 -0.30000000000E+02  0.30000000000E+02  0.00000000000E+00 0. -1.
         23    2    1    2    0    0  0.00000000000E+00  0.00000000000E+00  0.00000000000E+00  0.60000000000E+02  0.60000000000E+02 0.  0.
          5    1    3    3  501    0  0.12841787519E+02 -0.25002289289E+02  0.93746479193E+01  0.30000000000E+02  0.47000000000E+01 0.  1.
         -5    1    3    3    0  501 -0.12841787519E+02  0.25002289289E+02 -0.93746479193E+01  0.30000000000E+02  0.47000000000E+01 0. -1.
</event>
<event>
 5    1  0.7673937E-002  0.6000000E+02  0.7546771E-02  0.1259629E+00
         11   -1    0    0    0    0  0.00000000000E+00  0.00000000000E+00  0.30000000000E+02  0.30000000000E+02  0.00000000000E+00 0.  1.
        -11   -1    0    0    0    0 -0.00000000000E+00 -0.00000000000E+00 -0.30000000000E+02  0.30000000000E+02  0.00000000000E+00 0. -1.
         23    2    1    2    0    0  0.00000000000E+00  0.00000000000E+00  0.00000000000E+00  0.60000000000E+02  0.60000000000E+02 0.  0.
          5    1    3    3  501    0 -0.19378784939E+02  0.20961718751E+02 -0.79359335475E+01  0.30000000000E+02  0.47000000000E+01 0. -1.
         -5    1    3    3    0  501  0.19378784939E+02 -0.20961718751E+02  0.79359335475E+01  0.30000000000E+02  0.47000000000E+01 0.  1.
</event>
<event>
 5    1  0.7673937E-002  0.6000000E+02  0.7546771E-02  0.1259629E+00
         11   -1    0    0    0    0  0.00000000000E+00  0.00000000000E+00  0.30000000000E+02  0.30000000000E+02  0.00000000000E+00 0. -1.
        -11   -1    0    0    0    0 -0.00000000000E+00 -0.00000000000E+00 -0.30000000000E+02  0.30000000000E+02  0.00000000000E+00 0.  1.
         23    2    1    2    0    0  0.00000000000E+00  0.00000000000E+00  0.00000000000E+00  0.60000000000E+02  0.60000000000E+02 0.  0.
          5    1    3    3  501    0  0.29819902993E+01 -0.25355509262E+02 -0.15037150126E+02  0.30000000000E+02  0.47000000000E+01 0.  1.
         -5    1    3    3    0  501 -0.29819902993E+01  0.25355509262E+02  0.15037150126E+02  0.30000000000E+02  0.47000000000E+01 0. -1.
</event>
<event>
 5    1  0.7673937E-002  0.6000000E+02  0.7546771E-02  0.1259629E+00
         11   -1    0    0    0    0  0.00000000000E+00  0.00000000000E+00  0.30000000000E+02  0.30000000000E+02  0.00000000000E+00 0.  1.
        -11   -1    0    0    0    0 -0.00000000000E+00 -0.00000000000E+00 -0.30000000000E+02  0.30000000000E+02  0.00000000000E+00 0. -1.
         23    2    1    2    0    0  0.00000000000E+00  0.00000000000E+00  0.00000000000E+00  0.60000000000E+02  0.60000000000E+02 0.  0.
          5    1    3    3  501    0  0.50594796115E+01  0.26190234428E+02 -0.12898964559E+02  0.30000000000E+02  0.47000000000E+01 0. -1.
         -5    1    3    3    0  501 -0.50594796115E+01 -0.26190234428E+02  0.12898964559E+02  0.30000000000E+02  0.47000000000E+01 0.  1.
</event>
<event>
 5    1  0.7673937E-002  0.6000000E+02  0.7546771E-02  0.1259629E+00
         11   -1    0    0    0    0  0.00000000000E+00  0.00000000000E+00  0.30000000000E+02  0.30000000000E+02  0.00000000000E+00 0.  1.
        -11   -1    0    0    0    0 -0.00000000000E+00 -0.00000000000E+00 -0.30000000000E+02  0.30000000000E+02  0.00000000000E+00 0. -1.
         23    2    1    2    0    0  0.00000000000E+00  0.00000000000E+00  0.00000000000E+00  0.60000000000E+02  0.60000000000E+02 0.  0.
          5    1    3    3  501    0  0.13807952737E+02 -0.26020698842E+02 -0.31896195679E+01  0.30000000000E+02  0.47000000000E+01 0. -1.
         -5    1    3    3    0  501 -0.13807952737E+02  0.26020698842E+02  0.31896195679E+01  0.30000000000E+02  0.47000000000E+01 0.  1.
</event>
<event>
 5    1  0.7673937E-002  0.6000000E+02  0.7546771E-02  0.1259629E+00
         11   -1    0    0    0    0  0.00000000000E+00  0.00000000000E+00  0.30000000000E+02  0.30000000000E+02  0.00000000000E+00 0.  1.
        -11   -1    0    0    0    0 -0.00000000000E+00 -0.00000000000E+00 -0.30000000000E+02  0.30000000000E+02  0.00000000000E+00 0. -1.
         23    2    1    2    0    0  0.00000000000E+00  0.00000000000E+00  0.00000000000E+00  0.60000000000E+02  0.60000000000E+02 0.  0.
          5    1    3    3  501    0 -0.41729654776E+01 -0.12848905126E+02 -0.26370475843E+02  0.30000000000E+02  0.47000000000E+01 0. -1.
         -5    1    3    3    0  501  0.41729654776E+01  0.12848905126E+02  0.26370475843E+02  0.30000000000E+02  0.47000000000E+01 0.  1.
</event>
<event>
 5    1  0.7673937E-002  0.6000000E+02  0.7546771E-02  0.1259629E+00
         11   -1    0    0    0    0  0.00000000000E+00  0.00000000000E+00  0.30000000000E+02  0.30000000000E+02  0.00000000000E+00 0. -1.
        -11   -1    0    0    0    0 -0.00000000000E+00 -0.00000000000E+00 -0.30000000000E+02  0.30000000000E+02  0.00000000000E+00 0.  1.
         23    2    1    2    0    0  0.00000000000E+00  0.00000000000E+00  0.00000000000E+00  0.60000000000E+02  0.60000000000E+02 0.  0.
          5    1    3    3  501    0 -0.28047739798E+02 -0.73470521714E+01 -0.61036969649E+01  0.30000000000E+02  0.47000000000E+01 0.  1.
         -5    1    3    3    0  501  0.28047739798E+02  0.73470521714E+01  0.61036969649E+01  0.30000000000E+02  0.47000000000E+01 0. -1.
</event>
<event>
 5    1  0.7673937E-002  0.6000000E+02  0.7546771E-02  0.1259629E+00
         11   -1    0    0    0    0  0.00000000000E+00  0.00000000000E+00  0.30000000000E+02  0.30000000000E+02  0.00000000000E+00 0.  1.
        -11   -1    0    0    0    0 -0.00000000000E+00 -0.00000000000E+00 -0.30000000000E+02  0.30000000000E+02  0.00000000000E+00 0. -1.
         23    2    1    2    0    0  0.00000000000E+00  0.00000000000E+00  0.00000000000E+00  0.60000000000E+02  0.60000000000E+02 0.  0.
          5    1    3    3  501    0 -0.19732662093E+02  0.42469273073E+01 -0.21690911810E+02  0.30000000000E+02  0.47000000000E+01 0. -1.
         -5    1    3    3    0  501  0.19732662093E+02 -0.42469273073E+01  0.21690911810E+02  0.30000000000E+02  0.47000000000E+01 0.  1.
</event>
<event>
 5    1  0.7673937E-002  0.6000000E+02  0.7546771E-02  0.1259629E+00
         11   -1    0    0    0    0  0.00000000000E+00  0.00000000000E+00  0.30000000000E+02  0.30000000000E+02  0.00000000000E+00 0.  1.
        -11   -1    0    0    0    0 -0.00000000000E+00 -0.00000000000E+00 -0.30000000000E+02  0.30000000000E+02  0.00000000000E+00 0. -1.
         23    2    1    2    0    0  0.00000000000E+00  0.00000000000E+00  0.00000000000E+00  0.60000000000E+02  0.60000000000E+02 0.  0.
          5    1    3    3  501    0  0.54931312163E+01 -0.10358098474E+02 -0.27211124663E+02  0.30000000000E+02  0.47000000000E+01 0. -1.
         -5    1    3    3    0  501 -0.54931312163E+01  0.10358098474E+02  0.27211124663E+02  0.30000000000E+02  0.47000000000E+01 0.  1.
</event>
<event>
 5    1  0.7673937E-002  0.6000000E+02  0.7546771E-02  0.1259629E+00
         11   -1    0    0    0    0  0.00000000000E+00  0.00000000000E+00  0.30000000000E+02  0.30000000000E+02  0.00000000000E+00 0. -1.
        -11   -1    0    0    0    0 -0.00000000000E+00 -0.00000000000E+00 -0.30000000000E+02  0.30000000000E+02  0.00000000000E+00 0.  1.
         23    2    1    2    0    0  0.00000000000E+00  0.00000000000E+00  0.00000000000E+00  0.60000000000E+02  0.60000000000E+02 0.  0.
          5    1    3    3  501    0  0.25132370699E+01 -0.18965516815E+02  0.22625269311E+02  0.30000000000E+02  0.47000000000E+01 0. -1.
         -5    1    3    3    0  501 -0.25132370699E+01  0.18965516815E+02 -0.22625269311E+02  0.30000000000E+02  0.47000000000E+01 0.  1.
</event>
<event>
 5    1  0.7673937E-002  0.6000000E+02  0.7546771E-02  0.1259629E+00
         11   -1    0    0    0    0  0.00000000000E+00  0.00000000000E+00  0.30000000000E+02  0.30000000000E+02  0.00000000000E+00 0. -1.
        -11   -1    0    0    0    0 -0.00000000000E+00 -0.00000000000E+00 -0.30000000000E+02  0.30000000000E+02  0.00000000000E+00 0.  1.
         23    2    1    2    0    0  0.00000000000E+00  0.00000000000E+00  0.00000000000E+00  0.60000000000E+02  0.60000000000E+02 0.  0.
          5    1    3    3  501    0 -0.14065632854E+02 -0.25525175686E+02  0.53416644068E+01  0.30000000000E+02  0.47000000000E+01 0.  1.
         -5    1    3    3    0  501  0.14065632854E+02  0.25525175686E+02 -0.53416644068E+01  0.30000000000E+02  0.47000000000E+01 0. -1.
</event>
<event>
 5    1  0.7673937E-002  0.6000000E+02  0.7546771E-02  0.1259629E+00
         11   -1    0    0    0    0  0.00000000000E+00  0.00000000000E+00  0.30000000000E+02  0.30000000000E+02  0.00000000000E+00 0.  1.
        -11   -1    0    0    0    0 -0.00000000000E+00 -0.00000000000E+00 -0.30000000000E+02  0.30000000000E+02  0.00000000000E+00 0. -1.
         23    2    1    2    0    0  0.00000000000E+00  0.00000000000E+00  0.00000000000E+00  0.60000000000E+02  0.60000000000E+02 0.  0.
          5    1    3    3  501    0  0.20467174958E+01 -0.16873154918E+02 -0.24269684600E+02  0.30000000000E+02  0.47000000000E+01 0. -1.
         -5    1    3    3    0  501 -0.20467174958E+01  0.16873154918E+02  0.24269684600E+02  0.30000000000E+02  0.47000000000E+01 0.  1.
</event>
<event>
 5    1  0.7673937E-002  0.6000000E+02  0.7546771E-02  0.1259629E+00
         11   -1    0    0    0    0  0.00000000000E+00  0.00000000000E+00  0.30000000000E+02  0.30000000000E+02  0.00000000000E+00 0.  1.
        -11   -1    0    0    0    0 -0.00000000000E+00 -0.00000000000E+00 -0.30000000000E+02  0.30000000000E+02  0.00000000000E+00 0. -1.
         23    2    1    2    0    0  0.00000000000E+00  0.00000000000E+00  0.00000000000E+00  0.60000000000E+02  0.60000000000E+02 0.  0.
          5    1    3    3  501    0  0.41036530323E+01  0.29343099960E+02 -0.22916480383E+00  0.30000000000E+02  0.47000000000E+01 0.  1.
         -5    1    3    3    0  501 -0.41036530323E+01 -0.29343099960E+02  0.22916480383E+00  0.30000000000E+02  0.47000000000E+01 0. -1.
</event>
<event>
 5    1  0.7673937E-002  0.6000000E+02  0.7546771E-02  0.1259629E+00
         11   -1    0    0    0    0  0.00000000000E+00  0.00000000000E+00  0.30000000000E+02  0.30000000000E+02  0.00000000000E+00 0.  1.
        -11   -1    0    0    0    0 -0.00000000000E+00 -0.00000000000E+00 -0.30000000000E+02  0.30000000000E+02  0.00000000000E+00 0. -1.
         23    2    1    2    0    0  0.00000000000E+00  0.00000000000E+00  0.00000000000E+00  0.60000000000E+02  0.60000000000E+02 0.  0.
          5    1    3    3  501    0  0.25627192086E+02  0.76882998080E+01 -0.12729771084E+02  0.30000000000E+02  0.47000000000E+01 0. -1.
         -5    1    3    3    0  501 -0.25627192086E+02 -0.76882998080E+01  0.12729771084E+02  0.30000000000E+02  0.47000000000E+01 0.  1.
</event>
<event>
 5    1  0.7673937E-002  0.6000000E+02  0.7546771E-02  0.1259629E+00
         11   -1    0    0    0    0  0.00000000000E+00  0.00000000000E+00  0.30000000000E+02  0.30000000000E+02  0.00000000000E+00 0.  1.
        -11   -1    0    0    0    0 -0.00000000000E+00 -0.00000000000E+00 -0.30000000000E+02  0.30000000000E+02  0.00000000000E+00 0. -1.
         23    2    1    2    0    0  0.00000000000E+00  0.00000000000E+00  0.00000000000E+00  0.60000000000E+02  0.60000000000E+02 0.  0.
          5    1    3    3  501    0 -0.14243495278E+02 -0.14765098697E+02 -0.21378136092E+02  0.30000000000E+02  0.47000000000E+01 0. -1.
         -5    1    3    3    0  501  0.14243495278E+02  0.14765098697E+02  0.21378136092E+02  0.30000000000E+02  0.47000000000E+01 0.  1.
</event>
<event>
 5    1  0.7673937E-002  0.6000000E+02  0.7546771E-02  0.1259629E+00
         11   -1    0    0    0    0  0.00000000000E+00  0.00000000000E+00  0.30000000000E+02  0.30000000000E+02  0.00000000000E+00 0.  1.
        -11   -1    0    0    0    0 -0.00000000000E+00 -0.00000000000E+00 -0.30000000000E+02  0.30000000000E+02  0.00000000000E+00 0. -1.
         23    2    1    2    0    0  0.00000000000E+00  0.00000000000E+00  0.00000000000E+00  0.60000000000E+02  0.60000000000E+02 0.  0.
          5    1    3    3  501    0 -0.20174494585E+02  0.21674222699E+02 -0.10619974661E+01  0.30000000000E+02  0.47000000000E+01 0. -1.
         -5    1    3    3    0  501  0.20174494585E+02 -0.21674222699E+02  0.10619974661E+01  0.30000000000E+02  0.47000000000E+01 0.  1.
</event>
<event>
 5    1  0.7673937E-002  0.6000000E+02  0.7546771E-02  0.1259629E+00
         11   -1    0    0    0    0  0.00000000000E+00  0.00000000000E+00  0.30000000000E+02  0.30000000000E+02  0.00000000000E+00 0.  1.
        -11   -1    0    0    0    0 -0.00000000000E+00 -0.00000000000E+00 -0.30000000000E+02  0.30000000000E+02  0.00000000000E+00 0. -1.
         23    2    1    2    0    0  0.00000000000E+00  0.00000000000E+00  0.00000000000E+00  0.60000000000E+02  0.60000000000E+02 0.  0.
          5    1    3    3  501    0  0.57073533818E+01  0.20282547467E+02 -0.20831571847E+02  0.30000000000E+02  0.47000000000E+01 0. -1.
         -5    1    3    3    0  501 -0.57073533818E+01 -0.20282547467E+02  0.20831571847E+02  0.30000000000E+02  0.47000000000E+01 0.  1.
</event>
<event>
 5    1  0.7673937E-002  0.6000000E+02  0.7546771E-02  0.1259629E+00
         11   -1    0    0    0    0  0.00000000000E+00  0.00000000000E+00  0.30000000000E+02  0.30000000000E+02  0.00000000000E+00 0.  1.
        -11   -1    0    0    0    0 -0.00000000000E+00 -0.00000000000E+00 -0.30000000000E+02  0.30000000000E+02  0.00000000000E+00 0. -1.
         23    2    1    2    0    0  0.00000000000E+00  0.00000000000E+00  0.00000000000E+00  0.60000000000E+02  0.60000000000E+02 0.  0.
          5    1    3    3  501    0  0.90879298846E+00  0.12807076987E+02 -0.26703237151E+02  0.30000000000E+02  0.47000000000E+01 0. -1.
         -5    1    3    3    0  501 -0.90879298846E+00 -0.12807076987E+02  0.26703237151E+02  0.30000000000E+02  0.47000000000E+01 0.  1.
</event>
<event>
 5    1  0.7673937E-002  0.6000000E+02  0.7546771E-02  0.1259629E+00
         11   -1    0    0    0    0  0.00000000000E+00  0.00000000000E+00  0.30000000000E+02  0.30000000000E+02  0.00000000000E+00 0. -1.
        -11   -1    0    0    0    0 -0.00000000000E+00 -0.00000000000E+00 -0.30000000000E+02  0.30000000000E+02  0.00000000000E+00 0.  1.
         23    2    1    2    0    0  0.00000000000E+00  0.00000000000E+00  0.00000000000E+00  0.60000000000E+02  0.60000000000E+02 0.  0.
          5    1    3    3  501    0  0.14212755113E+02 -0.17336118908E+02  0.19374379301E+02  0.30000000000E+02  0.47000000000E+01 0. -1.
         -5    1    3    3    0  501 -0.14212755113E+02  0.17336118908E+02 -0.19374379301E+02  0.30000000000E+02  0.47000000000E+01 0.  1.
</event>
<event>
 5    1  0.7673937E-002  0.6000000E+02  0.7546771E-02  0.1259629E+00
         11   -1    0    0    0    0  0.00000000000E+00  0.00000000000E+00  0.30000000000E+02  0.30000000000E+02  0.00000000000E+00 0.  1.
        -11   -1    0    0    0    0 -0.00000000000E+00 -0.00000000000E+00 -0.30000000000E+02  0.30000000000E+02  0.00000000000E+00 0. -1.
         23    2    1    2    0    0  0.00000000000E+00  0.00000000000E+00  0.00000000000E+00  0.60000000000E+02  0.60000000000E+02 0.  0.
          5    1    3    3  501    0  0.28213677019E+02  0.84219963540E+01  0.33118584671E+01  0.30000000000E+02  0.47000000000E+01 0.  1.
         -5    1    3    3    0  501 -0.28213677019E+02 -0.84219963540E+01 -0.33118584671E+01  0.30000000000E+02  0.47000000000E+01 0. -1.
</event>
<event>
 5    1  0.7673937E-002  0.6000000E+02  0.7546771E-02  0.1259629E+00
         11   -1    0    0    0    0  0.00000000000E+00  0.00000000000E+00  0.30000000000E+02  0.30000000000E+02  0.00000000000E+00 0.  1.
        -11   -1    0    0    0    0 -0.00000000000E+00 -0.00000000000E+00 -0.30000000000E+02  0.30000000000E+02  0.00000000000E+00 0. -1.
         23    2    1    2    0    0  0.00000000000E+00  0.00000000000E+00  0.00000000000E+00  0.60000000000E+02  0.60000000000E+02 0.  0.
          5    1    3    3  501    0 -0.13134173908E+02 -0.49365135061E+00 -0.26554844833E+02  0.30000000000E+02  0.47000000000E+01 0. -1.
         -5    1    3    3    0  501  0.13134173908E+02  0.49365135061E+00  0.26554844833E+02  0.30000000000E+02  0.47000000000E+01 0.  1.
</event>
<event>
 5    1  0.7673937E-002  0.6000000E+02  0.7546771E-02  0.1259629E+00
         11   -1    0    0    0    0  0.00000000000E+00  0.00000000000E+00  0.30000000000E+02  0.30000000000E+02  0.00000000000E+00 0.  1.
        -11   -1    0    0    0    0 -0.00000000000E+00 -0.00000000000E+00 -0.30000000000E+02  0.30000000000E+02  0.00000000000E+00 0. -1.
         23    2    1    2    0    0  0.00000000000E+00  0.00000000000E+00  0.00000000000E+00  0.60000000000E+02  0.60000000000E+02 0.  0.
          5    1    3    3  501    0 -0.12460934680E+01 -0.28652942678E+02 -0.74408418161E+01  0.30000000000E+02  0.47000000000E+01 0. -1.
         -5    1    3    3    0  501  0.12460934680E+01  0.28652942678E+02  0.74408418161E+01  0.30000000000E+02  0.47000000000E+01 0.  1.
</event>
<event>
 5    1  0.7673937E-002  0.6000000E+02  0.7546771E-02  0.1259629E+00
         11   -1    0    0    0    0  0.00000000000E+00  0.00000000000E+00  0.30000000000E+02  0.30000000000E+02  0.00000000000E+00 0.  1.
        -11   -1    0    0    0    0 -0.00000000000E+00 -0.00000000000E+00 -0.30000000000E+02  0.30000000000E+02  0.00000000000E+00 0. -1.
         23    2    1    2    0    0  0.00000000000E+00  0.00000000000E+00  0.00000000000E+00  0.60000000000E+02  0.60000000000E+02 0.  0.
          5    1    3    3  501    0  0.15341059495E+02 -0.88694610032E+01 -0.23746464054E+02  0.30000000000E+02  0.47000000000E+01 0. -1.
         -5    1    3    3    0  501 -0.15341059495E+02  0.88694610032E+01  0.23746464054E+02  0.30000000000E+02  0.47000000000E+01 0.  1.
</event>
<event>
 5    1  0.7673937E-002  0.6000000E+02  0.7546771E-02  0.1259629E+00
         11   -1    0    0    0    0  0.00000000000E+00  0.00000000000E+00  0.30000000000E+02  0.30000000000E+02  0.00000000000E+00 0. -1.
        -11   -1    0    0    0    0 -0.00000000000E+00 -0.00000000000E+00 -0.30000000000E+02  0.30000000000E+02  0.00000000000E+00 0.  1.
         23    2    1    2    0    0  0.00000000000E+00  0.00000000000E+00  0.00000000000E+00  0.60000000000E+02  0.60000000000E+02 0.  0.
          5    1    3    3  501    0 -0.12113341460E+01 -0.15451668718E+02  0.25252496974E+02  0.30000000000E+02  0.47000000000E+01 0. -1.
         -5    1    3    3    0  501  0.12113341460E+01  0.15451668718E+02 -0.25252496974E+02  0.30000000000E+02  0.47000000000E+01 0.  1.
</event>
<event>
 5    1  0.7673937E-002  0.6000000E+02  0.7546771E-02  0.1259629E+00
         11   -1    0    0    0    0  0.00000000000E+00  0.00000000000E+00  0.30000000000E+02  0.30000000000E+02  0.00000000000E+00 0. -1.
        -11   -1    0    0    0    0 -0.00000000000E+00 -0.00000000000E+00 -0.30000000000E+02  0.30000000000E+02  0.00000000000E+00 0.  1.
         23    2    1    2    0    0  0.00000000000E+00  0.00000000000E+00  0.00000000000E+00  0.60000000000E+02  0.60000000000E+02 0.  0.
          5    1    3    3  501    0 -0.15436754686E+02 -0.11400910617E+02 -0.22575115545E+02  0.30000000000E+02  0.47000000000E+01 0.  1.
         -5    1    3    3    0  501  0.15436754686E+02  0.11400910617E+02  0.22575115545E+02  0.30000000000E+02  0.47000000000E+01 0. -1.
</event>
<event>
 5    1  0.7673937E-002  0.6000000E+02  0.7546771E-02  0.1259629E+00
         11   -1    0    0    0    0  0.00000000000E+00  0.00000000000E+00  0.30000000000E+02  0.30000000000E+02  0.00000000000E+00 0.  1.
        -11   -1    0    0    0    0 -0.00000000000E+00 -0.00000000000E+00 -0.30000000000E+02  0.30000000000E+02  0.00000000000E+00 0. -1.
         23    2    1    2    0    0  0.00000000000E+00  0.00000000000E+00  0.00000000000E+00  0.60000000000E+02  0.60000000000E+02 0.  0.
          5    1    3    3  501    0  0.19331978701E+02 -0.21831723167E+02  0.52498060021E+01  0.30000000000E+02  0.47000000000E+01 0. -1.
         -5    1    3    3    0  501 -0.19331978701E+02  0.21831723167E+02 -0.52498060021E+01  0.30000000000E+02  0.47000000000E+01 0.  1.
</event>
<event>
 5    1  0.7673937E-002  0.6000000E+02  0.7546771E-02  0.1259629E+00
         11   -1    0    0    0    0  0.00000000000E+00  0.00000000000E+00  0.30000000000E+02  0.30000000000E+02  0.00000000000E+00 0.  1.
        -11   -1    0    0    0    0 -0.00000000000E+00 -0.00000000000E+00 -0.30000000000E+02  0.30000000000E+02  0.00000000000E+00 0. -1.
         23    2    1    2    0    0  0.00000000000E+00  0.00000000000E+00  0.00000000000E+00  0.60000000000E+02  0.60000000000E+02 0.  0.
          5    1    3    3  501    0  0.22964749248E+01 -0.19008950496E+02 -0.22611855385E+02  0.30000000000E+02  0.47000000000E+01 0. -1.
         -5    1    3    3    0  501 -0.22964749248E+01  0.19008950496E+02  0.22611855385E+02  0.30000000000E+02  0.47000000000E+01 0.  1.
</event>
<event>
 5    1  0.7673937E-002  0.6000000E+02  0.7546771E-02  0.1259629E+00
         11   -1    0    0    0    0  0.00000000000E+00  0.00000000000E+00  0.30000000000E+02  0.30000000000E+02  0.00000000000E+00 0.  1.
        -11   -1    0    0    0    0 -0.00000000000E+00 -0.00000000000E+00 -0.30000000000E+02  0.30000000000E+02  0.00000000000E+00 0. -1.
         23    2    1    2    0    0  0.00000000000E+00  0.00000000000E+00  0.00000000000E+00  0.60000000000E+02  0.60000000000E+02 0.  0.
          5    1    3    3  501    0  0.22647593723E+02 -0.17969841165E+01 -0.19020182614E+02  0.30000000000E+02  0.47000000000E+01 0. -1.
         -5    1    3    3    0  501 -0.22647593723E+02  0.17969841165E+01  0.19020182614E+02  0.30000000000E+02  0.47000000000E+01 0.  1.
</event>
<event>
 5    1  0.7673937E-002  0.6000000E+02  0.7546771E-02  0.1259629E+00
         11   -1    0    0    0    0  0.00000000000E+00  0.00000000000E+00  0.30000000000E+02  0.30000000000E+02  0.00000000000E+00 0.  1.
        -11   -1    0    0    0    0 -0.00000000000E+00 -0.00000000000E+00 -0.30000000000E+02  0.30000000000E+02  0.00000000000E+00 0. -1.
         23    2    1    2    0    0  0.00000000000E+00  0.00000000000E+00  0.00000000000E+00  0.60000000000E+02  0.60000000000E+02 0.  0.
          5    1    3    3  501    0  0.51051098319E+01 -0.10722838615E+02 -0.27145323458E+02  0.30000000000E+02  0.47000000000E+01 0. -1.
         -5    1    3    3    0  501 -0.51051098319E+01  0.10722838615E+02  0.27145323458E+02  0.30000000000E+02  0.47000000000E+01 0.  1.
</event>
<event>
 5    1  0.7673937E-002  0.6000000E+02  0.7546771E-02  0.1259629E+00
         11   -1    0    0    0    0  0.00000000000E+00  0.00000000000E+00  0.30000000000E+02  0.30000000000E+02  0.00000000000E+00 0.  1.
        -11   -1    0    0    0    0 -0.00000000000E+00 -0.00000000000E+00 -0.30000000000E+02  0.30000000000E+02  0.00000000000E+00 0. -1.
         23    2    1    2    0    0  0.00000000000E+00  0.00000000000E+00  0.00000000000E+00  0.60000000000E+02  0.60000000000E+02 0.  0.
          5    1    3    3  501    0 -0.27678331038E+02 -0.99685270871E+01 -0.35282373315E+01  0.30000000000E+02  0.47000000000E+01 0. -1.
         -5    1    3    3    0  501  0.27678331038E+02  0.99685270871E+01  0.35282373315E+01  0.30000000000E+02  0.47000000000E+01 0.  1.
</event>
<event>
 5    1  0.7673937E-002  0.6000000E+02  0.7546771E-02  0.1259629E+00
         11   -1    0    0    0    0  0.00000000000E+00  0.00000000000E+00  0.30000000000E+02  0.30000000000E+02  0.00000000000E+00 0.  1.
        -11   -1    0    0    0    0 -0.00000000000E+00 -0.00000000000E+00 -0.30000000000E+02  0.30000000000E+02  0.00000000000E+00 0. -1.
         23    2    1    2    0    0  0.00000000000E+00  0.00000000000E+00  0.00000000000E+00  0.60000000000E+02  0.60000000000E+02 0.  0.
          5    1    3    3  501    0 -0.26004734699E+02  0.50154780034E+01 -0.13285659700E+02  0.30000000000E+02  0.47000000000E+01 0. -1.
         -5    1    3    3    0  501  0.26004734699E+02 -0.50154780034E+01  0.13285659700E+02  0.30000000000E+02  0.47000000000E+01 0.  1.
</event>
<event>
 5    1  0.7673937E-002  0.6000000E+02  0.7546771E-02  0.1259629E+00
         11   -1    0    0    0    0  0.00000000000E+00  0.00000000000E+00  0.30000000000E+02  0.30000000000E+02  0.00000000000E+00 0.  1.
        -11   -1    0    0    0    0 -0.00000000000E+00 -0.00000000000E+00 -0.30000000000E+02  0.30000000000E+02  0.00000000000E+00 0. -1.
         23    2    1    2    0    0  0.00000000000E+00  0.00000000000E+00  0.00000000000E+00  0.60000000000E+02  0.60000000000E+02 0.  0.
          5    1    3    3  501    0 -0.88075232740E+01  0.17483094921E+01 -0.28236163828E+02  0.30000000000E+02  0.47000000000E+01 0. -1.
         -5    1    3    3    0  501  0.88075232740E+01 -0.17483094921E+01  0.28236163828E+02  0.30000000000E+02  0.47000000000E+01 0.  1.
</event>
<event>
 5    1  0.7673937E-002  0.6000000E+02  0.7546771E-02  0.1259629E+00
         11   -1    0    0    0    0  0.00000000000E+00  0.00000000000E+00  0.30000000000E+02  0.30000000000E+02  0.00000000000E+00 0.  1.
        -11   -1    0    0    0    0 -0.00000000000E+00 -0.00000000000E+00 -0.30000000000E+02  0.30000000000E+02  0.00000000000E+00 0. -1.
         23    2    1    2    0    0  0.00000000000E+00  0.00000000000E+00  0.00000000000E+00  0.60000000000E+02  0.60000000000E+02 0.  0.
          5    1    3    3  501    0 -0.20348050210E+02 -0.19311815597E+02 -0.95352310409E+01  0.30000000000E+02  0.47000000000E+01 0. -1.
         -5    1    3    3    0  501  0.20348050210E+02  0.19311815597E+02  0.95352310409E+01  0.30000000000E+02  0.47000000000E+01 0.  1.
</event>
<event>
 5    1  0.7673937E-002  0.6000000E+02  0.7546771E-02  0.1259629E+00
         11   -1    0    0    0    0  0.00000000000E+00  0.00000000000E+00  0.30000000000E+02  0.30000000000E+02  0.00000000000E+00 0.  1.
        -11   -1    0    0    0    0 -0.00000000000E+00 -0.00000000000E+00 -0.30000000000E+02  0.30000000000E+02  0.00000000000E+00 0. -1.
         23    2    1    2    0    0  0.00000000000E+00  0.00000000000E+00  0.00000000000E+00  0.60000000000E+02  0.60000000000E+02 0.  0.
          5    1    3    3  501    0  0.11514932488E+02 -0.48933917511E+01 -0.26858351531E+02  0.30000000000E+02  0.47000000000E+01 0. -1.
         -5    1    3    3    0  501 -0.11514932488E+02  0.48933917511E+01  0.26858351531E+02  0.30000000000E+02  0.47000000000E+01 0.  1.
</event>
<event>
 5    1  0.7673937E-002  0.6000000E+02  0.7546771E-02  0.1259629E+00
         11   -1    0    0    0    0  0.00000000000E+00  0.00000000000E+00  0.30000000000E+02  0.30000000000E+02  0.00000000000E+00 0.  1.
        -11   -1    0    0    0    0 -0.00000000000E+00 -0.00000000000E+00 -0.30000000000E+02  0.30000000000E+02  0.00000000000E+00 0. -1.
         23    2    1    2    0    0  0.00000000000E+00  0.00000000000E+00  0.00000000000E+00  0.60000000000E+02  0.60000000000E+02 0.  0.
          5    1    3    3  501    0  0.21578516650E+02 -0.34125245356E+01 -0.20015801146E+02  0.30000000000E+02  0.47000000000E+01 0. -1.
         -5    1    3    3    0  501 -0.21578516650E+02  0.34125245356E+01  0.20015801146E+02  0.30000000000E+02  0.47000000000E+01 0.  1.
</event>
<event>
 5    1  0.7673937E-002  0.6000000E+02  0.7546771E-02  0.1259629E+00
         11   -1    0    0    0    0  0.00000000000E+00  0.00000000000E+00  0.30000000000E+02  0.30000000000E+02  0.00000000000E+00 0.  1.
        -11   -1    0    0    0    0 -0.00000000000E+00 -0.00000000000E+00 -0.30000000000E+02  0.30000000000E+02  0.00000000000E+00 0. -1.
         23    2    1    2    0    0  0.00000000000E+00  0.00000000000E+00  0.00000000000E+00  0.60000000000E+02  0.60000000000E+02 0.  0.
          5    1    3    3  501    0  0.87005163517E+01  0.22199793986E+01 -0.28236194975E+02  0.30000000000E+02  0.47000000000E+01 0. -1.
         -5    1    3    3    0  501 -0.87005163517E+01 -0.22199793986E+01  0.28236194975E+02  0.30000000000E+02  0.47000000000E+01 0.  1.
</event>
<event>
 5    1  0.7673937E-002  0.6000000E+02  0.7546771E-02  0.1259629E+00
         11   -1    0    0    0    0  0.00000000000E+00  0.00000000000E+00  0.30000000000E+02  0.30000000000E+02  0.00000000000E+00 0.  1.
        -11   -1    0    0    0    0 -0.00000000000E+00 -0.00000000000E+00 -0.30000000000E+02  0.30000000000E+02  0.00000000000E+00 0. -1.
         23    2    1    2    0    0  0.00000000000E+00  0.00000000000E+00  0.00000000000E+00  0.60000000000E+02  0.60000000000E+02 0.  0.
          5    1    3    3  501    0 -0.20705485313E+02 -0.21163722604E+02  0.11356599414E+01  0.30000000000E+02  0.47000000000E+01 0. -1.
         -5    1    3    3    0  501  0.20705485313E+02  0.21163722604E+02 -0.11356599414E+01  0.30000000000E+02  0.47000000000E+01 0.  1.
</event>
<event>
 5    1  0.7673937E-002  0.6000000E+02  0.7546771E-02  0.1259629E+00
         11   -1    0    0    0    0  0.00000000000E+00  0.00000000000E+00  0.30000000000E+02  0.30000000000E+02  0.00000000000E+00 0.  1.
        -11   -1    0    0    0    0 -0.00000000000E+00 -0.00000000000E+00 -0.30000000000E+02  0.30000000000E+02  0.00000000000E+00 0. -1.
         23    2    1    2    0    0  0.00000000000E+00  0.00000000000E+00  0.00000000000E+00  0.60000000000E+02  0.60000000000E+02 0.  0.
          5    1    3    3  501    0  0.12294353548E+01  0.25393856517E+01 -0.29494914972E+02  0.30000000000E+02  0.47000000000E+01 0. -1.
         -5    1    3    3    0  501 -0.12294353548E+01 -0.25393856517E+01  0.29494914972E+02  0.30000000000E+02  0.47000000000E+01 0.  1.
</event>
<event>
 5    1  0.7673937E-002  0.6000000E+02  0.7546771E-02  0.1259629E+00
         11   -1    0    0    0    0  0.00000000000E+00  0.00000000000E+00  0.30000000000E+02  0.30000000000E+02  0.00000000000E+00 0.  1.
        -11   -1    0    0    0    0 -0.00000000000E+00 -0.00000000000E+00 -0.30000000000E+02  0.30000000000E+02  0.00000000000E+00 0. -1.
         23    2    1    2    0    0  0.00000000000E+00  0.00000000000E+00  0.00000000000E+00  0.60000000000E+02  0.60000000000E+02 0.  0.
          5    1    3    3  501    0 -0.59187702728E+01 -0.44944882619E+01 -0.28682359277E+02  0.30000000000E+02  0.47000000000E+01 0. -1.
         -5    1    3    3    0  501  0.59187702728E+01  0.44944882619E+01  0.28682359277E+02  0.30000000000E+02  0.47000000000E+01 0.  1.
</event>
<event>
 5    1  0.7673937E-002  0.6000000E+02  0.7546771E-02  0.1259629E+00
         11   -1    0    0    0    0  0.00000000000E+00  0.00000000000E+00  0.30000000000E+02  0.30000000000E+02  0.00000000000E+00 0.  1.
        -11   -1    0    0    0    0 -0.00000000000E+00 -0.00000000000E+00 -0.30000000000E+02  0.30000000000E+02  0.00000000000E+00 0. -1.
         23    2    1    2    0    0  0.00000000000E+00  0.00000000000E+00  0.00000000000E+00  0.60000000000E+02  0.60000000000E+02 0.  0.
          5    1    3    3  501    0  0.10354073463E+02 -0.16505814436E+01 -0.27712429407E+02  0.30000000000E+02  0.47000000000E+01 0. -1.
         -5    1    3    3    0  501 -0.10354073463E+02  0.16505814436E+01  0.27712429407E+02  0.30000000000E+02  0.47000000000E+01 0.  1.
</event>
<event>
 5    1  0.7673937E-002  0.6000000E+02  0.7546771E-02  0.1259629E+00
         11   -1    0    0    0    0  0.00000000000E+00  0.00000000000E+00  0.30000000000E+02  0.30000000000E+02  0.00000000000E+00 0.  1.
        -11   -1    0    0    0    0 -0.00000000000E+00 -0.00000000000E+00 -0.30000000000E+02  0.30000000000E+02  0.00000000000E+00 0. -1.
         23    2    1    2    0    0  0.00000000000E+00  0.00000000000E+00  0.00000000000E+00  0.60000000000E+02  0.60000000000E+02 0.  0.
          5    1    3    3  501    0  0.12339529636E+02  0.23863074654E+02 -0.12497986894E+02  0.30000000000E+02  0.47000000000E+01 0. -1.
         -5    1    3    3    0  501 -0.12339529636E+02 -0.23863074654E+02  0.12497986894E+02  0.30000000000E+02  0.47000000000E+01 0.  1.
</event>
<event>
 5    1  0.7673937E-002  0.6000000E+02  0.7546771E-02  0.1259629E+00
         11   -1    0    0    0    0  0.00000000000E+00  0.00000000000E+00  0.30000000000E+02  0.30000000000E+02  0.00000000000E+00 0.  1.
        -11   -1    0    0    0    0 -0.00000000000E+00 -0.00000000000E+00 -0.30000000000E+02  0.30000000000E+02  0.00000000000E+00 0. -1.
         23    2    1    2    0    0  0.00000000000E+00  0.00000000000E+00  0.00000000000E+00  0.60000000000E+02  0.60000000000E+02 0.  0.
          5    1    3    3  501    0 -0.87828196012E+01  0.28250589854E+02 -0.16359256594E+01  0.30000000000E+02  0.47000000000E+01 0. -1.
         -5    1    3    3    0  501  0.87828196012E+01 -0.28250589854E+02  0.16359256594E+01  0.30000000000E+02  0.47000000000E+01 0.  1.
</event>
<event>
 5    1  0.7673937E-002  0.6000000E+02  0.7546771E-02  0.1259629E+00
         11   -1    0    0    0    0  0.00000000000E+00  0.00000000000E+00  0.30000000000E+02  0.30000000000E+02  0.00000000000E+00 0.  1.
        -11   -1    0    0    0    0 -0.00000000000E+00 -0.00000000000E+00 -0.30000000000E+02  0.30000000000E+02  0.00000000000E+00 0. -1.
         23    2    1    2    0    0  0.00000000000E+00  0.00000000000E+00  0.00000000000E+00  0.60000000000E+02  0.60000000000E+02 0.  0.
          5    1    3    3  501    0  0.25048437048E+00 -0.17132747510E+01 -0.29578910514E+02  0.30000000000E+02  0.47000000000E+01 0. -1.
         -5    1    3    3    0  501 -0.25048437048E+00  0.17132747510E+01  0.29578910514E+02  0.30000000000E+02  0.47000000000E+01 0.  1.
</event>
<event>
 5    1  0.7673937E-002  0.6000000E+02  0.7546771E-02  0.1259629E+00
         11   -1    0    0    0    0  0.00000000000E+00  0.00000000000E+00  0.30000000000E+02  0.30000000000E+02  0.00000000000E+00 0.  1.
        -11   -1    0    0    0    0 -0.00000000000E+00 -0.00000000000E+00 -0.30000000000E+02  0.30000000000E+02  0.00000000000E+00 0. -1.
         23    2    1    2    0    0  0.00000000000E+00  0.00000000000E+00  0.00000000000E+00  0.60000000000E+02  0.60000000000E+02 0.  0.
          5    1    3    3  501    0 -0.24670667469E+02  0.14180438184E+02 -0.82573203616E+01  0.30000000000E+02  0.47000000000E+01 0. -1.
         -5    1    3    3    0  501  0.24670667469E+02 -0.14180438184E+02  0.82573203616E+01  0.30000000000E+02  0.47000000000E+01 0.  1.
</event>
<event>
 5    1  0.7673937E-002  0.6000000E+02  0.7546771E-02  0.1259629E+00
         11   -1    0    0    0    0  0.00000000000E+00  0.00000000000E+00  0.30000000000E+02  0.30000000000E+02  0.00000000000E+00 0.  1.
        -11   -1    0    0    0    0 -0.00000000000E+00 -0.00000000000E+00 -0.30000000000E+02  0.30000000000E+02  0.00000000000E+00 0. -1.
         23    2    1    2    0    0  0.00000000000E+00  0.00000000000E+00  0.00000000000E+00  0.60000000000E+02  0.60000000000E+02 0.  0.
          5    1    3    3  501    0  0.27909101440E+02 -0.83883067304E+01 -0.53505482888E+01  0.30000000000E+02  0.47000000000E+01 0. -1.
         -5    1    3    3    0  501 -0.27909101440E+02  0.83883067304E+01  0.53505482888E+01  0.30000000000E+02  0.47000000000E+01 0.  1.
</event>
<event>
 5    1  0.7673937E-002  0.6000000E+02  0.7546771E-02  0.1259629E+00
         11   -1    0    0    0    0  0.00000000000E+00  0.00000000000E+00  0.30000000000E+02  0.30000000000E+02  0.00000000000E+00 0.  1.
        -11   -1    0    0    0    0 -0.00000000000E+00 -0.00000000000E+00 -0.30000000000E+02  0.30000000000E+02  0.00000000000E+00 0. -1.
         23    2    1    2    0    0  0.00000000000E+00  0.00000000000E+00  0.00000000000E+00  0.60000000000E+02  0.60000000000E+02 0.  0.
          5    1    3    3  501    0  0.20283132556E+02 -0.14113759561E+02 -0.16349505337E+02  0.30000000000E+02  0.47000000000E+01 0. -1.
         -5    1    3    3    0  501 -0.20283132556E+02  0.14113759561E+02  0.16349505337E+02  0.30000000000E+02  0.47000000000E+01 0.  1.
</event>
<event>
 5    1  0.7673937E-002  0.6000000E+02  0.7546771E-02  0.1259629E+00
         11   -1    0    0    0    0  0.00000000000E+00  0.00000000000E+00  0.30000000000E+02  0.30000000000E+02  0.00000000000E+00 0.  1.
        -11   -1    0    0    0    0 -0.00000000000E+00 -0.00000000000E+00 -0.30000000000E+02  0.30000000000E+02  0.00000000000E+00 0. -1.
         23    2    1    2    0    0  0.00000000000E+00  0.00000000000E+00  0.00000000000E+00  0.60000000000E+02  0.60000000000E+02 0.  0.
          5    1    3    3  501    0 -0.27854492936E+02 -0.97067093449E+01  0.27958928739E+01  0.30000000000E+02  0.47000000000E+01 0. -1.
         -5    1    3    3    0  501  0.27854492936E+02  0.97067093449E+01 -0.27958928739E+01  0.30000000000E+02  0.47000000000E+01 0.  1.
</event>
<event>
 5    1  0.7673937E-002  0.6000000E+02  0.7546771E-02  0.1259629E+00
         11   -1    0    0    0    0  0.00000000000E+00  0.00000000000E+00  0.30000000000E+02  0.30000000000E+02  0.00000000000E+00 0.  1.
        -11   -1    0    0    0    0 -0.00000000000E+00 -0.00000000000E+00 -0.30000000000E+02  0.30000000000E+02  0.00000000000E+00 0. -1.
         23    2    1    2    0    0  0.00000000000E+00  0.00000000000E+00  0.00000000000E+00  0.60000000000E+02  0.60000000000E+02 0.  0.
          5    1    3    3  501    0  0.20583761526E+02  0.15830023270E+01  0.21253537707E+02  0.30000000000E+02  0.47000000000E+01 0.  1.
         -5    1    3    3    0  501 -0.20583761526E+02 -0.15830023270E+01 -0.21253537707E+02  0.30000000000E+02  0.47000000000E+01 0. -1.
</event>
<event>
 5    1  0.7673937E-002  0.6000000E+02  0.7546771E-02  0.1259629E+00
         11   -1    0    0    0    0  0.00000000000E+00  0.00000000000E+00  0.30000000000E+02  0.30000000000E+02  0.00000000000E+00 0.  1.
        -11   -1    0    0    0    0 -0.00000000000E+00 -0.00000000000E+00 -0.30000000000E+02  0.30000000000E+02  0.00000000000E+00 0. -1.
         23    2    1    2    0    0  0.00000000000E+00  0.00000000000E+00  0.00000000000E+00  0.60000000000E+02  0.60000000000E+02 0.  0.
          5    1    3    3  501    0 -0.68090646657E+01 -0.28076828553E+02 -0.65755864225E+01  0.30000000000E+02  0.47000000000E+01 0. -1.
         -5    1    3    3    0  501  0.68090646657E+01  0.28076828553E+02  0.65755864225E+01  0.30000000000E+02  0.47000000000E+01 0.  1.
</event>
<event>
 5    1  0.7673937E-002  0.6000000E+02  0.7546771E-02  0.1259629E+00
         11   -1    0    0    0    0  0.00000000000E+00  0.00000000000E+00  0.30000000000E+02  0.30000000000E+02  0.00000000000E+00 0. -1.
        -11   -1    0    0    0    0 -0.00000000000E+00 -0.00000000000E+00 -0.30000000000E+02  0.30000000000E+02  0.00000000000E+00 0.  1.
         23    2    1    2    0    0  0.00000000000E+00  0.00000000000E+00  0.00000000000E+00  0.60000000000E+02  0.60000000000E+02 0.  0.
          5    1    3    3  501    0  0.15122259281E+01 -0.27340736373E+02 -0.11318449865E+02  0.30000000000E+02  0.47000000000E+01 0.  1.
         -5    1    3    3    0  501 -0.15122259281E+01  0.27340736373E+02  0.11318449865E+02  0.30000000000E+02  0.47000000000E+01 0. -1.
</event>
<event>
 5    1  0.7673937E-002  0.6000000E+02  0.7546771E-02  0.1259629E+00
         11   -1    0    0    0    0  0.00000000000E+00  0.00000000000E+00  0.30000000000E+02  0.30000000000E+02  0.00000000000E+00 0.  1.
        -11   -1    0    0    0    0 -0.00000000000E+00 -0.00000000000E+00 -0.30000000000E+02  0.30000000000E+02  0.00000000000E+00 0. -1.
         23    2    1    2    0    0  0.00000000000E+00  0.00000000000E+00  0.00000000000E+00  0.60000000000E+02  0.60000000000E+02 0.  0.
          5    1    3    3  501    0  0.12611336965E+02  0.96674946778E+01 -0.25008073229E+02  0.30000000000E+02  0.47000000000E+01 0. -1.
         -5    1    3    3    0  501 -0.12611336965E+02 -0.96674946778E+01  0.25008073229E+02  0.30000000000E+02  0.47000000000E+01 0.  1.
</event>
<event>
 5    1  0.7673937E-002  0.6000000E+02  0.7546771E-02  0.1259629E+00
         11   -1    0    0    0    0  0.00000000000E+00  0.00000000000E+00  0.30000000000E+02  0.30000000000E+02  0.00000000000E+00 0.  1.
        -11   -1    0    0    0    0 -0.00000000000E+00 -0.00000000000E+00 -0.30000000000E+02  0.30000000000E+02  0.00000000000E+00 0. -1.
         23    2    1    2    0    0  0.00000000000E+00  0.00000000000E+00  0.00000000000E+00  0.60000000000E+02  0.60000000000E+02 0.  0.
          5    1    3    3  501    0 -0.74984118983E+01 -0.10812773090E+02 -0.26547462348E+02  0.30000000000E+02  0.47000000000E+01 0. -1.
         -5    1    3    3    0  501  0.74984118983E+01  0.10812773090E+02  0.26547462348E+02  0.30000000000E+02  0.47000000000E+01 0.  1.
</event>
<event>
 5    1  0.7673937E-002  0.6000000E+02  0.7546771E-02  0.1259629E+00
         11   -1    0    0    0    0  0.00000000000E+00  0.00000000000E+00  0.30000000000E+02  0.30000000000E+02  0.00000000000E+00 0. -1.
        -11   -1    0    0    0    0 -0.00000000000E+00 -0.00000000000E+00 -0.30000000000E+02  0.30000000000E+02  0.00000000000E+00 0.  1.
         23    2    1    2    0    0  0.00000000000E+00  0.00000000000E+00  0.00000000000E+00  0.60000000000E+02  0.60000000000E+02 0.  0.
          5    1    3    3  501    0 -0.13885551308E+01  0.55895823503E+01 -0.29064385144E+02  0.30000000000E+02  0.47000000000E+01 0.  1.
         -5    1    3    3    0  501  0.13885551308E+01 -0.55895823503E+01  0.29064385144E+02  0.30000000000E+02  0.47000000000E+01 0. -1.
</event>
<event>
 5    1  0.7673937E-002  0.6000000E+02  0.7546771E-02  0.1259629E+00
         11   -1    0    0    0    0  0.00000000000E+00  0.00000000000E+00  0.30000000000E+02  0.30000000000E+02  0.00000000000E+00 0.  1.
        -11   -1    0    0    0    0 -0.00000000000E+00 -0.00000000000E+00 -0.30000000000E+02  0.30000000000E+02  0.00000000000E+00 0. -1.
         23    2    1    2    0    0  0.00000000000E+00  0.00000000000E+00  0.00000000000E+00  0.60000000000E+02  0.60000000000E+02 0.  0.
          5    1    3    3  501    0 -0.21404269413E+02  0.20475264415E+02 -0.72855886434E+00  0.30000000000E+02  0.47000000000E+01 0. -1.
         -5    1    3    3    0  501  0.21404269413E+02 -0.20475264415E+02  0.72855886434E+00  0.30000000000E+02  0.47000000000E+01 0.  1.
</event>
<event>
 5    1  0.7673937E-002  0.6000000E+02  0.7546771E-02  0.1259629E+00
         11   -1    0    0    0    0  0.00000000000E+00  0.00000000000E+00  0.30000000000E+02  0.30000000000E+02  0.00000000000E+00 0. -1.
        -11   -1    0    0    0    0 -0.00000000000E+00 -0.00000000000E+00 -0.30000000000E+02  0.30000000000E+02  0.00000000000E+00 0.  1.
         23    2    1    2    0    0  0.00000000000E+00  0.00000000000E+00  0.00000000000E+00  0.60000000000E+02  0.60000000000E+02 0.  0.
          5    1    3    3  501    0 -0.64655197366E+01 -0.17268843772E+02 -0.23192543830E+02  0.30000000000E+02  0.47000000000E+01 0.  1.
         -5    1    3    3    0  501  0.64655197366E+01  0.17268843772E+02  0.23192543830E+02  0.30000000000E+02  0.47000000000E+01 0. -1.
</event>
<event>
 5    1  0.7673937E-002  0.6000000E+02  0.7546771E-02  0.1259629E+00
         11   -1    0    0    0    0  0.00000000000E+00  0.00000000000E+00  0.30000000000E+02  0.30000000000E+02  0.00000000000E+00 0.  1.
        -11   -1    0    0    0    0 -0.00000000000E+00 -0.00000000000E+00 -0.30000000000E+02  0.30000000000E+02  0.00000000000E+00 0. -1.
         23    2    1    2    0    0  0.00000000000E+00  0.00000000000E+00  0.00000000000E+00  0.60000000000E+02  0.60000000000E+02 0.  0.
          5    1    3    3  501    0 -0.19392520653E+02 -0.18829253046E+02 -0.12136695285E+02  0.30000000000E+02  0.47000000000E+01 0. -1.
         -5    1    3    3    0  501  0.19392520653E+02  0.18829253046E+02  0.12136695285E+02  0.30000000000E+02  0.47000000000E+01 0.  1.
</event>
<event>
 5    1  0.7673937E-002  0.6000000E+02  0.7546771E-02  0.1259629E+00
         11   -1    0    0    0    0  0.00000000000E+00  0.00000000000E+00  0.30000000000E+02  0.30000000000E+02  0.00000000000E+00 0.  1.
        -11   -1    0    0    0    0 -0.00000000000E+00 -0.00000000000E+00 -0.30000000000E+02  0.30000000000E+02  0.00000000000E+00 0. -1.
         23    2    1    2    0    0  0.00000000000E+00  0.00000000000E+00  0.00000000000E+00  0.60000000000E+02  0.60000000000E+02 0.  0.
          5    1    3    3  501    0  0.20701925811E+02  0.56494945432E+01 -0.20430944157E+02  0.30000000000E+02  0.47000000000E+01 0. -1.
         -5    1    3    3    0  501 -0.20701925811E+02 -0.56494945432E+01  0.20430944157E+02  0.30000000000E+02  0.47000000000E+01 0.  1.
</event>
<event>
 5    1  0.7673937E-002  0.6000000E+02  0.7546771E-02  0.1259629E+00
         11   -1    0    0    0    0  0.00000000000E+00  0.00000000000E+00  0.30000000000E+02  0.30000000000E+02  0.00000000000E+00 0.  1.
        -11   -1    0    0    0    0 -0.00000000000E+00 -0.00000000000E+00 -0.30000000000E+02  0.30000000000E+02  0.00000000000E+00 0. -1.
         23    2    1    2    0    0  0.00000000000E+00  0.00000000000E+00  0.00000000000E+00  0.60000000000E+02  0.60000000000E+02 0.  0.
          5    1    3    3  501    0 -0.13445042171E+02 -0.34476757300E+01 -0.26177363753E+02  0.30000000000E+02  0.47000000000E+01 0. -1.
         -5    1    3    3    0  501  0.13445042171E+02  0.34476757300E+01  0.26177363753E+02  0.30000000000E+02  0.47000000000E+01 0.  1.
</event>
<event>
 5    1  0.7673937E-002  0.6000000E+02  0.7546771E-02  0.1259629E+00
         11   -1    0    0    0    0  0.00000000000E+00  0.00000000000E+00  0.30000000000E+02  0.30000000000E+02  0.00000000000E+00 0.  1.
        -11   -1    0    0    0    0 -0.00000000000E+00 -0.00000000000E+00 -0.30000000000E+02  0.30000000000E+02  0.00000000000E+00 0. -1.
         23    2    1    2    0    0  0.00000000000E+00  0.00000000000E+00  0.00000000000E+00  0.60000000000E+02  0.60000000000E+02 0.  0.
          5    1    3    3  501    0  0.13830167359E+02  0.11412542876E+02 -0.23587927758E+02  0.30000000000E+02  0.47000000000E+01 0. -1.
         -5    1    3    3    0  501 -0.13830167359E+02 -0.11412542876E+02  0.23587927758E+02  0.30000000000E+02  0.47000000000E+01 0.  1.
</event>
<event>
 5    1  0.7673937E-002  0.6000000E+02  0.7546771E-02  0.1259629E+00
         11   -1    0    0    0    0  0.00000000000E+00  0.00000000000E+00  0.30000000000E+02  0.30000000000E+02  0.00000000000E+00 0.  1.
        -11   -1    0    0    0    0 -0.00000000000E+00 -0.00000000000E+00 -0.30000000000E+02  0.30000000000E+02  0.00000000000E+00 0. -1.
         23    2    1    2    0    0  0.00000000000E+00  0.00000000000E+00  0.00000000000E+00  0.60000000000E+02  0.60000000000E+02 0.  0.
          5    1    3    3  501    0  0.22754262487E+02 -0.17623057736E+02 -0.70414043119E+01  0.30000000000E+02  0.47000000000E+01 0. -1.
         -5    1    3    3    0  501 -0.22754262487E+02  0.17623057736E+02  0.70414043119E+01  0.30000000000E+02  0.47000000000E+01 0.  1.
</event>
<event>
 5    1  0.7673937E-002  0.6000000E+02  0.7546771E-02  0.1259629E+00
         11   -1    0    0    0    0  0.00000000000E+00  0.00000000000E+00  0.30000000000E+02  0.30000000000E+02  0.00000000000E+00 0.  1.
        -11   -1    0    0    0    0 -0.00000000000E+00 -0.00000000000E+00 -0.30000000000E+02  0.30000000000E+02  0.00000000000E+00 0. -1.
         23    2    1    2    0    0  0.00000000000E+00  0.00000000000E+00  0.00000000000E+00  0.60000000000E+02  0.60000000000E+02 0.  0.
          5    1    3    3  501    0 -0.77226584932E-01 -0.13248940922E+02 -0.26502256517E+02  0.30000000000E+02  0.47000000000E+01 0. -1.
         -5    1    3    3    0  501  0.77226584932E-01  0.13248940922E+02  0.26502256517E+02  0.30000000000E+02  0.47000000000E+01 0.  1.
</event>
<event>
 5    1  0.7673937E-002  0.6000000E+02  0.7546771E-02  0.1259629E+00
         11   -1    0    0    0    0  0.00000000000E+00  0.00000000000E+00  0.30000000000E+02  0.30000000000E+02  0.00000000000E+00 0.  1.
        -11   -1    0    0    0    0 -0.00000000000E+00 -0.00000000000E+00 -0.30000000000E+02  0.30000000000E+02  0.00000000000E+00 0. -1.
         23    2    1    2    0    0  0.00000000000E+00  0.00000000000E+00  0.00000000000E+00  0.60000000000E+02  0.60000000000E+02 0.  0.
          5    1    3    3  501    0 -0.15783231712E+02 -0.30212365947E+01  0.24893206426E+02  0.30000000000E+02  0.47000000000E+01 0.  1.
         -5    1    3    3    0  501  0.15783231712E+02  0.30212365947E+01 -0.24893206426E+02  0.30000000000E+02  0.47000000000E+01 0. -1.
</event>
<event>
 5    1  0.7673937E-002  0.6000000E+02  0.7546771E-02  0.1259629E+00
         11   -1    0    0    0    0  0.00000000000E+00  0.00000000000E+00  0.30000000000E+02  0.30000000000E+02  0.00000000000E+00 0.  1.
        -11   -1    0    0    0    0 -0.00000000000E+00 -0.00000000000E+00 -0.30000000000E+02  0.30000000000E+02  0.00000000000E+00 0. -1.
         23    2    1    2    0    0  0.00000000000E+00  0.00000000000E+00  0.00000000000E+00  0.60000000000E+02  0.60000000000E+02 0.  0.
          5    1    3    3  501    0 -0.66145179788E+01 -0.15473911826E+02 -0.24386803905E+02  0.30000000000E+02  0.47000000000E+01 0. -1.
         -5    1    3    3    0  501  0.66145179788E+01  0.15473911826E+02  0.24386803905E+02  0.30000000000E+02  0.47000000000E+01 0.  1.
</event>
<event>
 5    1  0.7673937E-002  0.6000000E+02  0.7546771E-02  0.1259629E+00
         11   -1    0    0    0    0  0.00000000000E+00  0.00000000000E+00  0.30000000000E+02  0.30000000000E+02  0.00000000000E+00 0.  1.
        -11   -1    0    0    0    0 -0.00000000000E+00 -0.00000000000E+00 -0.30000000000E+02  0.30000000000E+02  0.00000000000E+00 0. -1.
         23    2    1    2    0    0  0.00000000000E+00  0.00000000000E+00  0.00000000000E+00  0.60000000000E+02  0.60000000000E+02 0.  0.
          5    1    3    3  501    0  0.93128490442E+00  0.15535219811E+02 -0.25213084973E+02  0.30000000000E+02  0.47000000000E+01 0. -1.
         -5    1    3    3    0  501 -0.93128490442E+00 -0.15535219811E+02  0.25213084973E+02  0.30000000000E+02  0.47000000000E+01 0.  1.
</event>
<event>
 5    1  0.7673937E-002  0.6000000E+02  0.7546771E-02  0.1259629E+00
         11   -1    0    0    0    0  0.00000000000E+00  0.00000000000E+00  0.30000000000E+02  0.30000000000E+02  0.00000000000E+00 0.  1.
        -11   -1    0    0    0    0 -0.00000000000E+00 -0.00000000000E+00 -0.30000000000E+02  0.30000000000E+02  0.00000000000E+00 0. -1.
         23    2    1    2    0    0  0.00000000000E+00  0.00000000000E+00  0.00000000000E+00  0.60000000000E+02  0.60000000000E+02 0.  0.
          5    1    3    3  501    0  0.69835989188E+01  0.14965611852E+02  0.24600199350E+02  0.30000000000E+02  0.47000000000E+01 0.  1.
         -5    1    3    3    0  501 -0.69835989188E+01 -0.14965611852E+02 -0.24600199350E+02  0.30000000000E+02  0.47000000000E+01 0. -1.
</event>
<event>
 5    1  0.7673937E-002  0.6000000E+02  0.7546771E-02  0.1259629E+00
         11   -1    0    0    0    0  0.00000000000E+00  0.00000000000E+00  0.30000000000E+02  0.30000000000E+02  0.00000000000E+00 0.  1.
        -11   -1    0    0    0    0 -0.00000000000E+00 -0.00000000000E+00 -0.30000000000E+02  0.30000000000E+02  0.00000000000E+00 0. -1.
         23    2    1    2    0    0  0.00000000000E+00  0.00000000000E+00  0.00000000000E+00  0.60000000000E+02  0.60000000000E+02 0.  0.
          5    1    3    3  501    0  0.89179534596E+01  0.21354223415E+02  0.18503438827E+02  0.30000000000E+02  0.47000000000E+01 0.  1.
         -5    1    3    3    0  501 -0.89179534596E+01 -0.21354223415E+02 -0.18503438827E+02  0.30000000000E+02  0.47000000000E+01 0. -1.
</event>
<event>
 5    1  0.7673937E-002  0.6000000E+02  0.7546771E-02  0.1259629E+00
         11   -1    0    0    0    0  0.00000000000E+00  0.00000000000E+00  0.30000000000E+02  0.30000000000E+02  0.00000000000E+00 0. -1.
        -11   -1    0    0    0    0 -0.00000000000E+00 -0.00000000000E+00 -0.30000000000E+02  0.30000000000E+02  0.00000000000E+00 0.  1.
         23    2    1    2    0    0  0.00000000000E+00  0.00000000000E+00  0.00000000000E+00  0.60000000000E+02  0.60000000000E+02 0.  0.
          5    1    3    3  501    0 -0.26006082060E+02  0.67884540856E+01  0.12470388407E+02  0.30000000000E+02  0.47000000000E+01 0. -1.
         -5    1    3    3    0  501  0.26006082060E+02 -0.67884540856E+01 -0.12470388407E+02  0.30000000000E+02  0.47000000000E+01 0.  1.
</event>
<event>
 5    1  0.7673937E-002  0.6000000E+02  0.7546771E-02  0.1259629E+00
         11   -1    0    0    0    0  0.00000000000E+00  0.00000000000E+00  0.30000000000E+02  0.30000000000E+02  0.00000000000E+00 0.  1.
        -11   -1    0    0    0    0 -0.00000000000E+00 -0.00000000000E+00 -0.30000000000E+02  0.30000000000E+02  0.00000000000E+00 0. -1.
         23    2    1    2    0    0  0.00000000000E+00  0.00000000000E+00  0.00000000000E+00  0.60000000000E+02  0.60000000000E+02 0.  0.
          5    1    3    3  501    0 -0.11997361008E+02  0.12902068259E+01  0.27061202767E+02  0.30000000000E+02  0.47000000000E+01 0.  1.
         -5    1    3    3    0  501  0.11997361008E+02 -0.12902068259E+01 -0.27061202767E+02  0.30000000000E+02  0.47000000000E+01 0. -1.
</event>
<event>
 5    1  0.7673937E-002  0.6000000E+02  0.7546771E-02  0.1259629E+00
         11   -1    0    0    0    0  0.00000000000E+00  0.00000000000E+00  0.30000000000E+02  0.30000000000E+02  0.00000000000E+00 0.  1.
        -11   -1    0    0    0    0 -0.00000000000E+00 -0.00000000000E+00 -0.30000000000E+02  0.30000000000E+02  0.00000000000E+00 0. -1.
         23    2    1    2    0    0  0.00000000000E+00  0.00000000000E+00  0.00000000000E+00  0.60000000000E+02  0.60000000000E+02 0.  0.
          5    1    3    3  501    0 -0.24806189531E+01 -0.12835071837E+02 -0.26589799934E+02  0.30000000000E+02  0.47000000000E+01 0. -1.
         -5    1    3    3    0  501  0.24806189531E+01  0.12835071837E+02  0.26589799934E+02  0.30000000000E+02  0.47000000000E+01 0.  1.
</event>
<event>
 5    1  0.7673937E-002  0.6000000E+02  0.7546771E-02  0.1259629E+00
         11   -1    0    0    0    0  0.00000000000E+00  0.00000000000E+00  0.30000000000E+02  0.30000000000E+02  0.00000000000E+00 0.  1.
        -11   -1    0    0    0    0 -0.00000000000E+00 -0.00000000000E+00 -0.30000000000E+02  0.30000000000E+02  0.00000000000E+00 0. -1.
         23    2    1    2    0    0  0.00000000000E+00  0.00000000000E+00  0.00000000000E+00  0.60000000000E+02  0.60000000000E+02 0.  0.
          5    1    3    3  501    0  0.93067697443E+01 -0.17158692876E+02 -0.22290654897E+02  0.30000000000E+02  0.47000000000E+01 0. -1.
         -5    1    3    3    0  501 -0.93067697443E+01  0.17158692876E+02  0.22290654897E+02  0.30000000000E+02  0.47000000000E+01 0.  1.
</event>
<event>
 5    1  0.7673937E-002  0.6000000E+02  0.7546771E-02  0.1259629E+00
         11   -1    0    0    0    0  0.00000000000E+00  0.00000000000E+00  0.30000000000E+02  0.30000000000E+02  0.00000000000E+00 0.  1.
        -11   -1    0    0    0    0 -0.00000000000E+00 -0.00000000000E+00 -0.30000000000E+02  0.30000000000E+02  0.00000000000E+00 0. -1.
         23    2    1    2    0    0  0.00000000000E+00  0.00000000000E+00  0.00000000000E+00  0.60000000000E+02  0.60000000000E+02 0.  0.
          5    1    3    3  501    0 -0.77051964349E-01 -0.28029760183E+02 -0.96039891221E+01  0.30000000000E+02  0.47000000000E+01 0. -1.
         -5    1    3    3    0  501  0.77051964349E-01  0.28029760183E+02  0.96039891221E+01  0.30000000000E+02  0.47000000000E+01 0.  1.
</event>
<event>
 5    1  0.7673937E-002  0.6000000E+02  0.7546771E-02  0.1259629E+00
         11   -1    0    0    0    0  0.00000000000E+00  0.00000000000E+00  0.30000000000E+02  0.30000000000E+02  0.00000000000E+00 0.  1.
        -11   -1    0    0    0    0 -0.00000000000E+00 -0.00000000000E+00 -0.30000000000E+02  0.30000000000E+02  0.00000000000E+00 0. -1.
         23    2    1    2    0    0  0.00000000000E+00  0.00000000000E+00  0.00000000000E+00  0.60000000000E+02  0.60000000000E+02 0.  0.
          5    1    3    3  501    0  0.32126561897E+01  0.29418328913E+02 -0.14665483905E+01  0.30000000000E+02  0.47000000000E+01 0. -1.
         -5    1    3    3    0  501 -0.32126561897E+01 -0.29418328913E+02  0.14665483905E+01  0.30000000000E+02  0.47000000000E+01 0.  1.
</event>
<event>
 5    1  0.7673937E-002  0.6000000E+02  0.7546771E-02  0.1259629E+00
         11   -1    0    0    0    0  0.00000000000E+00  0.00000000000E+00  0.30000000000E+02  0.30000000000E+02  0.00000000000E+00 0. -1.
        -11   -1    0    0    0    0 -0.00000000000E+00 -0.00000000000E+00 -0.30000000000E+02  0.30000000000E+02  0.00000000000E+00 0.  1.
         23    2    1    2    0    0  0.00000000000E+00  0.00000000000E+00  0.00000000000E+00  0.60000000000E+02  0.60000000000E+02 0.  0.
          5    1    3    3  501    0 -0.20951969042E+02 -0.44034668779E+01 -0.20482540680E+02  0.30000000000E+02  0.47000000000E+01 0.  1.
         -5    1    3    3    0  501  0.20951969042E+02  0.44034668779E+01  0.20482540680E+02  0.30000000000E+02  0.47000000000E+01 0. -1.
</event>
<event>
 5    1  0.7673937E-002  0.6000000E+02  0.7546771E-02  0.1259629E+00
         11   -1    0    0    0    0  0.00000000000E+00  0.00000000000E+00  0.30000000000E+02  0.30000000000E+02  0.00000000000E+00 0. -1.
        -11   -1    0    0    0    0 -0.00000000000E+00 -0.00000000000E+00 -0.30000000000E+02  0.30000000000E+02  0.00000000000E+00 0.  1.
         23    2    1    2    0    0  0.00000000000E+00  0.00000000000E+00  0.00000000000E+00  0.60000000000E+02  0.60000000000E+02 0.  0.
          5    1    3    3  501    0 -0.16730667027E+02 -0.20674318530E+02  0.13060142960E+02  0.30000000000E+02  0.47000000000E+01 0.  1.
         -5    1    3    3    0  501  0.16730667027E+02  0.20674318530E+02 -0.13060142960E+02  0.30000000000E+02  0.47000000000E+01 0. -1.
</event>
<event>
 5    1  0.7673937E-002  0.6000000E+02  0.7546771E-02  0.1259629E+00
         11   -1    0    0    0    0  0.00000000000E+00  0.00000000000E+00  0.30000000000E+02  0.30000000000E+02  0.00000000000E+00 0.  1.
        -11   -1    0    0    0    0 -0.00000000000E+00 -0.00000000000E+00 -0.30000000000E+02  0.30000000000E+02  0.00000000000E+00 0. -1.
         23    2    1    2    0    0  0.00000000000E+00  0.00000000000E+00  0.00000000000E+00  0.60000000000E+02  0.60000000000E+02 0.  0.
          5    1    3    3  501    0 -0.77722120550E+01 -0.27732695279E+02 -0.69570347391E+01  0.30000000000E+02  0.47000000000E+01 0. -1.
         -5    1    3    3    0  501  0.77722120550E+01  0.27732695279E+02  0.69570347391E+01  0.30000000000E+02  0.47000000000E+01 0.  1.
</event>
<event>
 5    1  0.7673937E-002  0.6000000E+02  0.7546771E-02  0.1259629E+00
         11   -1    0    0    0    0  0.00000000000E+00  0.00000000000E+00  0.30000000000E+02  0.30000000000E+02  0.00000000000E+00 0.  1.
        -11   -1    0    0    0    0 -0.00000000000E+00 -0.00000000000E+00 -0.30000000000E+02  0.30000000000E+02  0.00000000000E+00 0. -1.
         23    2    1    2    0    0  0.00000000000E+00  0.00000000000E+00  0.00000000000E+00  0.60000000000E+02  0.60000000000E+02 0.  0.
          5    1    3    3  501    0  0.43560429534E+01  0.10624698578E+02 -0.27313928131E+02  0.30000000000E+02  0.47000000000E+01 0. -1.
         -5    1    3    3    0  501 -0.43560429534E+01 -0.10624698578E+02  0.27313928131E+02  0.30000000000E+02  0.47000000000E+01 0.  1.
</event>
<event>
 5    1  0.7673937E-002  0.6000000E+02  0.7546771E-02  0.1259629E+00
         11   -1    0    0    0    0  0.00000000000E+00  0.00000000000E+00  0.30000000000E+02  0.30000000000E+02  0.00000000000E+00 0.  1.
        -11   -1    0    0    0    0 -0.00000000000E+00 -0.00000000000E+00 -0.30000000000E+02  0.30000000000E+02  0.00000000000E+00 0. -1.
         23    2    1    2    0    0  0.00000000000E+00  0.00000000000E+00  0.00000000000E+00  0.60000000000E+02  0.60000000000E+02 0.  0.
          5    1    3    3  501    0  0.10047385339E+01 -0.38019750532E+01 -0.29367422191E+02  0.30000000000E+02  0.47000000000E+01 0. -1.
         -5    1    3    3    0  501 -0.10047385339E+01  0.38019750532E+01  0.29367422191E+02  0.30000000000E+02  0.47000000000E+01 0.  1.
</event>
<event>
 5    1  0.7673937E-002  0.6000000E+02  0.7546771E-02  0.1259629E+00
         11   -1    0    0    0    0  0.00000000000E+00  0.00000000000E+00  0.30000000000E+02  0.30000000000E+02  0.00000000000E+00 0.  1.
        -11   -1    0    0    0    0 -0.00000000000E+00 -0.00000000000E+00 -0.30000000000E+02  0.30000000000E+02  0.00000000000E+00 0. -1.
         23    2    1    2    0    0  0.00000000000E+00  0.00000000000E+00  0.00000000000E+00  0.60000000000E+02  0.60000000000E+02 0.  0.
          5    1    3    3  501    0  0.16083442588E+02  0.24683747396E+02 -0.31536469366E+01  0.30000000000E+02  0.47000000000E+01 0. -1.
         -5    1    3    3    0  501 -0.16083442588E+02 -0.24683747396E+02  0.31536469366E+01  0.30000000000E+02  0.47000000000E+01 0.  1.
</event>
<event>
 5    1  0.7673937E-002  0.6000000E+02  0.7546771E-02  0.1259629E+00
         11   -1    0    0    0    0  0.00000000000E+00  0.00000000000E+00  0.30000000000E+02  0.30000000000E+02  0.00000000000E+00 0.  1.
        -11   -1    0    0    0    0 -0.00000000000E+00 -0.00000000000E+00 -0.30000000000E+02  0.30000000000E+02  0.00000000000E+00 0. -1.
         23    2    1    2    0    0  0.00000000000E+00  0.00000000000E+00  0.00000000000E+00  0.60000000000E+02  0.60000000000E+02 0.  0.
          5    1    3    3  501    0 -0.51985698353E+01  0.26384988443E+02 -0.12438539164E+02  0.30000000000E+02  0.47000000000E+01 0. -1.
         -5    1    3    3    0  501  0.51985698353E+01 -0.26384988443E+02  0.12438539164E+02  0.30000000000E+02  0.47000000000E+01 0.  1.
</event>
<event>
 5    1  0.7673937E-002  0.6000000E+02  0.7546771E-02  0.1259629E+00
         11   -1    0    0    0    0  0.00000000000E+00  0.00000000000E+00  0.30000000000E+02  0.30000000000E+02  0.00000000000E+00 0. -1.
        -11   -1    0    0    0    0 -0.00000000000E+00 -0.00000000000E+00 -0.30000000000E+02  0.30000000000E+02  0.00000000000E+00 0.  1.
         23    2    1    2    0    0  0.00000000000E+00  0.00000000000E+00  0.00000000000E+00  0.60000000000E+02  0.60000000000E+02 0.  0.
          5    1    3    3  501    0 -0.68955534794E+01  0.43715519329E+01 -0.28482466114E+02  0.30000000000E+02  0.47000000000E+01 0.  1.
         -5    1    3    3    0  501  0.68955534794E+01 -0.43715519329E+01  0.28482466114E+02  0.30000000000E+02  0.47000000000E+01 0. -1.
</event>
<event>
 5    1  0.7673937E-002  0.6000000E+02  0.7546771E-02  0.1259629E+00
         11   -1    0    0    0    0  0.00000000000E+00  0.00000000000E+00  0.30000000000E+02  0.30000000000E+02  0.00000000000E+00 0.  1.
        -11   -1    0    0    0    0 -0.00000000000E+00 -0.00000000000E+00 -0.30000000000E+02  0.30000000000E+02  0.00000000000E+00 0. -1.
         23    2    1    2    0    0  0.00000000000E+00  0.00000000000E+00  0.00000000000E+00  0.60000000000E+02  0.60000000000E+02 0.  0.
          5    1    3    3  501    0 -0.15678610329E+02  0.12941530491E+02 -0.21554766682E+02  0.30000000000E+02  0.47000000000E+01 0. -1.
         -5    1    3    3    0  501  0.15678610329E+02 -0.12941530491E+02  0.21554766682E+02  0.30000000000E+02  0.47000000000E+01 0.  1.
</event>
<event>
 5    1  0.7673937E-002  0.6000000E+02  0.7546771E-02  0.1259629E+00
         11   -1    0    0    0    0  0.00000000000E+00  0.00000000000E+00  0.30000000000E+02  0.30000000000E+02  0.00000000000E+00 0.  1.
        -11   -1    0    0    0    0 -0.00000000000E+00 -0.00000000000E+00 -0.30000000000E+02  0.30000000000E+02  0.00000000000E+00 0. -1.
         23    2    1    2    0    0  0.00000000000E+00  0.00000000000E+00  0.00000000000E+00  0.60000000000E+02  0.60000000000E+02 0.  0.
          5    1    3    3  501    0  0.14807082657E+02  0.11634470163E+02  0.22875738397E+02  0.30000000000E+02  0.47000000000E+01 0.  1.
         -5    1    3    3    0  501 -0.14807082657E+02 -0.11634470163E+02 -0.22875738397E+02  0.30000000000E+02  0.47000000000E+01 0. -1.
</event>
<event>
 5    1  0.7673937E-002  0.6000000E+02  0.7546771E-02  0.1259629E+00
         11   -1    0    0    0    0  0.00000000000E+00  0.00000000000E+00  0.30000000000E+02  0.30000000000E+02  0.00000000000E+00 0.  1.
        -11   -1    0    0    0    0 -0.00000000000E+00 -0.00000000000E+00 -0.30000000000E+02  0.30000000000E+02  0.00000000000E+00 0. -1.
         23    2    1    2    0    0  0.00000000000E+00  0.00000000000E+00  0.00000000000E+00  0.60000000000E+02  0.60000000000E+02 0.  0.
          5    1    3    3  501    0 -0.23124996021E+02 -0.22796907159E+01 -0.18383350327E+02  0.30000000000E+02  0.47000000000E+01 0. -1.
         -5    1    3    3    0  501  0.23124996021E+02  0.22796907159E+01  0.18383350327E+02  0.30000000000E+02  0.47000000000E+01 0.  1.
</event>
<event>
 5    1  0.7673937E-002  0.6000000E+02  0.7546771E-02  0.1259629E+00
         11   -1    0    0    0    0  0.00000000000E+00  0.00000000000E+00  0.30000000000E+02  0.30000000000E+02  0.00000000000E+00 0. -1.
        -11   -1    0    0    0    0 -0.00000000000E+00 -0.00000000000E+00 -0.30000000000E+02  0.30000000000E+02  0.00000000000E+00 0.  1.
         23    2    1    2    0    0  0.00000000000E+00  0.00000000000E+00  0.00000000000E+00  0.60000000000E+02  0.60000000000E+02 0.  0.
          5    1    3    3  501    0 -0.79645791905E+01 -0.20011843505E+02 -0.20347029214E+02  0.30000000000E+02  0.47000000000E+01 0.  1.
         -5    1    3    3    0  501  0.79645791905E+01  0.20011843505E+02  0.20347029214E+02  0.30000000000E+02  0.47000000000E+01 0. -1.
</event>
<event>
 5    1  0.7673937E-002  0.6000000E+02  0.7546771E-02  0.1259629E+00
         11   -1    0    0    0    0  0.00000000000E+00  0.00000000000E+00  0.30000000000E+02  0.30000000000E+02  0.00000000000E+00 0. -1.
        -11   -1    0    0    0    0 -0.00000000000E+00 -0.00000000000E+00 -0.30000000000E+02  0.30000000000E+02  0.00000000000E+00 0.  1.
         23    2    1    2    0    0  0.00000000000E+00  0.00000000000E+00  0.00000000000E+00  0.60000000000E+02  0.60000000000E+02 0.  0.
          5    1    3    3  501    0 -0.25613218519E+02  0.14073205759E+02  0.48803603078E+01  0.30000000000E+02  0.47000000000E+01 0. -1.
         -5    1    3    3    0  501  0.25613218519E+02 -0.14073205759E+02 -0.48803603078E+01  0.30000000000E+02  0.47000000000E+01 0.  1.
</event>
<event>
 5    1  0.7673937E-002  0.6000000E+02  0.7546771E-02  0.1259629E+00
         11   -1    0    0    0    0  0.00000000000E+00  0.00000000000E+00  0.30000000000E+02  0.30000000000E+02  0.00000000000E+00 0. -1.
        -11   -1    0    0    0    0 -0.00000000000E+00 -0.00000000000E+00 -0.30000000000E+02  0.30000000000E+02  0.00000000000E+00 0.  1.
         23    2    1    2    0    0  0.00000000000E+00  0.00000000000E+00  0.00000000000E+00  0.60000000000E+02  0.60000000000E+02 0.  0.
          5    1    3    3  501    0 -0.13992614855E+02 -0.19807213547E+01 -0.26042148000E+02  0.30000000000E+02  0.47000000000E+01 0.  1.
         -5    1    3    3    0  501  0.13992614855E+02  0.19807213547E+01  0.26042148000E+02  0.30000000000E+02  0.47000000000E+01 0. -1.
</event>
<event>
 5    1  0.7673937E-002  0.6000000E+02  0.7546771E-02  0.1259629E+00
         11   -1    0    0    0    0  0.00000000000E+00  0.00000000000E+00  0.30000000000E+02  0.30000000000E+02  0.00000000000E+00 0.  1.
        -11   -1    0    0    0    0 -0.00000000000E+00 -0.00000000000E+00 -0.30000000000E+02  0.30000000000E+02  0.00000000000E+00 0. -1.
         23    2    1    2    0    0  0.00000000000E+00  0.00000000000E+00  0.00000000000E+00  0.60000000000E+02  0.60000000000E+02 0.  0.
          5    1    3    3  501    0  0.12076802590E+02  0.26599451635E+02  0.49527782021E+01  0.30000000000E+02  0.47000000000E+01 0. -1.
         -5    1    3    3    0  501 -0.12076802590E+02 -0.26599451635E+02 -0.49527782021E+01  0.30000000000E+02  0.47000000000E+01 0.  1.
</event>
<event>
 5    1  0.7673937E-002  0.6000000E+02  0.7546771E-02  0.1259629E+00
         11   -1    0    0    0    0  0.00000000000E+00  0.00000000000E+00  0.30000000000E+02  0.30000000000E+02  0.00000000000E+00 0. -1.
        -11   -1    0    0    0    0 -0.00000000000E+00 -0.00000000000E+00 -0.30000000000E+02  0.30000000000E+02  0.00000000000E+00 0.  1.
         23    2    1    2    0    0  0.00000000000E+00  0.00000000000E+00  0.00000000000E+00  0.60000000000E+02  0.60000000000E+02 0.  0.
          5    1    3    3  501    0  0.13409752458E+02 -0.14822972336E+02 -0.21871626143E+02  0.30000000000E+02  0.47000000000E+01 0.  1.
         -5    1    3    3    0  501 -0.13409752458E+02  0.14822972336E+02  0.21871626143E+02  0.30000000000E+02  0.47000000000E+01 0. -1.
</event>
<event>
 5    1  0.7673937E-002  0.6000000E+02  0.7546771E-02  0.1259629E+00
         11   -1    0    0    0    0  0.00000000000E+00  0.00000000000E+00  0.30000000000E+02  0.30000000000E+02  0.00000000000E+00 0. -1.
        -11   -1    0    0    0    0 -0.00000000000E+00 -0.00000000000E+00 -0.30000000000E+02  0.30000000000E+02  0.00000000000E+00 0.  1.
         23    2    1    2    0    0  0.00000000000E+00  0.00000000000E+00  0.00000000000E+00  0.60000000000E+02  0.60000000000E+02 0.  0.
          5    1    3    3  501    0 -0.15666181647E+01 -0.28155428131E+02 -0.90954699881E+01  0.30000000000E+02  0.47000000000E+01 0.  1.
         -5    1    3    3    0  501  0.15666181647E+01  0.28155428131E+02  0.90954699881E+01  0.30000000000E+02  0.47000000000E+01 0. -1.
</event>
<event>
 5    1  0.7673937E-002  0.6000000E+02  0.7546771E-02  0.1259629E+00
         11   -1    0    0    0    0  0.00000000000E+00  0.00000000000E+00  0.30000000000E+02  0.30000000000E+02  0.00000000000E+00 0.  1.
        -11   -1    0    0    0    0 -0.00000000000E+00 -0.00000000000E+00 -0.30000000000E+02  0.30000000000E+02  0.00000000000E+00 0. -1.
         23    2    1    2    0    0  0.00000000000E+00  0.00000000000E+00  0.00000000000E+00  0.60000000000E+02  0.60000000000E+02 0.  0.
          5    1    3    3  501    0  0.26456453301E+02  0.13286192235E+02 -0.12013220361E+01  0.30000000000E+02  0.47000000000E+01 0. -1.
         -5    1    3    3    0  501 -0.26456453301E+02 -0.13286192235E+02  0.12013220361E+01  0.30000000000E+02  0.47000000000E+01 0.  1.
</event>
<event>
 5    1  0.7673937E-002  0.6000000E+02  0.7546771E-02  0.1259629E+00
         11   -1    0    0    0    0  0.00000000000E+00  0.00000000000E+00  0.30000000000E+02  0.30000000000E+02  0.00000000000E+00 0.  1.
        -11   -1    0    0    0    0 -0.00000000000E+00 -0.00000000000E+00 -0.30000000000E+02  0.30000000000E+02  0.00000000000E+00 0. -1.
         23    2    1    2    0    0  0.00000000000E+00  0.00000000000E+00  0.00000000000E+00  0.60000000000E+02  0.60000000000E+02 0.  0.
          5    1    3    3  501    0  0.85285148996E+01 -0.22481507444E+02 -0.17313470382E+02  0.30000000000E+02  0.47000000000E+01 0. -1.
         -5    1    3    3    0  501 -0.85285148996E+01  0.22481507444E+02  0.17313470382E+02  0.30000000000E+02  0.47000000000E+01 0.  1.
</event>
<event>
 5    1  0.7673937E-002  0.6000000E+02  0.7546771E-02  0.1259629E+00
         11   -1    0    0    0    0  0.00000000000E+00  0.00000000000E+00  0.30000000000E+02  0.30000000000E+02  0.00000000000E+00 0.  1.
        -11   -1    0    0    0    0 -0.00000000000E+00 -0.00000000000E+00 -0.30000000000E+02  0.30000000000E+02  0.00000000000E+00 0. -1.
         23    2    1    2    0    0  0.00000000000E+00  0.00000000000E+00  0.00000000000E+00  0.60000000000E+02  0.60000000000E+02 0.  0.
          5    1    3    3  501    0 -0.21699922206E+02  0.13976424098E+02 -0.14549328015E+02  0.30000000000E+02  0.47000000000E+01 0. -1.
         -5    1    3    3    0  501  0.21699922206E+02 -0.13976424098E+02  0.14549328015E+02  0.30000000000E+02  0.47000000000E+01 0.  1.
</event>
<event>
 5    1  0.7673937E-002  0.6000000E+02  0.7546771E-02  0.1259629E+00
         11   -1    0    0    0    0  0.00000000000E+00  0.00000000000E+00  0.30000000000E+02  0.30000000000E+02  0.00000000000E+00 0.  1.
        -11   -1    0    0    0    0 -0.00000000000E+00 -0.00000000000E+00 -0.30000000000E+02  0.30000000000E+02  0.00000000000E+00 0. -1.
         23    2    1    2    0    0  0.00000000000E+00  0.00000000000E+00  0.00000000000E+00  0.60000000000E+02  0.60000000000E+02 0.  0.
          5    1    3    3  501    0  0.23995198057E+01 -0.66902572274E+01 -0.28764435731E+02  0.30000000000E+02  0.47000000000E+01 0. -1.
         -5    1    3    3    0  501 -0.23995198057E+01  0.66902572274E+01  0.28764435731E+02  0.30000000000E+02  0.47000000000E+01 0.  1.
</event>
<event>
 5    1  0.7673937E-002  0.6000000E+02  0.7546771E-02  0.1259629E+00
         11   -1    0    0    0    0  0.00000000000E+00  0.00000000000E+00  0.30000000000E+02  0.30000000000E+02  0.00000000000E+00 0. -1.
        -11   -1    0    0    0    0 -0.00000000000E+00 -0.00000000000E+00 -0.30000000000E+02  0.30000000000E+02  0.00000000000E+00 0.  1.
         23    2    1    2    0    0  0.00000000000E+00  0.00000000000E+00  0.00000000000E+00  0.60000000000E+02  0.60000000000E+02 0.  0.
          5    1    3    3  501    0 -0.41449194661E+01 -0.48936025427E+01 -0.28927189576E+02  0.30000000000E+02  0.47000000000E+01 0.  1.
         -5    1    3    3    0  501  0.41449194661E+01  0.48936025427E+01  0.28927189576E+02  0.30000000000E+02  0.47000000000E+01 0. -1.
</event>
<event>
 5    1  0.7673937E-002  0.6000000E+02  0.7546771E-02  0.1259629E+00
         11   -1    0    0    0    0  0.00000000000E+00  0.00000000000E+00  0.30000000000E+02  0.30000000000E+02  0.00000000000E+00 0.  1.
        -11   -1    0    0    0    0 -0.00000000000E+00 -0.00000000000E+00 -0.30000000000E+02  0.30000000000E+02  0.00000000000E+00 0. -1.
         23    2    1    2    0    0  0.00000000000E+00  0.00000000000E+00  0.00000000000E+00  0.60000000000E+02  0.60000000000E+02 0.  0.
          5    1    3    3  501    0  0.24779791764E+02 -0.72470978467E+01 -0.14537932897E+02  0.30000000000E+02  0.47000000000E+01 0. -1.
         -5    1    3    3    0  501 -0.24779791764E+02  0.72470978467E+01  0.14537932897E+02  0.30000000000E+02  0.47000000000E+01 0.  1.
</event>
<event>
 5    1  0.7673937E-002  0.6000000E+02  0.7546771E-02  0.1259629E+00
         11   -1    0    0    0    0  0.00000000000E+00  0.00000000000E+00  0.30000000000E+02  0.30000000000E+02  0.00000000000E+00 0.  1.
        -11   -1    0    0    0    0 -0.00000000000E+00 -0.00000000000E+00 -0.30000000000E+02  0.30000000000E+02  0.00000000000E+00 0. -1.
         23    2    1    2    0    0  0.00000000000E+00  0.00000000000E+00  0.00000000000E+00  0.60000000000E+02  0.60000000000E+02 0.  0.
          5    1    3    3  501    0 -0.17439935468E+02 -0.21306209519E+02  0.10945505326E+02  0.30000000000E+02  0.47000000000E+01 0. -1.
         -5    1    3    3    0  501  0.17439935468E+02  0.21306209519E+02 -0.10945505326E+02  0.30000000000E+02  0.47000000000E+01 0.  1.
</event>
<event>
 5    1  0.7673937E-002  0.6000000E+02  0.7546771E-02  0.1259629E+00
         11   -1    0    0    0    0  0.00000000000E+00  0.00000000000E+00  0.30000000000E+02  0.30000000000E+02  0.00000000000E+00 0.  1.
        -11   -1    0    0    0    0 -0.00000000000E+00 -0.00000000000E+00 -0.30000000000E+02  0.30000000000E+02  0.00000000000E+00 0. -1.
         23    2    1    2    0    0  0.00000000000E+00  0.00000000000E+00  0.00000000000E+00  0.60000000000E+02  0.60000000000E+02 0.  0.
          5    1    3    3  501    0 -0.39281865728E+01  0.14420001711E+02 -0.25584036056E+02  0.30000000000E+02  0.47000000000E+01 0. -1.
         -5    1    3    3    0  501  0.39281865728E+01 -0.14420001711E+02  0.25584036056E+02  0.30000000000E+02  0.47000000000E+01 0.  1.
</event>
<event>
 5    1  0.7673937E-002  0.6000000E+02  0.7546771E-02  0.1259629E+00
         11   -1    0    0    0    0  0.00000000000E+00  0.00000000000E+00  0.30000000000E+02  0.30000000000E+02  0.00000000000E+00 0.  1.
        -11   -1    0    0    0    0 -0.00000000000E+00 -0.00000000000E+00 -0.30000000000E+02  0.30000000000E+02  0.00000000000E+00 0. -1.
         23    2    1    2    0    0  0.00000000000E+00  0.00000000000E+00  0.00000000000E+00  0.60000000000E+02  0.60000000000E+02 0.  0.
          5    1    3    3  501    0  0.24595744589E+02  0.11225253551E+02 -0.12122418523E+02  0.30000000000E+02  0.47000000000E+01 0. -1.
         -5    1    3    3    0  501 -0.24595744589E+02 -0.11225253551E+02  0.12122418523E+02  0.30000000000E+02  0.47000000000E+01 0.  1.
</event>
<event>
 5    1  0.7673937E-002  0.6000000E+02  0.7546771E-02  0.1259629E+00
         11   -1    0    0    0    0  0.00000000000E+00  0.00000000000E+00  0.30000000000E+02  0.30000000000E+02  0.00000000000E+00 0.  1.
        -11   -1    0    0    0    0 -0.00000000000E+00 -0.00000000000E+00 -0.30000000000E+02  0.30000000000E+02  0.00000000000E+00 0. -1.
         23    2    1    2    0    0  0.00000000000E+00  0.00000000000E+00  0.00000000000E+00  0.60000000000E+02  0.60000000000E+02 0.  0.
          5    1    3    3  501    0 -0.20675833166E+02  0.16487716183E+02 -0.13363200888E+02  0.30000000000E+02  0.47000000000E+01 0.  1.
         -5    1    3    3    0  501  0.20675833166E+02 -0.16487716183E+02  0.13363200888E+02  0.30000000000E+02  0.47000000000E+01 0. -1.
</event>
<event>
 5    1  0.7673937E-002  0.6000000E+02  0.7546771E-02  0.1259629E+00
         11   -1    0    0    0    0  0.00000000000E+00  0.00000000000E+00  0.30000000000E+02  0.30000000000E+02  0.00000000000E+00 0.  1.
        -11   -1    0    0    0    0 -0.00000000000E+00 -0.00000000000E+00 -0.30000000000E+02  0.30000000000E+02  0.00000000000E+00 0. -1.
         23    2    1    2    0    0  0.00000000000E+00  0.00000000000E+00  0.00000000000E+00  0.60000000000E+02  0.60000000000E+02 0.  0.
          5    1    3    3  501    0  0.14972899221E+02  0.67821971242E+01 -0.24652060585E+02  0.30000000000E+02  0.47000000000E+01 0. -1.
         -5    1    3    3    0  501 -0.14972899221E+02 -0.67821971242E+01  0.24652060585E+02  0.30000000000E+02  0.47000000000E+01 0.  1.
</event>
<event>
 5    1  0.7673937E-002  0.6000000E+02  0.7546771E-02  0.1259629E+00
         11   -1    0    0    0    0  0.00000000000E+00  0.00000000000E+00  0.30000000000E+02  0.30000000000E+02  0.00000000000E+00 0.  1.
        -11   -1    0    0    0    0 -0.00000000000E+00 -0.00000000000E+00 -0.30000000000E+02  0.30000000000E+02  0.00000000000E+00 0. -1.
         23    2    1    2    0    0  0.00000000000E+00  0.00000000000E+00  0.00000000000E+00  0.60000000000E+02  0.60000000000E+02 0.  0.
          5    1    3    3  501    0 -0.18346520588E+02  0.11598328999E+02 -0.20169133515E+02  0.30000000000E+02  0.47000000000E+01 0. -1.
         -5    1    3    3    0  501  0.18346520588E+02 -0.11598328999E+02  0.20169133515E+02  0.30000000000E+02  0.47000000000E+01 0.  1.
</event>
<event>
 5    1  0.7673937E-002  0.6000000E+02  0.7546771E-02  0.1259629E+00
         11   -1    0    0    0    0  0.00000000000E+00  0.00000000000E+00  0.30000000000E+02  0.30000000000E+02  0.00000000000E+00 0.  1.
        -11   -1    0    0    0    0 -0.00000000000E+00 -0.00000000000E+00 -0.30000000000E+02  0.30000000000E+02  0.00000000000E+00 0. -1.
         23    2    1    2    0    0  0.00000000000E+00  0.00000000000E+00  0.00000000000E+00  0.60000000000E+02  0.60000000000E+02 0.  0.
          5    1    3    3  501    0  0.53449300095E+00 -0.28683972938E+02 -0.74063495535E+01  0.30000000000E+02  0.47000000000E+01 0. -1.
         -5    1    3    3    0  501 -0.53449300095E+00  0.28683972938E+02  0.74063495535E+01  0.30000000000E+02  0.47000000000E+01 0.  1.
</event>
<event>
 5    1  0.7673937E-002  0.6000000E+02  0.7546771E-02  0.1259629E+00
         11   -1    0    0    0    0  0.00000000000E+00  0.00000000000E+00  0.30000000000E+02  0.30000000000E+02  0.00000000000E+00 0.  1.
        -11   -1    0    0    0    0 -0.00000000000E+00 -0.00000000000E+00 -0.30000000000E+02  0.30000000000E+02  0.00000000000E+00 0. -1.
         23    2    1    2    0    0  0.00000000000E+00  0.00000000000E+00  0.00000000000E+00  0.60000000000E+02  0.60000000000E+02 0.  0.
          5    1    3    3  501    0  0.21964457983E+02 -0.14203242135E+02 -0.13919069595E+02  0.30000000000E+02  0.47000000000E+01 0. -1.
         -5    1    3    3    0  501 -0.21964457983E+02  0.14203242135E+02  0.13919069595E+02  0.30000000000E+02  0.47000000000E+01 0.  1.
</event>
<event>
 5    1  0.7673937E-002  0.6000000E+02  0.7546771E-02  0.1259629E+00
         11   -1    0    0    0    0  0.00000000000E+00  0.00000000000E+00  0.30000000000E+02  0.30000000000E+02  0.00000000000E+00 0.  1.
        -11   -1    0    0    0    0 -0.00000000000E+00 -0.00000000000E+00 -0.30000000000E+02  0.30000000000E+02  0.00000000000E+00 0. -1.
         23    2    1    2    0    0  0.00000000000E+00  0.00000000000E+00  0.00000000000E+00  0.60000000000E+02  0.60000000000E+02 0.  0.
          5    1    3    3  501    0  0.16104728499E+02  0.93222547858E+01 -0.23057391129E+02  0.30000000000E+02  0.47000000000E+01 0. -1.
         -5    1    3    3    0  501 -0.16104728499E+02 -0.93222547858E+01  0.23057391129E+02  0.30000000000E+02  0.47000000000E+01 0.  1.
</event>
<event>
 5    1  0.7673937E-002  0.6000000E+02  0.7546771E-02  0.1259629E+00
         11   -1    0    0    0    0  0.00000000000E+00  0.00000000000E+00  0.30000000000E+02  0.30000000000E+02  0.00000000000E+00 0.  1.
        -11   -1    0    0    0    0 -0.00000000000E+00 -0.00000000000E+00 -0.30000000000E+02  0.30000000000E+02  0.00000000000E+00 0. -1.
         23    2    1    2    0    0  0.00000000000E+00  0.00000000000E+00  0.00000000000E+00  0.60000000000E+02  0.60000000000E+02 0.  0.
          5    1    3    3  501    0  0.24521504158E+01 -0.64885285103E+01 -0.28806179131E+02  0.30000000000E+02  0.47000000000E+01 0. -1.
         -5    1    3    3    0  501 -0.24521504158E+01  0.64885285103E+01  0.28806179131E+02  0.30000000000E+02  0.47000000000E+01 0.  1.
</event>
<event>
 5    1  0.7673937E-002  0.6000000E+02  0.7546771E-02  0.1259629E+00
         11   -1    0    0    0    0  0.00000000000E+00  0.00000000000E+00  0.30000000000E+02  0.30000000000E+02  0.00000000000E+00 0. -1.
        -11   -1    0    0    0    0 -0.00000000000E+00 -0.00000000000E+00 -0.30000000000E+02  0.30000000000E+02  0.00000000000E+00 0.  1.
         23    2    1    2    0    0  0.00000000000E+00  0.00000000000E+00  0.00000000000E+00  0.60000000000E+02  0.60000000000E+02 0.  0.
          5    1    3    3  501    0 -0.17116673416E+02  0.22832332007E+02  0.79758451751E+01  0.30000000000E+02  0.47000000000E+01 0.  1.
         -5    1    3    3    0  501  0.17116673416E+02 -0.22832332007E+02 -0.79758451751E+01  0.30000000000E+02  0.47000000000E+01 0. -1.
</event>
<event>
 5    1  0.7673937E-002  0.6000000E+02  0.7546771E-02  0.1259629E+00
         11   -1    0    0    0    0  0.00000000000E+00  0.00000000000E+00  0.30000000000E+02  0.30000000000E+02  0.00000000000E+00 0.  1.
        -11   -1    0    0    0    0 -0.00000000000E+00 -0.00000000000E+00 -0.30000000000E+02  0.30000000000E+02  0.00000000000E+00 0. -1.
         23    2    1    2    0    0  0.00000000000E+00  0.00000000000E+00  0.00000000000E+00  0.60000000000E+02  0.60000000000E+02 0.  0.
          5    1    3    3  501    0 -0.21508463533E+02 -0.67932564901E+01 -0.19213215834E+02  0.30000000000E+02  0.47000000000E+01 0. -1.
         -5    1    3    3    0  501  0.21508463533E+02  0.67932564901E+01  0.19213215834E+02  0.30000000000E+02  0.47000000000E+01 0.  1.
</event>
<event>
 5    1  0.7673937E-002  0.6000000E+02  0.7546771E-02  0.1259629E+00
         11   -1    0    0    0    0  0.00000000000E+00  0.00000000000E+00  0.30000000000E+02  0.30000000000E+02  0.00000000000E+00 0.  1.
        -11   -1    0    0    0    0 -0.00000000000E+00 -0.00000000000E+00 -0.30000000000E+02  0.30000000000E+02  0.00000000000E+00 0. -1.
         23    2    1    2    0    0  0.00000000000E+00  0.00000000000E+00  0.00000000000E+00  0.60000000000E+02  0.60000000000E+02 0.  0.
          5    1    3    3  501    0 -0.17604853064E+02 -0.12945804846E+02 -0.20009629818E+02  0.30000000000E+02  0.47000000000E+01 0. -1.
         -5    1    3    3    0  501  0.17604853064E+02  0.12945804846E+02  0.20009629818E+02  0.30000000000E+02  0.47000000000E+01 0.  1.
</event>
<event>
 5    1  0.7673937E-002  0.6000000E+02  0.7546771E-02  0.1259629E+00
         11   -1    0    0    0    0  0.00000000000E+00  0.00000000000E+00  0.30000000000E+02  0.30000000000E+02  0.00000000000E+00 0. -1.
        -11   -1    0    0    0    0 -0.00000000000E+00 -0.00000000000E+00 -0.30000000000E+02  0.30000000000E+02  0.00000000000E+00 0.  1.
         23    2    1    2    0    0  0.00000000000E+00  0.00000000000E+00  0.00000000000E+00  0.60000000000E+02  0.60000000000E+02 0.  0.
          5    1    3    3  501    0 -0.38970293941E+01  0.17905936929E+02  0.23283053593E+02  0.30000000000E+02  0.47000000000E+01 0. -1.
         -5    1    3    3    0  501  0.38970293941E+01 -0.17905936929E+02 -0.23283053593E+02  0.30000000000E+02  0.47000000000E+01 0.  1.
</event>
<event>
 5    1  0.7673937E-002  0.6000000E+02  0.7546771E-02  0.1259629E+00
         11   -1    0    0    0    0  0.00000000000E+00  0.00000000000E+00  0.30000000000E+02  0.30000000000E+02  0.00000000000E+00 0. -1.
        -11   -1    0    0    0    0 -0.00000000000E+00 -0.00000000000E+00 -0.30000000000E+02  0.30000000000E+02  0.00000000000E+00 0.  1.
         23    2    1    2    0    0  0.00000000000E+00  0.00000000000E+00  0.00000000000E+00  0.60000000000E+02  0.60000000000E+02 0.  0.
          5    1    3    3  501    0 -0.15378201726E+02  0.14276277302E+02 -0.20919101751E+02  0.30000000000E+02  0.47000000000E+01 0.  1.
         -5    1    3    3    0  501  0.15378201726E+02 -0.14276277302E+02  0.20919101751E+02  0.30000000000E+02  0.47000000000E+01 0. -1.
</event>
<event>
 5    1  0.7673937E-002  0.6000000E+02  0.7546771E-02  0.1259629E+00
         11   -1    0    0    0    0  0.00000000000E+00  0.00000000000E+00  0.30000000000E+02  0.30000000000E+02  0.00000000000E+00 0. -1.
        -11   -1    0    0    0    0 -0.00000000000E+00 -0.00000000000E+00 -0.30000000000E+02  0.30000000000E+02  0.00000000000E+00 0.  1.
         23    2    1    2    0    0  0.00000000000E+00  0.00000000000E+00  0.00000000000E+00  0.60000000000E+02  0.60000000000E+02 0.  0.
          5    1    3    3  501    0  0.69536668373E+01 -0.16866358250E+02 -0.23347001454E+02  0.30000000000E+02  0.47000000000E+01 0.  1.
         -5    1    3    3    0  501 -0.69536668373E+01  0.16866358250E+02  0.23347001454E+02  0.30000000000E+02  0.47000000000E+01 0. -1.
</event>
<event>
 5    1  0.7673937E-002  0.6000000E+02  0.7546771E-02  0.1259629E+00
         11   -1    0    0    0    0  0.00000000000E+00  0.00000000000E+00  0.30000000000E+02  0.30000000000E+02  0.00000000000E+00 0.  1.
        -11   -1    0    0    0    0 -0.00000000000E+00 -0.00000000000E+00 -0.30000000000E+02  0.30000000000E+02  0.00000000000E+00 0. -1.
         23    2    1    2    0    0  0.00000000000E+00  0.00000000000E+00  0.00000000000E+00  0.60000000000E+02  0.60000000000E+02 0.  0.
          5    1    3    3  501    0  0.46525500404E+01 -0.29109048285E+02  0.29878229613E+01  0.30000000000E+02  0.47000000000E+01 0.  1.
         -5    1    3    3    0  501 -0.46525500404E+01  0.29109048285E+02 -0.29878229613E+01  0.30000000000E+02  0.47000000000E+01 0. -1.
</event>
<event>
 5    1  0.7673937E-002  0.6000000E+02  0.7546771E-02  0.1259629E+00
         11   -1    0    0    0    0  0.00000000000E+00  0.00000000000E+00  0.30000000000E+02  0.30000000000E+02  0.00000000000E+00 0.  1.
        -11   -1    0    0    0    0 -0.00000000000E+00 -0.00000000000E+00 -0.30000000000E+02  0.30000000000E+02  0.00000000000E+00 0. -1.
         23    2    1    2    0    0  0.00000000000E+00  0.00000000000E+00  0.00000000000E+00  0.60000000000E+02  0.60000000000E+02 0.  0.
          5    1    3    3  501    0 -0.25868579917E+02  0.78004252555E+01 -0.12160589580E+02  0.30000000000E+02  0.47000000000E+01 0. -1.
         -5    1    3    3    0  501  0.25868579917E+02 -0.78004252555E+01  0.12160589580E+02  0.30000000000E+02  0.47000000000E+01 0.  1.
</event>
<event>
 5    1  0.7673937E-002  0.6000000E+02  0.7546771E-02  0.1259629E+00
         11   -1    0    0    0    0  0.00000000000E+00  0.00000000000E+00  0.30000000000E+02  0.30000000000E+02  0.00000000000E+00 0.  1.
        -11   -1    0    0    0    0 -0.00000000000E+00 -0.00000000000E+00 -0.30000000000E+02  0.30000000000E+02  0.00000000000E+00 0. -1.
         23    2    1    2    0    0  0.00000000000E+00  0.00000000000E+00  0.00000000000E+00  0.60000000000E+02  0.60000000000E+02 0.  0.
          5    1    3    3  501    0  0.39623981827E+01  0.19658442143E+01 -0.29297523055E+02  0.30000000000E+02  0.47000000000E+01 0. -1.
         -5    1    3    3    0  501 -0.39623981827E+01 -0.19658442143E+01  0.29297523055E+02  0.30000000000E+02  0.47000000000E+01 0.  1.
</event>
<event>
 5    1  0.7673937E-002  0.6000000E+02  0.7546771E-02  0.1259629E+00
         11   -1    0    0    0    0  0.00000000000E+00  0.00000000000E+00  0.30000000000E+02  0.30000000000E+02  0.00000000000E+00 0.  1.
        -11   -1    0    0    0    0 -0.00000000000E+00 -0.00000000000E+00 -0.30000000000E+02  0.30000000000E+02  0.00000000000E+00 0. -1.
         23    2    1    2    0    0  0.00000000000E+00  0.00000000000E+00  0.00000000000E+00  0.60000000000E+02  0.60000000000E+02 0.  0.
          5    1    3    3  501    0 -0.70104041425E+01 -0.17632094474E+02 -0.22756833660E+02  0.30000000000E+02  0.47000000000E+01 0. -1.
         -5    1    3    3    0  501  0.70104041425E+01  0.17632094474E+02  0.22756833660E+02  0.30000000000E+02  0.47000000000E+01 0.  1.
</event>
<event>
 5    1  0.7673937E-002  0.6000000E+02  0.7546771E-02  0.1259629E+00
         11   -1    0    0    0    0  0.00000000000E+00  0.00000000000E+00  0.30000000000E+02  0.30000000000E+02  0.00000000000E+00 0. -1.
        -11   -1    0    0    0    0 -0.00000000000E+00 -0.00000000000E+00 -0.30000000000E+02  0.30000000000E+02  0.00000000000E+00 0.  1.
         23    2    1    2    0    0  0.00000000000E+00  0.00000000000E+00  0.00000000000E+00  0.60000000000E+02  0.60000000000E+02 0.  0.
          5    1    3    3  501    0  0.16593123694E+02  0.55210710800E+01 -0.23918528805E+02  0.30000000000E+02  0.47000000000E+01 0.  1.
         -5    1    3    3    0  501 -0.16593123694E+02 -0.55210710800E+01  0.23918528805E+02  0.30000000000E+02  0.47000000000E+01 0. -1.
</event>
<event>
 5    1  0.7673937E-002  0.6000000E+02  0.7546771E-02  0.1259629E+00
         11   -1    0    0    0    0  0.00000000000E+00  0.00000000000E+00  0.30000000000E+02  0.30000000000E+02  0.00000000000E+00 0. -1.
        -11   -1    0    0    0    0 -0.00000000000E+00 -0.00000000000E+00 -0.30000000000E+02  0.30000000000E+02  0.00000000000E+00 0.  1.
         23    2    1    2    0    0  0.00000000000E+00  0.00000000000E+00  0.00000000000E+00  0.60000000000E+02  0.60000000000E+02 0.  0.
          5    1    3    3  501    0  0.19847413077E+02 -0.20104689164E+02 -0.89326181909E+01  0.30000000000E+02  0.47000000000E+01 0.  1.
         -5    1    3    3    0  501 -0.19847413077E+02  0.20104689164E+02  0.89326181909E+01  0.30000000000E+02  0.47000000000E+01 0. -1.
</event>
<event>
 5    1  0.7673937E-002  0.6000000E+02  0.7546771E-02  0.1259629E+00
         11   -1    0    0    0    0  0.00000000000E+00  0.00000000000E+00  0.30000000000E+02  0.30000000000E+02  0.00000000000E+00 0.  1.
        -11   -1    0    0    0    0 -0.00000000000E+00 -0.00000000000E+00 -0.30000000000E+02  0.30000000000E+02  0.00000000000E+00 0. -1.
         23    2    1    2    0    0  0.00000000000E+00  0.00000000000E+00  0.00000000000E+00  0.60000000000E+02  0.60000000000E+02 0.  0.
          5    1    3    3  501    0 -0.19180192388E+01  0.78200816115E+01  0.28514514300E+02  0.30000000000E+02  0.47000000000E+01 0.  1.
         -5    1    3    3    0  501  0.19180192388E+01 -0.78200816115E+01 -0.28514514300E+02  0.30000000000E+02  0.47000000000E+01 0. -1.
</event>
<event>
 5    1  0.7673937E-002  0.6000000E+02  0.7546771E-02  0.1259629E+00
         11   -1    0    0    0    0  0.00000000000E+00  0.00000000000E+00  0.30000000000E+02  0.30000000000E+02  0.00000000000E+00 0.  1.
        -11   -1    0    0    0    0 -0.00000000000E+00 -0.00000000000E+00 -0.30000000000E+02  0.30000000000E+02  0.00000000000E+00 0. -1.
         23    2    1    2    0    0  0.00000000000E+00  0.00000000000E+00  0.00000000000E+00  0.60000000000E+02  0.60000000000E+02 0.  0.
          5    1    3    3  501    0  0.84070390900E+01  0.13507710051E+02 -0.24995468848E+02  0.30000000000E+02  0.47000000000E+01 0. -1.
         -5    1    3    3    0  501 -0.84070390900E+01 -0.13507710051E+02  0.24995468848E+02  0.30000000000E+02  0.47000000000E+01 0.  1.
</event>
<event>
 5    1  0.7673937E-002  0.6000000E+02  0.7546771E-02  0.1259629E+00
         11   -1    0    0    0    0  0.00000000000E+00  0.00000000000E+00  0.30000000000E+02  0.30000000000E+02  0.00000000000E+00 0. -1.
        -11   -1    0    0    0    0 -0.00000000000E+00 -0.00000000000E+00 -0.30000000000E+02  0.30000000000E+02  0.00000000000E+00 0.  1.
         23    2    1    2    0    0  0.00000000000E+00  0.00000000000E+00  0.00000000000E+00  0.60000000000E+02  0.60000000000E+02 0.  0.
          5    1    3    3  501    0  0.21035296370E+01 -0.19847247234E+02  0.21899131040E+02  0.30000000000E+02  0.47000000000E+01 0. -1.
         -5    1    3    3    0  501 -0.21035296370E+01  0.19847247234E+02 -0.21899131040E+02  0.30000000000E+02  0.47000000000E+01 0.  1.
</event>
<event>
 5    1  0.7673937E-002  0.6000000E+02  0.7546771E-02  0.1259629E+00
         11   -1    0    0    0    0  0.00000000000E+00  0.00000000000E+00  0.30000000000E+02  0.30000000000E+02  0.00000000000E+00 0.  1.
        -11   -1    0    0    0    0 -0.00000000000E+00 -0.00000000000E+00 -0.30000000000E+02  0.30000000000E+02  0.00000000000E+00 0. -1.
         23    2    1    2    0    0  0.00000000000E+00  0.00000000000E+00  0.00000000000E+00  0.60000000000E+02  0.60000000000E+02 0.  0.
          5    1    3    3  501    0 -0.25755551178E+02 -0.84099098552E+01 -0.11993123018E+02  0.30000000000E+02  0.47000000000E+01 0. -1.
         -5    1    3    3    0  501  0.25755551178E+02  0.84099098552E+01  0.11993123018E+02  0.30000000000E+02  0.47000000000E+01 0.  1.
</event>
<event>
 5    1  0.7673937E-002  0.6000000E+02  0.7546771E-02  0.1259629E+00
         11   -1    0    0    0    0  0.00000000000E+00  0.00000000000E+00  0.30000000000E+02  0.30000000000E+02  0.00000000000E+00 0. -1.
        -11   -1    0    0    0    0 -0.00000000000E+00 -0.00000000000E+00 -0.30000000000E+02  0.30000000000E+02  0.00000000000E+00 0.  1.
         23    2    1    2    0    0  0.00000000000E+00  0.00000000000E+00  0.00000000000E+00  0.60000000000E+02  0.60000000000E+02 0.  0.
          5    1    3    3  501    0  0.26440377828E+02  0.13095624821E+02  0.27057403566E+01  0.30000000000E+02  0.47000000000E+01 0.  1.
         -5    1    3    3    0  501 -0.26440377828E+02 -0.13095624821E+02 -0.27057403566E+01  0.30000000000E+02  0.47000000000E+01 0. -1.
</event>
<event>
 5    1  0.7673937E-002  0.6000000E+02  0.7546771E-02  0.1259629E+00
         11   -1    0    0    0    0  0.00000000000E+00  0.00000000000E+00  0.30000000000E+02  0.30000000000E+02  0.00000000000E+00 0.  1.
        -11   -1    0    0    0    0 -0.00000000000E+00 -0.00000000000E+00 -0.30000000000E+02  0.30000000000E+02  0.00000000000E+00 0. -1.
         23    2    1    2    0    0  0.00000000000E+00  0.00000000000E+00  0.00000000000E+00  0.60000000000E+02  0.60000000000E+02 0.  0.
          5    1    3    3  501    0 -0.12394706403E+02 -0.51453017660E+01 -0.26416039123E+02  0.30000000000E+02  0.47000000000E+01 0. -1.
         -5    1    3    3    0  501  0.12394706403E+02  0.51453017660E+01  0.26416039123E+02  0.30000000000E+02  0.47000000000E+01 0.  1.
</event>
<event>
 5    1  0.7673937E-002  0.6000000E+02  0.7546771E-02  0.1259629E+00
         11   -1    0    0    0    0  0.00000000000E+00  0.00000000000E+00  0.30000000000E+02  0.30000000000E+02  0.00000000000E+00 0.  1.
        -11   -1    0    0    0    0 -0.00000000000E+00 -0.00000000000E+00 -0.30000000000E+02  0.30000000000E+02  0.00000000000E+00 0. -1.
         23    2    1    2    0    0  0.00000000000E+00  0.00000000000E+00  0.00000000000E+00  0.60000000000E+02  0.60000000000E+02 0.  0.
          5    1    3    3  501    0 -0.41211946136E+01  0.84150901926E+01 -0.28108931179E+02  0.30000000000E+02  0.47000000000E+01 0. -1.
         -5    1    3    3    0  501  0.41211946136E+01 -0.84150901926E+01  0.28108931179E+02  0.30000000000E+02  0.47000000000E+01 0.  1.
</event>
<event>
 5    1  0.7673937E-002  0.6000000E+02  0.7546771E-02  0.1259629E+00
         11   -1    0    0    0    0  0.00000000000E+00  0.00000000000E+00  0.30000000000E+02  0.30000000000E+02  0.00000000000E+00 0.  1.
        -11   -1    0    0    0    0 -0.00000000000E+00 -0.00000000000E+00 -0.30000000000E+02  0.30000000000E+02  0.00000000000E+00 0. -1.
         23    2    1    2    0    0  0.00000000000E+00  0.00000000000E+00  0.00000000000E+00  0.60000000000E+02  0.60000000000E+02 0.  0.
          5    1    3    3  501    0  0.13990104012E+02 -0.25960140858E+02 -0.28736868947E+01  0.30000000000E+02  0.47000000000E+01 0. -1.
         -5    1    3    3    0  501 -0.13990104012E+02  0.25960140858E+02  0.28736868947E+01  0.30000000000E+02  0.47000000000E+01 0.  1.
</event>
<event>
 5    1  0.7673937E-002  0.6000000E+02  0.7546771E-02  0.1259629E+00
         11   -1    0    0    0    0  0.00000000000E+00  0.00000000000E+00  0.30000000000E+02  0.30000000000E+02  0.00000000000E+00 0.  1.
        -11   -1    0    0    0    0 -0.00000000000E+00 -0.00000000000E+00 -0.30000000000E+02  0.30000000000E+02  0.00000000000E+00 0. -1.
         23    2    1    2    0    0  0.00000000000E+00  0.00000000000E+00  0.00000000000E+00  0.60000000000E+02  0.60000000000E+02 0.  0.
          5    1    3    3  501    0 -0.21044331385E+01 -0.69533292594E+01 -0.28725120946E+02  0.30000000000E+02  0.47000000000E+01 0. -1.
         -5    1    3    3    0  501  0.21044331385E+01  0.69533292594E+01  0.28725120946E+02  0.30000000000E+02  0.47000000000E+01 0.  1.
</event>
<event>
 5    1  0.7673937E-002  0.6000000E+02  0.7546771E-02  0.1259629E+00
         11   -1    0    0    0    0  0.00000000000E+00  0.00000000000E+00  0.30000000000E+02  0.30000000000E+02  0.00000000000E+00 0.  1.
        -11   -1    0    0    0    0 -0.00000000000E+00 -0.00000000000E+00 -0.30000000000E+02  0.30000000000E+02  0.00000000000E+00 0. -1.
         23    2    1    2    0    0  0.00000000000E+00  0.00000000000E+00  0.00000000000E+00  0.60000000000E+02  0.60000000000E+02 0.  0.
          5    1    3    3  501    0 -0.13650234771E-01  0.12439319208E+02 -0.26891878910E+02  0.30000000000E+02  0.47000000000E+01 0. -1.
         -5    1    3    3    0  501  0.13650234771E-01 -0.12439319208E+02  0.26891878910E+02  0.30000000000E+02  0.47000000000E+01 0.  1.
</event>
<event>
 5    1  0.7673937E-002  0.6000000E+02  0.7546771E-02  0.1259629E+00
         11   -1    0    0    0    0  0.00000000000E+00  0.00000000000E+00  0.30000000000E+02  0.30000000000E+02  0.00000000000E+00 0.  1.
        -11   -1    0    0    0    0 -0.00000000000E+00 -0.00000000000E+00 -0.30000000000E+02  0.30000000000E+02  0.00000000000E+00 0. -1.
         23    2    1    2    0    0  0.00000000000E+00  0.00000000000E+00  0.00000000000E+00  0.60000000000E+02  0.60000000000E+02 0.  0.
          5    1    3    3  501    0 -0.20480378197E+02 -0.30073288812E+01 -0.21199530229E+02  0.30000000000E+02  0.47000000000E+01 0. -1.
         -5    1    3    3    0  501  0.20480378197E+02  0.30073288812E+01  0.21199530229E+02  0.30000000000E+02  0.47000000000E+01 0.  1.
</event>
<event>
 5    1  0.7673937E-002  0.6000000E+02  0.7546771E-02  0.1259629E+00
         11   -1    0    0    0    0  0.00000000000E+00  0.00000000000E+00  0.30000000000E+02  0.30000000000E+02  0.00000000000E+00 0.  1.
        -11   -1    0    0    0    0 -0.00000000000E+00 -0.00000000000E+00 -0.30000000000E+02  0.30000000000E+02  0.00000000000E+00 0. -1.
         23    2    1    2    0    0  0.00000000000E+00  0.00000000000E+00  0.00000000000E+00  0.60000000000E+02  0.60000000000E+02 0.  0.
          5    1    3    3  501    0  0.13895018756E+02 -0.40383539151E+01 -0.25855950020E+02  0.30000000000E+02  0.47000000000E+01 0. -1.
         -5    1    3    3    0  501 -0.13895018756E+02  0.40383539151E+01  0.25855950020E+02  0.30000000000E+02  0.47000000000E+01 0.  1.
</event>
<event>
 5    1  0.7673937E-002  0.6000000E+02  0.7546771E-02  0.1259629E+00
         11   -1    0    0    0    0  0.00000000000E+00  0.00000000000E+00  0.30000000000E+02  0.30000000000E+02  0.00000000000E+00 0.  1.
        -11   -1    0    0    0    0 -0.00000000000E+00 -0.00000000000E+00 -0.30000000000E+02  0.30000000000E+02  0.00000000000E+00 0. -1.
         23    2    1    2    0    0  0.00000000000E+00  0.00000000000E+00  0.00000000000E+00  0.60000000000E+02  0.60000000000E+02 0.  0.
          5    1    3    3  501    0 -0.88339068345E+01 -0.10578099221E+02 -0.26229294823E+02  0.30000000000E+02  0.47000000000E+01 0. -1.
         -5    1    3    3    0  501  0.88339068345E+01  0.10578099221E+02  0.26229294823E+02  0.30000000000E+02  0.47000000000E+01 0.  1.
</event>
<event>
 5    1  0.7673937E-002  0.6000000E+02  0.7546771E-02  0.1259629E+00
         11   -1    0    0    0    0  0.00000000000E+00  0.00000000000E+00  0.30000000000E+02  0.30000000000E+02  0.00000000000E+00 0. -1.
        -11   -1    0    0    0    0 -0.00000000000E+00 -0.00000000000E+00 -0.30000000000E+02  0.30000000000E+02  0.00000000000E+00 0.  1.
         23    2    1    2    0    0  0.00000000000E+00  0.00000000000E+00  0.00000000000E+00  0.60000000000E+02  0.60000000000E+02 0.  0.
          5    1    3    3  501    0 -0.25561047074E+02 -0.10441546560E+02 -0.10747882484E+02  0.30000000000E+02  0.47000000000E+01 0.  1.
         -5    1    3    3    0  501  0.25561047074E+02  0.10441546560E+02  0.10747882484E+02  0.30000000000E+02  0.47000000000E+01 0. -1.
</event>
<event>
 5    1  0.7673937E-002  0.6000000E+02  0.7546771E-02  0.1259629E+00
         11   -1    0    0    0    0  0.00000000000E+00  0.00000000000E+00  0.30000000000E+02  0.30000000000E+02  0.00000000000E+00 0.  1.
        -11   -1    0    0    0    0 -0.00000000000E+00 -0.00000000000E+00 -0.30000000000E+02  0.30000000000E+02  0.00000000000E+00 0. -1.
         23    2    1    2    0    0  0.00000000000E+00  0.00000000000E+00  0.00000000000E+00  0.60000000000E+02  0.60000000000E+02 0.  0.
          5    1    3    3  501    0 -0.14455573139E+02 -0.15178998555E+02 -0.20941451910E+02  0.30000000000E+02  0.47000000000E+01 0. -1.
         -5    1    3    3    0  501  0.14455573139E+02  0.15178998555E+02  0.20941451910E+02  0.30000000000E+02  0.47000000000E+01 0.  1.
</event>
<event>
 5    1  0.7673937E-002  0.6000000E+02  0.7546771E-02  0.1259629E+00
         11   -1    0    0    0    0  0.00000000000E+00  0.00000000000E+00  0.30000000000E+02  0.30000000000E+02  0.00000000000E+00 0.  1.
        -11   -1    0    0    0    0 -0.00000000000E+00 -0.00000000000E+00 -0.30000000000E+02  0.30000000000E+02  0.00000000000E+00 0. -1.
         23    2    1    2    0    0  0.00000000000E+00  0.00000000000E+00  0.00000000000E+00  0.60000000000E+02  0.60000000000E+02 0.  0.
          5    1    3    3  501    0  0.18993156015E+02 -0.16671548686E+02 -0.15467045257E+02  0.30000000000E+02  0.47000000000E+01 0. -1.
         -5    1    3    3    0  501 -0.18993156015E+02  0.16671548686E+02  0.15467045257E+02  0.30000000000E+02  0.47000000000E+01 0.  1.
</event>
<event>
 5    1  0.7673937E-002  0.6000000E+02  0.7546771E-02  0.1259629E+00
         11   -1    0    0    0    0  0.00000000000E+00  0.00000000000E+00  0.30000000000E+02  0.30000000000E+02  0.00000000000E+00 0.  1.
        -11   -1    0    0    0    0 -0.00000000000E+00 -0.00000000000E+00 -0.30000000000E+02  0.30000000000E+02  0.00000000000E+00 0. -1.
         23    2    1    2    0    0  0.00000000000E+00  0.00000000000E+00  0.00000000000E+00  0.60000000000E+02  0.60000000000E+02 0.  0.
          5    1    3    3  501    0 -0.15024982178E+02  0.96091982879E+01  0.23660583653E+02  0.30000000000E+02  0.47000000000E+01 0.  1.
         -5    1    3    3    0  501  0.15024982178E+02 -0.96091982879E+01 -0.23660583653E+02  0.30000000000E+02  0.47000000000E+01 0. -1.
</event>
<event>
 5    1  0.7673937E-002  0.6000000E+02  0.7546771E-02  0.1259629E+00
         11   -1    0    0    0    0  0.00000000000E+00  0.00000000000E+00  0.30000000000E+02  0.30000000000E+02  0.00000000000E+00 0.  1.
        -11   -1    0    0    0    0 -0.00000000000E+00 -0.00000000000E+00 -0.30000000000E+02  0.30000000000E+02  0.00000000000E+00 0. -1.
         23    2    1    2    0    0  0.00000000000E+00  0.00000000000E+00  0.00000000000E+00  0.60000000000E+02  0.60000000000E+02 0.  0.
          5    1    3    3  501    0  0.26795707009E+02 -0.12474700392E+02  0.20692839307E+01  0.30000000000E+02  0.47000000000E+01 0. -1.
         -5    1    3    3    0  501 -0.26795707009E+02  0.12474700392E+02 -0.20692839307E+01  0.30000000000E+02  0.47000000000E+01 0.  1.
</event>
<event>
 5    1  0.7673937E-002  0.6000000E+02  0.7546771E-02  0.1259629E+00
         11   -1    0    0    0    0  0.00000000000E+00  0.00000000000E+00  0.30000000000E+02  0.30000000000E+02  0.00000000000E+00 0.  1.
        -11   -1    0    0    0    0 -0.00000000000E+00 -0.00000000000E+00 -0.30000000000E+02  0.30000000000E+02  0.00000000000E+00 0. -1.
         23    2    1    2    0    0  0.00000000000E+00  0.00000000000E+00  0.00000000000E+00  0.60000000000E+02  0.60000000000E+02 0.  0.
          5    1    3    3  501    0  0.18614905403E+02  0.12890358956E+02 -0.19111094758E+02  0.30000000000E+02  0.47000000000E+01 0. -1.
         -5    1    3    3    0  501 -0.18614905403E+02 -0.12890358956E+02  0.19111094758E+02  0.30000000000E+02  0.47000000000E+01 0.  1.
</event>
<event>
 5    1  0.7673937E-002  0.6000000E+02  0.7546771E-02  0.1259629E+00
         11   -1    0    0    0    0  0.00000000000E+00  0.00000000000E+00  0.30000000000E+02  0.30000000000E+02  0.00000000000E+00 0.  1.
        -11   -1    0    0    0    0 -0.00000000000E+00 -0.00000000000E+00 -0.30000000000E+02  0.30000000000E+02  0.00000000000E+00 0. -1.
         23    2    1    2    0    0  0.00000000000E+00  0.00000000000E+00  0.00000000000E+00  0.60000000000E+02  0.60000000000E+02 0.  0.
          5    1    3    3  501    0 -0.18878231364E+02 -0.19921439564E+02 -0.11165062752E+02  0.30000000000E+02  0.47000000000E+01 0. -1.
         -5    1    3    3    0  501  0.18878231364E+02  0.19921439564E+02  0.11165062752E+02  0.30000000000E+02  0.47000000000E+01 0.  1.
</event>
<event>
 5    1  0.7673937E-002  0.6000000E+02  0.7546771E-02  0.1259629E+00
         11   -1    0    0    0    0  0.00000000000E+00  0.00000000000E+00  0.30000000000E+02  0.30000000000E+02  0.00000000000E+00 0.  1.
        -11   -1    0    0    0    0 -0.00000000000E+00 -0.00000000000E+00 -0.30000000000E+02  0.30000000000E+02  0.00000000000E+00 0. -1.
         23    2    1    2    0    0  0.00000000000E+00  0.00000000000E+00  0.00000000000E+00  0.60000000000E+02  0.60000000000E+02 0.  0.
          5    1    3    3  501    0 -0.10183342006E+02 -0.19215533580E+02 -0.20123936365E+02  0.30000000000E+02  0.47000000000E+01 0. -1.
         -5    1    3    3    0  501  0.10183342006E+02  0.19215533580E+02  0.20123936365E+02  0.30000000000E+02  0.47000000000E+01 0.  1.
</event>
<event>
 5    1  0.7673937E-002  0.6000000E+02  0.7546771E-02  0.1259629E+00
         11   -1    0    0    0    0  0.00000000000E+00  0.00000000000E+00  0.30000000000E+02  0.30000000000E+02  0.00000000000E+00 0.  1.
        -11   -1    0    0    0    0 -0.00000000000E+00 -0.00000000000E+00 -0.30000000000E+02  0.30000000000E+02  0.00000000000E+00 0. -1.
         23    2    1    2    0    0  0.00000000000E+00  0.00000000000E+00  0.00000000000E+00  0.60000000000E+02  0.60000000000E+02 0.  0.
          5    1    3    3  501    0 -0.24319125987E+02 -0.12671238413E+02 -0.11221846030E+02  0.30000000000E+02  0.47000000000E+01 0. -1.
         -5    1    3    3    0  501  0.24319125987E+02  0.12671238413E+02  0.11221846030E+02  0.30000000000E+02  0.47000000000E+01 0.  1.
</event>
<event>
 5    1  0.7673937E-002  0.6000000E+02  0.7546771E-02  0.1259629E+00
         11   -1    0    0    0    0  0.00000000000E+00  0.00000000000E+00  0.30000000000E+02  0.30000000000E+02  0.00000000000E+00 0.  1.
        -11   -1    0    0    0    0 -0.00000000000E+00 -0.00000000000E+00 -0.30000000000E+02  0.30000000000E+02  0.00000000000E+00 0. -1.
         23    2    1    2    0    0  0.00000000000E+00  0.00000000000E+00  0.00000000000E+00  0.60000000000E+02  0.60000000000E+02 0.  0.
          5    1    3    3  501    0 -0.71595451926E+01  0.19823312304E+02 -0.20825157909E+02  0.30000000000E+02  0.47000000000E+01 0. -1.
         -5    1    3    3    0  501  0.71595451926E+01 -0.19823312304E+02  0.20825157909E+02  0.30000000000E+02  0.47000000000E+01 0.  1.
</event>
<event>
 5    1  0.7673937E-002  0.6000000E+02  0.7546771E-02  0.1259629E+00
         11   -1    0    0    0    0  0.00000000000E+00  0.00000000000E+00  0.30000000000E+02  0.30000000000E+02  0.00000000000E+00 0.  1.
        -11   -1    0    0    0    0 -0.00000000000E+00 -0.00000000000E+00 -0.30000000000E+02  0.30000000000E+02  0.00000000000E+00 0. -1.
         23    2    1    2    0    0  0.00000000000E+00  0.00000000000E+00  0.00000000000E+00  0.60000000000E+02  0.60000000000E+02 0.  0.
          5    1    3    3  501    0 -0.53093778781E+01  0.23327875421E+02 -0.17479437488E+02  0.30000000000E+02  0.47000000000E+01 0. -1.
         -5    1    3    3    0  501  0.53093778781E+01 -0.23327875421E+02  0.17479437488E+02  0.30000000000E+02  0.47000000000E+01 0.  1.
</event>
<event>
 5    1  0.7673937E-002  0.6000000E+02  0.7546771E-02  0.1259629E+00
         11   -1    0    0    0    0  0.00000000000E+00  0.00000000000E+00  0.30000000000E+02  0.30000000000E+02  0.00000000000E+00 0.  1.
        -11   -1    0    0    0    0 -0.00000000000E+00 -0.00000000000E+00 -0.30000000000E+02  0.30000000000E+02  0.00000000000E+00 0. -1.
         23    2    1    2    0    0  0.00000000000E+00  0.00000000000E+00  0.00000000000E+00  0.60000000000E+02  0.60000000000E+02 0.  0.
          5    1    3    3  501    0  0.21613145799E+02 -0.15324928129E+02 -0.13263804376E+02  0.30000000000E+02  0.47000000000E+01 0. -1.
         -5    1    3    3    0  501 -0.21613145799E+02  0.15324928129E+02  0.13263804376E+02  0.30000000000E+02  0.47000000000E+01 0.  1.
</event>
<event>
 5    1  0.7673937E-002  0.6000000E+02  0.7546771E-02  0.1259629E+00
         11   -1    0    0    0    0  0.00000000000E+00  0.00000000000E+00  0.30000000000E+02  0.30000000000E+02  0.00000000000E+00 0.  1.
        -11   -1    0    0    0    0 -0.00000000000E+00 -0.00000000000E+00 -0.30000000000E+02  0.30000000000E+02  0.00000000000E+00 0. -1.
         23    2    1    2    0    0  0.00000000000E+00  0.00000000000E+00  0.00000000000E+00  0.60000000000E+02  0.60000000000E+02 0.  0.
          5    1    3    3  501    0 -0.22577588032E+02  0.27326305196E+01 -0.18991978546E+02  0.30000000000E+02  0.47000000000E+01 0. -1.
         -5    1    3    3    0  501  0.22577588032E+02 -0.27326305196E+01  0.18991978546E+02  0.30000000000E+02  0.47000000000E+01 0.  1.
</event>
<event>
 5    1  0.7673937E-002  0.6000000E+02  0.7546771E-02  0.1259629E+00
         11   -1    0    0    0    0  0.00000000000E+00  0.00000000000E+00  0.30000000000E+02  0.30000000000E+02  0.00000000000E+00 0.  1.
        -11   -1    0    0    0    0 -0.00000000000E+00 -0.00000000000E+00 -0.30000000000E+02  0.30000000000E+02  0.00000000000E+00 0. -1.
         23    2    1    2    0    0  0.00000000000E+00  0.00000000000E+00  0.00000000000E+00  0.60000000000E+02  0.60000000000E+02 0.  0.
          5    1    3    3  501    0 -0.16270195372E+02  0.10404448181E+02 -0.22470829994E+02  0.30000000000E+02  0.47000000000E+01 0. -1.
         -5    1    3    3    0  501  0.16270195372E+02 -0.10404448181E+02  0.22470829994E+02  0.30000000000E+02  0.47000000000E+01 0.  1.
</event>
<event>
 5    1  0.7673937E-002  0.6000000E+02  0.7546771E-02  0.1259629E+00
         11   -1    0    0    0    0  0.00000000000E+00  0.00000000000E+00  0.30000000000E+02  0.30000000000E+02  0.00000000000E+00 0.  1.
        -11   -1    0    0    0    0 -0.00000000000E+00 -0.00000000000E+00 -0.30000000000E+02  0.30000000000E+02  0.00000000000E+00 0. -1.
         23    2    1    2    0    0  0.00000000000E+00  0.00000000000E+00  0.00000000000E+00  0.60000000000E+02  0.60000000000E+02 0.  0.
          5    1    3    3  501    0 -0.72131224234E+01  0.15334980458E+02 -0.24304716400E+02  0.30000000000E+02  0.47000000000E+01 0. -1.
         -5    1    3    3    0  501  0.72131224234E+01 -0.15334980458E+02  0.24304716400E+02  0.30000000000E+02  0.47000000000E+01 0.  1.
</event>
<event>
 5    1  0.7673937E-002  0.6000000E+02  0.7546771E-02  0.1259629E+00
         11   -1    0    0    0    0  0.00000000000E+00  0.00000000000E+00  0.30000000000E+02  0.30000000000E+02  0.00000000000E+00 0. -1.
        -11   -1    0    0    0    0 -0.00000000000E+00 -0.00000000000E+00 -0.30000000000E+02  0.30000000000E+02  0.00000000000E+00 0.  1.
         23    2    1    2    0    0  0.00000000000E+00  0.00000000000E+00  0.00000000000E+00  0.60000000000E+02  0.60000000000E+02 0.  0.
          5    1    3    3  501    0  0.24414143346E+02 -0.10738915817E+02  0.12904855356E+02  0.30000000000E+02  0.47000000000E+01 0. -1.
         -5    1    3    3    0  501 -0.24414143346E+02  0.10738915817E+02 -0.12904855356E+02  0.30000000000E+02  0.47000000000E+01 0.  1.
</event>
<event>
 5    1  0.7673937E-002  0.6000000E+02  0.7546771E-02  0.1259629E+00
         11   -1    0    0    0    0  0.00000000000E+00  0.00000000000E+00  0.30000000000E+02  0.30000000000E+02  0.00000000000E+00 0.  1.
        -11   -1    0    0    0    0 -0.00000000000E+00 -0.00000000000E+00 -0.30000000000E+02  0.30000000000E+02  0.00000000000E+00 0. -1.
         23    2    1    2    0    0  0.00000000000E+00  0.00000000000E+00  0.00000000000E+00  0.60000000000E+02  0.60000000000E+02 0.  0.
          5    1    3    3  501    0  0.85519851358E+01 -0.16656569783E+02 -0.22963715581E+02  0.30000000000E+02  0.47000000000E+01 0. -1.
         -5    1    3    3    0  501 -0.85519851358E+01  0.16656569783E+02  0.22963715581E+02  0.30000000000E+02  0.47000000000E+01 0.  1.
</event>
<event>
 5    1  0.7673937E-002  0.6000000E+02  0.7546771E-02  0.1259629E+00
         11   -1    0    0    0    0  0.00000000000E+00  0.00000000000E+00  0.30000000000E+02  0.30000000000E+02  0.00000000000E+00 0.  1.
        -11   -1    0    0    0    0 -0.00000000000E+00 -0.00000000000E+00 -0.30000000000E+02  0.30000000000E+02  0.00000000000E+00 0. -1.
         23    2    1    2    0    0  0.00000000000E+00  0.00000000000E+00  0.00000000000E+00  0.60000000000E+02  0.60000000000E+02 0.  0.
          5    1    3    3  501    0 -0.18106747972E+02  0.23711365243E+00 -0.23452067179E+02  0.30000000000E+02  0.47000000000E+01 0. -1.
         -5    1    3    3    0  501  0.18106747972E+02 -0.23711365243E+00  0.23452067179E+02  0.30000000000E+02  0.47000000000E+01 0.  1.
</event>
<event>
 5    1  0.7673937E-002  0.6000000E+02  0.7546771E-02  0.1259629E+00
         11   -1    0    0    0    0  0.00000000000E+00  0.00000000000E+00  0.30000000000E+02  0.30000000000E+02  0.00000000000E+00 0. -1.
        -11   -1    0    0    0    0 -0.00000000000E+00 -0.00000000000E+00 -0.30000000000E+02  0.30000000000E+02  0.00000000000E+00 0.  1.
         23    2    1    2    0    0  0.00000000000E+00  0.00000000000E+00  0.00000000000E+00  0.60000000000E+02  0.60000000000E+02 0.  0.
          5    1    3    3  501    0  0.21711919139E+02  0.19349791980E+02 -0.56646374676E+01  0.30000000000E+02  0.47000000000E+01 0.  1.
         -5    1    3    3    0  501 -0.21711919139E+02 -0.19349791980E+02  0.56646374676E+01  0.30000000000E+02  0.47000000000E+01 0. -1.
</event>
<event>
 5    1  0.7673937E-002  0.6000000E+02  0.7546771E-02  0.1259629E+00
         11   -1    0    0    0    0  0.00000000000E+00  0.00000000000E+00  0.30000000000E+02  0.30000000000E+02  0.00000000000E+00 0.  1.
        -11   -1    0    0    0    0 -0.00000000000E+00 -0.00000000000E+00 -0.30000000000E+02  0.30000000000E+02  0.00000000000E+00 0. -1.
         23    2    1    2    0    0  0.00000000000E+00  0.00000000000E+00  0.00000000000E+00  0.60000000000E+02  0.60000000000E+02 0.  0.
          5    1    3    3  501    0 -0.29076361718E+02 -0.26493142288E+01  0.50454259857E+01  0.30000000000E+02  0.47000000000E+01 0. -1.
         -5    1    3    3    0  501  0.29076361718E+02  0.26493142288E+01 -0.50454259857E+01  0.30000000000E+02  0.47000000000E+01 0.  1.
</event>
<event>
 5    1  0.7673937E-002  0.6000000E+02  0.7546771E-02  0.1259629E+00
         11   -1    0    0    0    0  0.00000000000E+00  0.00000000000E+00  0.30000000000E+02  0.30000000000E+02  0.00000000000E+00 0. -1.
        -11   -1    0    0    0    0 -0.00000000000E+00 -0.00000000000E+00 -0.30000000000E+02  0.30000000000E+02  0.00000000000E+00 0.  1.
         23    2    1    2    0    0  0.00000000000E+00  0.00000000000E+00  0.00000000000E+00  0.60000000000E+02  0.60000000000E+02 0.  0.
          5    1    3    3  501    0  0.97845498221E+01  0.23963277392E+02  0.14419914057E+02  0.30000000000E+02  0.47000000000E+01 0. -1.
         -5    1    3    3    0  501 -0.97845498221E+01 -0.23963277392E+02 -0.14419914057E+02  0.30000000000E+02  0.47000000000E+01 0.  1.
</event>
<event>
 5    1  0.7673937E-002  0.6000000E+02  0.7546771E-02  0.1259629E+00
         11   -1    0    0    0    0  0.00000000000E+00  0.00000000000E+00  0.30000000000E+02  0.30000000000E+02  0.00000000000E+00 0. -1.
        -11   -1    0    0    0    0 -0.00000000000E+00 -0.00000000000E+00 -0.30000000000E+02  0.30000000000E+02  0.00000000000E+00 0.  1.
         23    2    1    2    0    0  0.00000000000E+00  0.00000000000E+00  0.00000000000E+00  0.60000000000E+02  0.60000000000E+02 0.  0.
          5    1    3    3  501    0 -0.73558683162E+01 -0.15014974856E+02 -0.24461229147E+02  0.30000000000E+02  0.47000000000E+01 0.  1.
         -5    1    3    3    0  501  0.73558683162E+01  0.15014974856E+02  0.24461229147E+02  0.30000000000E+02  0.47000000000E+01 0. -1.
</event>
<event>
 5    1  0.7673937E-002  0.6000000E+02  0.7546771E-02  0.1259629E+00
         11   -1    0    0    0    0  0.00000000000E+00  0.00000000000E+00  0.30000000000E+02  0.30000000000E+02  0.00000000000E+00 0. -1.
        -11   -1    0    0    0    0 -0.00000000000E+00 -0.00000000000E+00 -0.30000000000E+02  0.30000000000E+02  0.00000000000E+00 0.  1.
         23    2    1    2    0    0  0.00000000000E+00  0.00000000000E+00  0.00000000000E+00  0.60000000000E+02  0.60000000000E+02 0.  0.
          5    1    3    3  501    0 -0.27662260352E+02  0.49410871408E+01 -0.93965424546E+01  0.30000000000E+02  0.47000000000E+01 0.  1.
         -5    1    3    3    0  501  0.27662260352E+02 -0.49410871408E+01  0.93965424546E+01  0.30000000000E+02  0.47000000000E+01 0. -1.
</event>
<event>
 5    1  0.7673937E-002  0.6000000E+02  0.7546771E-02  0.1259629E+00
         11   -1    0    0    0    0  0.00000000000E+00  0.00000000000E+00  0.30000000000E+02  0.30000000000E+02  0.00000000000E+00 0.  1.
        -11   -1    0    0    0    0 -0.00000000000E+00 -0.00000000000E+00 -0.30000000000E+02  0.30000000000E+02  0.00000000000E+00 0. -1.
         23    2    1    2    0    0  0.00000000000E+00  0.00000000000E+00  0.00000000000E+00  0.60000000000E+02  0.60000000000E+02 0.  0.
          5    1    3    3  501    0 -0.20905844518E+02  0.55385035951E+01 -0.20252916899E+02  0.30000000000E+02  0.47000000000E+01 0. -1.
         -5    1    3    3    0  501  0.20905844518E+02 -0.55385035951E+01  0.20252916899E+02  0.30000000000E+02  0.47000000000E+01 0.  1.
</event>
<event>
 5    1  0.7673937E-002  0.6000000E+02  0.7546771E-02  0.1259629E+00
         11   -1    0    0    0    0  0.00000000000E+00  0.00000000000E+00  0.30000000000E+02  0.30000000000E+02  0.00000000000E+00 0.  1.
        -11   -1    0    0    0    0 -0.00000000000E+00 -0.00000000000E+00 -0.30000000000E+02  0.30000000000E+02  0.00000000000E+00 0. -1.
         23    2    1    2    0    0  0.00000000000E+00  0.00000000000E+00  0.00000000000E+00  0.60000000000E+02  0.60000000000E+02 0.  0.
          5    1    3    3  501    0 -0.11169734802E+02  0.27013579141E+01 -0.27310248806E+02  0.30000000000E+02  0.47000000000E+01 0. -1.
         -5    1    3    3    0  501  0.11169734802E+02 -0.27013579141E+01  0.27310248806E+02  0.30000000000E+02  0.47000000000E+01 0.  1.
</event>
<event>
 5    1  0.7673937E-002  0.6000000E+02  0.7546771E-02  0.1259629E+00
         11   -1    0    0    0    0  0.00000000000E+00  0.00000000000E+00  0.30000000000E+02  0.30000000000E+02  0.00000000000E+00 0.  1.
        -11   -1    0    0    0    0 -0.00000000000E+00 -0.00000000000E+00 -0.30000000000E+02  0.30000000000E+02  0.00000000000E+00 0. -1.
         23    2    1    2    0    0  0.00000000000E+00  0.00000000000E+00  0.00000000000E+00  0.60000000000E+02  0.60000000000E+02 0.  0.
          5    1    3    3  501    0  0.29478713695E+02  0.10431794222E+01 -0.27977161319E+01  0.30000000000E+02  0.47000000000E+01 0. -1.
         -5    1    3    3    0  501 -0.29478713695E+02 -0.10431794222E+01  0.27977161319E+01  0.30000000000E+02  0.47000000000E+01 0.  1.
</event>
<event>
 5    1  0.7673937E-002  0.6000000E+02  0.7546771E-02  0.1259629E+00
         11   -1    0    0    0    0  0.00000000000E+00  0.00000000000E+00  0.30000000000E+02  0.30000000000E+02  0.00000000000E+00 0.  1.
        -11   -1    0    0    0    0 -0.00000000000E+00 -0.00000000000E+00 -0.30000000000E+02  0.30000000000E+02  0.00000000000E+00 0. -1.
         23    2    1    2    0    0  0.00000000000E+00  0.00000000000E+00  0.00000000000E+00  0.60000000000E+02  0.60000000000E+02 0.  0.
          5    1    3    3  501    0 -0.29552151744E+01  0.87133560898E+01 -0.28164767511E+02  0.30000000000E+02  0.47000000000E+01 0. -1.
         -5    1    3    3    0  501  0.29552151744E+01 -0.87133560898E+01  0.28164767511E+02  0.30000000000E+02  0.47000000000E+01 0.  1.
</event>
<event>
 5    1  0.7673937E-002  0.6000000E+02  0.7546771E-02  0.1259629E+00
         11   -1    0    0    0    0  0.00000000000E+00  0.00000000000E+00  0.30000000000E+02  0.30000000000E+02  0.00000000000E+00 0.  1.
        -11   -1    0    0    0    0 -0.00000000000E+00 -0.00000000000E+00 -0.30000000000E+02  0.30000000000E+02  0.00000000000E+00 0. -1.
         23    2    1    2    0    0  0.00000000000E+00  0.00000000000E+00  0.00000000000E+00  0.60000000000E+02  0.60000000000E+02 0.  0.
          5    1    3    3  501    0  0.41621258650E+01 -0.29266125498E+02  0.20200511400E+01  0.30000000000E+02  0.47000000000E+01 0. -1.
         -5    1    3    3    0  501 -0.41621258650E+01  0.29266125498E+02 -0.20200511400E+01  0.30000000000E+02  0.47000000000E+01 0.  1.
</event>
<event>
 5    1  0.7673937E-002  0.6000000E+02  0.7546771E-02  0.1259629E+00
         11   -1    0    0    0    0  0.00000000000E+00  0.00000000000E+00  0.30000000000E+02  0.30000000000E+02  0.00000000000E+00 0.  1.
        -11   -1    0    0    0    0 -0.00000000000E+00 -0.00000000000E+00 -0.30000000000E+02  0.30000000000E+02  0.00000000000E+00 0. -1.
         23    2    1    2    0    0  0.00000000000E+00  0.00000000000E+00  0.00000000000E+00  0.60000000000E+02  0.60000000000E+02 0.  0.
          5    1    3    3  501    0  0.10261193041E+02  0.12066433865E+02  0.25040349262E+02  0.30000000000E+02  0.47000000000E+01 0.  1.
         -5    1    3    3    0  501 -0.10261193041E+02 -0.12066433865E+02 -0.25040349262E+02  0.30000000000E+02  0.47000000000E+01 0. -1.
</event>
<event>
 5    1  0.7673937E-002  0.6000000E+02  0.7546771E-02  0.1259629E+00
         11   -1    0    0    0    0  0.00000000000E+00  0.00000000000E+00  0.30000000000E+02  0.30000000000E+02  0.00000000000E+00 0. -1.
        -11   -1    0    0    0    0 -0.00000000000E+00 -0.00000000000E+00 -0.30000000000E+02  0.30000000000E+02  0.00000000000E+00 0.  1.
         23    2    1    2    0    0  0.00000000000E+00  0.00000000000E+00  0.00000000000E+00  0.60000000000E+02  0.60000000000E+02 0.  0.
          5    1    3    3  501    0  0.34963838212E+01 -0.12343351645E+02  0.26708181711E+02  0.30000000000E+02  0.47000000000E+01 0. -1.
         -5    1    3    3    0  501 -0.34963838212E+01  0.12343351645E+02 -0.26708181711E+02  0.30000000000E+02  0.47000000000E+01 0.  1.
</event>
<event>
 5    1  0.7673937E-002  0.6000000E+02  0.7546771E-02  0.1259629E+00
         11   -1    0    0    0    0  0.00000000000E+00  0.00000000000E+00  0.30000000000E+02  0.30000000000E+02  0.00000000000E+00 0.  1.
        -11   -1    0    0    0    0 -0.00000000000E+00 -0.00000000000E+00 -0.30000000000E+02  0.30000000000E+02  0.00000000000E+00 0. -1.
         23    2    1    2    0    0  0.00000000000E+00  0.00000000000E+00  0.00000000000E+00  0.60000000000E+02  0.60000000000E+02 0.  0.
          5    1    3    3  501    0 -0.19682946055E+02  0.30422265934E+01 -0.21937103090E+02  0.30000000000E+02  0.47000000000E+01 0. -1.
         -5    1    3    3    0  501  0.19682946055E+02 -0.30422265934E+01  0.21937103090E+02  0.30000000000E+02  0.47000000000E+01 0.  1.
</event>
<event>
 5    1  0.7673937E-002  0.6000000E+02  0.7546771E-02  0.1259629E+00
         11   -1    0    0    0    0  0.00000000000E+00  0.00000000000E+00  0.30000000000E+02  0.30000000000E+02  0.00000000000E+00 0.  1.
        -11   -1    0    0    0    0 -0.00000000000E+00 -0.00000000000E+00 -0.30000000000E+02  0.30000000000E+02  0.00000000000E+00 0. -1.
         23    2    1    2    0    0  0.00000000000E+00  0.00000000000E+00  0.00000000000E+00  0.60000000000E+02  0.60000000000E+02 0.  0.
          5    1    3    3  501    0 -0.16003140867E+02  0.37190723565E+01 -0.24657209558E+02  0.30000000000E+02  0.47000000000E+01 0. -1.
         -5    1    3    3    0  501  0.16003140867E+02 -0.37190723565E+01  0.24657209558E+02  0.30000000000E+02  0.47000000000E+01 0.  1.
</event>
<event>
 5    1  0.7673937E-002  0.6000000E+02  0.7546771E-02  0.1259629E+00
         11   -1    0    0    0    0  0.00000000000E+00  0.00000000000E+00  0.30000000000E+02  0.30000000000E+02  0.00000000000E+00 0.  1.
        -11   -1    0    0    0    0 -0.00000000000E+00 -0.00000000000E+00 -0.30000000000E+02  0.30000000000E+02  0.00000000000E+00 0. -1.
         23    2    1    2    0    0  0.00000000000E+00  0.00000000000E+00  0.00000000000E+00  0.60000000000E+02  0.60000000000E+02 0.  0.
          5    1    3    3  501    0  0.57944347830E+01 -0.30188383097E+01 -0.28900192747E+02  0.30000000000E+02  0.47000000000E+01 0. -1.
         -5    1    3    3    0  501 -0.57944347830E+01  0.30188383097E+01  0.28900192747E+02  0.30000000000E+02  0.47000000000E+01 0.  1.
</event>
<event>
 5    1  0.7673937E-002  0.6000000E+02  0.7546771E-02  0.1259629E+00
         11   -1    0    0    0    0  0.00000000000E+00  0.00000000000E+00  0.30000000000E+02  0.30000000000E+02  0.00000000000E+00 0.  1.
        -11   -1    0    0    0    0 -0.00000000000E+00 -0.00000000000E+00 -0.30000000000E+02  0.30000000000E+02  0.00000000000E+00 0. -1.
         23    2    1    2    0    0  0.00000000000E+00  0.00000000000E+00  0.00000000000E+00  0.60000000000E+02  0.60000000000E+02 0.  0.
          5    1    3    3  501    0  0.24368677022E+02 -0.15636359631E+02 -0.62914098301E+01  0.30000000000E+02  0.47000000000E+01 0. -1.
         -5    1    3    3    0  501 -0.24368677022E+02  0.15636359631E+02  0.62914098301E+01  0.30000000000E+02  0.47000000000E+01 0.  1.
</event>
<event>
 5    1  0.7673937E-002  0.6000000E+02  0.7546771E-02  0.1259629E+00
         11   -1    0    0    0    0  0.00000000000E+00  0.00000000000E+00  0.30000000000E+02  0.30000000000E+02  0.00000000000E+00 0.  1.
        -11   -1    0    0    0    0 -0.00000000000E+00 -0.00000000000E+00 -0.30000000000E+02  0.30000000000E+02  0.00000000000E+00 0. -1.
         23    2    1    2    0    0  0.00000000000E+00  0.00000000000E+00  0.00000000000E+00  0.60000000000E+02  0.60000000000E+02 0.  0.
          5    1    3    3  501    0  0.14402091323E+01  0.20533707812E+02 -0.21312030432E+02  0.30000000000E+02  0.47000000000E+01 0. -1.
         -5    1    3    3    0  501 -0.14402091323E+01 -0.20533707812E+02  0.21312030432E+02  0.30000000000E+02  0.47000000000E+01 0.  1.
</event>
<event>
 5    1  0.7673937E-002  0.6000000E+02  0.7546771E-02  0.1259629E+00
         11   -1    0    0    0    0  0.00000000000E+00  0.00000000000E+00  0.30000000000E+02  0.30000000000E+02  0.00000000000E+00 0. -1.
        -11   -1    0    0    0    0 -0.00000000000E+00 -0.00000000000E+00 -0.30000000000E+02  0.30000000000E+02  0.00000000000E+00 0.  1.
         23    2    1    2    0    0  0.00000000000E+00  0.00000000000E+00  0.00000000000E+00  0.60000000000E+02  0.60000000000E+02 0.  0.
          5    1    3    3  501    0 -0.15286609881E+02 -0.13456535962E+02 -0.21520947894E+02  0.30000000000E+02  0.47000000000E+01 0.  1.
         -5    1    3    3    0  501  0.15286609881E+02  0.13456535962E+02  0.21520947894E+02  0.30000000000E+02  0.47000000000E+01 0. -1.
</event>
<event>
 5    1  0.7673937E-002  0.6000000E+02  0.7546771E-02  0.1259629E+00
         11   -1    0    0    0    0  0.00000000000E+00  0.00000000000E+00  0.30000000000E+02  0.30000000000E+02  0.00000000000E+00 0.  1.
        -11   -1    0    0    0    0 -0.00000000000E+00 -0.00000000000E+00 -0.30000000000E+02  0.30000000000E+02  0.00000000000E+00 0. -1.
         23    2    1    2    0    0  0.00000000000E+00  0.00000000000E+00  0.00000000000E+00  0.60000000000E+02  0.60000000000E+02 0.  0.
          5    1    3    3  501    0 -0.29162814089E+02 -0.50729177308E+01  0.13060551775E+01  0.30000000000E+02  0.47000000000E+01 0. -1.
         -5    1    3    3    0  501  0.29162814089E+02  0.50729177308E+01 -0.13060551775E+01  0.30000000000E+02  0.47000000000E+01 0.  1.
</event>
<event>
 5    1  0.7673937E-002  0.6000000E+02  0.7546771E-02  0.1259629E+00
         11   -1    0    0    0    0  0.00000000000E+00  0.00000000000E+00  0.30000000000E+02  0.30000000000E+02  0.00000000000E+00 0. -1.
        -11   -1    0    0    0    0 -0.00000000000E+00 -0.00000000000E+00 -0.30000000000E+02  0.30000000000E+02  0.00000000000E+00 0.  1.
         23    2    1    2    0    0  0.00000000000E+00  0.00000000000E+00  0.00000000000E+00  0.60000000000E+02  0.60000000000E+02 0.  0.
          5    1    3    3  501    0  0.65791724068E+01 -0.11754186127E+02 -0.26390596790E+02  0.30000000000E+02  0.47000000000E+01 0.  1.
         -5    1    3    3    0  501 -0.65791724068E+01  0.11754186127E+02  0.26390596790E+02  0.30000000000E+02  0.47000000000E+01 0. -1.
</event>
<event>
 5    1  0.7673937E-002  0.6000000E+02  0.7546771E-02  0.1259629E+00
         11   -1    0    0    0    0  0.00000000000E+00  0.00000000000E+00  0.30000000000E+02  0.30000000000E+02  0.00000000000E+00 0.  1.
        -11   -1    0    0    0    0 -0.00000000000E+00 -0.00000000000E+00 -0.30000000000E+02  0.30000000000E+02  0.00000000000E+00 0. -1.
         23    2    1    2    0    0  0.00000000000E+00  0.00000000000E+00  0.00000000000E+00  0.60000000000E+02  0.60000000000E+02 0.  0.
          5    1    3    3  501    0 -0.19610527413E+02 -0.35307563172E+00 -0.22208389230E+02  0.30000000000E+02  0.47000000000E+01 0. -1.
         -5    1    3    3    0  501  0.19610527413E+02  0.35307563172E+00  0.22208389230E+02  0.30000000000E+02  0.47000000000E+01 0.  1.
</event>
<event>
 5    1  0.7673937E-002  0.6000000E+02  0.7546771E-02  0.1259629E+00
         11   -1    0    0    0    0  0.00000000000E+00  0.00000000000E+00  0.30000000000E+02  0.30000000000E+02  0.00000000000E+00 0.  1.
        -11   -1    0    0    0    0 -0.00000000000E+00 -0.00000000000E+00 -0.30000000000E+02  0.30000000000E+02  0.00000000000E+00 0. -1.
         23    2    1    2    0    0  0.00000000000E+00  0.00000000000E+00  0.00000000000E+00  0.60000000000E+02  0.60000000000E+02 0.  0.
          5    1    3    3  501    0  0.70697324952E+00 -0.29098043990E+02 -0.55420235297E+01  0.30000000000E+02  0.47000000000E+01 0. -1.
         -5    1    3    3    0  501 -0.70697324952E+00  0.29098043990E+02  0.55420235297E+01  0.30000000000E+02  0.47000000000E+01 0.  1.
</event>
<event>
 5    1  0.7673937E-002  0.6000000E+02  0.7546771E-02  0.1259629E+00
         11   -1    0    0    0    0  0.00000000000E+00  0.00000000000E+00  0.30000000000E+02  0.30000000000E+02  0.00000000000E+00 0.  1.
        -11   -1    0    0    0    0 -0.00000000000E+00 -0.00000000000E+00 -0.30000000000E+02  0.30000000000E+02  0.00000000000E+00 0. -1.
         23    2    1    2    0    0  0.00000000000E+00  0.00000000000E+00  0.00000000000E+00  0.60000000000E+02  0.60000000000E+02 0.  0.
          5    1    3    3  501    0  0.26827937566E+02 -0.89114560065E+01  0.88745545139E+01  0.30000000000E+02  0.47000000000E+01 0.  1.
         -5    1    3    3    0  501 -0.26827937566E+02  0.89114560065E+01 -0.88745545139E+01  0.30000000000E+02  0.47000000000E+01 0. -1.
</event>
<event>
 5    1  0.7673937E-002  0.6000000E+02  0.7546771E-02  0.1259629E+00
         11   -1    0    0    0    0  0.00000000000E+00  0.00000000000E+00  0.30000000000E+02  0.30000000000E+02  0.00000000000E+00 0. -1.
        -11   -1    0    0    0    0 -0.00000000000E+00 -0.00000000000E+00 -0.30000000000E+02  0.30000000000E+02  0.00000000000E+00 0.  1.
         23    2    1    2    0    0  0.00000000000E+00  0.00000000000E+00  0.00000000000E+00  0.60000000000E+02  0.60000000000E+02 0.  0.
          5    1    3    3  501    0 -0.13909510781E+01 -0.22408818867E+02 -0.19334427638E+02  0.30000000000E+02  0.47000000000E+01 0.  1.
         -5    1    3    3    0  501  0.13909510781E+01  0.22408818867E+02  0.19334427638E+02  0.30000000000E+02  0.47000000000E+01 0. -1.
</event>
<event>
 5    1  0.7673937E-002  0.6000000E+02  0.7546771E-02  0.1259629E+00
         11   -1    0    0    0    0  0.00000000000E+00  0.00000000000E+00  0.30000000000E+02  0.30000000000E+02  0.00000000000E+00 0. -1.
        -11   -1    0    0    0    0 -0.00000000000E+00 -0.00000000000E+00 -0.30000000000E+02  0.30000000000E+02  0.00000000000E+00 0.  1.
         23    2    1    2    0    0  0.00000000000E+00  0.00000000000E+00  0.00000000000E+00  0.60000000000E+02  0.60000000000E+02 0.  0.
          5    1    3    3  501    0  0.12849842783E+02 -0.61193795401E+01 -0.25987395685E+02  0.30000000000E+02  0.47000000000E+01 0.  1.
         -5    1    3    3    0  501 -0.12849842783E+02  0.61193795401E+01  0.25987395685E+02  0.30000000000E+02  0.47000000000E+01 0. -1.
</event>
<event>
 5    1  0.7673937E-002  0.6000000E+02  0.7546771E-02  0.1259629E+00
         11   -1    0    0    0    0  0.00000000000E+00  0.00000000000E+00  0.30000000000E+02  0.30000000000E+02  0.00000000000E+00 0. -1.
        -11   -1    0    0    0    0 -0.00000000000E+00 -0.00000000000E+00 -0.30000000000E+02  0.30000000000E+02  0.00000000000E+00 0.  1.
         23    2    1    2    0    0  0.00000000000E+00  0.00000000000E+00  0.00000000000E+00  0.60000000000E+02  0.60000000000E+02 0.  0.
          5    1    3    3  501    0 -0.67203668160E+00  0.25556887078E+02  0.14976778344E+02  0.30000000000E+02  0.47000000000E+01 0.  1.
         -5    1    3    3    0  501  0.67203668160E+00 -0.25556887078E+02 -0.14976778344E+02  0.30000000000E+02  0.47000000000E+01 0. -1.
</event>
<event>
 5    1  0.7673937E-002  0.6000000E+02  0.7546771E-02  0.1259629E+00
         11   -1    0    0    0    0  0.00000000000E+00  0.00000000000E+00  0.30000000000E+02  0.30000000000E+02  0.00000000000E+00 0. -1.
        -11   -1    0    0    0    0 -0.00000000000E+00 -0.00000000000E+00 -0.30000000000E+02  0.30000000000E+02  0.00000000000E+00 0.  1.
         23    2    1    2    0    0  0.00000000000E+00  0.00000000000E+00  0.00000000000E+00  0.60000000000E+02  0.60000000000E+02 0.  0.
          5    1    3    3  501    0 -0.27347131745E+01  0.14644688856E+02 -0.25611802595E+02  0.30000000000E+02  0.47000000000E+01 0.  1.
         -5    1    3    3    0  501  0.27347131745E+01 -0.14644688856E+02  0.25611802595E+02  0.30000000000E+02  0.47000000000E+01 0. -1.
</event>
<event>
 5    1  0.7673937E-002  0.6000000E+02  0.7546771E-02  0.1259629E+00
         11   -1    0    0    0    0  0.00000000000E+00  0.00000000000E+00  0.30000000000E+02  0.30000000000E+02  0.00000000000E+00 0.  1.
        -11   -1    0    0    0    0 -0.00000000000E+00 -0.00000000000E+00 -0.30000000000E+02  0.30000000000E+02  0.00000000000E+00 0. -1.
         23    2    1    2    0    0  0.00000000000E+00  0.00000000000E+00  0.00000000000E+00  0.60000000000E+02  0.60000000000E+02 0.  0.
          5    1    3    3  501    0  0.22400263274E+02  0.42164038411E+00 -0.19389698931E+02  0.30000000000E+02  0.47000000000E+01 0. -1.
         -5    1    3    3    0  501 -0.22400263274E+02 -0.42164038411E+00  0.19389698931E+02  0.30000000000E+02  0.47000000000E+01 0.  1.
</event>
<event>
 5    1  0.7673937E-002  0.6000000E+02  0.7546771E-02  0.1259629E+00
         11   -1    0    0    0    0  0.00000000000E+00  0.00000000000E+00  0.30000000000E+02  0.30000000000E+02  0.00000000000E+00 0.  1.
        -11   -1    0    0    0    0 -0.00000000000E+00 -0.00000000000E+00 -0.30000000000E+02  0.30000000000E+02  0.00000000000E+00 0. -1.
         23    2    1    2    0    0  0.00000000000E+00  0.00000000000E+00  0.00000000000E+00  0.60000000000E+02  0.60000000000E+02 0.  0.
          5    1    3    3  501    0  0.26542625551E+02  0.86485555373E+01  0.99298296052E+01  0.30000000000E+02  0.47000000000E+01 0. -1.
         -5    1    3    3    0  501 -0.26542625551E+02 -0.86485555373E+01 -0.99298296052E+01  0.30000000000E+02  0.47000000000E+01 0.  1.
</event>
<event>
 5    1  0.7673937E-002  0.6000000E+02  0.7546771E-02  0.1259629E+00
         11   -1    0    0    0    0  0.00000000000E+00  0.00000000000E+00  0.30000000000E+02  0.30000000000E+02  0.00000000000E+00 0.  1.
        -11   -1    0    0    0    0 -0.00000000000E+00 -0.00000000000E+00 -0.30000000000E+02  0.30000000000E+02  0.00000000000E+00 0. -1.
         23    2    1    2    0    0  0.00000000000E+00  0.00000000000E+00  0.00000000000E+00  0.60000000000E+02  0.60000000000E+02 0.  0.
          5    1    3    3  501    0 -0.38978953820E+01  0.20767591392E+02 -0.20770738055E+02  0.30000000000E+02  0.47000000000E+01 0. -1.
         -5    1    3    3    0  501  0.38978953820E+01 -0.20767591392E+02  0.20770738055E+02  0.30000000000E+02  0.47000000000E+01 0.  1.
</event>
<event>
 5    1  0.7673937E-002  0.6000000E+02  0.7546771E-02  0.1259629E+00
         11   -1    0    0    0    0  0.00000000000E+00  0.00000000000E+00  0.30000000000E+02  0.30000000000E+02  0.00000000000E+00 0.  1.
        -11   -1    0    0    0    0 -0.00000000000E+00 -0.00000000000E+00 -0.30000000000E+02  0.30000000000E+02  0.00000000000E+00 0. -1.
         23    2    1    2    0    0  0.00000000000E+00  0.00000000000E+00  0.00000000000E+00  0.60000000000E+02  0.60000000000E+02 0.  0.
          5    1    3    3  501    0  0.18913380173E+02  0.16433461458E+02  0.15815669285E+02  0.30000000000E+02  0.47000000000E+01 0.  1.
         -5    1    3    3    0  501 -0.18913380173E+02 -0.16433461458E+02 -0.15815669285E+02  0.30000000000E+02  0.47000000000E+01 0. -1.
</event>
<event>
 5    1  0.7673937E-002  0.6000000E+02  0.7546771E-02  0.1259629E+00
         11   -1    0    0    0    0  0.00000000000E+00  0.00000000000E+00  0.30000000000E+02  0.30000000000E+02  0.00000000000E+00 0.  1.
        -11   -1    0    0    0    0 -0.00000000000E+00 -0.00000000000E+00 -0.30000000000E+02  0.30000000000E+02  0.00000000000E+00 0. -1.
         23    2    1    2    0    0  0.00000000000E+00  0.00000000000E+00  0.00000000000E+00  0.60000000000E+02  0.60000000000E+02 0.  0.
          5    1    3    3  501    0  0.17178125461E+02  0.98063831665E+01 -0.22060300425E+02  0.30000000000E+02  0.47000000000E+01 0. -1.
         -5    1    3    3    0  501 -0.17178125461E+02 -0.98063831665E+01  0.22060300425E+02  0.30000000000E+02  0.47000000000E+01 0.  1.
</event>
<event>
 5    1  0.7673937E-002  0.6000000E+02  0.7546771E-02  0.1259629E+00
         11   -1    0    0    0    0  0.00000000000E+00  0.00000000000E+00  0.30000000000E+02  0.30000000000E+02  0.00000000000E+00 0.  1.
        -11   -1    0    0    0    0 -0.00000000000E+00 -0.00000000000E+00 -0.30000000000E+02  0.30000000000E+02  0.00000000000E+00 0. -1.
         23    2    1    2    0    0  0.00000000000E+00  0.00000000000E+00  0.00000000000E+00  0.60000000000E+02  0.60000000000E+02 0.  0.
          5    1    3    3  501    0  0.41766344727E+00 -0.29496115904E+02  0.27775355617E+01  0.30000000000E+02  0.47000000000E+01 0. -1.
         -5    1    3    3    0  501 -0.41766344727E+00  0.29496115904E+02 -0.27775355617E+01  0.30000000000E+02  0.47000000000E+01 0.  1.
</event>
<event>
 5    1  0.7673937E-002  0.6000000E+02  0.7546771E-02  0.1259629E+00
         11   -1    0    0    0    0  0.00000000000E+00  0.00000000000E+00  0.30000000000E+02  0.30000000000E+02  0.00000000000E+00 0.  1.
        -11   -1    0    0    0    0 -0.00000000000E+00 -0.00000000000E+00 -0.30000000000E+02  0.30000000000E+02  0.00000000000E+00 0. -1.
         23    2    1    2    0    0  0.00000000000E+00  0.00000000000E+00  0.00000000000E+00  0.60000000000E+02  0.60000000000E+02 0.  0.
          5    1    3    3  501    0  0.67492247984E+00  0.15119827842E+02 -0.25472441690E+02  0.30000000000E+02  0.47000000000E+01 0. -1.
         -5    1    3    3    0  501 -0.67492247984E+00 -0.15119827842E+02  0.25472441690E+02  0.30000000000E+02  0.47000000000E+01 0.  1.
</event>
<event>
 5    1  0.7673937E-002  0.6000000E+02  0.7546771E-02  0.1259629E+00
         11   -1    0    0    0    0  0.00000000000E+00  0.00000000000E+00  0.30000000000E+02  0.30000000000E+02  0.00000000000E+00 0.  1.
        -11   -1    0    0    0    0 -0.00000000000E+00 -0.00000000000E+00 -0.30000000000E+02  0.30000000000E+02  0.00000000000E+00 0. -1.
         23    2    1    2    0    0  0.00000000000E+00  0.00000000000E+00  0.00000000000E+00  0.60000000000E+02  0.60000000000E+02 0.  0.
          5    1    3    3  501    0 -0.15868698386E+02 -0.24998486928E+02 -0.10816944488E+01  0.30000000000E+02  0.47000000000E+01 0. -1.
         -5    1    3    3    0  501  0.15868698386E+02  0.24998486928E+02  0.10816944488E+01  0.30000000000E+02  0.47000000000E+01 0.  1.
</event>
<event>
 5    1  0.7673937E-002  0.6000000E+02  0.7546771E-02  0.1259629E+00
         11   -1    0    0    0    0  0.00000000000E+00  0.00000000000E+00  0.30000000000E+02  0.30000000000E+02  0.00000000000E+00 0. -1.
        -11   -1    0    0    0    0 -0.00000000000E+00 -0.00000000000E+00 -0.30000000000E+02  0.30000000000E+02  0.00000000000E+00 0.  1.
         23    2    1    2    0    0  0.00000000000E+00  0.00000000000E+00  0.00000000000E+00  0.60000000000E+02  0.60000000000E+02 0.  0.
          5    1    3    3  501    0  0.10765220841E+02 -0.17350094979E+02 -0.21470776056E+02  0.30000000000E+02  0.47000000000E+01 0.  1.
         -5    1    3    3    0  501 -0.10765220841E+02  0.17350094979E+02  0.21470776056E+02  0.30000000000E+02  0.47000000000E+01 0. -1.
</event>
<event>
 5    1  0.7673937E-002  0.6000000E+02  0.7546771E-02  0.1259629E+00
         11   -1    0    0    0    0  0.00000000000E+00  0.00000000000E+00  0.30000000000E+02  0.30000000000E+02  0.00000000000E+00 0.  1.
        -11   -1    0    0    0    0 -0.00000000000E+00 -0.00000000000E+00 -0.30000000000E+02  0.30000000000E+02  0.00000000000E+00 0. -1.
         23    2    1    2    0    0  0.00000000000E+00  0.00000000000E+00  0.00000000000E+00  0.60000000000E+02  0.60000000000E+02 0.  0.
          5    1    3    3  501    0  0.53601462815E+01 -0.82427410839E+01 -0.27950600195E+02  0.30000000000E+02  0.47000000000E+01 0. -1.
         -5    1    3    3    0  501 -0.53601462815E+01  0.82427410839E+01  0.27950600195E+02  0.30000000000E+02  0.47000000000E+01 0.  1.
</event>
<event>
 5    1  0.7673937E-002  0.6000000E+02  0.7546771E-02  0.1259629E+00
         11   -1    0    0    0    0  0.00000000000E+00  0.00000000000E+00  0.30000000000E+02  0.30000000000E+02  0.00000000000E+00 0.  1.
        -11   -1    0    0    0    0 -0.00000000000E+00 -0.00000000000E+00 -0.30000000000E+02  0.30000000000E+02  0.00000000000E+00 0. -1.
         23    2    1    2    0    0  0.00000000000E+00  0.00000000000E+00  0.00000000000E+00  0.60000000000E+02  0.60000000000E+02 0.  0.
          5    1    3    3  501    0  0.19130003165E+02 -0.16845666093E+02 -0.15105512662E+02  0.30000000000E+02  0.47000000000E+01 0. -1.
         -5    1    3    3    0  501 -0.19130003165E+02  0.16845666093E+02  0.15105512662E+02  0.30000000000E+02  0.47000000000E+01 0.  1.
</event>
<event>
 5    1  0.7673937E-002  0.6000000E+02  0.7546771E-02  0.1259629E+00
         11   -1    0    0    0    0  0.00000000000E+00  0.00000000000E+00  0.30000000000E+02  0.30000000000E+02  0.00000000000E+00 0. -1.
        -11   -1    0    0    0    0 -0.00000000000E+00 -0.00000000000E+00 -0.30000000000E+02  0.30000000000E+02  0.00000000000E+00 0.  1.
         23    2    1    2    0    0  0.00000000000E+00  0.00000000000E+00  0.00000000000E+00  0.60000000000E+02  0.60000000000E+02 0.  0.
          5    1    3    3  501    0  0.27821921190E+02  0.94781729736E+01 -0.37436530817E+01  0.30000000000E+02  0.47000000000E+01 0.  1.
         -5    1    3    3    0  501 -0.27821921190E+02 -0.94781729736E+01  0.37436530817E+01  0.30000000000E+02  0.47000000000E+01 0. -1.
</event>
<event>
 5    1  0.7673937E-002  0.6000000E+02  0.7546771E-02  0.1259629E+00
         11   -1    0    0    0    0  0.00000000000E+00  0.00000000000E+00  0.30000000000E+02  0.30000000000E+02  0.00000000000E+00 0.  1.
        -11   -1    0    0    0    0 -0.00000000000E+00 -0.00000000000E+00 -0.30000000000E+02  0.30000000000E+02  0.00000000000E+00 0. -1.
         23    2    1    2    0    0  0.00000000000E+00  0.00000000000E+00  0.00000000000E+00  0.60000000000E+02  0.60000000000E+02 0.  0.
          5    1    3    3  501    0 -0.35049649265E+01  0.18557149804E+02 -0.22831062437E+02  0.30000000000E+02  0.47000000000E+01 0. -1.
         -5    1    3    3    0  501  0.35049649265E+01 -0.18557149804E+02  0.22831062437E+02  0.30000000000E+02  0.47000000000E+01 0.  1.
</event>
<event>
 5    1  0.7673937E-002  0.6000000E+02  0.7546771E-02  0.1259629E+00
         11   -1    0    0    0    0  0.00000000000E+00  0.00000000000E+00  0.30000000000E+02  0.30000000000E+02  0.00000000000E+00 0.  1.
        -11   -1    0    0    0    0 -0.00000000000E+00 -0.00000000000E+00 -0.30000000000E+02  0.30000000000E+02  0.00000000000E+00 0. -1.
         23    2    1    2    0    0  0.00000000000E+00  0.00000000000E+00  0.00000000000E+00  0.60000000000E+02  0.60000000000E+02 0.  0.
          5    1    3    3  501    0  0.25320663671E+02 -0.95534346636E+01 -0.12062581705E+02  0.30000000000E+02  0.47000000000E+01 0. -1.
         -5    1    3    3    0  501 -0.25320663671E+02  0.95534346636E+01  0.12062581705E+02  0.30000000000E+02  0.47000000000E+01 0.  1.
</event>
<event>
 5    1  0.7673937E-002  0.6000000E+02  0.7546771E-02  0.1259629E+00
         11   -1    0    0    0    0  0.00000000000E+00  0.00000000000E+00  0.30000000000E+02  0.30000000000E+02  0.00000000000E+00 0. -1.
        -11   -1    0    0    0    0 -0.00000000000E+00 -0.00000000000E+00 -0.30000000000E+02  0.30000000000E+02  0.00000000000E+00 0.  1.
         23    2    1    2    0    0  0.00000000000E+00  0.00000000000E+00  0.00000000000E+00  0.60000000000E+02  0.60000000000E+02 0.  0.
          5    1    3    3  501    0 -0.24573411880E+02 -0.91381111381E+01 -0.13804070176E+02  0.30000000000E+02  0.47000000000E+01 0.  1.
         -5    1    3    3    0  501  0.24573411880E+02  0.91381111381E+01  0.13804070176E+02  0.30000000000E+02  0.47000000000E+01 0. -1.
</event>
<event>
 5    1  0.7673937E-002  0.6000000E+02  0.7546771E-02  0.1259629E+00
         11   -1    0    0    0    0  0.00000000000E+00  0.00000000000E+00  0.30000000000E+02  0.30000000000E+02  0.00000000000E+00 0. -1.
        -11   -1    0    0    0    0 -0.00000000000E+00 -0.00000000000E+00 -0.30000000000E+02  0.30000000000E+02  0.00000000000E+00 0.  1.
         23    2    1    2    0    0  0.00000000000E+00  0.00000000000E+00  0.00000000000E+00  0.60000000000E+02  0.60000000000E+02 0.  0.
          5    1    3    3  501    0 -0.13415011335E+02  0.23118478242E+01 -0.26317348470E+02  0.30000000000E+02  0.47000000000E+01 0.  1.
         -5    1    3    3    0  501  0.13415011335E+02 -0.23118478242E+01  0.26317348470E+02  0.30000000000E+02  0.47000000000E+01 0. -1.
</event>
<event>
 5    1  0.7673937E-002  0.6000000E+02  0.7546771E-02  0.1259629E+00
         11   -1    0    0    0    0  0.00000000000E+00  0.00000000000E+00  0.30000000000E+02  0.30000000000E+02  0.00000000000E+00 0.  1.
        -11   -1    0    0    0    0 -0.00000000000E+00 -0.00000000000E+00 -0.30000000000E+02  0.30000000000E+02  0.00000000000E+00 0. -1.
         23    2    1    2    0    0  0.00000000000E+00  0.00000000000E+00  0.00000000000E+00  0.60000000000E+02  0.60000000000E+02 0.  0.
          5    1    3    3  501    0  0.14050122600E+02  0.10363669572E+02 -0.23939473844E+02  0.30000000000E+02  0.47000000000E+01 0. -1.
         -5    1    3    3    0  501 -0.14050122600E+02 -0.10363669572E+02  0.23939473844E+02  0.30000000000E+02  0.47000000000E+01 0.  1.
</event>
<event>
 5    1  0.7673937E-002  0.6000000E+02  0.7546771E-02  0.1259629E+00
         11   -1    0    0    0    0  0.00000000000E+00  0.00000000000E+00  0.30000000000E+02  0.30000000000E+02  0.00000000000E+00 0.  1.
        -11   -1    0    0    0    0 -0.00000000000E+00 -0.00000000000E+00 -0.30000000000E+02  0.30000000000E+02  0.00000000000E+00 0. -1.
         23    2    1    2    0    0  0.00000000000E+00  0.00000000000E+00  0.00000000000E+00  0.60000000000E+02  0.60000000000E+02 0.  0.
          5    1    3    3  501    0 -0.11713982106E+02  0.26357469168E+02 -0.67805930634E+01  0.30000000000E+02  0.47000000000E+01 0. -1.
         -5    1    3    3    0  501  0.11713982106E+02 -0.26357469168E+02  0.67805930634E+01  0.30000000000E+02  0.47000000000E+01 0.  1.
</event>
<event>
 5    1  0.7673937E-002  0.6000000E+02  0.7546771E-02  0.1259629E+00
         11   -1    0    0    0    0  0.00000000000E+00  0.00000000000E+00  0.30000000000E+02  0.30000000000E+02  0.00000000000E+00 0.  1.
        -11   -1    0    0    0    0 -0.00000000000E+00 -0.00000000000E+00 -0.30000000000E+02  0.30000000000E+02  0.00000000000E+00 0. -1.
         23    2    1    2    0    0  0.00000000000E+00  0.00000000000E+00  0.00000000000E+00  0.60000000000E+02  0.60000000000E+02 0.  0.
          5    1    3    3  501    0 -0.12187400913E+02  0.56317932055E+01 -0.26413257358E+02  0.30000000000E+02  0.47000000000E+01 0. -1.
         -5    1    3    3    0  501  0.12187400913E+02 -0.56317932055E+01  0.26413257358E+02  0.30000000000E+02  0.47000000000E+01 0.  1.
</event>
<event>
 5    1  0.7673937E-002  0.6000000E+02  0.7546771E-02  0.1259629E+00
         11   -1    0    0    0    0  0.00000000000E+00  0.00000000000E+00  0.30000000000E+02  0.30000000000E+02  0.00000000000E+00 0. -1.
        -11   -1    0    0    0    0 -0.00000000000E+00 -0.00000000000E+00 -0.30000000000E+02  0.30000000000E+02  0.00000000000E+00 0.  1.
         23    2    1    2    0    0  0.00000000000E+00  0.00000000000E+00  0.00000000000E+00  0.60000000000E+02  0.60000000000E+02 0.  0.
          5    1    3    3  501    0 -0.56164766970E+01  0.24452125643E+02 -0.15762574062E+02  0.30000000000E+02  0.47000000000E+01 0.  1.
         -5    1    3    3    0  501  0.56164766970E+01 -0.24452125643E+02  0.15762574062E+02  0.30000000000E+02  0.47000000000E+01 0. -1.
</event>
<event>
 5    1  0.7673937E-002  0.6000000E+02  0.7546771E-02  0.1259629E+00
         11   -1    0    0    0    0  0.00000000000E+00  0.00000000000E+00  0.30000000000E+02  0.30000000000E+02  0.00000000000E+00 0.  1.
        -11   -1    0    0    0    0 -0.00000000000E+00 -0.00000000000E+00 -0.30000000000E+02  0.30000000000E+02  0.00000000000E+00 0. -1.
         23    2    1    2    0    0  0.00000000000E+00  0.00000000000E+00  0.00000000000E+00  0.60000000000E+02  0.60000000000E+02 0.  0.
          5    1    3    3  501    0  0.48944972996E+01  0.21107459353E+02 -0.20209627801E+02  0.30000000000E+02  0.47000000000E+01 0. -1.
         -5    1    3    3    0  501 -0.48944972996E+01 -0.21107459353E+02  0.20209627801E+02  0.30000000000E+02  0.47000000000E+01 0.  1.
</event>
<event>
 5    1  0.7673937E-002  0.6000000E+02  0.7546771E-02  0.1259629E+00
         11   -1    0    0    0    0  0.00000000000E+00  0.00000000000E+00  0.30000000000E+02  0.30000000000E+02  0.00000000000E+00 0. -1.
        -11   -1    0    0    0    0 -0.00000000000E+00 -0.00000000000E+00 -0.30000000000E+02  0.30000000000E+02  0.00000000000E+00 0.  1.
         23    2    1    2    0    0  0.00000000000E+00  0.00000000000E+00  0.00000000000E+00  0.60000000000E+02  0.60000000000E+02 0.  0.
          5    1    3    3  501    0  0.53983213618E+01  0.46451981161E+01 -0.28760915509E+02  0.30000000000E+02  0.47000000000E+01 0.  1.
         -5    1    3    3    0  501 -0.53983213618E+01 -0.46451981161E+01  0.28760915509E+02  0.30000000000E+02  0.47000000000E+01 0. -1.
</event>
<event>
 5    1  0.7673937E-002  0.6000000E+02  0.7546771E-02  0.1259629E+00
         11   -1    0    0    0    0  0.00000000000E+00  0.00000000000E+00  0.30000000000E+02  0.30000000000E+02  0.00000000000E+00 0. -1.
        -11   -1    0    0    0    0 -0.00000000000E+00 -0.00000000000E+00 -0.30000000000E+02  0.30000000000E+02  0.00000000000E+00 0.  1.
         23    2    1    2    0    0  0.00000000000E+00  0.00000000000E+00  0.00000000000E+00  0.60000000000E+02  0.60000000000E+02 0.  0.
          5    1    3    3  501    0  0.19399512720E+00 -0.20837644904E+02 -0.21063354926E+02  0.30000000000E+02  0.47000000000E+01 0.  1.
         -5    1    3    3    0  501 -0.19399512720E+00  0.20837644904E+02  0.21063354926E+02  0.30000000000E+02  0.47000000000E+01 0. -1.
</event>
<event>
 5    1  0.7673937E-002  0.6000000E+02  0.7546771E-02  0.1259629E+00
         11   -1    0    0    0    0  0.00000000000E+00  0.00000000000E+00  0.30000000000E+02  0.30000000000E+02  0.00000000000E+00 0.  1.
        -11   -1    0    0    0    0 -0.00000000000E+00 -0.00000000000E+00 -0.30000000000E+02  0.30000000000E+02  0.00000000000E+00 0. -1.
         23    2    1    2    0    0  0.00000000000E+00  0.00000000000E+00  0.00000000000E+00  0.60000000000E+02  0.60000000000E+02 0.  0.
          5    1    3    3  501    0  0.16730658860E+01  0.20817911819E+02 -0.21017264285E+02  0.30000000000E+02  0.47000000000E+01 0. -1.
         -5    1    3    3    0  501 -0.16730658860E+01 -0.20817911819E+02  0.21017264285E+02  0.30000000000E+02  0.47000000000E+01 0.  1.
</event>
<event>
 5    1  0.7673937E-002  0.6000000E+02  0.7546771E-02  0.1259629E+00
         11   -1    0    0    0    0  0.00000000000E+00  0.00000000000E+00  0.30000000000E+02  0.30000000000E+02  0.00000000000E+00 0. -1.
        -11   -1    0    0    0    0 -0.00000000000E+00 -0.00000000000E+00 -0.30000000000E+02  0.30000000000E+02  0.00000000000E+00 0.  1.
         23    2    1    2    0    0  0.00000000000E+00  0.00000000000E+00  0.00000000000E+00  0.60000000000E+02  0.60000000000E+02 0.  0.
          5    1    3    3  501    0  0.28151226893E+02  0.16290997039E+01  0.90974973793E+01  0.30000000000E+02  0.47000000000E+01 0. -1.
         -5    1    3    3    0  501 -0.28151226893E+02 -0.16290997039E+01 -0.90974973793E+01  0.30000000000E+02  0.47000000000E+01 0.  1.
</event>
<event>
 5    1  0.7673937E-002  0.6000000E+02  0.7546771E-02  0.1259629E+00
         11   -1    0    0    0    0  0.00000000000E+00  0.00000000000E+00  0.30000000000E+02  0.30000000000E+02  0.00000000000E+00 0.  1.
        -11   -1    0    0    0    0 -0.00000000000E+00 -0.00000000000E+00 -0.30000000000E+02  0.30000000000E+02  0.00000000000E+00 0. -1.
         23    2    1    2    0    0  0.00000000000E+00  0.00000000000E+00  0.00000000000E+00  0.60000000000E+02  0.60000000000E+02 0.  0.
          5    1    3    3  501    0  0.53456951941E+01  0.26452891959E+02 -0.12230210541E+02  0.30000000000E+02  0.47000000000E+01 0. -1.
         -5    1    3    3    0  501 -0.53456951941E+01 -0.26452891959E+02  0.12230210541E+02  0.30000000000E+02  0.47000000000E+01 0.  1.
</event>
<event>
 5    1  0.7673937E-002  0.6000000E+02  0.7546771E-02  0.1259629E+00
         11   -1    0    0    0    0  0.00000000000E+00  0.00000000000E+00  0.30000000000E+02  0.30000000000E+02  0.00000000000E+00 0. -1.
        -11   -1    0    0    0    0 -0.00000000000E+00 -0.00000000000E+00 -0.30000000000E+02  0.30000000000E+02  0.00000000000E+00 0.  1.
         23    2    1    2    0    0  0.00000000000E+00  0.00000000000E+00  0.00000000000E+00  0.60000000000E+02  0.60000000000E+02 0.  0.
          5    1    3    3  501    0  0.23012212648E+02  0.24410869132E+01 -0.18503760800E+02  0.30000000000E+02  0.47000000000E+01 0.  1.
         -5    1    3    3    0  501 -0.23012212648E+02 -0.24410869132E+01  0.18503760800E+02  0.30000000000E+02  0.47000000000E+01 0. -1.
</event>
<event>
 5    1  0.7673937E-002  0.6000000E+02  0.7546771E-02  0.1259629E+00
         11   -1    0    0    0    0  0.00000000000E+00  0.00000000000E+00  0.30000000000E+02  0.30000000000E+02  0.00000000000E+00 0.  1.
        -11   -1    0    0    0    0 -0.00000000000E+00 -0.00000000000E+00 -0.30000000000E+02  0.30000000000E+02  0.00000000000E+00 0. -1.
         23    2    1    2    0    0  0.00000000000E+00  0.00000000000E+00  0.00000000000E+00  0.60000000000E+02  0.60000000000E+02 0.  0.
          5    1    3    3  501    0 -0.84631594069E+01 -0.90531829867E+01  0.26913283164E+02  0.30000000000E+02  0.47000000000E+01 0.  1.
         -5    1    3    3    0  501  0.84631594069E+01  0.90531829867E+01 -0.26913283164E+02  0.30000000000E+02  0.47000000000E+01 0. -1.
</event>
<event>
 5    1  0.7673937E-002  0.6000000E+02  0.7546771E-02  0.1259629E+00
         11   -1    0    0    0    0  0.00000000000E+00  0.00000000000E+00  0.30000000000E+02  0.30000000000E+02  0.00000000000E+00 0.  1.
        -11   -1    0    0    0    0 -0.00000000000E+00 -0.00000000000E+00 -0.30000000000E+02  0.30000000000E+02  0.00000000000E+00 0. -1.
         23    2    1    2    0    0  0.00000000000E+00  0.00000000000E+00  0.00000000000E+00  0.60000000000E+02  0.60000000000E+02 0.  0.
          5    1    3    3  501    0 -0.11720268594E+02 -0.18433730058E+02 -0.20018563891E+02  0.30000000000E+02  0.47000000000E+01 0. -1.
         -5    1    3    3    0  501  0.11720268594E+02  0.18433730058E+02  0.20018563891E+02  0.30000000000E+02  0.47000000000E+01 0.  1.
</event>
<event>
 5    1  0.7673937E-002  0.6000000E+02  0.7546771E-02  0.1259629E+00
         11   -1    0    0    0    0  0.00000000000E+00  0.00000000000E+00  0.30000000000E+02  0.30000000000E+02  0.00000000000E+00 0.  1.
        -11   -1    0    0    0    0 -0.00000000000E+00 -0.00000000000E+00 -0.30000000000E+02  0.30000000000E+02  0.00000000000E+00 0. -1.
         23    2    1    2    0    0  0.00000000000E+00  0.00000000000E+00  0.00000000000E+00  0.60000000000E+02  0.60000000000E+02 0.  0.
          5    1    3    3  501    0  0.19976813830E+02 -0.50015953454E+00 -0.21876625645E+02  0.30000000000E+02  0.47000000000E+01 0. -1.
         -5    1    3    3    0  501 -0.19976813830E+02  0.50015953454E+00  0.21876625645E+02  0.30000000000E+02  0.47000000000E+01 0.  1.
</event>
<event>
 5    1  0.7673937E-002  0.6000000E+02  0.7546771E-02  0.1259629E+00
         11   -1    0    0    0    0  0.00000000000E+00  0.00000000000E+00  0.30000000000E+02  0.30000000000E+02  0.00000000000E+00 0.  1.
        -11   -1    0    0    0    0 -0.00000000000E+00 -0.00000000000E+00 -0.30000000000E+02  0.30000000000E+02  0.00000000000E+00 0. -1.
         23    2    1    2    0    0  0.00000000000E+00  0.00000000000E+00  0.00000000000E+00  0.60000000000E+02  0.60000000000E+02 0.  0.
          5    1    3    3  501    0  0.17684017534E+01  0.13212182890E+02 -0.26461688882E+02  0.30000000000E+02  0.47000000000E+01 0. -1.
         -5    1    3    3    0  501 -0.17684017534E+01 -0.13212182890E+02  0.26461688882E+02  0.30000000000E+02  0.47000000000E+01 0.  1.
</event>
<event>
 5    1  0.7673937E-002  0.6000000E+02  0.7546771E-02  0.1259629E+00
         11   -1    0    0    0    0  0.00000000000E+00  0.00000000000E+00  0.30000000000E+02  0.30000000000E+02  0.00000000000E+00 0.  1.
        -11   -1    0    0    0    0 -0.00000000000E+00 -0.00000000000E+00 -0.30000000000E+02  0.30000000000E+02  0.00000000000E+00 0. -1.
         23    2    1    2    0    0  0.00000000000E+00  0.00000000000E+00  0.00000000000E+00  0.60000000000E+02  0.60000000000E+02 0.  0.
          5    1    3    3  501    0 -0.18158386883E+02 -0.14007549080E+02 -0.18760904951E+02  0.30000000000E+02  0.47000000000E+01 0. -1.
         -5    1    3    3    0  501  0.18158386883E+02  0.14007549080E+02  0.18760904951E+02  0.30000000000E+02  0.47000000000E+01 0.  1.
</event>
<event>
 5    1  0.7673937E-002  0.6000000E+02  0.7546771E-02  0.1259629E+00
         11   -1    0    0    0    0  0.00000000000E+00  0.00000000000E+00  0.30000000000E+02  0.30000000000E+02  0.00000000000E+00 0.  1.
        -11   -1    0    0    0    0 -0.00000000000E+00 -0.00000000000E+00 -0.30000000000E+02  0.30000000000E+02  0.00000000000E+00 0. -1.
         23    2    1    2    0    0  0.00000000000E+00  0.00000000000E+00  0.00000000000E+00  0.60000000000E+02  0.60000000000E+02 0.  0.
          5    1    3    3  501    0 -0.82047454518E+01  0.14044386737E+02 -0.24765850545E+02  0.30000000000E+02  0.47000000000E+01 0. -1.
         -5    1    3    3    0  501  0.82047454518E+01 -0.14044386737E+02  0.24765850545E+02  0.30000000000E+02  0.47000000000E+01 0.  1.
</event>
<event>
 5    1  0.7673937E-002  0.6000000E+02  0.7546771E-02  0.1259629E+00
         11   -1    0    0    0    0  0.00000000000E+00  0.00000000000E+00  0.30000000000E+02  0.30000000000E+02  0.00000000000E+00 0.  1.
        -11   -1    0    0    0    0 -0.00000000000E+00 -0.00000000000E+00 -0.30000000000E+02  0.30000000000E+02  0.00000000000E+00 0. -1.
         23    2    1    2    0    0  0.00000000000E+00  0.00000000000E+00  0.00000000000E+00  0.60000000000E+02  0.60000000000E+02 0.  0.
          5    1    3    3  501    0  0.12482888473E+02 -0.26869533772E+02 -0.34007388276E+00  0.30000000000E+02  0.47000000000E+01 0. -1.
         -5    1    3    3    0  501 -0.12482888473E+02  0.26869533772E+02  0.34007388276E+00  0.30000000000E+02  0.47000000000E+01 0.  1.
</event>
<event>
 5    1  0.7673937E-002  0.6000000E+02  0.7546771E-02  0.1259629E+00
         11   -1    0    0    0    0  0.00000000000E+00  0.00000000000E+00  0.30000000000E+02  0.30000000000E+02  0.00000000000E+00 0.  1.
        -11   -1    0    0    0    0 -0.00000000000E+00 -0.00000000000E+00 -0.30000000000E+02  0.30000000000E+02  0.00000000000E+00 0. -1.
         23    2    1    2    0    0  0.00000000000E+00  0.00000000000E+00  0.00000000000E+00  0.60000000000E+02  0.60000000000E+02 0.  0.
          5    1    3    3  501    0  0.29088645271E+02 -0.16087484629E+01 -0.54011706747E+01  0.30000000000E+02  0.47000000000E+01 0. -1.
         -5    1    3    3    0  501 -0.29088645271E+02  0.16087484629E+01  0.54011706747E+01  0.30000000000E+02  0.47000000000E+01 0.  1.
</event>
<event>
 5    1  0.7673937E-002  0.6000000E+02  0.7546771E-02  0.1259629E+00
         11   -1    0    0    0    0  0.00000000000E+00  0.00000000000E+00  0.30000000000E+02  0.30000000000E+02  0.00000000000E+00 0. -1.
        -11   -1    0    0    0    0 -0.00000000000E+00 -0.00000000000E+00 -0.30000000000E+02  0.30000000000E+02  0.00000000000E+00 0.  1.
         23    2    1    2    0    0  0.00000000000E+00  0.00000000000E+00  0.00000000000E+00  0.60000000000E+02  0.60000000000E+02 0.  0.
          5    1    3    3  501    0 -0.95868034363E+01  0.25938473364E+02 -0.10639492441E+02  0.30000000000E+02  0.47000000000E+01 0.  1.
         -5    1    3    3    0  501  0.95868034363E+01 -0.25938473364E+02  0.10639492441E+02  0.30000000000E+02  0.47000000000E+01 0. -1.
</event>
<event>
 5    1  0.7673937E-002  0.6000000E+02  0.7546771E-02  0.1259629E+00
         11   -1    0    0    0    0  0.00000000000E+00  0.00000000000E+00  0.30000000000E+02  0.30000000000E+02  0.00000000000E+00 0.  1.
        -11   -1    0    0    0    0 -0.00000000000E+00 -0.00000000000E+00 -0.30000000000E+02  0.30000000000E+02  0.00000000000E+00 0. -1.
         23    2    1    2    0    0  0.00000000000E+00  0.00000000000E+00  0.00000000000E+00  0.60000000000E+02  0.60000000000E+02 0.  0.
          5    1    3    3  501    0 -0.90208753925E+01  0.15734162069E+02 -0.23430107792E+02  0.30000000000E+02  0.47000000000E+01 0. -1.
         -5    1    3    3    0  501  0.90208753925E+01 -0.15734162069E+02  0.23430107792E+02  0.30000000000E+02  0.47000000000E+01 0.  1.
</event>
<event>
 5    1  0.7673937E-002  0.6000000E+02  0.7546771E-02  0.1259629E+00
         11   -1    0    0    0    0  0.00000000000E+00  0.00000000000E+00  0.30000000000E+02  0.30000000000E+02  0.00000000000E+00 0.  1.
        -11   -1    0    0    0    0 -0.00000000000E+00 -0.00000000000E+00 -0.30000000000E+02  0.30000000000E+02  0.00000000000E+00 0. -1.
         23    2    1    2    0    0  0.00000000000E+00  0.00000000000E+00  0.00000000000E+00  0.60000000000E+02  0.60000000000E+02 0.  0.
          5    1    3    3  501    0 -0.15704262257E+02 -0.92729016347E+01 -0.23351647527E+02  0.30000000000E+02  0.47000000000E+01 0. -1.
         -5    1    3    3    0  501  0.15704262257E+02  0.92729016347E+01  0.23351647527E+02  0.30000000000E+02  0.47000000000E+01 0.  1.
</event>
<event>
 5    1  0.7673937E-002  0.6000000E+02  0.7546771E-02  0.1259629E+00
         11   -1    0    0    0    0  0.00000000000E+00  0.00000000000E+00  0.30000000000E+02  0.30000000000E+02  0.00000000000E+00 0. -1.
        -11   -1    0    0    0    0 -0.00000000000E+00 -0.00000000000E+00 -0.30000000000E+02  0.30000000000E+02  0.00000000000E+00 0.  1.
         23    2    1    2    0    0  0.00000000000E+00  0.00000000000E+00  0.00000000000E+00  0.60000000000E+02  0.60000000000E+02 0.  0.
          5    1    3    3  501    0 -0.16700000588E+02  0.23140716221E+02  0.79703972998E+01  0.30000000000E+02  0.47000000000E+01 0. -1.
         -5    1    3    3    0  501  0.16700000588E+02 -0.23140716221E+02 -0.79703972998E+01  0.30000000000E+02  0.47000000000E+01 0.  1.
</event>
<event>
 5    1  0.7673937E-002  0.6000000E+02  0.7546771E-02  0.1259629E+00
         11   -1    0    0    0    0  0.00000000000E+00  0.00000000000E+00  0.30000000000E+02  0.30000000000E+02  0.00000000000E+00 0. -1.
        -11   -1    0    0    0    0 -0.00000000000E+00 -0.00000000000E+00 -0.30000000000E+02  0.30000000000E+02  0.00000000000E+00 0.  1.
         23    2    1    2    0    0  0.00000000000E+00  0.00000000000E+00  0.00000000000E+00  0.60000000000E+02  0.60000000000E+02 0.  0.
          5    1    3    3  501    0  0.21895457585E+02 -0.58327703744E+01 -0.19091299770E+02  0.30000000000E+02  0.47000000000E+01 0.  1.
         -5    1    3    3    0  501 -0.21895457585E+02  0.58327703744E+01  0.19091299770E+02  0.30000000000E+02  0.47000000000E+01 0. -1.
</event>
<event>
 5    1  0.7673937E-002  0.6000000E+02  0.7546771E-02  0.1259629E+00
         11   -1    0    0    0    0  0.00000000000E+00  0.00000000000E+00  0.30000000000E+02  0.30000000000E+02  0.00000000000E+00 0. -1.
        -11   -1    0    0    0    0 -0.00000000000E+00 -0.00000000000E+00 -0.30000000000E+02  0.30000000000E+02  0.00000000000E+00 0.  1.
         23    2    1    2    0    0  0.00000000000E+00  0.00000000000E+00  0.00000000000E+00  0.60000000000E+02  0.60000000000E+02 0.  0.
          5    1    3    3  501    0 -0.60770166894E+00  0.39906927557E+00 -0.29620625287E+02  0.30000000000E+02  0.47000000000E+01 0.  1.
         -5    1    3    3    0  501  0.60770166894E+00 -0.39906927557E+00  0.29620625287E+02  0.30000000000E+02  0.47000000000E+01 0. -1.
</event>
<event>
 5    1  0.7673937E-002  0.6000000E+02  0.7546771E-02  0.1259629E+00
         11   -1    0    0    0    0  0.00000000000E+00  0.00000000000E+00  0.30000000000E+02  0.30000000000E+02  0.00000000000E+00 0.  1.
        -11   -1    0    0    0    0 -0.00000000000E+00 -0.00000000000E+00 -0.30000000000E+02  0.30000000000E+02  0.00000000000E+00 0. -1.
         23    2    1    2    0    0  0.00000000000E+00  0.00000000000E+00  0.00000000000E+00  0.60000000000E+02  0.60000000000E+02 0.  0.
          5    1    3    3  501    0  0.23124333434E+02 -0.63870481799E+01 -0.17389100574E+02  0.30000000000E+02  0.47000000000E+01 0. -1.
         -5    1    3    3    0  501 -0.23124333434E+02  0.63870481799E+01  0.17389100574E+02  0.30000000000E+02  0.47000000000E+01 0.  1.
</event>
<event>
 5    1  0.7673937E-002  0.6000000E+02  0.7546771E-02  0.1259629E+00
         11   -1    0    0    0    0  0.00000000000E+00  0.00000000000E+00  0.30000000000E+02  0.30000000000E+02  0.00000000000E+00 0. -1.
        -11   -1    0    0    0    0 -0.00000000000E+00 -0.00000000000E+00 -0.30000000000E+02  0.30000000000E+02  0.00000000000E+00 0.  1.
         23    2    1    2    0    0  0.00000000000E+00  0.00000000000E+00  0.00000000000E+00  0.60000000000E+02  0.60000000000E+02 0.  0.
          5    1    3    3  501    0  0.19306937625E+02 -0.19846325685E+02  0.10548721077E+02  0.30000000000E+02  0.47000000000E+01 0.  1.
         -5    1    3    3    0  501 -0.19306937625E+02  0.19846325685E+02 -0.10548721077E+02  0.30000000000E+02  0.47000000000E+01 0. -1.
</event>
<event>
 5    1  0.7673937E-002  0.6000000E+02  0.7546771E-02  0.1259629E+00
         11   -1    0    0    0    0  0.00000000000E+00  0.00000000000E+00  0.30000000000E+02  0.30000000000E+02  0.00000000000E+00 0.  1.
        -11   -1    0    0    0    0 -0.00000000000E+00 -0.00000000000E+00 -0.30000000000E+02  0.30000000000E+02  0.00000000000E+00 0. -1.
         23    2    1    2    0    0  0.00000000000E+00  0.00000000000E+00  0.00000000000E+00  0.60000000000E+02  0.60000000000E+02 0.  0.
          5    1    3    3  501    0 -0.11527978990E+02  0.27027133112E+02  0.38144168853E+01  0.30000000000E+02  0.47000000000E+01 0. -1.
         -5    1    3    3    0  501  0.11527978990E+02 -0.27027133112E+02 -0.38144168853E+01  0.30000000000E+02  0.47000000000E+01 0.  1.
</event>
<event>
 5    1  0.7673937E-002  0.6000000E+02  0.7546771E-02  0.1259629E+00
         11   -1    0    0    0    0  0.00000000000E+00  0.00000000000E+00  0.30000000000E+02  0.30000000000E+02  0.00000000000E+00 0.  1.
        -11   -1    0    0    0    0 -0.00000000000E+00 -0.00000000000E+00 -0.30000000000E+02  0.30000000000E+02  0.00000000000E+00 0. -1.
         23    2    1    2    0    0  0.00000000000E+00  0.00000000000E+00  0.00000000000E+00  0.60000000000E+02  0.60000000000E+02 0.  0.
          5    1    3    3  501    0 -0.38296127825E+01  0.12391996565E+02 -0.26639866499E+02  0.30000000000E+02  0.47000000000E+01 0. -1.
         -5    1    3    3    0  501  0.38296127825E+01 -0.12391996565E+02  0.26639866499E+02  0.30000000000E+02  0.47000000000E+01 0.  1.
</event>
<event>
 5    1  0.7673937E-002  0.6000000E+02  0.7546771E-02  0.1259629E+00
         11   -1    0    0    0    0  0.00000000000E+00  0.00000000000E+00  0.30000000000E+02  0.30000000000E+02  0.00000000000E+00 0.  1.
        -11   -1    0    0    0    0 -0.00000000000E+00 -0.00000000000E+00 -0.30000000000E+02  0.30000000000E+02  0.00000000000E+00 0. -1.
         23    2    1    2    0    0  0.00000000000E+00  0.00000000000E+00  0.00000000000E+00  0.60000000000E+02  0.60000000000E+02 0.  0.
          5    1    3    3  501    0 -0.83519095915E+01  0.25841666280E+02  0.11847526748E+02  0.30000000000E+02  0.47000000000E+01 0. -1.
         -5    1    3    3    0  501  0.83519095915E+01 -0.25841666280E+02 -0.11847526748E+02  0.30000000000E+02  0.47000000000E+01 0.  1.
</event>
<event>
 5    1  0.7673937E-002  0.6000000E+02  0.7546771E-02  0.1259629E+00
         11   -1    0    0    0    0  0.00000000000E+00  0.00000000000E+00  0.30000000000E+02  0.30000000000E+02  0.00000000000E+00 0.  1.
        -11   -1    0    0    0    0 -0.00000000000E+00 -0.00000000000E+00 -0.30000000000E+02  0.30000000000E+02  0.00000000000E+00 0. -1.
         23    2    1    2    0    0  0.00000000000E+00  0.00000000000E+00  0.00000000000E+00  0.60000000000E+02  0.60000000000E+02 0.  0.
          5    1    3    3  501    0  0.52920645718E+01 -0.23026449084E+02 -0.17879784538E+02  0.30000000000E+02  0.47000000000E+01 0. -1.
         -5    1    3    3    0  501 -0.52920645718E+01  0.23026449084E+02  0.17879784538E+02  0.30000000000E+02  0.47000000000E+01 0.  1.
</event>
<event>
 5    1  0.7673937E-002  0.6000000E+02  0.7546771E-02  0.1259629E+00
         11   -1    0    0    0    0  0.00000000000E+00  0.00000000000E+00  0.30000000000E+02  0.30000000000E+02  0.00000000000E+00 0.  1.
        -11   -1    0    0    0    0 -0.00000000000E+00 -0.00000000000E+00 -0.30000000000E+02  0.30000000000E+02  0.00000000000E+00 0. -1.
         23    2    1    2    0    0  0.00000000000E+00  0.00000000000E+00  0.00000000000E+00  0.60000000000E+02  0.60000000000E+02 0.  0.
          5    1    3    3  501    0 -0.42426676728E+01 -0.29307832168E+02 -0.98017580838E+00  0.30000000000E+02  0.47000000000E+01 0. -1.
         -5    1    3    3    0  501  0.42426676728E+01  0.29307832168E+02  0.98017580838E+00  0.30000000000E+02  0.47000000000E+01 0.  1.
</event>
<event>
 5    1  0.7673937E-002  0.6000000E+02  0.7546771E-02  0.1259629E+00
         11   -1    0    0    0    0  0.00000000000E+00  0.00000000000E+00  0.30000000000E+02  0.30000000000E+02  0.00000000000E+00 0.  1.
        -11   -1    0    0    0    0 -0.00000000000E+00 -0.00000000000E+00 -0.30000000000E+02  0.30000000000E+02  0.00000000000E+00 0. -1.
         23    2    1    2    0    0  0.00000000000E+00  0.00000000000E+00  0.00000000000E+00  0.60000000000E+02  0.60000000000E+02 0.  0.
          5    1    3    3  501    0 -0.14319834224E+02  0.25362422985E+02 -0.54405742484E+01  0.30000000000E+02  0.47000000000E+01 0. -1.
         -5    1    3    3    0  501  0.14319834224E+02 -0.25362422985E+02  0.54405742484E+01  0.30000000000E+02  0.47000000000E+01 0.  1.
</event>
<event>
 5    1  0.7673937E-002  0.6000000E+02  0.7546771E-02  0.1259629E+00
         11   -1    0    0    0    0  0.00000000000E+00  0.00000000000E+00  0.30000000000E+02  0.30000000000E+02  0.00000000000E+00 0. -1.
        -11   -1    0    0    0    0 -0.00000000000E+00 -0.00000000000E+00 -0.30000000000E+02  0.30000000000E+02  0.00000000000E+00 0.  1.
         23    2    1    2    0    0  0.00000000000E+00  0.00000000000E+00  0.00000000000E+00  0.60000000000E+02  0.60000000000E+02 0.  0.
          5    1    3    3  501    0 -0.13946146953E+02  0.24189281523E+02 -0.99143151340E+01  0.30000000000E+02  0.47000000000E+01 0.  1.
         -5    1    3    3    0  501  0.13946146953E+02 -0.24189281523E+02  0.99143151340E+01  0.30000000000E+02  0.47000000000E+01 0. -1.
</event>
<event>
 5    1  0.7673937E-002  0.6000000E+02  0.7546771E-02  0.1259629E+00
         11   -1    0    0    0    0  0.00000000000E+00  0.00000000000E+00  0.30000000000E+02  0.30000000000E+02  0.00000000000E+00 0. -1.
        -11   -1    0    0    0    0 -0.00000000000E+00 -0.00000000000E+00 -0.30000000000E+02  0.30000000000E+02  0.00000000000E+00 0.  1.
         23    2    1    2    0    0  0.00000000000E+00  0.00000000000E+00  0.00000000000E+00  0.60000000000E+02  0.60000000000E+02 0.  0.
          5    1    3    3  501    0  0.24419186865E+02  0.16748594062E+02 -0.10478119020E+01  0.30000000000E+02  0.47000000000E+01 0.  1.
         -5    1    3    3    0  501 -0.24419186865E+02 -0.16748594062E+02  0.10478119020E+01  0.30000000000E+02  0.47000000000E+01 0. -1.
</event>
<event>
 5    1  0.7673937E-002  0.6000000E+02  0.7546771E-02  0.1259629E+00
         11   -1    0    0    0    0  0.00000000000E+00  0.00000000000E+00  0.30000000000E+02  0.30000000000E+02  0.00000000000E+00 0.  1.
        -11   -1    0    0    0    0 -0.00000000000E+00 -0.00000000000E+00 -0.30000000000E+02  0.30000000000E+02  0.00000000000E+00 0. -1.
         23    2    1    2    0    0  0.00000000000E+00  0.00000000000E+00  0.00000000000E+00  0.60000000000E+02  0.60000000000E+02 0.  0.
          5    1    3    3  501    0  0.13297715926E+02 -0.18239689497E+02 -0.19193605139E+02  0.30000000000E+02  0.47000000000E+01 0. -1.
         -5    1    3    3    0  501 -0.13297715926E+02  0.18239689497E+02  0.19193605139E+02  0.30000000000E+02  0.47000000000E+01 0.  1.
</event>
<event>
 5    1  0.7673937E-002  0.6000000E+02  0.7546771E-02  0.1259629E+00
         11   -1    0    0    0    0  0.00000000000E+00  0.00000000000E+00  0.30000000000E+02  0.30000000000E+02  0.00000000000E+00 0.  1.
        -11   -1    0    0    0    0 -0.00000000000E+00 -0.00000000000E+00 -0.30000000000E+02  0.30000000000E+02  0.00000000000E+00 0. -1.
         23    2    1    2    0    0  0.00000000000E+00  0.00000000000E+00  0.00000000000E+00  0.60000000000E+02  0.60000000000E+02 0.  0.
          5    1    3    3  501    0 -0.23572012548E+02 -0.14908573154E+02 -0.10000233545E+02  0.30000000000E+02  0.47000000000E+01 0. -1.
         -5    1    3    3    0  501  0.23572012548E+02  0.14908573154E+02  0.10000233545E+02  0.30000000000E+02  0.47000000000E+01 0.  1.
</event>
<event>
 5    1  0.7673937E-002  0.6000000E+02  0.7546771E-02  0.1259629E+00
         11   -1    0    0    0    0  0.00000000000E+00  0.00000000000E+00  0.30000000000E+02  0.30000000000E+02  0.00000000000E+00 0.  1.
        -11   -1    0    0    0    0 -0.00000000000E+00 -0.00000000000E+00 -0.30000000000E+02  0.30000000000E+02  0.00000000000E+00 0. -1.
         23    2    1    2    0    0  0.00000000000E+00  0.00000000000E+00  0.00000000000E+00  0.60000000000E+02  0.60000000000E+02 0.  0.
          5    1    3    3  501    0 -0.46806021843E+01 -0.29077267614E+02 -0.32426025468E+01  0.30000000000E+02  0.47000000000E+01 0. -1.
         -5    1    3    3    0  501  0.46806021843E+01  0.29077267614E+02  0.32426025468E+01  0.30000000000E+02  0.47000000000E+01 0.  1.
</event>
<event>
 5    1  0.7673937E-002  0.6000000E+02  0.7546771E-02  0.1259629E+00
         11   -1    0    0    0    0  0.00000000000E+00  0.00000000000E+00  0.30000000000E+02  0.30000000000E+02  0.00000000000E+00 0.  1.
        -11   -1    0    0    0    0 -0.00000000000E+00 -0.00000000000E+00 -0.30000000000E+02  0.30000000000E+02  0.00000000000E+00 0. -1.
         23    2    1    2    0    0  0.00000000000E+00  0.00000000000E+00  0.00000000000E+00  0.60000000000E+02  0.60000000000E+02 0.  0.
          5    1    3    3  501    0  0.99546646432E+01 -0.18971680877E+02 -0.20466801815E+02  0.30000000000E+02  0.47000000000E+01 0. -1.
         -5    1    3    3    0  501 -0.99546646432E+01  0.18971680877E+02  0.20466801815E+02  0.30000000000E+02  0.47000000000E+01 0.  1.
</event>
<event>
 5    1  0.7673937E-002  0.6000000E+02  0.7546771E-02  0.1259629E+00
         11   -1    0    0    0    0  0.00000000000E+00  0.00000000000E+00  0.30000000000E+02  0.30000000000E+02  0.00000000000E+00 0.  1.
        -11   -1    0    0    0    0 -0.00000000000E+00 -0.00000000000E+00 -0.30000000000E+02  0.30000000000E+02  0.00000000000E+00 0. -1.
         23    2    1    2    0    0  0.00000000000E+00  0.00000000000E+00  0.00000000000E+00  0.60000000000E+02  0.60000000000E+02 0.  0.
          5    1    3    3  501    0 -0.14986855944E+02 -0.20726239372E+02  0.14957511504E+02  0.30000000000E+02  0.47000000000E+01 0.  1.
         -5    1    3    3    0  501  0.14986855944E+02  0.20726239372E+02 -0.14957511504E+02  0.30000000000E+02  0.47000000000E+01 0. -1.
</event>
<event>
 5    1  0.7673937E-002  0.6000000E+02  0.7546771E-02  0.1259629E+00
         11   -1    0    0    0    0  0.00000000000E+00  0.00000000000E+00  0.30000000000E+02  0.30000000000E+02  0.00000000000E+00 0.  1.
        -11   -1    0    0    0    0 -0.00000000000E+00 -0.00000000000E+00 -0.30000000000E+02  0.30000000000E+02  0.00000000000E+00 0. -1.
         23    2    1    2    0    0  0.00000000000E+00  0.00000000000E+00  0.00000000000E+00  0.60000000000E+02  0.60000000000E+02 0.  0.
          5    1    3    3  501    0  0.12705441136E+02 -0.26698782759E+02 -0.19122669085E+01  0.30000000000E+02  0.47000000000E+01 0. -1.
         -5    1    3    3    0  501 -0.12705441136E+02  0.26698782759E+02  0.19122669085E+01  0.30000000000E+02  0.47000000000E+01 0.  1.
</event>
<event>
 5    1  0.7673937E-002  0.6000000E+02  0.7546771E-02  0.1259629E+00
         11   -1    0    0    0    0  0.00000000000E+00  0.00000000000E+00  0.30000000000E+02  0.30000000000E+02  0.00000000000E+00 0.  1.
        -11   -1    0    0    0    0 -0.00000000000E+00 -0.00000000000E+00 -0.30000000000E+02  0.30000000000E+02  0.00000000000E+00 0. -1.
         23    2    1    2    0    0  0.00000000000E+00  0.00000000000E+00  0.00000000000E+00  0.60000000000E+02  0.60000000000E+02 0.  0.
          5    1    3    3  501    0 -0.73947312683E+01 -0.26375643679E+02 -0.11293952806E+02  0.30000000000E+02  0.47000000000E+01 0. -1.
         -5    1    3    3    0  501  0.73947312683E+01  0.26375643679E+02  0.11293952806E+02  0.30000000000E+02  0.47000000000E+01 0.  1.
</event>
<event>
 5    1  0.7673937E-002  0.6000000E+02  0.7546771E-02  0.1259629E+00
         11   -1    0    0    0    0  0.00000000000E+00  0.00000000000E+00  0.30000000000E+02  0.30000000000E+02  0.00000000000E+00 0.  1.
        -11   -1    0    0    0    0 -0.00000000000E+00 -0.00000000000E+00 -0.30000000000E+02  0.30000000000E+02  0.00000000000E+00 0. -1.
         23    2    1    2    0    0  0.00000000000E+00  0.00000000000E+00  0.00000000000E+00  0.60000000000E+02  0.60000000000E+02 0.  0.
          5    1    3    3  501    0 -0.24494731114E+02 -0.10703744213E+02 -0.12780767093E+02  0.30000000000E+02  0.47000000000E+01 0. -1.
         -5    1    3    3    0  501  0.24494731114E+02  0.10703744213E+02  0.12780767093E+02  0.30000000000E+02  0.47000000000E+01 0.  1.
</event>
<event>
 5    1  0.7673937E-002  0.6000000E+02  0.7546771E-02  0.1259629E+00
         11   -1    0    0    0    0  0.00000000000E+00  0.00000000000E+00  0.30000000000E+02  0.30000000000E+02  0.00000000000E+00 0.  1.
        -11   -1    0    0    0    0 -0.00000000000E+00 -0.00000000000E+00 -0.30000000000E+02  0.30000000000E+02  0.00000000000E+00 0. -1.
         23    2    1    2    0    0  0.00000000000E+00  0.00000000000E+00  0.00000000000E+00  0.60000000000E+02  0.60000000000E+02 0.  0.
          5    1    3    3  501    0 -0.20861495929E+01  0.10269852810E+02 -0.27714402449E+02  0.30000000000E+02  0.47000000000E+01 0. -1.
         -5    1    3    3    0  501  0.20861495929E+01 -0.10269852810E+02  0.27714402449E+02  0.30000000000E+02  0.47000000000E+01 0.  1.
</event>
<event>
 5    1  0.7673937E-002  0.6000000E+02  0.7546771E-02  0.1259629E+00
         11   -1    0    0    0    0  0.00000000000E+00  0.00000000000E+00  0.30000000000E+02  0.30000000000E+02  0.00000000000E+00 0.  1.
        -11   -1    0    0    0    0 -0.00000000000E+00 -0.00000000000E+00 -0.30000000000E+02  0.30000000000E+02  0.00000000000E+00 0. -1.
         23    2    1    2    0    0  0.00000000000E+00  0.00000000000E+00  0.00000000000E+00  0.60000000000E+02  0.60000000000E+02 0.  0.
          5    1    3    3  501    0 -0.15253196841E+02  0.24726697488E+02 -0.58172517113E+01  0.30000000000E+02  0.47000000000E+01 0. -1.
         -5    1    3    3    0  501  0.15253196841E+02 -0.24726697488E+02  0.58172517113E+01  0.30000000000E+02  0.47000000000E+01 0.  1.
</event>
<event>
 5    1  0.7673937E-002  0.6000000E+02  0.7546771E-02  0.1259629E+00
         11   -1    0    0    0    0  0.00000000000E+00  0.00000000000E+00  0.30000000000E+02  0.30000000000E+02  0.00000000000E+00 0.  1.
        -11   -1    0    0    0    0 -0.00000000000E+00 -0.00000000000E+00 -0.30000000000E+02  0.30000000000E+02  0.00000000000E+00 0. -1.
         23    2    1    2    0    0  0.00000000000E+00  0.00000000000E+00  0.00000000000E+00  0.60000000000E+02  0.60000000000E+02 0.  0.
          5    1    3    3  501    0 -0.12057393795E+02 -0.24463245364E+02 -0.11579243548E+02  0.30000000000E+02  0.47000000000E+01 0. -1.
         -5    1    3    3    0  501  0.12057393795E+02  0.24463245364E+02  0.11579243548E+02  0.30000000000E+02  0.47000000000E+01 0.  1.
</event>
<event>
 5    1  0.7673937E-002  0.6000000E+02  0.7546771E-02  0.1259629E+00
         11   -1    0    0    0    0  0.00000000000E+00  0.00000000000E+00  0.30000000000E+02  0.30000000000E+02  0.00000000000E+00 0. -1.
        -11   -1    0    0    0    0 -0.00000000000E+00 -0.00000000000E+00 -0.30000000000E+02  0.30000000000E+02  0.00000000000E+00 0.  1.
         23    2    1    2    0    0  0.00000000000E+00  0.00000000000E+00  0.00000000000E+00  0.60000000000E+02  0.60000000000E+02 0.  0.
          5    1    3    3  501    0 -0.27422862256E+02  0.43755028280E+00 -0.11211831939E+02  0.30000000000E+02  0.47000000000E+01 0. -1.
         -5    1    3    3    0  501  0.27422862256E+02 -0.43755028280E+00  0.11211831939E+02  0.30000000000E+02  0.47000000000E+01 0.  1.
</event>
<event>
 5    1  0.7673937E-002  0.6000000E+02  0.7546771E-02  0.1259629E+00
         11   -1    0    0    0    0  0.00000000000E+00  0.00000000000E+00  0.30000000000E+02  0.30000000000E+02  0.00000000000E+00 0.  1.
        -11   -1    0    0    0    0 -0.00000000000E+00 -0.00000000000E+00 -0.30000000000E+02  0.30000000000E+02  0.00000000000E+00 0. -1.
         23    2    1    2    0    0  0.00000000000E+00  0.00000000000E+00  0.00000000000E+00  0.60000000000E+02  0.60000000000E+02 0.  0.
          5    1    3    3  501    0 -0.19130755827E+02 -0.16756437799E+02  0.15203485580E+02  0.30000000000E+02  0.47000000000E+01 0. -1.
         -5    1    3    3    0  501  0.19130755827E+02  0.16756437799E+02 -0.15203485580E+02  0.30000000000E+02  0.47000000000E+01 0.  1.
</event>
<event>
 5    1  0.7673937E-002  0.6000000E+02  0.7546771E-02  0.1259629E+00
         11   -1    0    0    0    0  0.00000000000E+00  0.00000000000E+00  0.30000000000E+02  0.30000000000E+02  0.00000000000E+00 0.  1.
        -11   -1    0    0    0    0 -0.00000000000E+00 -0.00000000000E+00 -0.30000000000E+02  0.30000000000E+02  0.00000000000E+00 0. -1.
         23    2    1    2    0    0  0.00000000000E+00  0.00000000000E+00  0.00000000000E+00  0.60000000000E+02  0.60000000000E+02 0.  0.
          5    1    3    3  501    0  0.18030042090E+02 -0.74197832963E+00 -0.23500575533E+02  0.30000000000E+02  0.47000000000E+01 0. -1.
         -5    1    3    3    0  501 -0.18030042090E+02  0.74197832963E+00  0.23500575533E+02  0.30000000000E+02  0.47000000000E+01 0.  1.
</event>
<event>
 5    1  0.7673937E-002  0.6000000E+02  0.7546771E-02  0.1259629E+00
         11   -1    0    0    0    0  0.00000000000E+00  0.00000000000E+00  0.30000000000E+02  0.30000000000E+02  0.00000000000E+00 0.  1.
        -11   -1    0    0    0    0 -0.00000000000E+00 -0.00000000000E+00 -0.30000000000E+02  0.30000000000E+02  0.00000000000E+00 0. -1.
         23    2    1    2    0    0  0.00000000000E+00  0.00000000000E+00  0.00000000000E+00  0.60000000000E+02  0.60000000000E+02 0.  0.
          5    1    3    3  501    0  0.83123961323E+01 -0.22843301643E+02 -0.16941004710E+02  0.30000000000E+02  0.47000000000E+01 0. -1.
         -5    1    3    3    0  501 -0.83123961323E+01  0.22843301643E+02  0.16941004710E+02  0.30000000000E+02  0.47000000000E+01 0.  1.
</event>
<event>
 5    1  0.7673937E-002  0.6000000E+02  0.7546771E-02  0.1259629E+00
         11   -1    0    0    0    0  0.00000000000E+00  0.00000000000E+00  0.30000000000E+02  0.30000000000E+02  0.00000000000E+00 0.  1.
        -11   -1    0    0    0    0 -0.00000000000E+00 -0.00000000000E+00 -0.30000000000E+02  0.30000000000E+02  0.00000000000E+00 0. -1.
         23    2    1    2    0    0  0.00000000000E+00  0.00000000000E+00  0.00000000000E+00  0.60000000000E+02  0.60000000000E+02 0.  0.
          5    1    3    3  501    0  0.12234673721E+02  0.85613378679E+01 -0.25591526974E+02  0.30000000000E+02  0.47000000000E+01 0. -1.
         -5    1    3    3    0  501 -0.12234673721E+02 -0.85613378679E+01  0.25591526974E+02  0.30000000000E+02  0.47000000000E+01 0.  1.
</event>
<event>
 5    1  0.7673937E-002  0.6000000E+02  0.7546771E-02  0.1259629E+00
         11   -1    0    0    0    0  0.00000000000E+00  0.00000000000E+00  0.30000000000E+02  0.30000000000E+02  0.00000000000E+00 0.  1.
        -11   -1    0    0    0    0 -0.00000000000E+00 -0.00000000000E+00 -0.30000000000E+02  0.30000000000E+02  0.00000000000E+00 0. -1.
         23    2    1    2    0    0  0.00000000000E+00  0.00000000000E+00  0.00000000000E+00  0.60000000000E+02  0.60000000000E+02 0.  0.
          5    1    3    3  501    0  0.13090090796E+02 -0.11815728787E+02  0.23810671477E+02  0.30000000000E+02  0.47000000000E+01 0.  1.
         -5    1    3    3    0  501 -0.13090090796E+02  0.11815728787E+02 -0.23810671477E+02  0.30000000000E+02  0.47000000000E+01 0. -1.
</event>
<event>
 5    1  0.7673937E-002  0.6000000E+02  0.7546771E-02  0.1259629E+00
         11   -1    0    0    0    0  0.00000000000E+00  0.00000000000E+00  0.30000000000E+02  0.30000000000E+02  0.00000000000E+00 0.  1.
        -11   -1    0    0    0    0 -0.00000000000E+00 -0.00000000000E+00 -0.30000000000E+02  0.30000000000E+02  0.00000000000E+00 0. -1.
         23    2    1    2    0    0  0.00000000000E+00  0.00000000000E+00  0.00000000000E+00  0.60000000000E+02  0.60000000000E+02 0.  0.
          5    1    3    3  501    0 -0.11823329625E+02  0.31117184065E+01 -0.26989555112E+02  0.30000000000E+02  0.47000000000E+01 0. -1.
         -5    1    3    3    0  501  0.11823329625E+02 -0.31117184065E+01  0.26989555112E+02  0.30000000000E+02  0.47000000000E+01 0.  1.
</event>
<event>
 5    1  0.7673937E-002  0.6000000E+02  0.7546771E-02  0.1259629E+00
         11   -1    0    0    0    0  0.00000000000E+00  0.00000000000E+00  0.30000000000E+02  0.30000000000E+02  0.00000000000E+00 0.  1.
        -11   -1    0    0    0    0 -0.00000000000E+00 -0.00000000000E+00 -0.30000000000E+02  0.30000000000E+02  0.00000000000E+00 0. -1.
         23    2    1    2    0    0  0.00000000000E+00  0.00000000000E+00  0.00000000000E+00  0.60000000000E+02  0.60000000000E+02 0.  0.
          5    1    3    3  501    0 -0.12557156974E+02  0.13164363306E+02 -0.23386477877E+02  0.30000000000E+02  0.47000000000E+01 0. -1.
         -5    1    3    3    0  501  0.12557156974E+02 -0.13164363306E+02  0.23386477877E+02  0.30000000000E+02  0.47000000000E+01 0.  1.
</event>
<event>
 5    1  0.7673937E-002  0.6000000E+02  0.7546771E-02  0.1259629E+00
         11   -1    0    0    0    0  0.00000000000E+00  0.00000000000E+00  0.30000000000E+02  0.30000000000E+02  0.00000000000E+00 0.  1.
        -11   -1    0    0    0    0 -0.00000000000E+00 -0.00000000000E+00 -0.30000000000E+02  0.30000000000E+02  0.00000000000E+00 0. -1.
         23    2    1    2    0    0  0.00000000000E+00  0.00000000000E+00  0.00000000000E+00  0.60000000000E+02  0.60000000000E+02 0.  0.
          5    1    3    3  501    0 -0.26658415663E+02 -0.12310000953E+02 -0.39626696670E+01  0.30000000000E+02  0.47000000000E+01 0. -1.
         -5    1    3    3    0  501  0.26658415663E+02  0.12310000953E+02  0.39626696670E+01  0.30000000000E+02  0.47000000000E+01 0.  1.
</event>
<event>
 5    1  0.7673937E-002  0.6000000E+02  0.7546771E-02  0.1259629E+00
         11   -1    0    0    0    0  0.00000000000E+00  0.00000000000E+00  0.30000000000E+02  0.30000000000E+02  0.00000000000E+00 0. -1.
        -11   -1    0    0    0    0 -0.00000000000E+00 -0.00000000000E+00 -0.30000000000E+02  0.30000000000E+02  0.00000000000E+00 0.  1.
         23    2    1    2    0    0  0.00000000000E+00  0.00000000000E+00  0.00000000000E+00  0.60000000000E+02  0.60000000000E+02 0.  0.
          5    1    3    3  501    0  0.10977291149E+02 -0.20770003338E+02 -0.18055914278E+02  0.30000000000E+02  0.47000000000E+01 0.  1.
         -5    1    3    3    0  501 -0.10977291149E+02  0.20770003338E+02  0.18055914278E+02  0.30000000000E+02  0.47000000000E+01 0. -1.
</event>
<event>
 5    1  0.7673937E-002  0.6000000E+02  0.7546771E-02  0.1259629E+00
         11   -1    0    0    0    0  0.00000000000E+00  0.00000000000E+00  0.30000000000E+02  0.30000000000E+02  0.00000000000E+00 0.  1.
        -11   -1    0    0    0    0 -0.00000000000E+00 -0.00000000000E+00 -0.30000000000E+02  0.30000000000E+02  0.00000000000E+00 0. -1.
         23    2    1    2    0    0  0.00000000000E+00  0.00000000000E+00  0.00000000000E+00  0.60000000000E+02  0.60000000000E+02 0.  0.
          5    1    3    3  501    0  0.65019925454E+01 -0.53564893172E+00 -0.28902373141E+02  0.30000000000E+02  0.47000000000E+01 0. -1.
         -5    1    3    3    0  501 -0.65019925454E+01  0.53564893172E+00  0.28902373141E+02  0.30000000000E+02  0.47000000000E+01 0.  1.
</event>
<event>
 5    1  0.7673937E-002  0.6000000E+02  0.7546771E-02  0.1259629E+00
         11   -1    0    0    0    0  0.00000000000E+00  0.00000000000E+00  0.30000000000E+02  0.30000000000E+02  0.00000000000E+00 0.  1.
        -11   -1    0    0    0    0 -0.00000000000E+00 -0.00000000000E+00 -0.30000000000E+02  0.30000000000E+02  0.00000000000E+00 0. -1.
         23    2    1    2    0    0  0.00000000000E+00  0.00000000000E+00  0.00000000000E+00  0.60000000000E+02  0.60000000000E+02 0.  0.
          5    1    3    3  501    0 -0.27588991588E+02  0.27599224455E+01 -0.10447026910E+02  0.30000000000E+02  0.47000000000E+01 0. -1.
         -5    1    3    3    0  501  0.27588991588E+02 -0.27599224455E+01  0.10447026910E+02  0.30000000000E+02  0.47000000000E+01 0.  1.
</event>
<event>
 5    1  0.7673937E-002  0.6000000E+02  0.7546771E-02  0.1259629E+00
         11   -1    0    0    0    0  0.00000000000E+00  0.00000000000E+00  0.30000000000E+02  0.30000000000E+02  0.00000000000E+00 0.  1.
        -11   -1    0    0    0    0 -0.00000000000E+00 -0.00000000000E+00 -0.30000000000E+02  0.30000000000E+02  0.00000000000E+00 0. -1.
         23    2    1    2    0    0  0.00000000000E+00  0.00000000000E+00  0.00000000000E+00  0.60000000000E+02  0.60000000000E+02 0.  0.
          5    1    3    3  501    0  0.30724812796E+01 -0.28374815429E+02 -0.79586247648E+01  0.30000000000E+02  0.47000000000E+01 0. -1.
         -5    1    3    3    0  501 -0.30724812796E+01  0.28374815429E+02  0.79586247648E+01  0.30000000000E+02  0.47000000000E+01 0.  1.
</event>
<event>
 5    1  0.7673937E-002  0.6000000E+02  0.7546771E-02  0.1259629E+00
         11   -1    0    0    0    0  0.00000000000E+00  0.00000000000E+00  0.30000000000E+02  0.30000000000E+02  0.00000000000E+00 0.  1.
        -11   -1    0    0    0    0 -0.00000000000E+00 -0.00000000000E+00 -0.30000000000E+02  0.30000000000E+02  0.00000000000E+00 0. -1.
         23    2    1    2    0    0  0.00000000000E+00  0.00000000000E+00  0.00000000000E+00  0.60000000000E+02  0.60000000000E+02 0.  0.
          5    1    3    3  501    0 -0.93629251650E+01  0.10981334770E+02 -0.25877710853E+02  0.30000000000E+02  0.47000000000E+01 0. -1.
         -5    1    3    3    0  501  0.93629251650E+01 -0.10981334770E+02  0.25877710853E+02  0.30000000000E+02  0.47000000000E+01 0.  1.
</event>
<event>
 5    1  0.7673937E-002  0.6000000E+02  0.7546771E-02  0.1259629E+00
         11   -1    0    0    0    0  0.00000000000E+00  0.00000000000E+00  0.30000000000E+02  0.30000000000E+02  0.00000000000E+00 0. -1.
        -11   -1    0    0    0    0 -0.00000000000E+00 -0.00000000000E+00 -0.30000000000E+02  0.30000000000E+02  0.00000000000E+00 0.  1.
         23    2    1    2    0    0  0.00000000000E+00  0.00000000000E+00  0.00000000000E+00  0.60000000000E+02  0.60000000000E+02 0.  0.
          5    1    3    3  501    0  0.25407458611E+02 -0.29807585844E+01 -0.14949452337E+02  0.30000000000E+02  0.47000000000E+01 0.  1.
         -5    1    3    3    0  501 -0.25407458611E+02  0.29807585844E+01  0.14949452337E+02  0.30000000000E+02  0.47000000000E+01 0. -1.
</event>
<event>
 5    1  0.7673937E-002  0.6000000E+02  0.7546771E-02  0.1259629E+00
         11   -1    0    0    0    0  0.00000000000E+00  0.00000000000E+00  0.30000000000E+02  0.30000000000E+02  0.00000000000E+00 0.  1.
        -11   -1    0    0    0    0 -0.00000000000E+00 -0.00000000000E+00 -0.30000000000E+02  0.30000000000E+02  0.00000000000E+00 0. -1.
         23    2    1    2    0    0  0.00000000000E+00  0.00000000000E+00  0.00000000000E+00  0.60000000000E+02  0.60000000000E+02 0.  0.
          5    1    3    3  501    0  0.22887234572E+02  0.56686532529E+00 -0.18808592646E+02  0.30000000000E+02  0.47000000000E+01 0. -1.
         -5    1    3    3    0  501 -0.22887234572E+02 -0.56686532529E+00  0.18808592646E+02  0.30000000000E+02  0.47000000000E+01 0.  1.
</event>
<event>
 5    1  0.7673937E-002  0.6000000E+02  0.7546771E-02  0.1259629E+00
         11   -1    0    0    0    0  0.00000000000E+00  0.00000000000E+00  0.30000000000E+02  0.30000000000E+02  0.00000000000E+00 0.  1.
        -11   -1    0    0    0    0 -0.00000000000E+00 -0.00000000000E+00 -0.30000000000E+02  0.30000000000E+02  0.00000000000E+00 0. -1.
         23    2    1    2    0    0  0.00000000000E+00  0.00000000000E+00  0.00000000000E+00  0.60000000000E+02  0.60000000000E+02 0.  0.
          5    1    3    3  501    0  0.25327636340E+02 -0.14934056098E+02  0.36598915168E+01  0.30000000000E+02  0.47000000000E+01 0. -1.
         -5    1    3    3    0  501 -0.25327636340E+02  0.14934056098E+02 -0.36598915168E+01  0.30000000000E+02  0.47000000000E+01 0.  1.
</event>
<event>
 5    1  0.7673937E-002  0.6000000E+02  0.7546771E-02  0.1259629E+00
         11   -1    0    0    0    0  0.00000000000E+00  0.00000000000E+00  0.30000000000E+02  0.30000000000E+02  0.00000000000E+00 0. -1.
        -11   -1    0    0    0    0 -0.00000000000E+00 -0.00000000000E+00 -0.30000000000E+02  0.30000000000E+02  0.00000000000E+00 0.  1.
         23    2    1    2    0    0  0.00000000000E+00  0.00000000000E+00  0.00000000000E+00  0.60000000000E+02  0.60000000000E+02 0.  0.
          5    1    3    3  501    0 -0.20520309885E+02 -0.13107767369E+02  0.16882337422E+02  0.30000000000E+02  0.47000000000E+01 0. -1.
         -5    1    3    3    0  501  0.20520309885E+02  0.13107767369E+02 -0.16882337422E+02  0.30000000000E+02  0.47000000000E+01 0.  1.
</event>
<event>
 5    1  0.7673937E-002  0.6000000E+02  0.7546771E-02  0.1259629E+00
         11   -1    0    0    0    0  0.00000000000E+00  0.00000000000E+00  0.30000000000E+02  0.30000000000E+02  0.00000000000E+00 0. -1.
        -11   -1    0    0    0    0 -0.00000000000E+00 -0.00000000000E+00 -0.30000000000E+02  0.30000000000E+02  0.00000000000E+00 0.  1.
         23    2    1    2    0    0  0.00000000000E+00  0.00000000000E+00  0.00000000000E+00  0.60000000000E+02  0.60000000000E+02 0.  0.
          5    1    3    3  501    0 -0.18040856064E+02  0.68113652185E+01 -0.22495395447E+02  0.30000000000E+02  0.47000000000E+01 0.  1.
         -5    1    3    3    0  501  0.18040856064E+02 -0.68113652185E+01  0.22495395447E+02  0.30000000000E+02  0.47000000000E+01 0. -1.
</event>
<event>
 5    1  0.7673937E-002  0.6000000E+02  0.7546771E-02  0.1259629E+00
         11   -1    0    0    0    0  0.00000000000E+00  0.00000000000E+00  0.30000000000E+02  0.30000000000E+02  0.00000000000E+00 0.  1.
        -11   -1    0    0    0    0 -0.00000000000E+00 -0.00000000000E+00 -0.30000000000E+02  0.30000000000E+02  0.00000000000E+00 0. -1.
         23    2    1    2    0    0  0.00000000000E+00  0.00000000000E+00  0.00000000000E+00  0.60000000000E+02  0.60000000000E+02 0.  0.
          5    1    3    3  501    0 -0.21580761833E+02  0.69158013804E+01  0.19088017444E+02  0.30000000000E+02  0.47000000000E+01 0.  1.
         -5    1    3    3    0  501  0.21580761833E+02 -0.69158013804E+01 -0.19088017444E+02  0.30000000000E+02  0.47000000000E+01 0. -1.
</event>
<event>
 5    1  0.7673937E-002  0.6000000E+02  0.7546771E-02  0.1259629E+00
         11   -1    0    0    0    0  0.00000000000E+00  0.00000000000E+00  0.30000000000E+02  0.30000000000E+02  0.00000000000E+00 0.  1.
        -11   -1    0    0    0    0 -0.00000000000E+00 -0.00000000000E+00 -0.30000000000E+02  0.30000000000E+02  0.00000000000E+00 0. -1.
         23    2    1    2    0    0  0.00000000000E+00  0.00000000000E+00  0.00000000000E+00  0.60000000000E+02  0.60000000000E+02 0.  0.
          5    1    3    3  501    0 -0.22422132478E+01  0.25217034329E+02 -0.15394273591E+02  0.30000000000E+02  0.47000000000E+01 0. -1.
         -5    1    3    3    0  501  0.22422132478E+01 -0.25217034329E+02  0.15394273591E+02  0.30000000000E+02  0.47000000000E+01 0.  1.
</event>
<event>
 5    1  0.7673937E-002  0.6000000E+02  0.7546771E-02  0.1259629E+00
         11   -1    0    0    0    0  0.00000000000E+00  0.00000000000E+00  0.30000000000E+02  0.30000000000E+02  0.00000000000E+00 0.  1.
        -11   -1    0    0    0    0 -0.00000000000E+00 -0.00000000000E+00 -0.30000000000E+02  0.30000000000E+02  0.00000000000E+00 0. -1.
         23    2    1    2    0    0  0.00000000000E+00  0.00000000000E+00  0.00000000000E+00  0.60000000000E+02  0.60000000000E+02 0.  0.
          5    1    3    3  501    0 -0.69541862403E+01 -0.27070711685E+00 -0.28800625191E+02  0.30000000000E+02  0.47000000000E+01 0. -1.
         -5    1    3    3    0  501  0.69541862403E+01  0.27070711685E+00  0.28800625191E+02  0.30000000000E+02  0.47000000000E+01 0.  1.
</event>
<event>
 5    1  0.7673937E-002  0.6000000E+02  0.7546771E-02  0.1259629E+00
         11   -1    0    0    0    0  0.00000000000E+00  0.00000000000E+00  0.30000000000E+02  0.30000000000E+02  0.00000000000E+00 0.  1.
        -11   -1    0    0    0    0 -0.00000000000E+00 -0.00000000000E+00 -0.30000000000E+02  0.30000000000E+02  0.00000000000E+00 0. -1.
         23    2    1    2    0    0  0.00000000000E+00  0.00000000000E+00  0.00000000000E+00  0.60000000000E+02  0.60000000000E+02 0.  0.
          5    1    3    3  501    0 -0.12488690737E+01 -0.47614944429E+01  0.29217777066E+02  0.30000000000E+02  0.47000000000E+01 0.  1.
         -5    1    3    3    0  501  0.12488690737E+01  0.47614944429E+01 -0.29217777066E+02  0.30000000000E+02  0.47000000000E+01 0. -1.
</event>
<event>
 5    1  0.7673937E-002  0.6000000E+02  0.7546771E-02  0.1259629E+00
         11   -1    0    0    0    0  0.00000000000E+00  0.00000000000E+00  0.30000000000E+02  0.30000000000E+02  0.00000000000E+00 0.  1.
        -11   -1    0    0    0    0 -0.00000000000E+00 -0.00000000000E+00 -0.30000000000E+02  0.30000000000E+02  0.00000000000E+00 0. -1.
         23    2    1    2    0    0  0.00000000000E+00  0.00000000000E+00  0.00000000000E+00  0.60000000000E+02  0.60000000000E+02 0.  0.
          5    1    3    3  501    0 -0.78941822644E+01  0.16967468363E+01 -0.28508120537E+02  0.30000000000E+02  0.47000000000E+01 0. -1.
         -5    1    3    3    0  501  0.78941822644E+01 -0.16967468363E+01  0.28508120537E+02  0.30000000000E+02  0.47000000000E+01 0.  1.
</event>
<event>
 5    1  0.7673937E-002  0.6000000E+02  0.7546771E-02  0.1259629E+00
         11   -1    0    0    0    0  0.00000000000E+00  0.00000000000E+00  0.30000000000E+02  0.30000000000E+02  0.00000000000E+00 0.  1.
        -11   -1    0    0    0    0 -0.00000000000E+00 -0.00000000000E+00 -0.30000000000E+02  0.30000000000E+02  0.00000000000E+00 0. -1.
         23    2    1    2    0    0  0.00000000000E+00  0.00000000000E+00  0.00000000000E+00  0.60000000000E+02  0.60000000000E+02 0.  0.
          5    1    3    3  501    0  0.23394919330E+02 -0.14472405680E+02  0.11006235659E+02  0.30000000000E+02  0.47000000000E+01 0.  1.
         -5    1    3    3    0  501 -0.23394919330E+02  0.14472405680E+02 -0.11006235659E+02  0.30000000000E+02  0.47000000000E+01 0. -1.
</event>
<event>
 5    1  0.7673937E-002  0.6000000E+02  0.7546771E-02  0.1259629E+00
         11   -1    0    0    0    0  0.00000000000E+00  0.00000000000E+00  0.30000000000E+02  0.30000000000E+02  0.00000000000E+00 0. -1.
        -11   -1    0    0    0    0 -0.00000000000E+00 -0.00000000000E+00 -0.30000000000E+02  0.30000000000E+02  0.00000000000E+00 0.  1.
         23    2    1    2    0    0  0.00000000000E+00  0.00000000000E+00  0.00000000000E+00  0.60000000000E+02  0.60000000000E+02 0.  0.
          5    1    3    3  501    0  0.22175097664E+02 -0.89257271980E+01  0.17507325254E+02  0.30000000000E+02  0.47000000000E+01 0. -1.
         -5    1    3    3    0  501 -0.22175097664E+02  0.89257271980E+01 -0.17507325254E+02  0.30000000000E+02  0.47000000000E+01 0.  1.
</event>
<event>
 5    1  0.7673937E-002  0.6000000E+02  0.7546771E-02  0.1259629E+00
         11   -1    0    0    0    0  0.00000000000E+00  0.00000000000E+00  0.30000000000E+02  0.30000000000E+02  0.00000000000E+00 0.  1.
        -11   -1    0    0    0    0 -0.00000000000E+00 -0.00000000000E+00 -0.30000000000E+02  0.30000000000E+02  0.00000000000E+00 0. -1.
         23    2    1    2    0    0  0.00000000000E+00  0.00000000000E+00  0.00000000000E+00  0.60000000000E+02  0.60000000000E+02 0.  0.
          5    1    3    3  501    0  0.22681115437E+02  0.18915985209E+02 -0.23796020907E+01  0.30000000000E+02  0.47000000000E+01 0. -1.
         -5    1    3    3    0  501 -0.22681115437E+02 -0.18915985209E+02  0.23796020907E+01  0.30000000000E+02  0.47000000000E+01 0.  1.
</event>
<event>
 5    1  0.7673937E-002  0.6000000E+02  0.7546771E-02  0.1259629E+00
         11   -1    0    0    0    0  0.00000000000E+00  0.00000000000E+00  0.30000000000E+02  0.30000000000E+02  0.00000000000E+00 0. -1.
        -11   -1    0    0    0    0 -0.00000000000E+00 -0.00000000000E+00 -0.30000000000E+02  0.30000000000E+02  0.00000000000E+00 0.  1.
         23    2    1    2    0    0  0.00000000000E+00  0.00000000000E+00  0.00000000000E+00  0.60000000000E+02  0.60000000000E+02 0.  0.
          5    1    3    3  501    0 -0.31258959770E+01  0.17436323605E+02 -0.23751071418E+02  0.30000000000E+02  0.47000000000E+01 0.  1.
         -5    1    3    3    0  501  0.31258959770E+01 -0.17436323605E+02  0.23751071418E+02  0.30000000000E+02  0.47000000000E+01 0. -1.
</event>
<event>
 5    1  0.7673937E-002  0.6000000E+02  0.7546771E-02  0.1259629E+00
         11   -1    0    0    0    0  0.00000000000E+00  0.00000000000E+00  0.30000000000E+02  0.30000000000E+02  0.00000000000E+00 0. -1.
        -11   -1    0    0    0    0 -0.00000000000E+00 -0.00000000000E+00 -0.30000000000E+02  0.30000000000E+02  0.00000000000E+00 0.  1.
         23    2    1    2    0    0  0.00000000000E+00  0.00000000000E+00  0.00000000000E+00  0.60000000000E+02  0.60000000000E+02 0.  0.
          5    1    3    3  501    0 -0.70509623730E+01 -0.20652778779E+02 -0.20041373664E+02  0.30000000000E+02  0.47000000000E+01 0.  1.
         -5    1    3    3    0  501  0.70509623730E+01  0.20652778779E+02  0.20041373664E+02  0.30000000000E+02  0.47000000000E+01 0. -1.
</event>
<event>
 5    1  0.7673937E-002  0.6000000E+02  0.7546771E-02  0.1259629E+00
         11   -1    0    0    0    0  0.00000000000E+00  0.00000000000E+00  0.30000000000E+02  0.30000000000E+02  0.00000000000E+00 0.  1.
        -11   -1    0    0    0    0 -0.00000000000E+00 -0.00000000000E+00 -0.30000000000E+02  0.30000000000E+02  0.00000000000E+00 0. -1.
         23    2    1    2    0    0  0.00000000000E+00  0.00000000000E+00  0.00000000000E+00  0.60000000000E+02  0.60000000000E+02 0.  0.
          5    1    3    3  501    0  0.22213992969E+02  0.89016407669E+00 -0.19587141810E+02  0.30000000000E+02  0.47000000000E+01 0. -1.
         -5    1    3    3    0  501 -0.22213992969E+02 -0.89016407669E+00  0.19587141810E+02  0.30000000000E+02  0.47000000000E+01 0.  1.
</event>
<event>
 5    1  0.7673937E-002  0.6000000E+02  0.7546771E-02  0.1259629E+00
         11   -1    0    0    0    0  0.00000000000E+00  0.00000000000E+00  0.30000000000E+02  0.30000000000E+02  0.00000000000E+00 0.  1.
        -11   -1    0    0    0    0 -0.00000000000E+00 -0.00000000000E+00 -0.30000000000E+02  0.30000000000E+02  0.00000000000E+00 0. -1.
         23    2    1    2    0    0  0.00000000000E+00  0.00000000000E+00  0.00000000000E+00  0.60000000000E+02  0.60000000000E+02 0.  0.
          5    1    3    3  501    0 -0.10535640682E+02  0.21561300173E+02 -0.17378740180E+02  0.30000000000E+02  0.47000000000E+01 0. -1.
         -5    1    3    3    0  501  0.10535640682E+02 -0.21561300173E+02  0.17378740180E+02  0.30000000000E+02  0.47000000000E+01 0.  1.
</event>
<event>
 5    1  0.7673937E-002  0.6000000E+02  0.7546771E-02  0.1259629E+00
         11   -1    0    0    0    0  0.00000000000E+00  0.00000000000E+00  0.30000000000E+02  0.30000000000E+02  0.00000000000E+00 0.  1.
        -11   -1    0    0    0    0 -0.00000000000E+00 -0.00000000000E+00 -0.30000000000E+02  0.30000000000E+02  0.00000000000E+00 0. -1.
         23    2    1    2    0    0  0.00000000000E+00  0.00000000000E+00  0.00000000000E+00  0.60000000000E+02  0.60000000000E+02 0.  0.
          5    1    3    3  501    0  0.20059656984E+02 -0.19315519341E+02  0.10120813914E+02  0.30000000000E+02  0.47000000000E+01 0. -1.
         -5    1    3    3    0  501 -0.20059656984E+02  0.19315519341E+02 -0.10120813914E+02  0.30000000000E+02  0.47000000000E+01 0.  1.
</event>
<event>
 5    1  0.7673937E-002  0.6000000E+02  0.7546771E-02  0.1259629E+00
         11   -1    0    0    0    0  0.00000000000E+00  0.00000000000E+00  0.30000000000E+02  0.30000000000E+02  0.00000000000E+00 0.  1.
        -11   -1    0    0    0    0 -0.00000000000E+00 -0.00000000000E+00 -0.30000000000E+02  0.30000000000E+02  0.00000000000E+00 0. -1.
         23    2    1    2    0    0  0.00000000000E+00  0.00000000000E+00  0.00000000000E+00  0.60000000000E+02  0.60000000000E+02 0.  0.
          5    1    3    3  501    0 -0.68868409216E+01  0.24918921541E+02  0.14475108683E+02  0.30000000000E+02  0.47000000000E+01 0. -1.
         -5    1    3    3    0  501  0.68868409216E+01 -0.24918921541E+02 -0.14475108683E+02  0.30000000000E+02  0.47000000000E+01 0.  1.
</event>
<event>
 5    1  0.7673937E-002  0.6000000E+02  0.7546771E-02  0.1259629E+00
         11   -1    0    0    0    0  0.00000000000E+00  0.00000000000E+00  0.30000000000E+02  0.30000000000E+02  0.00000000000E+00 0. -1.
        -11   -1    0    0    0    0 -0.00000000000E+00 -0.00000000000E+00 -0.30000000000E+02  0.30000000000E+02  0.00000000000E+00 0.  1.
         23    2    1    2    0    0  0.00000000000E+00  0.00000000000E+00  0.00000000000E+00  0.60000000000E+02  0.60000000000E+02 0.  0.
          5    1    3    3  501    0 -0.11094578583E+02  0.13013480513E+02 -0.24196480136E+02  0.30000000000E+02  0.47000000000E+01 0.  1.
         -5    1    3    3    0  501  0.11094578583E+02 -0.13013480513E+02  0.24196480136E+02  0.30000000000E+02  0.47000000000E+01 0. -1.
</event>
<event>
 5    1  0.7673937E-002  0.6000000E+02  0.7546771E-02  0.1259629E+00
         11   -1    0    0    0    0  0.00000000000E+00  0.00000000000E+00  0.30000000000E+02  0.30000000000E+02  0.00000000000E+00 0.  1.
        -11   -1    0    0    0    0 -0.00000000000E+00 -0.00000000000E+00 -0.30000000000E+02  0.30000000000E+02  0.00000000000E+00 0. -1.
         23    2    1    2    0    0  0.00000000000E+00  0.00000000000E+00  0.00000000000E+00  0.60000000000E+02  0.60000000000E+02 0.  0.
          5    1    3    3  501    0  0.20847465882E+02  0.84740807321E+01 -0.19273897428E+02  0.30000000000E+02  0.47000000000E+01 0. -1.
         -5    1    3    3    0  501 -0.20847465882E+02 -0.84740807321E+01  0.19273897428E+02  0.30000000000E+02  0.47000000000E+01 0.  1.
</event>
<event>
 5    1  0.7673937E-002  0.6000000E+02  0.7546771E-02  0.1259629E+00
         11   -1    0    0    0    0  0.00000000000E+00  0.00000000000E+00  0.30000000000E+02  0.30000000000E+02  0.00000000000E+00 0.  1.
        -11   -1    0    0    0    0 -0.00000000000E+00 -0.00000000000E+00 -0.30000000000E+02  0.30000000000E+02  0.00000000000E+00 0. -1.
         23    2    1    2    0    0  0.00000000000E+00  0.00000000000E+00  0.00000000000E+00  0.60000000000E+02  0.60000000000E+02 0.  0.
          5    1    3    3  501    0  0.13321329556E+02 -0.13804321273E+02 -0.22580808069E+02  0.30000000000E+02  0.47000000000E+01 0. -1.
         -5    1    3    3    0  501 -0.13321329556E+02  0.13804321273E+02  0.22580808069E+02  0.30000000000E+02  0.47000000000E+01 0.  1.
</event>
<event>
 5    1  0.7673937E-002  0.6000000E+02  0.7546771E-02  0.1259629E+00
         11   -1    0    0    0    0  0.00000000000E+00  0.00000000000E+00  0.30000000000E+02  0.30000000000E+02  0.00000000000E+00 0.  1.
        -11   -1    0    0    0    0 -0.00000000000E+00 -0.00000000000E+00 -0.30000000000E+02  0.30000000000E+02  0.00000000000E+00 0. -1.
         23    2    1    2    0    0  0.00000000000E+00  0.00000000000E+00  0.00000000000E+00  0.60000000000E+02  0.60000000000E+02 0.  0.
          5    1    3    3  501    0 -0.12517606533E+02  0.21944678508E+02 -0.15480652824E+02  0.30000000000E+02  0.47000000000E+01 0. -1.
         -5    1    3    3    0  501  0.12517606533E+02 -0.21944678508E+02  0.15480652824E+02  0.30000000000E+02  0.47000000000E+01 0.  1.
</event>
<event>
 5    1  0.7673937E-002  0.6000000E+02  0.7546771E-02  0.1259629E+00
         11   -1    0    0    0    0  0.00000000000E+00  0.00000000000E+00  0.30000000000E+02  0.30000000000E+02  0.00000000000E+00 0.  1.
        -11   -1    0    0    0    0 -0.00000000000E+00 -0.00000000000E+00 -0.30000000000E+02  0.30000000000E+02  0.00000000000E+00 0. -1.
         23    2    1    2    0    0  0.00000000000E+00  0.00000000000E+00  0.00000000000E+00  0.60000000000E+02  0.60000000000E+02 0.  0.
          5    1    3    3  501    0  0.20084150708E+02 -0.12336250323E+02 -0.17954214500E+02  0.30000000000E+02  0.47000000000E+01 0. -1.
         -5    1    3    3    0  501 -0.20084150708E+02  0.12336250323E+02  0.17954214500E+02  0.30000000000E+02  0.47000000000E+01 0.  1.
</event>
<event>
 5    1  0.7673937E-002  0.6000000E+02  0.7546771E-02  0.1259629E+00
         11   -1    0    0    0    0  0.00000000000E+00  0.00000000000E+00  0.30000000000E+02  0.30000000000E+02  0.00000000000E+00 0.  1.
        -11   -1    0    0    0    0 -0.00000000000E+00 -0.00000000000E+00 -0.30000000000E+02  0.30000000000E+02  0.00000000000E+00 0. -1.
         23    2    1    2    0    0  0.00000000000E+00  0.00000000000E+00  0.00000000000E+00  0.60000000000E+02  0.60000000000E+02 0.  0.
          5    1    3    3  501    0  0.11653469713E+02  0.17625681243E+02  0.20771182064E+02  0.30000000000E+02  0.47000000000E+01 0.  1.
         -5    1    3    3    0  501 -0.11653469713E+02 -0.17625681243E+02 -0.20771182064E+02  0.30000000000E+02  0.47000000000E+01 0. -1.
</event>
<event>
 5    1  0.7673937E-002  0.6000000E+02  0.7546771E-02  0.1259629E+00
         11   -1    0    0    0    0  0.00000000000E+00  0.00000000000E+00  0.30000000000E+02  0.30000000000E+02  0.00000000000E+00 0.  1.
        -11   -1    0    0    0    0 -0.00000000000E+00 -0.00000000000E+00 -0.30000000000E+02  0.30000000000E+02  0.00000000000E+00 0. -1.
         23    2    1    2    0    0  0.00000000000E+00  0.00000000000E+00  0.00000000000E+00  0.60000000000E+02  0.60000000000E+02 0.  0.
          5    1    3    3  501    0 -0.25338238397E+02 -0.96748087946E+01 -0.11928191385E+02  0.30000000000E+02  0.47000000000E+01 0. -1.
         -5    1    3    3    0  501  0.25338238397E+02  0.96748087946E+01  0.11928191385E+02  0.30000000000E+02  0.47000000000E+01 0.  1.
</event>
<event>
 5    1  0.7673937E-002  0.6000000E+02  0.7546771E-02  0.1259629E+00
         11   -1    0    0    0    0  0.00000000000E+00  0.00000000000E+00  0.30000000000E+02  0.30000000000E+02  0.00000000000E+00 0.  1.
        -11   -1    0    0    0    0 -0.00000000000E+00 -0.00000000000E+00 -0.30000000000E+02  0.30000000000E+02  0.00000000000E+00 0. -1.
         23    2    1    2    0    0  0.00000000000E+00  0.00000000000E+00  0.00000000000E+00  0.60000000000E+02  0.60000000000E+02 0.  0.
          5    1    3    3  501    0 -0.19951941622E+02  0.18167585358E+02  0.12238009143E+02  0.30000000000E+02  0.47000000000E+01 0.  1.
         -5    1    3    3    0  501  0.19951941622E+02 -0.18167585358E+02 -0.12238009143E+02  0.30000000000E+02  0.47000000000E+01 0. -1.
</event>
<event>
 5    1  0.7673937E-002  0.6000000E+02  0.7546771E-02  0.1259629E+00
         11   -1    0    0    0    0  0.00000000000E+00  0.00000000000E+00  0.30000000000E+02  0.30000000000E+02  0.00000000000E+00 0. -1.
        -11   -1    0    0    0    0 -0.00000000000E+00 -0.00000000000E+00 -0.30000000000E+02  0.30000000000E+02  0.00000000000E+00 0.  1.
         23    2    1    2    0    0  0.00000000000E+00  0.00000000000E+00  0.00000000000E+00  0.60000000000E+02  0.60000000000E+02 0.  0.
          5    1    3    3  501    0 -0.25396754553E+02  0.11674333011E+02  0.98297918031E+01  0.30000000000E+02  0.47000000000E+01 0.  1.
         -5    1    3    3    0  501  0.25396754553E+02 -0.11674333011E+02 -0.98297918031E+01  0.30000000000E+02  0.47000000000E+01 0. -1.
</event>
<event>
 5    1  0.7673937E-002  0.6000000E+02  0.7546771E-02  0.1259629E+00
         11   -1    0    0    0    0  0.00000000000E+00  0.00000000000E+00  0.30000000000E+02  0.30000000000E+02  0.00000000000E+00 0. -1.
        -11   -1    0    0    0    0 -0.00000000000E+00 -0.00000000000E+00 -0.30000000000E+02  0.30000000000E+02  0.00000000000E+00 0.  1.
         23    2    1    2    0    0  0.00000000000E+00  0.00000000000E+00  0.00000000000E+00  0.60000000000E+02  0.60000000000E+02 0.  0.
          5    1    3    3  501    0  0.29031417800E+02  0.55119059294E+01  0.21692564491E+01  0.30000000000E+02  0.47000000000E+01 0.  1.
         -5    1    3    3    0  501 -0.29031417800E+02 -0.55119059294E+01 -0.21692564491E+01  0.30000000000E+02  0.47000000000E+01 0. -1.
</event>
<event>
 5    1  0.7673937E-002  0.6000000E+02  0.7546771E-02  0.1259629E+00
         11   -1    0    0    0    0  0.00000000000E+00  0.00000000000E+00  0.30000000000E+02  0.30000000000E+02  0.00000000000E+00 0. -1.
        -11   -1    0    0    0    0 -0.00000000000E+00 -0.00000000000E+00 -0.30000000000E+02  0.30000000000E+02  0.00000000000E+00 0.  1.
         23    2    1    2    0    0  0.00000000000E+00  0.00000000000E+00  0.00000000000E+00  0.60000000000E+02  0.60000000000E+02 0.  0.
          5    1    3    3  501    0  0.13911644431E+02 -0.22337367467E+02 -0.13616833841E+02  0.30000000000E+02  0.47000000000E+01 0.  1.
         -5    1    3    3    0  501 -0.13911644431E+02  0.22337367467E+02  0.13616833841E+02  0.30000000000E+02  0.47000000000E+01 0. -1.
</event>
<event>
 5    1  0.7673937E-002  0.6000000E+02  0.7546771E-02  0.1259629E+00
         11   -1    0    0    0    0  0.00000000000E+00  0.00000000000E+00  0.30000000000E+02  0.30000000000E+02  0.00000000000E+00 0.  1.
        -11   -1    0    0    0    0 -0.00000000000E+00 -0.00000000000E+00 -0.30000000000E+02  0.30000000000E+02  0.00000000000E+00 0. -1.
         23    2    1    2    0    0  0.00000000000E+00  0.00000000000E+00  0.00000000000E+00  0.60000000000E+02  0.60000000000E+02 0.  0.
          5    1    3    3  501    0  0.16940076623E+02  0.22279567332E+01 -0.24207024039E+02  0.30000000000E+02  0.47000000000E+01 0. -1.
         -5    1    3    3    0  501 -0.16940076623E+02 -0.22279567332E+01  0.24207024039E+02  0.30000000000E+02  0.47000000000E+01 0.  1.
</event>
<event>
 5    1  0.7673937E-002  0.6000000E+02  0.7546771E-02  0.1259629E+00
         11   -1    0    0    0    0  0.00000000000E+00  0.00000000000E+00  0.30000000000E+02  0.30000000000E+02  0.00000000000E+00 0.  1.
        -11   -1    0    0    0    0 -0.00000000000E+00 -0.00000000000E+00 -0.30000000000E+02  0.30000000000E+02  0.00000000000E+00 0. -1.
         23    2    1    2    0    0  0.00000000000E+00  0.00000000000E+00  0.00000000000E+00  0.60000000000E+02  0.60000000000E+02 0.  0.
          5    1    3    3  501    0  0.17925038078E+01  0.15126228428E+02 -0.25414447538E+02  0.30000000000E+02  0.47000000000E+01 0. -1.
         -5    1    3    3    0  501 -0.17925038078E+01 -0.15126228428E+02  0.25414447538E+02  0.30000000000E+02  0.47000000000E+01 0.  1.
</event>
<event>
 5    1  0.7673937E-002  0.6000000E+02  0.7546771E-02  0.1259629E+00
         11   -1    0    0    0    0  0.00000000000E+00  0.00000000000E+00  0.30000000000E+02  0.30000000000E+02  0.00000000000E+00 0.  1.
        -11   -1    0    0    0    0 -0.00000000000E+00 -0.00000000000E+00 -0.30000000000E+02  0.30000000000E+02  0.00000000000E+00 0. -1.
         23    2    1    2    0    0  0.00000000000E+00  0.00000000000E+00  0.00000000000E+00  0.60000000000E+02  0.60000000000E+02 0.  0.
          5    1    3    3  501    0 -0.62206733110E+01 -0.10789936106E+02 -0.26884763387E+02  0.30000000000E+02  0.47000000000E+01 0. -1.
         -5    1    3    3    0  501  0.62206733110E+01  0.10789936106E+02  0.26884763387E+02  0.30000000000E+02  0.47000000000E+01 0.  1.
</event>
<event>
 5    1  0.7673937E-002  0.6000000E+02  0.7546771E-02  0.1259629E+00
         11   -1    0    0    0    0  0.00000000000E+00  0.00000000000E+00  0.30000000000E+02  0.30000000000E+02  0.00000000000E+00 0.  1.
        -11   -1    0    0    0    0 -0.00000000000E+00 -0.00000000000E+00 -0.30000000000E+02  0.30000000000E+02  0.00000000000E+00 0. -1.
         23    2    1    2    0    0  0.00000000000E+00  0.00000000000E+00  0.00000000000E+00  0.60000000000E+02  0.60000000000E+02 0.  0.
          5    1    3    3  501    0 -0.17934924299E+01 -0.13498910290E+02 -0.26314878033E+02  0.30000000000E+02  0.47000000000E+01 0. -1.
         -5    1    3    3    0  501  0.17934924299E+01  0.13498910290E+02  0.26314878033E+02  0.30000000000E+02  0.47000000000E+01 0.  1.
</event>
<event>
 5    1  0.7673937E-002  0.6000000E+02  0.7546771E-02  0.1259629E+00
         11   -1    0    0    0    0  0.00000000000E+00  0.00000000000E+00  0.30000000000E+02  0.30000000000E+02  0.00000000000E+00 0.  1.
        -11   -1    0    0    0    0 -0.00000000000E+00 -0.00000000000E+00 -0.30000000000E+02  0.30000000000E+02  0.00000000000E+00 0. -1.
         23    2    1    2    0    0  0.00000000000E+00  0.00000000000E+00  0.00000000000E+00  0.60000000000E+02  0.60000000000E+02 0.  0.
          5    1    3    3  501    0  0.26258950034E+02 -0.58113318227E+01 -0.12434064723E+02  0.30000000000E+02  0.47000000000E+01 0. -1.
         -5    1    3    3    0  501 -0.26258950034E+02  0.58113318227E+01  0.12434064723E+02  0.30000000000E+02  0.47000000000E+01 0.  1.
</event>
<event>
 5    1  0.7673937E-002  0.6000000E+02  0.7546771E-02  0.1259629E+00
         11   -1    0    0    0    0  0.00000000000E+00  0.00000000000E+00  0.30000000000E+02  0.30000000000E+02  0.00000000000E+00 0. -1.
        -11   -1    0    0    0    0 -0.00000000000E+00 -0.00000000000E+00 -0.30000000000E+02  0.30000000000E+02  0.00000000000E+00 0.  1.
         23    2    1    2    0    0  0.00000000000E+00  0.00000000000E+00  0.00000000000E+00  0.60000000000E+02  0.60000000000E+02 0.  0.
          5    1    3    3  501    0 -0.96577730265E+01 -0.25293521022E+02 -0.12036412027E+02  0.30000000000E+02  0.47000000000E+01 0.  1.
         -5    1    3    3    0  501  0.96577730265E+01  0.25293521022E+02  0.12036412027E+02  0.30000000000E+02  0.47000000000E+01 0. -1.
</event>
<event>
 5    1  0.7673937E-002  0.6000000E+02  0.7546771E-02  0.1259629E+00
         11   -1    0    0    0    0  0.00000000000E+00  0.00000000000E+00  0.30000000000E+02  0.30000000000E+02  0.00000000000E+00 0. -1.
        -11   -1    0    0    0    0 -0.00000000000E+00 -0.00000000000E+00 -0.30000000000E+02  0.30000000000E+02  0.00000000000E+00 0.  1.
         23    2    1    2    0    0  0.00000000000E+00  0.00000000000E+00  0.00000000000E+00  0.60000000000E+02  0.60000000000E+02 0.  0.
          5    1    3    3  501    0  0.21841993348E+02  0.64786403211E+01 -0.18943720495E+02  0.30000000000E+02  0.47000000000E+01 0.  1.
         -5    1    3    3    0  501 -0.21841993348E+02 -0.64786403211E+01  0.18943720495E+02  0.30000000000E+02  0.47000000000E+01 0. -1.
</event>
<event>
 5    1  0.7673937E-002  0.6000000E+02  0.7546771E-02  0.1259629E+00
         11   -1    0    0    0    0  0.00000000000E+00  0.00000000000E+00  0.30000000000E+02  0.30000000000E+02  0.00000000000E+00 0.  1.
        -11   -1    0    0    0    0 -0.00000000000E+00 -0.00000000000E+00 -0.30000000000E+02  0.30000000000E+02  0.00000000000E+00 0. -1.
         23    2    1    2    0    0  0.00000000000E+00  0.00000000000E+00  0.00000000000E+00  0.60000000000E+02  0.60000000000E+02 0.  0.
          5    1    3    3  501    0 -0.12392324503E+01  0.12936920101E+02 -0.26627249224E+02  0.30000000000E+02  0.47000000000E+01 0. -1.
         -5    1    3    3    0  501  0.12392324503E+01 -0.12936920101E+02  0.26627249224E+02  0.30000000000E+02  0.47000000000E+01 0.  1.
</event>
<event>
 5    1  0.7673937E-002  0.6000000E+02  0.7546771E-02  0.1259629E+00
         11   -1    0    0    0    0  0.00000000000E+00  0.00000000000E+00  0.30000000000E+02  0.30000000000E+02  0.00000000000E+00 0.  1.
        -11   -1    0    0    0    0 -0.00000000000E+00 -0.00000000000E+00 -0.30000000000E+02  0.30000000000E+02  0.00000000000E+00 0. -1.
         23    2    1    2    0    0  0.00000000000E+00  0.00000000000E+00  0.00000000000E+00  0.60000000000E+02  0.60000000000E+02 0.  0.
          5    1    3    3  501    0  0.21519486614E+02 -0.30140233068E+01 -0.20142923308E+02  0.30000000000E+02  0.47000000000E+01 0. -1.
         -5    1    3    3    0  501 -0.21519486614E+02  0.30140233068E+01  0.20142923308E+02  0.30000000000E+02  0.47000000000E+01 0.  1.
</event>
<event>
 5    1  0.7673937E-002  0.6000000E+02  0.7546771E-02  0.1259629E+00
         11   -1    0    0    0    0  0.00000000000E+00  0.00000000000E+00  0.30000000000E+02  0.30000000000E+02  0.00000000000E+00 0.  1.
        -11   -1    0    0    0    0 -0.00000000000E+00 -0.00000000000E+00 -0.30000000000E+02  0.30000000000E+02  0.00000000000E+00 0. -1.
         23    2    1    2    0    0  0.00000000000E+00  0.00000000000E+00  0.00000000000E+00  0.60000000000E+02  0.60000000000E+02 0.  0.
          5    1    3    3  501    0  0.11203878006E+02 -0.12554122489E+01  0.27400858704E+02  0.30000000000E+02  0.47000000000E+01 0.  1.
         -5    1    3    3    0  501 -0.11203878006E+02  0.12554122489E+01 -0.27400858704E+02  0.30000000000E+02  0.47000000000E+01 0. -1.
</event>
<event>
 5    1  0.7673937E-002  0.6000000E+02  0.7546771E-02  0.1259629E+00
         11   -1    0    0    0    0  0.00000000000E+00  0.00000000000E+00  0.30000000000E+02  0.30000000000E+02  0.00000000000E+00 0.  1.
        -11   -1    0    0    0    0 -0.00000000000E+00 -0.00000000000E+00 -0.30000000000E+02  0.30000000000E+02  0.00000000000E+00 0. -1.
         23    2    1    2    0    0  0.00000000000E+00  0.00000000000E+00  0.00000000000E+00  0.60000000000E+02  0.60000000000E+02 0.  0.
          5    1    3    3  501    0 -0.23886937973E+02 -0.13448755529E+02 -0.11245228722E+02  0.30000000000E+02  0.47000000000E+01 0. -1.
         -5    1    3    3    0  501  0.23886937973E+02  0.13448755529E+02  0.11245228722E+02  0.30000000000E+02  0.47000000000E+01 0.  1.
</event>
<event>
 5    1  0.7673937E-002  0.6000000E+02  0.7546771E-02  0.1259629E+00
         11   -1    0    0    0    0  0.00000000000E+00  0.00000000000E+00  0.30000000000E+02  0.30000000000E+02  0.00000000000E+00 0.  1.
        -11   -1    0    0    0    0 -0.00000000000E+00 -0.00000000000E+00 -0.30000000000E+02  0.30000000000E+02  0.00000000000E+00 0. -1.
         23    2    1    2    0    0  0.00000000000E+00  0.00000000000E+00  0.00000000000E+00  0.60000000000E+02  0.60000000000E+02 0.  0.
          5    1    3    3  501    0  0.13705517133E+02  0.21966206705E+01 -0.26177159085E+02  0.30000000000E+02  0.47000000000E+01 0. -1.
         -5    1    3    3    0  501 -0.13705517133E+02 -0.21966206705E+01  0.26177159085E+02  0.30000000000E+02  0.47000000000E+01 0.  1.
</event>
<event>
 5    1  0.7673937E-002  0.6000000E+02  0.7546771E-02  0.1259629E+00
         11   -1    0    0    0    0  0.00000000000E+00  0.00000000000E+00  0.30000000000E+02  0.30000000000E+02  0.00000000000E+00 0.  1.
        -11   -1    0    0    0    0 -0.00000000000E+00 -0.00000000000E+00 -0.30000000000E+02  0.30000000000E+02  0.00000000000E+00 0. -1.
         23    2    1    2    0    0  0.00000000000E+00  0.00000000000E+00  0.00000000000E+00  0.60000000000E+02  0.60000000000E+02 0.  0.
          5    1    3    3  501    0 -0.23304719270E+02  0.10904530975E+02 -0.14693238715E+02  0.30000000000E+02  0.47000000000E+01 0. -1.
         -5    1    3    3    0  501  0.23304719270E+02 -0.10904530975E+02  0.14693238715E+02  0.30000000000E+02  0.47000000000E+01 0.  1.
</event>
<event>
 5    1  0.7673937E-002  0.6000000E+02  0.7546771E-02  0.1259629E+00
         11   -1    0    0    0    0  0.00000000000E+00  0.00000000000E+00  0.30000000000E+02  0.30000000000E+02  0.00000000000E+00 0.  1.
        -11   -1    0    0    0    0 -0.00000000000E+00 -0.00000000000E+00 -0.30000000000E+02  0.30000000000E+02  0.00000000000E+00 0. -1.
         23    2    1    2    0    0  0.00000000000E+00  0.00000000000E+00  0.00000000000E+00  0.60000000000E+02  0.60000000000E+02 0.  0.
          5    1    3    3  501    0 -0.11969733200E+02  0.23079353619E+02 -0.14211928920E+02  0.30000000000E+02  0.47000000000E+01 0. -1.
         -5    1    3    3    0  501  0.11969733200E+02 -0.23079353619E+02  0.14211928920E+02  0.30000000000E+02  0.47000000000E+01 0.  1.
</event>
<event>
 5    1  0.7673937E-002  0.6000000E+02  0.7546771E-02  0.1259629E+00
         11   -1    0    0    0    0  0.00000000000E+00  0.00000000000E+00  0.30000000000E+02  0.30000000000E+02  0.00000000000E+00 0.  1.
        -11   -1    0    0    0    0 -0.00000000000E+00 -0.00000000000E+00 -0.30000000000E+02  0.30000000000E+02  0.00000000000E+00 0. -1.
         23    2    1    2    0    0  0.00000000000E+00  0.00000000000E+00  0.00000000000E+00  0.60000000000E+02  0.60000000000E+02 0.  0.
          5    1    3    3  501    0  0.23917617639E+02 -0.14239055501E+02  0.10154155055E+02  0.30000000000E+02  0.47000000000E+01 0. -1.
         -5    1    3    3    0  501 -0.23917617639E+02  0.14239055501E+02 -0.10154155055E+02  0.30000000000E+02  0.47000000000E+01 0.  1.
</event>
<event>
 5    1  0.7673937E-002  0.6000000E+02  0.7546771E-02  0.1259629E+00
         11   -1    0    0    0    0  0.00000000000E+00  0.00000000000E+00  0.30000000000E+02  0.30000000000E+02  0.00000000000E+00 0.  1.
        -11   -1    0    0    0    0 -0.00000000000E+00 -0.00000000000E+00 -0.30000000000E+02  0.30000000000E+02  0.00000000000E+00 0. -1.
         23    2    1    2    0    0  0.00000000000E+00  0.00000000000E+00  0.00000000000E+00  0.60000000000E+02  0.60000000000E+02 0.  0.
          5    1    3    3  501    0 -0.27613852953E+02 -0.75411767003E+01 -0.76495607116E+01  0.30000000000E+02  0.47000000000E+01 0. -1.
         -5    1    3    3    0  501  0.27613852953E+02  0.75411767003E+01  0.76495607116E+01  0.30000000000E+02  0.47000000000E+01 0.  1.
</event>
<event>
 5    1  0.7673937E-002  0.6000000E+02  0.7546771E-02  0.1259629E+00
         11   -1    0    0    0    0  0.00000000000E+00  0.00000000000E+00  0.30000000000E+02  0.30000000000E+02  0.00000000000E+00 0. -1.
        -11   -1    0    0    0    0 -0.00000000000E+00 -0.00000000000E+00 -0.30000000000E+02  0.30000000000E+02  0.00000000000E+00 0.  1.
         23    2    1    2    0    0  0.00000000000E+00  0.00000000000E+00  0.00000000000E+00  0.60000000000E+02  0.60000000000E+02 0.  0.
          5    1    3    3  501    0  0.66753951342E+01  0.56836287500E+01  0.28302746581E+02  0.30000000000E+02  0.47000000000E+01 0. -1.
         -5    1    3    3    0  501 -0.66753951342E+01 -0.56836287500E+01 -0.28302746581E+02  0.30000000000E+02  0.47000000000E+01 0.  1.
</event>
<event>
 5    1  0.7673937E-002  0.6000000E+02  0.7546771E-02  0.1259629E+00
         11   -1    0    0    0    0  0.00000000000E+00  0.00000000000E+00  0.30000000000E+02  0.30000000000E+02  0.00000000000E+00 0.  1.
        -11   -1    0    0    0    0 -0.00000000000E+00 -0.00000000000E+00 -0.30000000000E+02  0.30000000000E+02  0.00000000000E+00 0. -1.
         23    2    1    2    0    0  0.00000000000E+00  0.00000000000E+00  0.00000000000E+00  0.60000000000E+02  0.60000000000E+02 0.  0.
          5    1    3    3  501    0  0.84386172840E+01  0.11937558148E+02 -0.25771970118E+02  0.30000000000E+02  0.47000000000E+01 0. -1.
         -5    1    3    3    0  501 -0.84386172840E+01 -0.11937558148E+02  0.25771970118E+02  0.30000000000E+02  0.47000000000E+01 0.  1.
</event>
<event>
 5    1  0.7673937E-002  0.6000000E+02  0.7546771E-02  0.1259629E+00
         11   -1    0    0    0    0  0.00000000000E+00  0.00000000000E+00  0.30000000000E+02  0.30000000000E+02  0.00000000000E+00 0. -1.
        -11   -1    0    0    0    0 -0.00000000000E+00 -0.00000000000E+00 -0.30000000000E+02  0.30000000000E+02  0.00000000000E+00 0.  1.
         23    2    1    2    0    0  0.00000000000E+00  0.00000000000E+00  0.00000000000E+00  0.60000000000E+02  0.60000000000E+02 0.  0.
          5    1    3    3  501    0  0.10517077891E+02 -0.13515034868E+02 -0.24179431448E+02  0.30000000000E+02  0.47000000000E+01 0.  1.
         -5    1    3    3    0  501 -0.10517077891E+02  0.13515034868E+02  0.24179431448E+02  0.30000000000E+02  0.47000000000E+01 0. -1.
</event>
<event>
 5    1  0.7673937E-002  0.6000000E+02  0.7546771E-02  0.1259629E+00
         11   -1    0    0    0    0  0.00000000000E+00  0.00000000000E+00  0.30000000000E+02  0.30000000000E+02  0.00000000000E+00 0.  1.
        -11   -1    0    0    0    0 -0.00000000000E+00 -0.00000000000E+00 -0.30000000000E+02  0.30000000000E+02  0.00000000000E+00 0. -1.
         23    2    1    2    0    0  0.00000000000E+00  0.00000000000E+00  0.00000000000E+00  0.60000000000E+02  0.60000000000E+02 0.  0.
          5    1    3    3  501    0  0.11951038696E+02  0.59531702426E+01 -0.26450754964E+02  0.30000000000E+02  0.47000000000E+01 0. -1.
         -5    1    3    3    0  501 -0.11951038696E+02 -0.59531702426E+01  0.26450754964E+02  0.30000000000E+02  0.47000000000E+01 0.  1.
</event>
<event>
 5    1  0.7673937E-002  0.6000000E+02  0.7546771E-02  0.1259629E+00
         11   -1    0    0    0    0  0.00000000000E+00  0.00000000000E+00  0.30000000000E+02  0.30000000000E+02  0.00000000000E+00 0.  1.
        -11   -1    0    0    0    0 -0.00000000000E+00 -0.00000000000E+00 -0.30000000000E+02  0.30000000000E+02  0.00000000000E+00 0. -1.
         23    2    1    2    0    0  0.00000000000E+00  0.00000000000E+00  0.00000000000E+00  0.60000000000E+02  0.60000000000E+02 0.  0.
          5    1    3    3  501    0  0.61135041259E+01 -0.25410008112E+02  0.13959461130E+02  0.30000000000E+02  0.47000000000E+01 0.  1.
         -5    1    3    3    0  501 -0.61135041259E+01  0.25410008112E+02 -0.13959461130E+02  0.30000000000E+02  0.47000000000E+01 0. -1.
</event>
<event>
 5    1  0.7673937E-002  0.6000000E+02  0.7546771E-02  0.1259629E+00
         11   -1    0    0    0    0  0.00000000000E+00  0.00000000000E+00  0.30000000000E+02  0.30000000000E+02  0.00000000000E+00 0.  1.
        -11   -1    0    0    0    0 -0.00000000000E+00 -0.00000000000E+00 -0.30000000000E+02  0.30000000000E+02  0.00000000000E+00 0. -1.
         23    2    1    2    0    0  0.00000000000E+00  0.00000000000E+00  0.00000000000E+00  0.60000000000E+02  0.60000000000E+02 0.  0.
          5    1    3    3  501    0  0.55307722983E+01 -0.29091816441E+02 -0.99336495784E+00  0.30000000000E+02  0.47000000000E+01 0. -1.
         -5    1    3    3    0  501 -0.55307722983E+01  0.29091816441E+02  0.99336495784E+00  0.30000000000E+02  0.47000000000E+01 0.  1.
</event>
<event>
 5    1  0.7673937E-002  0.6000000E+02  0.7546771E-02  0.1259629E+00
         11   -1    0    0    0    0  0.00000000000E+00  0.00000000000E+00  0.30000000000E+02  0.30000000000E+02  0.00000000000E+00 0.  1.
        -11   -1    0    0    0    0 -0.00000000000E+00 -0.00000000000E+00 -0.30000000000E+02  0.30000000000E+02  0.00000000000E+00 0. -1.
         23    2    1    2    0    0  0.00000000000E+00  0.00000000000E+00  0.00000000000E+00  0.60000000000E+02  0.60000000000E+02 0.  0.
          5    1    3    3  501    0  0.98204801302E+01 -0.71279078772E+01 -0.27030743595E+02  0.30000000000E+02  0.47000000000E+01 0. -1.
         -5    1    3    3    0  501 -0.98204801302E+01  0.71279078772E+01  0.27030743595E+02  0.30000000000E+02  0.47000000000E+01 0.  1.
</event>
<event>
 5    1  0.7673937E-002  0.6000000E+02  0.7546771E-02  0.1259629E+00
         11   -1    0    0    0    0  0.00000000000E+00  0.00000000000E+00  0.30000000000E+02  0.30000000000E+02  0.00000000000E+00 0.  1.
        -11   -1    0    0    0    0 -0.00000000000E+00 -0.00000000000E+00 -0.30000000000E+02  0.30000000000E+02  0.00000000000E+00 0. -1.
         23    2    1    2    0    0  0.00000000000E+00  0.00000000000E+00  0.00000000000E+00  0.60000000000E+02  0.60000000000E+02 0.  0.
          5    1    3    3  501    0 -0.15157822013E+02 -0.60614538840E+01  0.24726690208E+02  0.30000000000E+02  0.47000000000E+01 0.  1.
         -5    1    3    3    0  501  0.15157822013E+02  0.60614538840E+01 -0.24726690208E+02  0.30000000000E+02  0.47000000000E+01 0. -1.
</event>
<event>
 5    1  0.7673937E-002  0.6000000E+02  0.7546771E-02  0.1259629E+00
         11   -1    0    0    0    0  0.00000000000E+00  0.00000000000E+00  0.30000000000E+02  0.30000000000E+02  0.00000000000E+00 0.  1.
        -11   -1    0    0    0    0 -0.00000000000E+00 -0.00000000000E+00 -0.30000000000E+02  0.30000000000E+02  0.00000000000E+00 0. -1.
         23    2    1    2    0    0  0.00000000000E+00  0.00000000000E+00  0.00000000000E+00  0.60000000000E+02  0.60000000000E+02 0.  0.
          5    1    3    3  501    0 -0.24983762683E+02  0.69719903500E+01 -0.14321765001E+02  0.30000000000E+02  0.47000000000E+01 0. -1.
         -5    1    3    3    0  501  0.24983762683E+02 -0.69719903500E+01  0.14321765001E+02  0.30000000000E+02  0.47000000000E+01 0.  1.
</event>
<event>
 5    1  0.7673937E-002  0.6000000E+02  0.7546771E-02  0.1259629E+00
         11   -1    0    0    0    0  0.00000000000E+00  0.00000000000E+00  0.30000000000E+02  0.30000000000E+02  0.00000000000E+00 0.  1.
        -11   -1    0    0    0    0 -0.00000000000E+00 -0.00000000000E+00 -0.30000000000E+02  0.30000000000E+02  0.00000000000E+00 0. -1.
         23    2    1    2    0    0  0.00000000000E+00  0.00000000000E+00  0.00000000000E+00  0.60000000000E+02  0.60000000000E+02 0.  0.
          5    1    3    3  501    0  0.21971208422E+02  0.50736678707E+01 -0.19220663226E+02  0.30000000000E+02  0.47000000000E+01 0. -1.
         -5    1    3    3    0  501 -0.21971208422E+02 -0.50736678707E+01  0.19220663226E+02  0.30000000000E+02  0.47000000000E+01 0.  1.
</event>
<event>
 5    1  0.7673937E-002  0.6000000E+02  0.7546771E-02  0.1259629E+00
         11   -1    0    0    0    0  0.00000000000E+00  0.00000000000E+00  0.30000000000E+02  0.30000000000E+02  0.00000000000E+00 0.  1.
        -11   -1    0    0    0    0 -0.00000000000E+00 -0.00000000000E+00 -0.30000000000E+02  0.30000000000E+02  0.00000000000E+00 0. -1.
         23    2    1    2    0    0  0.00000000000E+00  0.00000000000E+00  0.00000000000E+00  0.60000000000E+02  0.60000000000E+02 0.  0.
          5    1    3    3  501    0  0.56434807716E+01 -0.23502078457E+02 -0.17138069699E+02  0.30000000000E+02  0.47000000000E+01 0. -1.
         -5    1    3    3    0  501 -0.56434807716E+01  0.23502078457E+02  0.17138069699E+02  0.30000000000E+02  0.47000000000E+01 0.  1.
</event>
<event>
 5    1  0.7673937E-002  0.6000000E+02  0.7546771E-02  0.1259629E+00
         11   -1    0    0    0    0  0.00000000000E+00  0.00000000000E+00  0.30000000000E+02  0.30000000000E+02  0.00000000000E+00 0.  1.
        -11   -1    0    0    0    0 -0.00000000000E+00 -0.00000000000E+00 -0.30000000000E+02  0.30000000000E+02  0.00000000000E+00 0. -1.
         23    2    1    2    0    0  0.00000000000E+00  0.00000000000E+00  0.00000000000E+00  0.60000000000E+02  0.60000000000E+02 0.  0.
          5    1    3    3  501    0  0.15321381983E+02  0.14429936230E+02 -0.20855267788E+02  0.30000000000E+02  0.47000000000E+01 0. -1.
         -5    1    3    3    0  501 -0.15321381983E+02 -0.14429936230E+02  0.20855267788E+02  0.30000000000E+02  0.47000000000E+01 0.  1.
</event>
<event>
 5    1  0.7673937E-002  0.6000000E+02  0.7546771E-02  0.1259629E+00
         11   -1    0    0    0    0  0.00000000000E+00  0.00000000000E+00  0.30000000000E+02  0.30000000000E+02  0.00000000000E+00 0. -1.
        -11   -1    0    0    0    0 -0.00000000000E+00 -0.00000000000E+00 -0.30000000000E+02  0.30000000000E+02  0.00000000000E+00 0.  1.
         23    2    1    2    0    0  0.00000000000E+00  0.00000000000E+00  0.00000000000E+00  0.60000000000E+02  0.60000000000E+02 0.  0.
          5    1    3    3  501    0 -0.31387485614E+01 -0.23293470413E+02 -0.18040856232E+02  0.30000000000E+02  0.47000000000E+01 0.  1.
         -5    1    3    3    0  501  0.31387485614E+01  0.23293470413E+02  0.18040856232E+02  0.30000000000E+02  0.47000000000E+01 0. -1.
</event>
<event>
 5    1  0.7673937E-002  0.6000000E+02  0.7546771E-02  0.1259629E+00
         11   -1    0    0    0    0  0.00000000000E+00  0.00000000000E+00  0.30000000000E+02  0.30000000000E+02  0.00000000000E+00 0. -1.
        -11   -1    0    0    0    0 -0.00000000000E+00 -0.00000000000E+00 -0.30000000000E+02  0.30000000000E+02  0.00000000000E+00 0.  1.
         23    2    1    2    0    0  0.00000000000E+00  0.00000000000E+00  0.00000000000E+00  0.60000000000E+02  0.60000000000E+02 0.  0.
          5    1    3    3  501    0 -0.23126484733E+02  0.78396050294E+01  0.16781427141E+02  0.30000000000E+02  0.47000000000E+01 0. -1.
         -5    1    3    3    0  501  0.23126484733E+02 -0.78396050294E+01 -0.16781427141E+02  0.30000000000E+02  0.47000000000E+01 0.  1.
</event>
<event>
 5    1  0.7673937E-002  0.6000000E+02  0.7546771E-02  0.1259629E+00
         11   -1    0    0    0    0  0.00000000000E+00  0.00000000000E+00  0.30000000000E+02  0.30000000000E+02  0.00000000000E+00 0.  1.
        -11   -1    0    0    0    0 -0.00000000000E+00 -0.00000000000E+00 -0.30000000000E+02  0.30000000000E+02  0.00000000000E+00 0. -1.
         23    2    1    2    0    0  0.00000000000E+00  0.00000000000E+00  0.00000000000E+00  0.60000000000E+02  0.60000000000E+02 0.  0.
          5    1    3    3  501    0 -0.23586880803E+02 -0.17496299013E+02 -0.39304675056E+01  0.30000000000E+02  0.47000000000E+01 0. -1.
         -5    1    3    3    0  501  0.23586880803E+02  0.17496299013E+02  0.39304675056E+01  0.30000000000E+02  0.47000000000E+01 0.  1.
</event>
<event>
 5    1  0.7673937E-002  0.6000000E+02  0.7546771E-02  0.1259629E+00
         11   -1    0    0    0    0  0.00000000000E+00  0.00000000000E+00  0.30000000000E+02  0.30000000000E+02  0.00000000000E+00 0.  1.
        -11   -1    0    0    0    0 -0.00000000000E+00 -0.00000000000E+00 -0.30000000000E+02  0.30000000000E+02  0.00000000000E+00 0. -1.
         23    2    1    2    0    0  0.00000000000E+00  0.00000000000E+00  0.00000000000E+00  0.60000000000E+02  0.60000000000E+02 0.  0.
          5    1    3    3  501    0  0.40415136839E+01 -0.20326061009E+02 -0.21176104717E+02  0.30000000000E+02  0.47000000000E+01 0. -1.
         -5    1    3    3    0  501 -0.40415136839E+01  0.20326061009E+02  0.21176104717E+02  0.30000000000E+02  0.47000000000E+01 0.  1.
</event>
<event>
 5    1  0.7673937E-002  0.6000000E+02  0.7546771E-02  0.1259629E+00
         11   -1    0    0    0    0  0.00000000000E+00  0.00000000000E+00  0.30000000000E+02  0.30000000000E+02  0.00000000000E+00 0. -1.
        -11   -1    0    0    0    0 -0.00000000000E+00 -0.00000000000E+00 -0.30000000000E+02  0.30000000000E+02  0.00000000000E+00 0.  1.
         23    2    1    2    0    0  0.00000000000E+00  0.00000000000E+00  0.00000000000E+00  0.60000000000E+02  0.60000000000E+02 0.  0.
          5    1    3    3  501    0 -0.77608855089E+01 -0.19654093202E+02 -0.20770057211E+02  0.30000000000E+02  0.47000000000E+01 0.  1.
         -5    1    3    3    0  501  0.77608855089E+01  0.19654093202E+02  0.20770057211E+02  0.30000000000E+02  0.47000000000E+01 0. -1.
</event>
<event>
 5    1  0.7673937E-002  0.6000000E+02  0.7546771E-02  0.1259629E+00
         11   -1    0    0    0    0  0.00000000000E+00  0.00000000000E+00  0.30000000000E+02  0.30000000000E+02  0.00000000000E+00 0.  1.
        -11   -1    0    0    0    0 -0.00000000000E+00 -0.00000000000E+00 -0.30000000000E+02  0.30000000000E+02  0.00000000000E+00 0. -1.
         23    2    1    2    0    0  0.00000000000E+00  0.00000000000E+00  0.00000000000E+00  0.60000000000E+02  0.60000000000E+02 0.  0.
          5    1    3    3  501    0  0.28110148942E+02 -0.33932843138E+01  0.87301287522E+01  0.30000000000E+02  0.47000000000E+01 0. -1.
         -5    1    3    3    0  501 -0.28110148942E+02  0.33932843138E+01 -0.87301287522E+01  0.30000000000E+02  0.47000000000E+01 0.  1.
</event>
<event>
 5    1  0.7673937E-002  0.6000000E+02  0.7546771E-02  0.1259629E+00
         11   -1    0    0    0    0  0.00000000000E+00  0.00000000000E+00  0.30000000000E+02  0.30000000000E+02  0.00000000000E+00 0.  1.
        -11   -1    0    0    0    0 -0.00000000000E+00 -0.00000000000E+00 -0.30000000000E+02  0.30000000000E+02  0.00000000000E+00 0. -1.
         23    2    1    2    0    0  0.00000000000E+00  0.00000000000E+00  0.00000000000E+00  0.60000000000E+02  0.60000000000E+02 0.  0.
          5    1    3    3  501    0 -0.13420743834E+02  0.67090581912E+01 -0.25549602211E+02  0.30000000000E+02  0.47000000000E+01 0. -1.
         -5    1    3    3    0  501  0.13420743834E+02 -0.67090581912E+01  0.25549602211E+02  0.30000000000E+02  0.47000000000E+01 0.  1.
</event>
<event>
 5    1  0.7673937E-002  0.6000000E+02  0.7546771E-02  0.1259629E+00
         11   -1    0    0    0    0  0.00000000000E+00  0.00000000000E+00  0.30000000000E+02  0.30000000000E+02  0.00000000000E+00 0.  1.
        -11   -1    0    0    0    0 -0.00000000000E+00 -0.00000000000E+00 -0.30000000000E+02  0.30000000000E+02  0.00000000000E+00 0. -1.
         23    2    1    2    0    0  0.00000000000E+00  0.00000000000E+00  0.00000000000E+00  0.60000000000E+02  0.60000000000E+02 0.  0.
          5    1    3    3  501    0  0.18288570405E+02  0.23311738106E+02  0.32542418350E-01  0.30000000000E+02  0.47000000000E+01 0.  1.
         -5    1    3    3    0  501 -0.18288570405E+02 -0.23311738106E+02 -0.32542418350E-01  0.30000000000E+02  0.47000000000E+01 0. -1.
</event>
<event>
 5    1  0.7673937E-002  0.6000000E+02  0.7546771E-02  0.1259629E+00
         11   -1    0    0    0    0  0.00000000000E+00  0.00000000000E+00  0.30000000000E+02  0.30000000000E+02  0.00000000000E+00 0.  1.
        -11   -1    0    0    0    0 -0.00000000000E+00 -0.00000000000E+00 -0.30000000000E+02  0.30000000000E+02  0.00000000000E+00 0. -1.
         23    2    1    2    0    0  0.00000000000E+00  0.00000000000E+00  0.00000000000E+00  0.60000000000E+02  0.60000000000E+02 0.  0.
          5    1    3    3  501    0  0.18634185769E+01  0.29549759244E+02 -0.11177655493E+01  0.30000000000E+02  0.47000000000E+01 0. -1.
         -5    1    3    3    0  501 -0.18634185769E+01 -0.29549759244E+02  0.11177655493E+01  0.30000000000E+02  0.47000000000E+01 0.  1.
</event>
<event>
 5    1  0.7673937E-002  0.6000000E+02  0.7546771E-02  0.1259629E+00
         11   -1    0    0    0    0  0.00000000000E+00  0.00000000000E+00  0.30000000000E+02  0.30000000000E+02  0.00000000000E+00 0.  1.
        -11   -1    0    0    0    0 -0.00000000000E+00 -0.00000000000E+00 -0.30000000000E+02  0.30000000000E+02  0.00000000000E+00 0. -1.
         23    2    1    2    0    0  0.00000000000E+00  0.00000000000E+00  0.00000000000E+00  0.60000000000E+02  0.60000000000E+02 0.  0.
          5    1    3    3  501    0  0.93224472561E+01  0.25485730302E+02 -0.11894516725E+02  0.30000000000E+02  0.47000000000E+01 0. -1.
         -5    1    3    3    0  501 -0.93224472561E+01 -0.25485730302E+02  0.11894516725E+02  0.30000000000E+02  0.47000000000E+01 0.  1.
</event>
<event>
 5    1  0.7673937E-002  0.6000000E+02  0.7546771E-02  0.1259629E+00
         11   -1    0    0    0    0  0.00000000000E+00  0.00000000000E+00  0.30000000000E+02  0.30000000000E+02  0.00000000000E+00 0.  1.
        -11   -1    0    0    0    0 -0.00000000000E+00 -0.00000000000E+00 -0.30000000000E+02  0.30000000000E+02  0.00000000000E+00 0. -1.
         23    2    1    2    0    0  0.00000000000E+00  0.00000000000E+00  0.00000000000E+00  0.60000000000E+02  0.60000000000E+02 0.  0.
          5    1    3    3  501    0 -0.13310633473E+02 -0.22791957759E+02 -0.13463420741E+02  0.30000000000E+02  0.47000000000E+01 0. -1.
         -5    1    3    3    0  501  0.13310633473E+02  0.22791957759E+02  0.13463420741E+02  0.30000000000E+02  0.47000000000E+01 0.  1.
</event>
<event>
 5    1  0.7673937E-002  0.6000000E+02  0.7546771E-02  0.1259629E+00
         11   -1    0    0    0    0  0.00000000000E+00  0.00000000000E+00  0.30000000000E+02  0.30000000000E+02  0.00000000000E+00 0. -1.
        -11   -1    0    0    0    0 -0.00000000000E+00 -0.00000000000E+00 -0.30000000000E+02  0.30000000000E+02  0.00000000000E+00 0.  1.
         23    2    1    2    0    0  0.00000000000E+00  0.00000000000E+00  0.00000000000E+00  0.60000000000E+02  0.60000000000E+02 0.  0.
          5    1    3    3  501    0 -0.13785969362E+02  0.25308070410E+02 -0.68817600140E+01  0.30000000000E+02  0.47000000000E+01 0.  1.
         -5    1    3    3    0  501  0.13785969362E+02 -0.25308070410E+02  0.68817600140E+01  0.30000000000E+02  0.47000000000E+01 0. -1.
</event>
<event>
 5    1  0.7673937E-002  0.6000000E+02  0.7546771E-02  0.1259629E+00
         11   -1    0    0    0    0  0.00000000000E+00  0.00000000000E+00  0.30000000000E+02  0.30000000000E+02  0.00000000000E+00 0.  1.
        -11   -1    0    0    0    0 -0.00000000000E+00 -0.00000000000E+00 -0.30000000000E+02  0.30000000000E+02  0.00000000000E+00 0. -1.
         23    2    1    2    0    0  0.00000000000E+00  0.00000000000E+00  0.00000000000E+00  0.60000000000E+02  0.60000000000E+02 0.  0.
          5    1    3    3  501    0 -0.12832858859E+02  0.12169976034E+02 -0.23772240468E+02  0.30000000000E+02  0.47000000000E+01 0. -1.
         -5    1    3    3    0  501  0.12832858859E+02 -0.12169976034E+02  0.23772240468E+02  0.30000000000E+02  0.47000000000E+01 0.  1.
</event>
<event>
 5    1  0.7673937E-002  0.6000000E+02  0.7546771E-02  0.1259629E+00
         11   -1    0    0    0    0  0.00000000000E+00  0.00000000000E+00  0.30000000000E+02  0.30000000000E+02  0.00000000000E+00 0. -1.
        -11   -1    0    0    0    0 -0.00000000000E+00 -0.00000000000E+00 -0.30000000000E+02  0.30000000000E+02  0.00000000000E+00 0.  1.
         23    2    1    2    0    0  0.00000000000E+00  0.00000000000E+00  0.00000000000E+00  0.60000000000E+02  0.60000000000E+02 0.  0.
          5    1    3    3  501    0  0.14413698034E+01 -0.29448727696E+02  0.29334093109E+01  0.30000000000E+02  0.47000000000E+01 0.  1.
         -5    1    3    3    0  501 -0.14413698034E+01  0.29448727696E+02 -0.29334093109E+01  0.30000000000E+02  0.47000000000E+01 0. -1.
</event>
<event>
 5    1  0.7673937E-002  0.6000000E+02  0.7546771E-02  0.1259629E+00
         11   -1    0    0    0    0  0.00000000000E+00  0.00000000000E+00  0.30000000000E+02  0.30000000000E+02  0.00000000000E+00 0.  1.
        -11   -1    0    0    0    0 -0.00000000000E+00 -0.00000000000E+00 -0.30000000000E+02  0.30000000000E+02  0.00000000000E+00 0. -1.
         23    2    1    2    0    0  0.00000000000E+00  0.00000000000E+00  0.00000000000E+00  0.60000000000E+02  0.60000000000E+02 0.  0.
          5    1    3    3  501    0  0.27919308335E+01  0.15211950474E+02 -0.25272745894E+02  0.30000000000E+02  0.47000000000E+01 0. -1.
         -5    1    3    3    0  501 -0.27919308335E+01 -0.15211950474E+02  0.25272745894E+02  0.30000000000E+02  0.47000000000E+01 0.  1.
</event>
<event>
 5    1  0.7673937E-002  0.6000000E+02  0.7546771E-02  0.1259629E+00
         11   -1    0    0    0    0  0.00000000000E+00  0.00000000000E+00  0.30000000000E+02  0.30000000000E+02  0.00000000000E+00 0.  1.
        -11   -1    0    0    0    0 -0.00000000000E+00 -0.00000000000E+00 -0.30000000000E+02  0.30000000000E+02  0.00000000000E+00 0. -1.
         23    2    1    2    0    0  0.00000000000E+00  0.00000000000E+00  0.00000000000E+00  0.60000000000E+02  0.60000000000E+02 0.  0.
          5    1    3    3  501    0 -0.30794197816E+01  0.86841439031E+01 -0.28160483279E+02  0.30000000000E+02  0.47000000000E+01 0. -1.
         -5    1    3    3    0  501  0.30794197816E+01 -0.86841439031E+01  0.28160483279E+02  0.30000000000E+02  0.47000000000E+01 0.  1.
</event>
<event>
 5    1  0.7673937E-002  0.6000000E+02  0.7546771E-02  0.1259629E+00
         11   -1    0    0    0    0  0.00000000000E+00  0.00000000000E+00  0.30000000000E+02  0.30000000000E+02  0.00000000000E+00 0.  1.
        -11   -1    0    0    0    0 -0.00000000000E+00 -0.00000000000E+00 -0.30000000000E+02  0.30000000000E+02  0.00000000000E+00 0. -1.
         23    2    1    2    0    0  0.00000000000E+00  0.00000000000E+00  0.00000000000E+00  0.60000000000E+02  0.60000000000E+02 0.  0.
          5    1    3    3  501    0  0.11101094534E+02  0.14610510795E+02 -0.23263892075E+02  0.30000000000E+02  0.47000000000E+01 0. -1.
         -5    1    3    3    0  501 -0.11101094534E+02 -0.14610510795E+02  0.23263892075E+02  0.30000000000E+02  0.47000000000E+01 0.  1.
</event>
<event>
 5    1  0.7673937E-002  0.6000000E+02  0.7546771E-02  0.1259629E+00
         11   -1    0    0    0    0  0.00000000000E+00  0.00000000000E+00  0.30000000000E+02  0.30000000000E+02  0.00000000000E+00 0. -1.
        -11   -1    0    0    0    0 -0.00000000000E+00 -0.00000000000E+00 -0.30000000000E+02  0.30000000000E+02  0.00000000000E+00 0.  1.
         23    2    1    2    0    0  0.00000000000E+00  0.00000000000E+00  0.00000000000E+00  0.60000000000E+02  0.60000000000E+02 0.  0.
          5    1    3    3  501    0 -0.99954088222E+01  0.15708405311E+02 -0.23048813528E+02  0.30000000000E+02  0.47000000000E+01 0.  1.
         -5    1    3    3    0  501  0.99954088222E+01 -0.15708405311E+02  0.23048813528E+02  0.30000000000E+02  0.47000000000E+01 0. -1.
</event>
<event>
 5    1  0.7673937E-002  0.6000000E+02  0.7546771E-02  0.1259629E+00
         11   -1    0    0    0    0  0.00000000000E+00  0.00000000000E+00  0.30000000000E+02  0.30000000000E+02  0.00000000000E+00 0.  1.
        -11   -1    0    0    0    0 -0.00000000000E+00 -0.00000000000E+00 -0.30000000000E+02  0.30000000000E+02  0.00000000000E+00 0. -1.
         23    2    1    2    0    0  0.00000000000E+00  0.00000000000E+00  0.00000000000E+00  0.60000000000E+02  0.60000000000E+02 0.  0.
          5    1    3    3  501    0 -0.23953166646E+02  0.14488831857E+02  0.97071911010E+01  0.30000000000E+02  0.47000000000E+01 0.  1.
         -5    1    3    3    0  501  0.23953166646E+02 -0.14488831857E+02 -0.97071911010E+01  0.30000000000E+02  0.47000000000E+01 0. -1.
</event>
<event>
 5    1  0.7673937E-002  0.6000000E+02  0.7546771E-02  0.1259629E+00
         11   -1    0    0    0    0  0.00000000000E+00  0.00000000000E+00  0.30000000000E+02  0.30000000000E+02  0.00000000000E+00 0.  1.
        -11   -1    0    0    0    0 -0.00000000000E+00 -0.00000000000E+00 -0.30000000000E+02  0.30000000000E+02  0.00000000000E+00 0. -1.
         23    2    1    2    0    0  0.00000000000E+00  0.00000000000E+00  0.00000000000E+00  0.60000000000E+02  0.60000000000E+02 0.  0.
          5    1    3    3  501    0  0.32019582611E+01 -0.17977486127E+02 -0.23333826430E+02  0.30000000000E+02  0.47000000000E+01 0. -1.
         -5    1    3    3    0  501 -0.32019582611E+01  0.17977486127E+02  0.23333826430E+02  0.30000000000E+02  0.47000000000E+01 0.  1.
</event>
<event>
 5    1  0.7673937E-002  0.6000000E+02  0.7546771E-02  0.1259629E+00
         11   -1    0    0    0    0  0.00000000000E+00  0.00000000000E+00  0.30000000000E+02  0.30000000000E+02  0.00000000000E+00 0. -1.
        -11   -1    0    0    0    0 -0.00000000000E+00 -0.00000000000E+00 -0.30000000000E+02  0.30000000000E+02  0.00000000000E+00 0.  1.
         23    2    1    2    0    0  0.00000000000E+00  0.00000000000E+00  0.00000000000E+00  0.60000000000E+02  0.60000000000E+02 0.  0.
          5    1    3    3  501    0  0.24836936030E+02  0.37546798134E+01  0.15714292479E+02  0.30000000000E+02  0.47000000000E+01 0. -1.
         -5    1    3    3    0  501 -0.24836936030E+02 -0.37546798134E+01 -0.15714292479E+02  0.30000000000E+02  0.47000000000E+01 0.  1.
</event>
<event>
 5    1  0.7673937E-002  0.6000000E+02  0.7546771E-02  0.1259629E+00
         11   -1    0    0    0    0  0.00000000000E+00  0.00000000000E+00  0.30000000000E+02  0.30000000000E+02  0.00000000000E+00 0. -1.
        -11   -1    0    0    0    0 -0.00000000000E+00 -0.00000000000E+00 -0.30000000000E+02  0.30000000000E+02  0.00000000000E+00 0.  1.
         23    2    1    2    0    0  0.00000000000E+00  0.00000000000E+00  0.00000000000E+00  0.60000000000E+02  0.60000000000E+02 0.  0.
          5    1    3    3  501    0 -0.27431710015E+02 -0.64881216838E+01 -0.91277359002E+01  0.30000000000E+02  0.47000000000E+01 0.  1.
         -5    1    3    3    0  501  0.27431710015E+02  0.64881216838E+01  0.91277359002E+01  0.30000000000E+02  0.47000000000E+01 0. -1.
</event>
<event>
 5    1  0.7673937E-002  0.6000000E+02  0.7546771E-02  0.1259629E+00
         11   -1    0    0    0    0  0.00000000000E+00  0.00000000000E+00  0.30000000000E+02  0.30000000000E+02  0.00000000000E+00 0. -1.
        -11   -1    0    0    0    0 -0.00000000000E+00 -0.00000000000E+00 -0.30000000000E+02  0.30000000000E+02  0.00000000000E+00 0.  1.
         23    2    1    2    0    0  0.00000000000E+00  0.00000000000E+00  0.00000000000E+00  0.60000000000E+02  0.60000000000E+02 0.  0.
          5    1    3    3  501    0  0.26604435004E+01  0.11726799010E+02  0.27079775209E+02  0.30000000000E+02  0.47000000000E+01 0. -1.
         -5    1    3    3    0  501 -0.26604435004E+01 -0.11726799010E+02 -0.27079775209E+02  0.30000000000E+02  0.47000000000E+01 0.  1.
</event>
<event>
 5    1  0.7673937E-002  0.6000000E+02  0.7546771E-02  0.1259629E+00
         11   -1    0    0    0    0  0.00000000000E+00  0.00000000000E+00  0.30000000000E+02  0.30000000000E+02  0.00000000000E+00 0.  1.
        -11   -1    0    0    0    0 -0.00000000000E+00 -0.00000000000E+00 -0.30000000000E+02  0.30000000000E+02  0.00000000000E+00 0. -1.
         23    2    1    2    0    0  0.00000000000E+00  0.00000000000E+00  0.00000000000E+00  0.60000000000E+02  0.60000000000E+02 0.  0.
          5    1    3    3  501    0  0.26911730165E+02 -0.29169310220E+01 -0.12048248542E+02  0.30000000000E+02  0.47000000000E+01 0. -1.
         -5    1    3    3    0  501 -0.26911730165E+02  0.29169310220E+01  0.12048248542E+02  0.30000000000E+02  0.47000000000E+01 0.  1.
</event>
<event>
 5    1  0.7673937E-002  0.6000000E+02  0.7546771E-02  0.1259629E+00
         11   -1    0    0    0    0  0.00000000000E+00  0.00000000000E+00  0.30000000000E+02  0.30000000000E+02  0.00000000000E+00 0.  1.
        -11   -1    0    0    0    0 -0.00000000000E+00 -0.00000000000E+00 -0.30000000000E+02  0.30000000000E+02  0.00000000000E+00 0. -1.
         23    2    1    2    0    0  0.00000000000E+00  0.00000000000E+00  0.00000000000E+00  0.60000000000E+02  0.60000000000E+02 0.  0.
          5    1    3    3  501    0  0.12361324060E+02  0.58286696252E+01 -0.26289432818E+02  0.30000000000E+02  0.47000000000E+01 0. -1.
         -5    1    3    3    0  501 -0.12361324060E+02 -0.58286696252E+01  0.26289432818E+02  0.30000000000E+02  0.47000000000E+01 0.  1.
</event>
<event>
 5    1  0.7673937E-002  0.6000000E+02  0.7546771E-02  0.1259629E+00
         11   -1    0    0    0    0  0.00000000000E+00  0.00000000000E+00  0.30000000000E+02  0.30000000000E+02  0.00000000000E+00 0.  1.
        -11   -1    0    0    0    0 -0.00000000000E+00 -0.00000000000E+00 -0.30000000000E+02  0.30000000000E+02  0.00000000000E+00 0. -1.
         23    2    1    2    0    0  0.00000000000E+00  0.00000000000E+00  0.00000000000E+00  0.60000000000E+02  0.60000000000E+02 0.  0.
          5    1    3    3  501    0  0.18004830760E+02  0.18984267609E+02 -0.13904447225E+02  0.30000000000E+02  0.47000000000E+01 0. -1.
         -5    1    3    3    0  501 -0.18004830760E+02 -0.18984267609E+02  0.13904447225E+02  0.30000000000E+02  0.47000000000E+01 0.  1.
</event>
<event>
 5    1  0.7673937E-002  0.6000000E+02  0.7546771E-02  0.1259629E+00
         11   -1    0    0    0    0  0.00000000000E+00  0.00000000000E+00  0.30000000000E+02  0.30000000000E+02  0.00000000000E+00 0.  1.
        -11   -1    0    0    0    0 -0.00000000000E+00 -0.00000000000E+00 -0.30000000000E+02  0.30000000000E+02  0.00000000000E+00 0. -1.
         23    2    1    2    0    0  0.00000000000E+00  0.00000000000E+00  0.00000000000E+00  0.60000000000E+02  0.60000000000E+02 0.  0.
          5    1    3    3  501    0 -0.82633584043E+01  0.12773479686E+02 -0.25425678449E+02  0.30000000000E+02  0.47000000000E+01 0. -1.
         -5    1    3    3    0  501  0.82633584043E+01 -0.12773479686E+02  0.25425678449E+02  0.30000000000E+02  0.47000000000E+01 0.  1.
</event>
<event>
 5    1  0.7673937E-002  0.6000000E+02  0.7546771E-02  0.1259629E+00
         11   -1    0    0    0    0  0.00000000000E+00  0.00000000000E+00  0.30000000000E+02  0.30000000000E+02  0.00000000000E+00 0.  1.
        -11   -1    0    0    0    0 -0.00000000000E+00 -0.00000000000E+00 -0.30000000000E+02  0.30000000000E+02  0.00000000000E+00 0. -1.
         23    2    1    2    0    0  0.00000000000E+00  0.00000000000E+00  0.00000000000E+00  0.60000000000E+02  0.60000000000E+02 0.  0.
          5    1    3    3  501    0 -0.56271560589E+00  0.31784658169E+01  0.29453195178E+02  0.30000000000E+02  0.47000000000E+01 0.  1.
         -5    1    3    3    0  501  0.56271560589E+00 -0.31784658169E+01 -0.29453195178E+02  0.30000000000E+02  0.47000000000E+01 0. -1.
</event>
<event>
 5    1  0.7673937E-002  0.6000000E+02  0.7546771E-02  0.1259629E+00
         11   -1    0    0    0    0  0.00000000000E+00  0.00000000000E+00  0.30000000000E+02  0.30000000000E+02  0.00000000000E+00 0.  1.
        -11   -1    0    0    0    0 -0.00000000000E+00 -0.00000000000E+00 -0.30000000000E+02  0.30000000000E+02  0.00000000000E+00 0. -1.
         23    2    1    2    0    0  0.00000000000E+00  0.00000000000E+00  0.00000000000E+00  0.60000000000E+02  0.60000000000E+02 0.  0.
          5    1    3    3  501    0  0.20344138354E+02 -0.16188863331E+02 -0.14210796552E+02  0.30000000000E+02  0.47000000000E+01 0. -1.
         -5    1    3    3    0  501 -0.20344138354E+02  0.16188863331E+02  0.14210796552E+02  0.30000000000E+02  0.47000000000E+01 0.  1.
</event>
<event>
 5    1  0.7673937E-002  0.6000000E+02  0.7546771E-02  0.1259629E+00
         11   -1    0    0    0    0  0.00000000000E+00  0.00000000000E+00  0.30000000000E+02  0.30000000000E+02  0.00000000000E+00 0. -1.
        -11   -1    0    0    0    0 -0.00000000000E+00 -0.00000000000E+00 -0.30000000000E+02  0.30000000000E+02  0.00000000000E+00 0.  1.
         23    2    1    2    0    0  0.00000000000E+00  0.00000000000E+00  0.00000000000E+00  0.60000000000E+02  0.60000000000E+02 0.  0.
          5    1    3    3  501    0 -0.16494599243E+02 -0.10412652064E+02 -0.22302799663E+02  0.30000000000E+02  0.47000000000E+01 0.  1.
         -5    1    3    3    0  501  0.16494599243E+02  0.10412652064E+02  0.22302799663E+02  0.30000000000E+02  0.47000000000E+01 0. -1.
</event>
<event>
 5    1  0.7673937E-002  0.6000000E+02  0.7546771E-02  0.1259629E+00
         11   -1    0    0    0    0  0.00000000000E+00  0.00000000000E+00  0.30000000000E+02  0.30000000000E+02  0.00000000000E+00 0. -1.
        -11   -1    0    0    0    0 -0.00000000000E+00 -0.00000000000E+00 -0.30000000000E+02  0.30000000000E+02  0.00000000000E+00 0.  1.
         23    2    1    2    0    0  0.00000000000E+00  0.00000000000E+00  0.00000000000E+00  0.60000000000E+02  0.60000000000E+02 0.  0.
          5    1    3    3  501    0 -0.26731616852E+01  0.13308181295E+02  0.26337359724E+02  0.30000000000E+02  0.47000000000E+01 0. -1.
         -5    1    3    3    0  501  0.26731616852E+01 -0.13308181295E+02 -0.26337359724E+02  0.30000000000E+02  0.47000000000E+01 0.  1.
</event>
<event>
 5    1  0.7673937E-002  0.6000000E+02  0.7546771E-02  0.1259629E+00
         11   -1    0    0    0    0  0.00000000000E+00  0.00000000000E+00  0.30000000000E+02  0.30000000000E+02  0.00000000000E+00 0.  1.
        -11   -1    0    0    0    0 -0.00000000000E+00 -0.00000000000E+00 -0.30000000000E+02  0.30000000000E+02  0.00000000000E+00 0. -1.
         23    2    1    2    0    0  0.00000000000E+00  0.00000000000E+00  0.00000000000E+00  0.60000000000E+02  0.60000000000E+02 0.  0.
          5    1    3    3  501    0 -0.10545428851E+02 -0.10086579306E+02 -0.25786912344E+02  0.30000000000E+02  0.47000000000E+01 0. -1.
         -5    1    3    3    0  501  0.10545428851E+02  0.10086579306E+02  0.25786912344E+02  0.30000000000E+02  0.47000000000E+01 0.  1.
</event>
<event>
 5    1  0.7673937E-002  0.6000000E+02  0.7546771E-02  0.1259629E+00
         11   -1    0    0    0    0  0.00000000000E+00  0.00000000000E+00  0.30000000000E+02  0.30000000000E+02  0.00000000000E+00 0.  1.
        -11   -1    0    0    0    0 -0.00000000000E+00 -0.00000000000E+00 -0.30000000000E+02  0.30000000000E+02  0.00000000000E+00 0. -1.
         23    2    1    2    0    0  0.00000000000E+00  0.00000000000E+00  0.00000000000E+00  0.60000000000E+02  0.60000000000E+02 0.  0.
          5    1    3    3  501    0 -0.13505069112E+02  0.25699203508E+02 -0.59223346216E+01  0.30000000000E+02  0.47000000000E+01 0. -1.
         -5    1    3    3    0  501  0.13505069112E+02 -0.25699203508E+02  0.59223346216E+01  0.30000000000E+02  0.47000000000E+01 0.  1.
</event>
<event>
 5    1  0.7673937E-002  0.6000000E+02  0.7546771E-02  0.1259629E+00
         11   -1    0    0    0    0  0.00000000000E+00  0.00000000000E+00  0.30000000000E+02  0.30000000000E+02  0.00000000000E+00 0.  1.
        -11   -1    0    0    0    0 -0.00000000000E+00 -0.00000000000E+00 -0.30000000000E+02  0.30000000000E+02  0.00000000000E+00 0. -1.
         23    2    1    2    0    0  0.00000000000E+00  0.00000000000E+00  0.00000000000E+00  0.60000000000E+02  0.60000000000E+02 0.  0.
          5    1    3    3  501    0 -0.28578599483E+00  0.24068772784E+01 -0.29530243279E+02  0.30000000000E+02  0.47000000000E+01 0. -1.
         -5    1    3    3    0  501  0.28578599483E+00 -0.24068772784E+01  0.29530243279E+02  0.30000000000E+02  0.47000000000E+01 0.  1.
</event>
<event>
 5    1  0.7673937E-002  0.6000000E+02  0.7546771E-02  0.1259629E+00
         11   -1    0    0    0    0  0.00000000000E+00  0.00000000000E+00  0.30000000000E+02  0.30000000000E+02  0.00000000000E+00 0.  1.
        -11   -1    0    0    0    0 -0.00000000000E+00 -0.00000000000E+00 -0.30000000000E+02  0.30000000000E+02  0.00000000000E+00 0. -1.
         23    2    1    2    0    0  0.00000000000E+00  0.00000000000E+00  0.00000000000E+00  0.60000000000E+02  0.60000000000E+02 0.  0.
          5    1    3    3  501    0  0.23969265043E+02  0.14545210391E+02 -0.95823372934E+01  0.30000000000E+02  0.47000000000E+01 0. -1.
         -5    1    3    3    0  501 -0.23969265043E+02 -0.14545210391E+02  0.95823372934E+01  0.30000000000E+02  0.47000000000E+01 0.  1.
</event>
<event>
 5    1  0.7673937E-002  0.6000000E+02  0.7546771E-02  0.1259629E+00
         11   -1    0    0    0    0  0.00000000000E+00  0.00000000000E+00  0.30000000000E+02  0.30000000000E+02  0.00000000000E+00 0.  1.
        -11   -1    0    0    0    0 -0.00000000000E+00 -0.00000000000E+00 -0.30000000000E+02  0.30000000000E+02  0.00000000000E+00 0. -1.
         23    2    1    2    0    0  0.00000000000E+00  0.00000000000E+00  0.00000000000E+00  0.60000000000E+02  0.60000000000E+02 0.  0.
          5    1    3    3  501    0  0.13628129408E+02 -0.10386084701E+02 -0.24172573993E+02  0.30000000000E+02  0.47000000000E+01 0. -1.
         -5    1    3    3    0  501 -0.13628129408E+02  0.10386084701E+02  0.24172573993E+02  0.30000000000E+02  0.47000000000E+01 0.  1.
</event>
<event>
 5    1  0.7673937E-002  0.6000000E+02  0.7546771E-02  0.1259629E+00
         11   -1    0    0    0    0  0.00000000000E+00  0.00000000000E+00  0.30000000000E+02  0.30000000000E+02  0.00000000000E+00 0. -1.
        -11   -1    0    0    0    0 -0.00000000000E+00 -0.00000000000E+00 -0.30000000000E+02  0.30000000000E+02  0.00000000000E+00 0.  1.
         23    2    1    2    0    0  0.00000000000E+00  0.00000000000E+00  0.00000000000E+00  0.60000000000E+02  0.60000000000E+02 0.  0.
          5    1    3    3  501    0  0.24066063107E+02 -0.14557242487E+02  0.93177946798E+01  0.30000000000E+02  0.47000000000E+01 0. -1.
         -5    1    3    3    0  501 -0.24066063107E+02  0.14557242487E+02 -0.93177946798E+01  0.30000000000E+02  0.47000000000E+01 0.  1.
</event>
<event>
 5    1  0.7673937E-002  0.6000000E+02  0.7546771E-02  0.1259629E+00
         11   -1    0    0    0    0  0.00000000000E+00  0.00000000000E+00  0.30000000000E+02  0.30000000000E+02  0.00000000000E+00 0.  1.
        -11   -1    0    0    0    0 -0.00000000000E+00 -0.00000000000E+00 -0.30000000000E+02  0.30000000000E+02  0.00000000000E+00 0. -1.
         23    2    1    2    0    0  0.00000000000E+00  0.00000000000E+00  0.00000000000E+00  0.60000000000E+02  0.60000000000E+02 0.  0.
          5    1    3    3  501    0 -0.16287386403E+02 -0.22486616388E+02  0.10343264842E+02  0.30000000000E+02  0.47000000000E+01 0.  1.
         -5    1    3    3    0  501  0.16287386403E+02  0.22486616388E+02 -0.10343264842E+02  0.30000000000E+02  0.47000000000E+01 0. -1.
</event>
<event>
 5    1  0.7673937E-002  0.6000000E+02  0.7546771E-02  0.1259629E+00
         11   -1    0    0    0    0  0.00000000000E+00  0.00000000000E+00  0.30000000000E+02  0.30000000000E+02  0.00000000000E+00 0.  1.
        -11   -1    0    0    0    0 -0.00000000000E+00 -0.00000000000E+00 -0.30000000000E+02  0.30000000000E+02  0.00000000000E+00 0. -1.
         23    2    1    2    0    0  0.00000000000E+00  0.00000000000E+00  0.00000000000E+00  0.60000000000E+02  0.60000000000E+02 0.  0.
          5    1    3    3  501    0 -0.18150611172E+02  0.53625981847E+00 -0.23413195841E+02  0.30000000000E+02  0.47000000000E+01 0. -1.
         -5    1    3    3    0  501  0.18150611172E+02 -0.53625981847E+00  0.23413195841E+02  0.30000000000E+02  0.47000000000E+01 0.  1.
</event>
<event>
 5    1  0.7673937E-002  0.6000000E+02  0.7546771E-02  0.1259629E+00
         11   -1    0    0    0    0  0.00000000000E+00  0.00000000000E+00  0.30000000000E+02  0.30000000000E+02  0.00000000000E+00 0. -1.
        -11   -1    0    0    0    0 -0.00000000000E+00 -0.00000000000E+00 -0.30000000000E+02  0.30000000000E+02  0.00000000000E+00 0.  1.
         23    2    1    2    0    0  0.00000000000E+00  0.00000000000E+00  0.00000000000E+00  0.60000000000E+02  0.60000000000E+02 0.  0.
          5    1    3    3  501    0  0.24987469044E+02 -0.86018555335E+01 -0.13399420591E+02  0.30000000000E+02  0.47000000000E+01 0. -1.
         -5    1    3    3    0  501 -0.24987469044E+02  0.86018555335E+01  0.13399420591E+02  0.30000000000E+02  0.47000000000E+01 0.  1.
</event>
<event>
 5    1  0.7673937E-002  0.6000000E+02  0.7546771E-02  0.1259629E+00
         11   -1    0    0    0    0  0.00000000000E+00  0.00000000000E+00  0.30000000000E+02  0.30000000000E+02  0.00000000000E+00 0.  1.
        -11   -1    0    0    0    0 -0.00000000000E+00 -0.00000000000E+00 -0.30000000000E+02  0.30000000000E+02  0.00000000000E+00 0. -1.
         23    2    1    2    0    0  0.00000000000E+00  0.00000000000E+00  0.00000000000E+00  0.60000000000E+02  0.60000000000E+02 0.  0.
          5    1    3    3  501    0  0.25909960738E+02 -0.13907249220E+02  0.36293737318E+01  0.30000000000E+02  0.47000000000E+01 0.  1.
         -5    1    3    3    0  501 -0.25909960738E+02  0.13907249220E+02 -0.36293737318E+01  0.30000000000E+02  0.47000000000E+01 0. -1.
</event>
