<event>
 5    1  0.7624361E-002  0.6000000E+02  0.7546771E-02  0.1259629E+00
         11   -1    0    0    0    0  0.00000000000E+00  0.00000000000E+00  0.30000000000E+02  0.30000000000E+02  0.00000000000E+00 0.  1.
        -11   -1    0    0    0    0 -0.00000000000E+00 -0.00000000000E+00 -0.30000000000E+02  0.30000000000E+02  0.00000000000E+00 0. -1.
         23    2    1    2    0    0  0.00000000000E+00  0.00000000000E+00  0.00000000000E+00  0.60000000000E+02  0.60000000000E+02 0.  0.
          5    1    3    3  501    0 -0.13587733202E+02  0.31813423198E+01 -0.26137378742E+02  0.30000000000E+02  0.47000000000E+01 0. -1.
         -5    1    3    3    0  501  0.13587733202E+02 -0.31813423198E+01  0.26137378742E+02  0.30000000000E+02  0.47000000000E+01 0.  1.
</event>
<event>
 5    1  0.7624361E-002  0.6000000E+02  0.7546771E-02  0.1259629E+00
         11   -1    0    0    0    0  0.00000000000E+00  0.00000000000E+00  0.30000000000E+02  0.30000000000E+02  0.00000000000E+00 0.  1.
        -11   -1    0    0    0    0 -0.00000000000E+00 -0.00000000000E+00 -0.30000000000E+02  0.30000000000E+02  0.00000000000E+00 0. -1.
         23    2    1    2    0    0  0.00000000000E+00  0.00000000000E+00  0.00000000000E+00  0.60000000000E+02  0.60000000000E+02 0.  0.
          5    1    3    3  501    0  0.22423535556E+02 -0.14870954106E+01  0.19310194209E+02  0.30000000000E+02  0.47000000000E+01 0.  1.
         -5    1    3    3    0  501 -0.22423535556E+02  0.14870954106E+01 -0.19310194209E+02  0.30000000000E+02  0.47000000000E+01 0. -1.
</event>
<event>
 5    1  0.7624361E-002  0.6000000E+02  0.7546771E-02  0.1259629E+00
         11   -1    0    0    0    0  0.00000000000E+00  0.00000000000E+00  0.30000000000E+02  0.30000000000E+02  0.00000000000E+00 0. -1.
        -11   -1    0    0    0    0 -0.00000000000E+00 -0.00000000000E+00 -0.30000000000E+02  0.30000000000E+02  0.00000000000E+00 0.  1.
         23    2    1    2    0    0  0.00000000000E+00  0.00000000000E+00  0.00000000000E+00  0.60000000000E+02  0.60000000000E+02 0.  0.
          5    1    3    3  501    0 -0.22793986281E+02  0.90663036162E+01  0.16617651102E+02  0.30000000000E+02  0.47000000000E+01 0. -1.
         -5    1    3    3    0  501  0.22793986281E+02 -0.90663036162E+01 -0.16617651102E+02  0.30000000000E+02  0.47000000000E+01 0.  1.
</event>
<event>
 5    1  0.7624361E-002  0.6000000E+02  0.7546771E-02  0.1259629E+00
         11   -1    0    0    0    0  0.00000000000E+00  0.00000000000E+00  0.30000000000E+02  0.30000000000E+02  0.00000000000E+00 0.  1.
        -11   -1    0    0    0    0 -0.00000000000E+00 -0.00000000000E+00 -0.30000000000E+02  0.30000000000E+02  0.00000000000E+00 0. -1.
         23    2    1    2    0    0  0.00000000000E+00  0.00000000000E+00  0.00000000000E+00  0.60000000000E+02  0.60000000000E+02 0.  0.
          5    1    3    3  501    0 -0.11268676388E+02  0.13016626571E+02 -0.24114194268E+02  0.30000000000E+02  0.47000000000E+01 0. -1.
         -5    1    3    3    0  501  0.11268676388E+02 -0.13016626571E+02  0.24114194268E+02  0.30000000000E+02  0.47000000000E+01 0.  1.
</event>
<event>
 5    1  0.7624361E-002  0.6000000E+02  0.7546771E-02  0.1259629E+00
         11   -1    0    0    0    0  0.00000000000E+00  0.00000000000E+00  0.30000000000E+02  0.30000000000E+02  0.00000000000E+00 0.  1.
        -11   -1    0    0    0    0 -0.00000000000E+00 -0.00000000000E+00 -0.30000000000E+02  0.30000000000E+02  0.00000000000E+00 0. -1.
         23    2    1    2    0    0  0.00000000000E+00  0.00000000000E+00  0.00000000000E+00  0.60000000000E+02  0.60000000000E+02 0.  0.
          5    1    3    3  501    0 -0.13538453680E+02 -0.17161063534E+02 -0.20002954040E+02  0.30000000000E+02  0.47000000000E+01 0. -1.
         -5    1    3    3    0  501  0.13538453680E+02  0.17161063534E+02  0.20002954040E+02  0.30000000000E+02  0.47000000000E+01 0.  1.
</event>
<event>
 5    1  0.7624361E-002  0.6000000E+02  0.7546771E-02  0.1259629E+00
         11   -1    0    0    0    0  0.00000000000E+00  0.00000000000E+00  0.30000000000E+02  0.30000000000E+02  0.00000000000E+00 0.  1.
        -11   -1    0    0    0    0 -0.00000000000E+00 -0.00000000000E+00 -0.30000000000E+02  0.30000000000E+02  0.00000000000E+00 0. -1.
         23    2    1    2    0    0  0.00000000000E+00  0.00000000000E+00  0.00000000000E+00  0.60000000000E+02  0.60000000000E+02 0.  0.
          5    1    3    3  501    0 -0.29369326005E+02 -0.71183076256E+00 -0.38530490503E+01  0.30000000000E+02  0.47000000000E+01 0. -1.
         -5    1    3    3    0  501  0.29369326005E+02  0.71183076256E+00  0.38530490503E+01  0.30000000000E+02  0.47000000000E+01 0.  1.
</event>
<event>
 5    1  0.7624361E-002  0.6000000E+02  0.7546771E-02  0.1259629E+00
         11   -1    0    0    0    0  0.00000000000E+00  0.00000000000E+00  0.30000000000E+02  0.30000000000E+02  0.00000000000E+00 0.  1.
        -11   -1    0    0    0    0 -0.00000000000E+00 -0.00000000000E+00 -0.30000000000E+02  0.30000000000E+02  0.00000000000E+00 0. -1.
         23    2    1    2    0    0  0.00000000000E+00  0.00000000000E+00  0.00000000000E+00  0.60000000000E+02  0.60000000000E+02 0.  0.
          5    1    3    3  501    0  0.12885744664E+02  0.49366883520E+00 -0.26676279267E+02  0.30000000000E+02  0.47000000000E+01 0. -1.
         -5    1    3    3    0  501 -0.12885744664E+02 -0.49366883520E+00  0.26676279267E+02  0.30000000000E+02  0.47000000000E+01 0.  1.
</event>
<event>
 5    1  0.7624361E-002  0.6000000E+02  0.7546771E-02  0.1259629E+00
         11   -1    0    0    0    0  0.00000000000E+00  0.00000000000E+00  0.30000000000E+02  0.30000000000E+02  0.00000000000E+00 0.  1.
        -11   -1    0    0    0    0 -0.00000000000E+00 -0.00000000000E+00 -0.30000000000E+02  0.30000000000E+02  0.00000000000E+00 0. -1.
         23    2    1    2    0    0  0.00000000000E+00  0.00000000000E+00  0.00000000000E+00  0.60000000000E+02  0.60000000000E+02 0.  0.
          5    1    3    3  501    0 -0.26805367123E+02 -0.58421112100E+00  0.12611145498E+02  0.30000000000E+02  0.47000000000E+01 0. -1.
         -5    1    3    3    0  501  0.26805367123E+02  0.58421112100E+00 -0.12611145498E+02  0.30000000000E+02  0.47000000000E+01 0.  1.
</event>
<event>
 5    1  0.7624361E-002  0.6000000E+02  0.7546771E-02  0.1259629E+00
         11   -1    0    0    0    0  0.00000000000E+00  0.00000000000E+00  0.30000000000E+02  0.30000000000E+02  0.00000000000E+00 0.  1.
        -11   -1    0    0    0    0 -0.00000000000E+00 -0.00000000000E+00 -0.30000000000E+02  0.30000000000E+02  0.00000000000E+00 0. -1.
         23    2    1    2    0    0  0.00000000000E+00  0.00000000000E+00  0.00000000000E+00  0.60000000000E+02  0.60000000000E+02 0.  0.
          5    1    3    3  501    0 -0.46826989140E+01 -0.20379099351E+02 -0.20992251917E+02  0.30000000000E+02  0.47000000000E+01 0. -1.
         -5    1    3    3    0  501  0.46826989140E+01  0.20379099351E+02  0.20992251917E+02  0.30000000000E+02  0.47000000000E+01 0.  1.
</event>
<event>
 5    1  0.7624361E-002  0.6000000E+02  0.7546771E-02  0.1259629E+00
         11   -1    0    0    0    0  0.00000000000E+00  0.00000000000E+00  0.30000000000E+02  0.30000000000E+02  0.00000000000E+00 0.  1.
        -11   -1    0    0    0    0 -0.00000000000E+00 -0.00000000000E+00 -0.30000000000E+02  0.30000000000E+02  0.00000000000E+00 0. -1.
         23    2    1    2    0    0  0.00000000000E+00  0.00000000000E+00  0.00000000000E+00  0.60000000000E+02  0.60000000000E+02 0.  0.
          5    1    3    3  501    0  0.29212655795E+02 -0.43597460787E+01 -0.23501820231E+01  0.30000000000E+02  0.47000000000E+01 0. -1.
         -5    1    3    3    0  501 -0.29212655795E+02  0.43597460787E+01  0.23501820231E+01  0.30000000000E+02  0.47000000000E+01 0.  1.
</event>
<event>
 5    1  0.7624361E-002  0.6000000E+02  0.7546771E-02  0.1259629E+00
         11   -1    0    0    0    0  0.00000000000E+00  0.00000000000E+00  0.30000000000E+02  0.30000000000E+02  0.00000000000E+00 0.  1.
        -11   -1    0    0    0    0 -0.00000000000E+00 -0.00000000000E+00 -0.30000000000E+02  0.30000000000E+02  0.00000000000E+00 0. -1.
         23    2    1    2    0    0  0.00000000000E+00  0.00000000000E+00  0.00000000000E+00  0.60000000000E+02  0.60000000000E+02 0.  0.
          5    1    3    3  501    0  0.87262896556E+01  0.22794247532E+02 -0.16798337665E+02  0.30000000000E+02  0.47000000000E+01 0. -1.
         -5    1    3    3    0  501 -0.87262896556E+01 -0.22794247532E+02  0.16798337665E+02  0.30000000000E+02  0.47000000000E+01 0.  1.
</event>
<event>
 5    1  0.7624361E-002  0.6000000E+02  0.7546771E-02  0.1259629E+00
         11   -1    0    0    0    0  0.00000000000E+00  0.00000000000E+00  0.30000000000E+02  0.30000000000E+02  0.00000000000E+00 0.  1.
        -11   -1    0    0    0    0 -0.00000000000E+00 -0.00000000000E+00 -0.30000000000E+02  0.30000000000E+02  0.00000000000E+00 0. -1.
         23    2    1    2    0    0  0.00000000000E+00  0.00000000000E+00  0.00000000000E+00  0.60000000000E+02  0.60000000000E+02 0.  0.
          5    1    3    3  501    0  0.27705866619E+01 -0.29488754944E+02  0.80447584604E+00  0.30000000000E+02  0.47000000000E+01 0. -1.
         -5    1    3    3    0  501 -0.27705866619E+01  0.29488754944E+02 -0.80447584604E+00  0.30000000000E+02  0.47000000000E+01 0.  1.
</event>
<event>
 5    1  0.7624361E-002  0.6000000E+02  0.7546771E-02  0.1259629E+00
         11   -1    0    0    0    0  0.00000000000E+00  0.00000000000E+00  0.30000000000E+02  0.30000000000E+02  0.00000000000E+00 0.  1.
        -11   -1    0    0    0    0 -0.00000000000E+00 -0.00000000000E+00 -0.30000000000E+02  0.30000000000E+02  0.00000000000E+00 0. -1.
         23    2    1    2    0    0  0.00000000000E+00  0.00000000000E+00  0.00000000000E+00  0.60000000000E+02  0.60000000000E+02 0.  0.
          5    1    3    3  501    0  0.22020540009E+02  0.16026030749E+01 -0.19759490912E+02  0.30000000000E+02  0.47000000000E+01 0. -1.
         -5    1    3    3    0  501 -0.22020540009E+02 -0.16026030749E+01  0.19759490912E+02  0.30000000000E+02  0.47000000000E+01 0.  1.
</event>
<event>
 5    1  0.7624361E-002  0.6000000E+02  0.7546771E-02  0.1259629E+00
         11   -1    0    0    0    0  0.00000000000E+00  0.00000000000E+00  0.30000000000E+02  0.30000000000E+02  0.00000000000E+00 0.  1.
        -11   -1    0    0    0    0 -0.00000000000E+00 -0.00000000000E+00 -0.30000000000E+02  0.30000000000E+02  0.00000000000E+00 0. -1.
         23    2    1    2    0    0  0.00000000000E+00  0.00000000000E+00  0.00000000000E+00  0.60000000000E+02  0.60000000000E+02 0.  0.
          5    1    3    3  501    0  0.26065821411E+02  0.13719688432E+02 -0.32020467699E+01  0.30000000000E+02  0.47000000000E+01 0. -1.
         -5    1    3    3    0  501 -0.26065821411E+02 -0.13719688432E+02  0.32020467699E+01  0.30000000000E+02  0.47000000000E+01 0.  1.
</event>
<event>
 5    1  0.7624361E-002  0.6000000E+02  0.7546771E-02  0.1259629E+00
         11   -1    0    0    0    0  0.00000000000E+00  0.00000000000E+00  0.30000000000E+02  0.30000000000E+02  0.00000000000E+00 0. -1.
        -11   -1    0    0    0    0 -0.00000000000E+00 -0.00000000000E+00 -0.30000000000E+02  0.30000000000E+02  0.00000000000E+00 0.  1.
         23    2    1    2    0    0  0.00000000000E+00  0.00000000000E+00  0.00000000000E+00  0.60000000000E+02  0.60000000000E+02 0.  0.
          5    1    3    3  501    0  0.35285501681E-01  0.28323399248E+02 -0.87002189620E+01  0.30000000000E+02  0.47000000000E+01 0.  1.
         -5    1    3    3    0  501 -0.35285501681E-01 -0.28323399248E+02  0.87002189620E+01  0.30000000000E+02  0.47000000000E+01 0. -1.
</event>
<event>
 5    1  0.7624361E-002  0.6000000E+02  0.7546771E-02  0.1259629E+00
         11   -1    0    0    0    0  0.00000000000E+00  0.00000000000E+00  0.30000000000E+02  0.30000000000E+02  0.00000000000E+00 0.  1.
        -11   -1    0    0    0    0 -0.00000000000E+00 -0.00000000000E+00 -0.30000000000E+02  0.30000000000E+02  0.00000000000E+00 0. -1.
         23    2    1    2    0    0  0.00000000000E+00  0.00000000000E+00  0.00000000000E+00  0.60000000000E+02  0.60000000000E+02 0.  0.
          5    1    3    3  501    0  0.23437996033E+02  0.25432534412E+01 -0.17947206019E+02  0.30000000000E+02  0.47000000000E+01 0. -1.
         -5    1    3    3    0  501 -0.23437996033E+02 -0.25432534412E+01  0.17947206019E+02  0.30000000000E+02  0.47000000000E+01 0.  1.
</event>
<event>
 5    1  0.7624361E-002  0.6000000E+02  0.7546771E-02  0.1259629E+00
         11   -1    0    0    0    0  0.00000000000E+00  0.00000000000E+00  0.30000000000E+02  0.30000000000E+02  0.00000000000E+00 0. -1.
        -11   -1    0    0    0    0 -0.00000000000E+00 -0.00000000000E+00 -0.30000000000E+02  0.30000000000E+02  0.00000000000E+00 0.  1.
         23    2    1    2    0    0  0.00000000000E+00  0.00000000000E+00  0.00000000000E+00  0.60000000000E+02  0.60000000000E+02 0.  0.
          5    1    3    3  501    0 -0.28001086790E+01 -0.20118922830E+02  0.21570775034E+02  0.30000000000E+02  0.47000000000E+01 0. -1.
         -5    1    3    3    0  501  0.28001086790E+01  0.20118922830E+02 -0.21570775034E+02  0.30000000000E+02  0.47000000000E+01 0.  1.
</event>
<event>
 5    1  0.7624361E-002  0.6000000E+02  0.7546771E-02  0.1259629E+00
         11   -1    0    0    0    0  0.00000000000E+00  0.00000000000E+00  0.30000000000E+02  0.30000000000E+02  0.00000000000E+00 0.  1.
        -11   -1    0    0    0    0 -0.00000000000E+00 -0.00000000000E+00 -0.30000000000E+02  0.30000000000E+02  0.00000000000E+00 0. -1.
         23    2    1    2    0    0  0.00000000000E+00  0.00000000000E+00  0.00000000000E+00  0.60000000000E+02  0.60000000000E+02 0.  0.
          5    1    3    3  501    0  0.12170857375E+02 -0.15209176214E+01 -0.26971596919E+02  0.30000000000E+02  0.47000000000E+01 0. -1.
         -5    1    3    3    0  501 -0.12170857375E+02  0.15209176214E+01  0.26971596919E+02  0.30000000000E+02  0.47000000000E+01 0.  1.
</event>
<event>
 5    1  0.7624361E-002  0.6000000E+02  0.7546771E-02  0.1259629E+00
         11   -1    0    0    0    0  0.00000000000E+00  0.00000000000E+00  0.30000000000E+02  0.30000000000E+02  0.00000000000E+00 0. -1.
        -11   -1    0    0    0    0 -0.00000000000E+00 -0.00000000000E+00 -0.30000000000E+02  0.30000000000E+02  0.00000000000E+00 0.  1.
         23    2    1    2    0    0  0.00000000000E+00  0.00000000000E+00  0.00000000000E+00  0.60000000000E+02  0.60000000000E+02 0.  0.
          5    1    3    3  501    0 -0.88350800700E+01 -0.21418214036E+02 -0.18469203222E+02  0.30000000000E+02  0.47000000000E+01 0.  1.
         -5    1    3    3    0  501  0.88350800700E+01  0.21418214036E+02  0.18469203222E+02  0.30000000000E+02  0.47000000000E+01 0. -1.
</event>
<event>
 5    1  0.7624361E-002  0.6000000E+02  0.7546771E-02  0.1259629E+00
         11   -1    0    0    0    0  0.00000000000E+00  0.00000000000E+00  0.30000000000E+02  0.30000000000E+02  0.00000000000E+00 0.  1.
        -11   -1    0    0    0    0 -0.00000000000E+00 -0.00000000000E+00 -0.30000000000E+02  0.30000000000E+02  0.00000000000E+00 0. -1.
         23    2    1    2    0    0  0.00000000000E+00  0.00000000000E+00  0.00000000000E+00  0.60000000000E+02  0.60000000000E+02 0.  0.
          5    1    3    3  501    0 -0.44556065339E+01  0.11294843351E+02 -0.27027469066E+02  0.30000000000E+02  0.47000000000E+01 0. -1.
         -5    1    3    3    0  501  0.44556065339E+01 -0.11294843351E+02  0.27027469066E+02  0.30000000000E+02  0.47000000000E+01 0.  1.
</event>
<event>
 5    1  0.7624361E-002  0.6000000E+02  0.7546771E-02  0.1259629E+00
         11   -1    0    0    0    0  0.00000000000E+00  0.00000000000E+00  0.30000000000E+02  0.30000000000E+02  0.00000000000E+00 0.  1.
        -11   -1    0    0    0    0 -0.00000000000E+00 -0.00000000000E+00 -0.30000000000E+02  0.30000000000E+02  0.00000000000E+00 0. -1.
         23    2    1    2    0    0  0.00000000000E+00  0.00000000000E+00  0.00000000000E+00  0.60000000000E+02  0.60000000000E+02 0.  0.
          5    1    3    3  501    0 -0.25830241911E+01 -0.29201318372E+02 -0.43036021400E+01  0.30000000000E+02  0.47000000000E+01 0. -1.
         -5    1    3    3    0  501  0.25830241911E+01  0.29201318372E+02  0.43036021400E+01  0.30000000000E+02  0.47000000000E+01 0.  1.
</event>
<event>
 5    1  0.7624361E-002  0.6000000E+02  0.7546771E-02  0.1259629E+00
         11   -1    0    0    0    0  0.00000000000E+00  0.00000000000E+00  0.30000000000E+02  0.30000000000E+02  0.00000000000E+00 0.  1.
        -11   -1    0    0    0    0 -0.00000000000E+00 -0.00000000000E+00 -0.30000000000E+02  0.30000000000E+02  0.00000000000E+00 0. -1.
         23    2    1    2    0    0  0.00000000000E+00  0.00000000000E+00  0.00000000000E+00  0.60000000000E+02  0.60000000000E+02 0.  0.
          5    1    3    3  501    0 -0.18284298981E+01 -0.70428383775E+01 -0.28722208684E+02  0.30000000000E+02  0.47000000000E+01 0. -1.
         -5    1    3    3    0  501  0.18284298981E+01  0.70428383775E+01  0.28722208684E+02  0.30000000000E+02  0.47000000000E+01 0.  1.
</event>
<event>
 5    1  0.7624361E-002  0.6000000E+02  0.7546771E-02  0.1259629E+00
         11   -1    0    0    0    0  0.00000000000E+00  0.00000000000E+00  0.30000000000E+02  0.30000000000E+02  0.00000000000E+00 0.  1.
        -11   -1    0    0    0    0 -0.00000000000E+00 -0.00000000000E+00 -0.30000000000E+02  0.30000000000E+02  0.00000000000E+00 0. -1.
         23    2    1    2    0    0  0.00000000000E+00  0.00000000000E+00  0.00000000000E+00  0.60000000000E+02  0.60000000000E+02 0.  0.
          5    1    3    3  501    0 -0.37629115965E+01 -0.14549201681E+02 -0.25535685359E+02  0.30000000000E+02  0.47000000000E+01 0. -1.
         -5    1    3    3    0  501  0.37629115965E+01  0.14549201681E+02  0.25535685359E+02  0.30000000000E+02  0.47000000000E+01 0.  1.
</event>
<event>
 5    1  0.7624361E-002  0.6000000E+02  0.7546771E-02  0.1259629E+00
         11   -1    0    0    0    0  0.00000000000E+00  0.00000000000E+00  0.30000000000E+02  0.30000000000E+02  0.00000000000E+00 0.  1.
        -11   -1    0    0    0    0 -0.00000000000E+00 -0.00000000000E+00 -0.30000000000E+02  0.30000000000E+02  0.00000000000E+00 0. -1.
         23    2    1    2    0    0  0.00000000000E+00  0.00000000000E+00  0.00000000000E+00  0.60000000000E+02  0.60000000000E+02 0.  0.
          5    1    3    3  501    0 -0.38688903429E+00 -0.33088109843E+01 -0.29441672621E+02  0.30000000000E+02  0.47000000000E+01 0. -1.
         -5    1    3    3    0  501  0.38688903429E+00  0.33088109843E+01  0.29441672621E+02  0.30000000000E+02  0.47000000000E+01 0.  1.
</event>
<event>
 5    1  0.7624361E-002  0.6000000E+02  0.7546771E-02  0.1259629E+00
         11   -1    0    0    0    0  0.00000000000E+00  0.00000000000E+00  0.30000000000E+02  0.30000000000E+02  0.00000000000E+00 0.  1.
        -11   -1    0    0    0    0 -0.00000000000E+00 -0.00000000000E+00 -0.30000000000E+02  0.30000000000E+02  0.00000000000E+00 0. -1.
         23    2    1    2    0    0  0.00000000000E+00  0.00000000000E+00  0.00000000000E+00  0.60000000000E+02  0.60000000000E+02 0.  0.
          5    1    3    3  501    0 -0.17718452777E+02 -0.18299715629E+01 -0.23677365463E+02  0.30000000000E+02  0.47000000000E+01 0. -1.
         -5    1    3    3    0  501  0.17718452777E+02  0.18299715629E+01  0.23677365463E+02  0.30000000000E+02  0.47000000000E+01 0.  1.
</event>
<event>
 5    1  0.7624361E-002  0.6000000E+02  0.7546771E-02  0.1259629E+00
         11   -1    0    0    0    0  0.00000000000E+00  0.00000000000E+00  0.30000000000E+02  0.30000000000E+02  0.00000000000E+00 0. -1.
        -11   -1    0    0    0    0 -0.00000000000E+00 -0.00000000000E+00 -0.30000000000E+02  0.30000000000E+02  0.00000000000E+00 0.  1.
         23    2    1    2    0    0  0.00000000000E+00  0.00000000000E+00  0.00000000000E+00  0.60000000000E+02  0.60000000000E+02 0.  0.
          5    1    3    3  501    0 -0.11552347622E+02  0.10723306412E+02 -0.25089120431E+02  0.30000000000E+02  0.47000000000E+01 0.  1.
         -5    1    3    3    0  501  0.11552347622E+02 -0.10723306412E+02  0.25089120431E+02  0.30000000000E+02  0.47000000000E+01 0. -1.
</event>
<event>
 5    1  0.7624361E-002  0.6000000E+02  0.7546771E-02  0.1259629E+00
         11   -1    0    0    0    0  0.00000000000E+00  0.00000000000E+00  0.30000000000E+02  0.30000000000E+02  0.00000000000E+00 0. -1.
        -11   -1    0    0    0    0 -0.00000000000E+00 -0.00000000000E+00 -0.30000000000E+02  0.30000000000E+02  0.00000000000E+00 0.  1.
         23    2    1    2    0    0  0.00000000000E+00  0.00000000000E+00  0.00000000000E+00  0.60000000000E+02  0.60000000000E+02 0.  0.
          5    1    3    3  501    0 -0.16907247854E+02  0.86415202142E+01 -0.22745968838E+02  0.30000000000E+02  0.47000000000E+01 0.  1.
         -5    1    3    3    0  501  0.16907247854E+02 -0.86415202142E+01  0.22745968838E+02  0.30000000000E+02  0.47000000000E+01 0. -1.
</event>
<event>
 5    1  0.7624361E-002  0.6000000E+02  0.7546771E-02  0.1259629E+00
         11   -1    0    0    0    0  0.00000000000E+00  0.00000000000E+00  0.30000000000E+02  0.30000000000E+02  0.00000000000E+00 0. -1.
        -11   -1    0    0    0    0 -0.00000000000E+00 -0.00000000000E+00 -0.30000000000E+02  0.30000000000E+02  0.00000000000E+00 0.  1.
         23    2    1    2    0    0  0.00000000000E+00  0.00000000000E+00  0.00000000000E+00  0.60000000000E+02  0.60000000000E+02 0.  0.
          5    1    3    3  501    0  0.87620003237E+01  0.16794994699E+01  0.28254497551E+02  0.30000000000E+02  0.47000000000E+01 0. -1.
         -5    1    3    3    0  501 -0.87620003237E+01 -0.16794994699E+01 -0.28254497551E+02  0.30000000000E+02  0.47000000000E+01 0.  1.
</event>
<event>
 5    1  0.7624361E-002  0.6000000E+02  0.7546771E-02  0.1259629E+00
         11   -1    0    0    0    0  0.00000000000E+00  0.00000000000E+00  0.30000000000E+02  0.30000000000E+02  0.00000000000E+00 0.  1.
        -11   -1    0    0    0    0 -0.00000000000E+00 -0.00000000000E+00 -0.30000000000E+02  0.30000000000E+02  0.00000000000E+00 0. -1.
         23    2    1    2    0    0  0.00000000000E+00  0.00000000000E+00  0.00000000000E+00  0.60000000000E+02  0.60000000000E+02 0.  0.
          5    1    3    3  501    0  0.17941504745E+02  0.13089385513E+02 -0.19613270874E+02  0.30000000000E+02  0.47000000000E+01 0. -1.
         -5    1    3    3    0  501 -0.17941504745E+02 -0.13089385513E+02  0.19613270874E+02  0.30000000000E+02  0.47000000000E+01 0.  1.
</event>
<event>
 5    1  0.7624361E-002  0.6000000E+02  0.7546771E-02  0.1259629E+00
         11   -1    0    0    0    0  0.00000000000E+00  0.00000000000E+00  0.30000000000E+02  0.30000000000E+02  0.00000000000E+00 0.  1.
        -11   -1    0    0    0    0 -0.00000000000E+00 -0.00000000000E+00 -0.30000000000E+02  0.30000000000E+02  0.00000000000E+00 0. -1.
         23    2    1    2    0    0  0.00000000000E+00  0.00000000000E+00  0.00000000000E+00  0.60000000000E+02  0.60000000000E+02 0.  0.
          5    1    3    3  501    0 -0.18079479328E+02  0.15409803985E+02 -0.17708200597E+02  0.30000000000E+02  0.47000000000E+01 0. -1.
         -5    1    3    3    0  501  0.18079479328E+02 -0.15409803985E+02  0.17708200597E+02  0.30000000000E+02  0.47000000000E+01 0.  1.
</event>
<event>
 5    1  0.7624361E-002  0.6000000E+02  0.7546771E-02  0.1259629E+00
         11   -1    0    0    0    0  0.00000000000E+00  0.00000000000E+00  0.30000000000E+02  0.30000000000E+02  0.00000000000E+00 0. -1.
        -11   -1    0    0    0    0 -0.00000000000E+00 -0.00000000000E+00 -0.30000000000E+02  0.30000000000E+02  0.00000000000E+00 0.  1.
         23    2    1    2    0    0  0.00000000000E+00  0.00000000000E+00  0.00000000000E+00  0.60000000000E+02  0.60000000000E+02 0.  0.
          5    1    3    3  501    0 -0.26940318865E+01  0.27767919987E+02 -0.99797200256E+01  0.30000000000E+02  0.47000000000E+01 0.  1.
         -5    1    3    3    0  501  0.26940318865E+01 -0.27767919987E+02  0.99797200256E+01  0.30000000000E+02  0.47000000000E+01 0. -1.
</event>
<event>
 5    1  0.7624361E-002  0.6000000E+02  0.7546771E-02  0.1259629E+00
         11   -1    0    0    0    0  0.00000000000E+00  0.00000000000E+00  0.30000000000E+02  0.30000000000E+02  0.00000000000E+00 0.  1.
        -11   -1    0    0    0    0 -0.00000000000E+00 -0.00000000000E+00 -0.30000000000E+02  0.30000000000E+02  0.00000000000E+00 0. -1.
         23    2    1    2    0    0  0.00000000000E+00  0.00000000000E+00  0.00000000000E+00  0.60000000000E+02  0.60000000000E+02 0.  0.
          5    1    3    3  501    0  0.22060827025E+02 -0.14414830502E+02  0.13544097333E+02  0.30000000000E+02  0.47000000000E+01 0. -1.
         -5    1    3    3    0  501 -0.22060827025E+02  0.14414830502E+02 -0.13544097333E+02  0.30000000000E+02  0.47000000000E+01 0.  1.
</event>
<event>
 5    1  0.7624361E-002  0.6000000E+02  0.7546771E-02  0.1259629E+00
         11   -1    0    0    0    0  0.00000000000E+00  0.00000000000E+00  0.30000000000E+02  0.30000000000E+02  0.00000000000E+00 0.  1.
        -11   -1    0    0    0    0 -0.00000000000E+00 -0.00000000000E+00 -0.30000000000E+02  0.30000000000E+02  0.00000000000E+00 0. -1.
         23    2    1    2    0    0  0.00000000000E+00  0.00000000000E+00  0.00000000000E+00  0.60000000000E+02  0.60000000000E+02 0.  0.
          5    1    3    3  501    0  0.94403440101E+01  0.25907626739E+02  0.10843651677E+02  0.30000000000E+02  0.47000000000E+01 0. -1.
         -5    1    3    3    0  501 -0.94403440101E+01 -0.25907626739E+02 -0.10843651677E+02  0.30000000000E+02  0.47000000000E+01 0.  1.
</event>
<event>
 5    1  0.7624361E-002  0.6000000E+02  0.7546771E-02  0.1259629E+00
         11   -1    0    0    0    0  0.00000000000E+00  0.00000000000E+00  0.30000000000E+02  0.30000000000E+02  0.00000000000E+00 0.  1.
        -11   -1    0    0    0    0 -0.00000000000E+00 -0.00000000000E+00 -0.30000000000E+02  0.30000000000E+02  0.00000000000E+00 0. -1.
         23    2    1    2    0    0  0.00000000000E+00  0.00000000000E+00  0.00000000000E+00  0.60000000000E+02  0.60000000000E+02 0.  0.
          5    1    3    3  501    0 -0.19154959991E+02  0.18635162542E+02 -0.12795633034E+02  0.30000000000E+02  0.47000000000E+01 0.  1.
         -5    1    3    3    0  501  0.19154959991E+02 -0.18635162542E+02  0.12795633034E+02  0.30000000000E+02  0.47000000000E+01 0. -1.
</event>
<event>
 5    1  0.7624361E-002  0.6000000E+02  0.7546771E-02  0.1259629E+00
         11   -1    0    0    0    0  0.00000000000E+00  0.00000000000E+00  0.30000000000E+02  0.30000000000E+02  0.00000000000E+00 0. -1.
        -11   -1    0    0    0    0 -0.00000000000E+00 -0.00000000000E+00 -0.30000000000E+02  0.30000000000E+02  0.00000000000E+00 0.  1.
         23    2    1    2    0    0  0.00000000000E+00  0.00000000000E+00  0.00000000000E+00  0.60000000000E+02  0.60000000000E+02 0.  0.
          5    1    3    3  501    0 -0.88535108098E+01  0.22853423577E+02 -0.16650717016E+02  0.30000000000E+02  0.47000000000E+01 0.  1.
         -5    1    3    3    0  501  0.88535108098E+01 -0.22853423577E+02  0.16650717016E+02  0.30000000000E+02  0.47000000000E+01 0. -1.
</event>
<event>
 5    1  0.7624361E-002  0.6000000E+02  0.7546771E-02  0.1259629E+00
         11   -1    0    0    0    0  0.00000000000E+00  0.00000000000E+00  0.30000000000E+02  0.30000000000E+02  0.00000000000E+00 0.  1.
        -11   -1    0    0    0    0 -0.00000000000E+00 -0.00000000000E+00 -0.30000000000E+02  0.30000000000E+02  0.00000000000E+00 0. -1.
         23    2    1    2    0    0  0.00000000000E+00  0.00000000000E+00  0.00000000000E+00  0.60000000000E+02  0.60000000000E+02 0.  0.
          5    1    3    3  501    0  0.29208174044E+01 -0.21737744276E+02  0.19921076765E+02  0.30000000000E+02  0.47000000000E+01 0. -1.
         -5    1    3    3    0  501 -0.29208174044E+01  0.21737744276E+02 -0.19921076765E+02  0.30000000000E+02  0.47000000000E+01 0.  1.
</event>
<event>
 5    1  0.7624361E-002  0.6000000E+02  0.7546771E-02  0.1259629E+00
         11   -1    0    0    0    0  0.00000000000E+00  0.00000000000E+00  0.30000000000E+02  0.30000000000E+02  0.00000000000E+00 0. -1.
        -11   -1    0    0    0    0 -0.00000000000E+00 -0.00000000000E+00 -0.30000000000E+02  0.30000000000E+02  0.00000000000E+00 0.  1.
         23    2    1    2    0    0  0.00000000000E+00  0.00000000000E+00  0.00000000000E+00  0.60000000000E+02  0.60000000000E+02 0.  0.
          5    1    3    3  501    0  0.17898745579E+01  0.25561205686E+02  0.14877201112E+02  0.30000000000E+02  0.47000000000E+01 0. -1.
         -5    1    3    3    0  501 -0.17898745579E+01 -0.25561205686E+02 -0.14877201112E+02  0.30000000000E+02  0.47000000000E+01 0.  1.
</event>
<event>
 5    1  0.7624361E-002  0.6000000E+02  0.7546771E-02  0.1259629E+00
         11   -1    0    0    0    0  0.00000000000E+00  0.00000000000E+00  0.30000000000E+02  0.30000000000E+02  0.00000000000E+00 0. -1.
        -11   -1    0    0    0    0 -0.00000000000E+00 -0.00000000000E+00 -0.30000000000E+02  0.30000000000E+02  0.00000000000E+00 0.  1.
         23    2    1    2    0    0  0.00000000000E+00  0.00000000000E+00  0.00000000000E+00  0.60000000000E+02  0.60000000000E+02 0.  0.
          5    1    3    3  501    0 -0.25697357557E+02 -0.14733176450E+02 -0.69951859881E+00  0.30000000000E+02  0.47000000000E+01 0.  1.
         -5    1    3    3    0  501  0.25697357557E+02  0.14733176450E+02  0.69951859881E+00  0.30000000000E+02  0.47000000000E+01 0. -1.
</event>
<event>
 5    1  0.7624361E-002  0.6000000E+02  0.7546771E-02  0.1259629E+00
         11   -1    0    0    0    0  0.00000000000E+00  0.00000000000E+00  0.30000000000E+02  0.30000000000E+02  0.00000000000E+00 0.  1.
        -11   -1    0    0    0    0 -0.00000000000E+00 -0.00000000000E+00 -0.30000000000E+02  0.30000000000E+02  0.00000000000E+00 0. -1.
         23    2    1    2    0    0  0.00000000000E+00  0.00000000000E+00  0.00000000000E+00  0.60000000000E+02  0.60000000000E+02 0.  0.
          5    1    3    3  501    0 -0.24392326693E+02  0.16810141308E+02 -0.58612945231E+00  0.30000000000E+02  0.47000000000E+01 0. -1.
         -5    1    3    3    0  501  0.24392326693E+02 -0.16810141308E+02  0.58612945231E+00  0.30000000000E+02  0.47000000000E+01 0.  1.
</event>
<event>
 5    1  0.7624361E-002  0.6000000E+02  0.7546771E-02  0.1259629E+00
         11   -1    0    0    0    0  0.00000000000E+00  0.00000000000E+00  0.30000000000E+02  0.30000000000E+02  0.00000000000E+00 0. -1.
        -11   -1    0    0    0    0 -0.00000000000E+00 -0.00000000000E+00 -0.30000000000E+02  0.30000000000E+02  0.00000000000E+00 0.  1.
         23    2    1    2    0    0  0.00000000000E+00  0.00000000000E+00  0.00000000000E+00  0.60000000000E+02  0.60000000000E+02 0.  0.
          5    1    3    3  501    0 -0.19872216116E+02  0.17179368672E+02 -0.13706725309E+02  0.30000000000E+02  0.47000000000E+01 0.  1.
         -5    1    3    3    0  501  0.19872216116E+02 -0.17179368672E+02  0.13706725309E+02  0.30000000000E+02  0.47000000000E+01 0. -1.
</event>
<event>
 5    1  0.7624361E-002  0.6000000E+02  0.7546771E-02  0.1259629E+00
         11   -1    0    0    0    0  0.00000000000E+00  0.00000000000E+00  0.30000000000E+02  0.30000000000E+02  0.00000000000E+00 0.  1.
        -11   -1    0    0    0    0 -0.00000000000E+00 -0.00000000000E+00 -0.30000000000E+02  0.30000000000E+02  0.00000000000E+00 0. -1.
         23    2    1    2    0    0  0.00000000000E+00  0.00000000000E+00  0.00000000000E+00  0.60000000000E+02  0.60000000000E+02 0.  0.
          5    1    3    3  501    0 -0.54099071787E+01 -0.17450915249E+02 -0.23326132583E+02  0.30000000000E+02  0.47000000000E+01 0. -1.
         -5    1    3    3    0  501  0.54099071787E+01  0.17450915249E+02  0.23326132583E+02  0.30000000000E+02  0.47000000000E+01 0.  1.
</event>
<event>
 5    1  0.7624361E-002  0.6000000E+02  0.7546771E-02  0.1259629E+00
         11   -1    0    0    0    0  0.00000000000E+00  0.00000000000E+00  0.30000000000E+02  0.30000000000E+02  0.00000000000E+00 0. -1.
        -11   -1    0    0    0    0 -0.00000000000E+00 -0.00000000000E+00 -0.30000000000E+02  0.30000000000E+02  0.00000000000E+00 0.  1.
         23    2    1    2    0    0  0.00000000000E+00  0.00000000000E+00  0.00000000000E+00  0.60000000000E+02  0.60000000000E+02 0.  0.
          5    1    3    3  501    0  0.21152139796E+01  0.17155776265E+02  0.24064812706E+02  0.30000000000E+02  0.47000000000E+01 0. -1.
         -5    1    3    3    0  501 -0.21152139796E+01 -0.17155776265E+02 -0.24064812706E+02  0.30000000000E+02  0.47000000000E+01 0.  1.
</event>
<event>
 5    1  0.7624361E-002  0.6000000E+02  0.7546771E-02  0.1259629E+00
         11   -1    0    0    0    0  0.00000000000E+00  0.00000000000E+00  0.30000000000E+02  0.30000000000E+02  0.00000000000E+00 0.  1.
        -11   -1    0    0    0    0 -0.00000000000E+00 -0.00000000000E+00 -0.30000000000E+02  0.30000000000E+02  0.00000000000E+00 0. -1.
         23    2    1    2    0    0  0.00000000000E+00  0.00000000000E+00  0.00000000000E+00  0.60000000000E+02  0.60000000000E+02 0.  0.
          5    1    3    3  501    0  0.87098141942E+00  0.28148149287E+02  0.92104876669E+01  0.30000000000E+02  0.47000000000E+01 0. -1.
         -5    1    3    3    0  501 -0.87098141942E+00 -0.28148149287E+02 -0.92104876669E+01  0.30000000000E+02  0.47000000000E+01 0.  1.
</event>
<event>
 5    1  0.7624361E-002  0.6000000E+02  0.7546771E-02  0.1259629E+00
         11   -1    0    0    0    0  0.00000000000E+00  0.00000000000E+00  0.30000000000E+02  0.30000000000E+02  0.00000000000E+00 0.  1.
        -11   -1    0    0    0    0 -0.00000000000E+00 -0.00000000000E+00 -0.30000000000E+02  0.30000000000E+02  0.00000000000E+00 0. -1.
         23    2    1    2    0    0  0.00000000000E+00  0.00000000000E+00  0.00000000000E+00  0.60000000000E+02  0.60000000000E+02 0.  0.
          5    1    3    3  501    0 -0.32060890048E+01  0.22984002558E+02 -0.18421905973E+02  0.30000000000E+02  0.47000000000E+01 0. -1.
         -5    1    3    3    0  501  0.32060890048E+01 -0.22984002558E+02  0.18421905973E+02  0.30000000000E+02  0.47000000000E+01 0.  1.
</event>
<event>
 5    1  0.7624361E-002  0.6000000E+02  0.7546771E-02  0.1259629E+00
         11   -1    0    0    0    0  0.00000000000E+00  0.00000000000E+00  0.30000000000E+02  0.30000000000E+02  0.00000000000E+00 0.  1.
        -11   -1    0    0    0    0 -0.00000000000E+00 -0.00000000000E+00 -0.30000000000E+02  0.30000000000E+02  0.00000000000E+00 0. -1.
         23    2    1    2    0    0  0.00000000000E+00  0.00000000000E+00  0.00000000000E+00  0.60000000000E+02  0.60000000000E+02 0.  0.
          5    1    3    3  501    0  0.11112868360E+02  0.24012178602E+02 -0.13335270362E+02  0.30000000000E+02  0.47000000000E+01 0. -1.
         -5    1    3    3    0  501 -0.11112868360E+02 -0.24012178602E+02  0.13335270362E+02  0.30000000000E+02  0.47000000000E+01 0.  1.
</event>
<event>
 5    1  0.7624361E-002  0.6000000E+02  0.7546771E-02  0.1259629E+00
         11   -1    0    0    0    0  0.00000000000E+00  0.00000000000E+00  0.30000000000E+02  0.30000000000E+02  0.00000000000E+00 0.  1.
        -11   -1    0    0    0    0 -0.00000000000E+00 -0.00000000000E+00 -0.30000000000E+02  0.30000000000E+02  0.00000000000E+00 0. -1.
         23    2    1    2    0    0  0.00000000000E+00  0.00000000000E+00  0.00000000000E+00  0.60000000000E+02  0.60000000000E+02 0.  0.
          5    1    3    3  501    0  0.11518251287E+02  0.25104396472E+02 -0.10724232609E+02  0.30000000000E+02  0.47000000000E+01 0. -1.
         -5    1    3    3    0  501 -0.11518251287E+02 -0.25104396472E+02  0.10724232609E+02  0.30000000000E+02  0.47000000000E+01 0.  1.
</event>
<event>
 5    1  0.7624361E-002  0.6000000E+02  0.7546771E-02  0.1259629E+00
         11   -1    0    0    0    0  0.00000000000E+00  0.00000000000E+00  0.30000000000E+02  0.30000000000E+02  0.00000000000E+00 0.  1.
        -11   -1    0    0    0    0 -0.00000000000E+00 -0.00000000000E+00 -0.30000000000E+02  0.30000000000E+02  0.00000000000E+00 0. -1.
         23    2    1    2    0    0  0.00000000000E+00  0.00000000000E+00  0.00000000000E+00  0.60000000000E+02  0.60000000000E+02 0.  0.
          5    1    3    3  501    0  0.92462952040E+01  0.77380544305E+01 -0.27065449167E+02  0.30000000000E+02  0.47000000000E+01 0. -1.
         -5    1    3    3    0  501 -0.92462952040E+01 -0.77380544305E+01  0.27065449167E+02  0.30000000000E+02  0.47000000000E+01 0.  1.
</event>
<event>
 5    1  0.7624361E-002  0.6000000E+02  0.7546771E-02  0.1259629E+00
         11   -1    0    0    0    0  0.00000000000E+00  0.00000000000E+00  0.30000000000E+02  0.30000000000E+02  0.00000000000E+00 0. -1.
        -11   -1    0    0    0    0 -0.00000000000E+00 -0.00000000000E+00 -0.30000000000E+02  0.30000000000E+02  0.00000000000E+00 0.  1.
         23    2    1    2    0    0  0.00000000000E+00  0.00000000000E+00  0.00000000000E+00  0.60000000000E+02  0.60000000000E+02 0.  0.
          5    1    3    3  501    0  0.98074070165E+01 -0.15384027210E+01 -0.27916985594E+02  0.30000000000E+02  0.47000000000E+01 0.  1.
         -5    1    3    3    0  501 -0.98074070165E+01  0.15384027210E+01  0.27916985594E+02  0.30000000000E+02  0.47000000000E+01 0. -1.
</event>
<event>
 5    1  0.7624361E-002  0.6000000E+02  0.7546771E-02  0.1259629E+00
         11   -1    0    0    0    0  0.00000000000E+00  0.00000000000E+00  0.30000000000E+02  0.30000000000E+02  0.00000000000E+00 0.  1.
        -11   -1    0    0    0    0 -0.00000000000E+00 -0.00000000000E+00 -0.30000000000E+02  0.30000000000E+02  0.00000000000E+00 0. -1.
         23    2    1    2    0    0  0.00000000000E+00  0.00000000000E+00  0.00000000000E+00  0.60000000000E+02  0.60000000000E+02 0.  0.
          5    1    3    3  501    0 -0.27657976864E+02 -0.99384264625E+01 -0.37648366840E+01  0.30000000000E+02  0.47000000000E+01 0. -1.
         -5    1    3    3    0  501  0.27657976864E+02  0.99384264625E+01  0.37648366840E+01  0.30000000000E+02  0.47000000000E+01 0.  1.
</event>
<event>
 5    1  0.7624361E-002  0.6000000E+02  0.7546771E-02  0.1259629E+00
         11   -1    0    0    0    0  0.00000000000E+00  0.00000000000E+00  0.30000000000E+02  0.30000000000E+02  0.00000000000E+00 0.  1.
        -11   -1    0    0    0    0 -0.00000000000E+00 -0.00000000000E+00 -0.30000000000E+02  0.30000000000E+02  0.00000000000E+00 0. -1.
         23    2    1    2    0    0  0.00000000000E+00  0.00000000000E+00  0.00000000000E+00  0.60000000000E+02  0.60000000000E+02 0.  0.
          5    1    3    3  501    0 -0.11086213260E+02  0.23972200033E+02 -0.13429054365E+02  0.30000000000E+02  0.47000000000E+01 0.  1.
         -5    1    3    3    0  501  0.11086213260E+02 -0.23972200033E+02  0.13429054365E+02  0.30000000000E+02  0.47000000000E+01 0. -1.
</event>
<event>
 5    1  0.7624361E-002  0.6000000E+02  0.7546771E-02  0.1259629E+00
         11   -1    0    0    0    0  0.00000000000E+00  0.00000000000E+00  0.30000000000E+02  0.30000000000E+02  0.00000000000E+00 0.  1.
        -11   -1    0    0    0    0 -0.00000000000E+00 -0.00000000000E+00 -0.30000000000E+02  0.30000000000E+02  0.00000000000E+00 0. -1.
         23    2    1    2    0    0  0.00000000000E+00  0.00000000000E+00  0.00000000000E+00  0.60000000000E+02  0.60000000000E+02 0.  0.
          5    1    3    3  501    0  0.21191772511E+02 -0.11252895544E+02 -0.17383645179E+02  0.30000000000E+02  0.47000000000E+01 0. -1.
         -5    1    3    3    0  501 -0.21191772511E+02  0.11252895544E+02  0.17383645179E+02  0.30000000000E+02  0.47000000000E+01 0.  1.
</event>
<event>
 5    1  0.7624361E-002  0.6000000E+02  0.7546771E-02  0.1259629E+00
         11   -1    0    0    0    0  0.00000000000E+00  0.00000000000E+00  0.30000000000E+02  0.30000000000E+02  0.00000000000E+00 0.  1.
        -11   -1    0    0    0    0 -0.00000000000E+00 -0.00000000000E+00 -0.30000000000E+02  0.30000000000E+02  0.00000000000E+00 0. -1.
         23    2    1    2    0    0  0.00000000000E+00  0.00000000000E+00  0.00000000000E+00  0.60000000000E+02  0.60000000000E+02 0.  0.
          5    1    3    3  501    0  0.26491891540E+02  0.43744305981E+01 -0.12528129932E+02  0.30000000000E+02  0.47000000000E+01 0. -1.
         -5    1    3    3    0  501 -0.26491891540E+02 -0.43744305981E+01  0.12528129932E+02  0.30000000000E+02  0.47000000000E+01 0.  1.
</event>
<event>
 5    1  0.7624361E-002  0.6000000E+02  0.7546771E-02  0.1259629E+00
         11   -1    0    0    0    0  0.00000000000E+00  0.00000000000E+00  0.30000000000E+02  0.30000000000E+02  0.00000000000E+00 0.  1.
        -11   -1    0    0    0    0 -0.00000000000E+00 -0.00000000000E+00 -0.30000000000E+02  0.30000000000E+02  0.00000000000E+00 0. -1.
         23    2    1    2    0    0  0.00000000000E+00  0.00000000000E+00  0.00000000000E+00  0.60000000000E+02  0.60000000000E+02 0.  0.
          5    1    3    3  501    0  0.15776755464E+02  0.17790815777E+02 -0.17677411037E+02  0.30000000000E+02  0.47000000000E+01 0. -1.
         -5    1    3    3    0  501 -0.15776755464E+02 -0.17790815777E+02  0.17677411037E+02  0.30000000000E+02  0.47000000000E+01 0.  1.
</event>
<event>
 5    1  0.7624361E-002  0.6000000E+02  0.7546771E-02  0.1259629E+00
         11   -1    0    0    0    0  0.00000000000E+00  0.00000000000E+00  0.30000000000E+02  0.30000000000E+02  0.00000000000E+00 0. -1.
        -11   -1    0    0    0    0 -0.00000000000E+00 -0.00000000000E+00 -0.30000000000E+02  0.30000000000E+02  0.00000000000E+00 0.  1.
         23    2    1    2    0    0  0.00000000000E+00  0.00000000000E+00  0.00000000000E+00  0.60000000000E+02  0.60000000000E+02 0.  0.
          5    1    3    3  501    0  0.90557841039E+01  0.24364670901E+02 -0.14222010622E+02  0.30000000000E+02  0.47000000000E+01 0.  1.
         -5    1    3    3    0  501 -0.90557841039E+01 -0.24364670901E+02  0.14222010622E+02  0.30000000000E+02  0.47000000000E+01 0. -1.
</event>
<event>
 5    1  0.7624361E-002  0.6000000E+02  0.7546771E-02  0.1259629E+00
         11   -1    0    0    0    0  0.00000000000E+00  0.00000000000E+00  0.30000000000E+02  0.30000000000E+02  0.00000000000E+00 0. -1.
        -11   -1    0    0    0    0 -0.00000000000E+00 -0.00000000000E+00 -0.30000000000E+02  0.30000000000E+02  0.00000000000E+00 0.  1.
         23    2    1    2    0    0  0.00000000000E+00  0.00000000000E+00  0.00000000000E+00  0.60000000000E+02  0.60000000000E+02 0.  0.
          5    1    3    3  501    0  0.12042624567E+02  0.82215131899E-01 -0.27071727581E+02  0.30000000000E+02  0.47000000000E+01 0.  1.
         -5    1    3    3    0  501 -0.12042624567E+02 -0.82215131899E-01  0.27071727581E+02  0.30000000000E+02  0.47000000000E+01 0. -1.
</event>
<event>
 5    1  0.7624361E-002  0.6000000E+02  0.7546771E-02  0.1259629E+00
         11   -1    0    0    0    0  0.00000000000E+00  0.00000000000E+00  0.30000000000E+02  0.30000000000E+02  0.00000000000E+00 0.  1.
        -11   -1    0    0    0    0 -0.00000000000E+00 -0.00000000000E+00 -0.30000000000E+02  0.30000000000E+02  0.00000000000E+00 0. -1.
         23    2    1    2    0    0  0.00000000000E+00  0.00000000000E+00  0.00000000000E+00  0.60000000000E+02  0.60000000000E+02 0.  0.
          5    1    3    3  501    0 -0.17759479624E+00  0.12450121308E+02 -0.26886296500E+02  0.30000000000E+02  0.47000000000E+01 0. -1.
         -5    1    3    3    0  501  0.17759479624E+00 -0.12450121308E+02  0.26886296500E+02  0.30000000000E+02  0.47000000000E+01 0.  1.
</event>
<event>
 5    1  0.7624361E-002  0.6000000E+02  0.7546771E-02  0.1259629E+00
         11   -1    0    0    0    0  0.00000000000E+00  0.00000000000E+00  0.30000000000E+02  0.30000000000E+02  0.00000000000E+00 0.  1.
        -11   -1    0    0    0    0 -0.00000000000E+00 -0.00000000000E+00 -0.30000000000E+02  0.30000000000E+02  0.00000000000E+00 0. -1.
         23    2    1    2    0    0  0.00000000000E+00  0.00000000000E+00  0.00000000000E+00  0.60000000000E+02  0.60000000000E+02 0.  0.
          5    1    3    3  501    0  0.13527358812E+02  0.37216035047E+01 -0.26097322294E+02  0.30000000000E+02  0.47000000000E+01 0. -1.
         -5    1    3    3    0  501 -0.13527358812E+02 -0.37216035047E+01  0.26097322294E+02  0.30000000000E+02  0.47000000000E+01 0.  1.
</event>
<event>
 5    1  0.7624361E-002  0.6000000E+02  0.7546771E-02  0.1259629E+00
         11   -1    0    0    0    0  0.00000000000E+00  0.00000000000E+00  0.30000000000E+02  0.30000000000E+02  0.00000000000E+00 0.  1.
        -11   -1    0    0    0    0 -0.00000000000E+00 -0.00000000000E+00 -0.30000000000E+02  0.30000000000E+02  0.00000000000E+00 0. -1.
         23    2    1    2    0    0  0.00000000000E+00  0.00000000000E+00  0.00000000000E+00  0.60000000000E+02  0.60000000000E+02 0.  0.
          5    1    3    3  501    0  0.11865374064E+01  0.18888225156E+02 -0.22797742858E+02  0.30000000000E+02  0.47000000000E+01 0. -1.
         -5    1    3    3    0  501 -0.11865374064E+01 -0.18888225156E+02  0.22797742858E+02  0.30000000000E+02  0.47000000000E+01 0.  1.
</event>
<event>
 5    1  0.7624361E-002  0.6000000E+02  0.7546771E-02  0.1259629E+00
         11   -1    0    0    0    0  0.00000000000E+00  0.00000000000E+00  0.30000000000E+02  0.30000000000E+02  0.00000000000E+00 0.  1.
        -11   -1    0    0    0    0 -0.00000000000E+00 -0.00000000000E+00 -0.30000000000E+02  0.30000000000E+02  0.00000000000E+00 0. -1.
         23    2    1    2    0    0  0.00000000000E+00  0.00000000000E+00  0.00000000000E+00  0.60000000000E+02  0.60000000000E+02 0.  0.
          5    1    3    3  501    0 -0.18020763923E+02 -0.16317143571E+02 -0.16938503279E+02  0.30000000000E+02  0.47000000000E+01 0. -1.
         -5    1    3    3    0  501  0.18020763923E+02  0.16317143571E+02  0.16938503279E+02  0.30000000000E+02  0.47000000000E+01 0.  1.
</event>
<event>
 5    1  0.7624361E-002  0.6000000E+02  0.7546771E-02  0.1259629E+00
         11   -1    0    0    0    0  0.00000000000E+00  0.00000000000E+00  0.30000000000E+02  0.30000000000E+02  0.00000000000E+00 0. -1.
        -11   -1    0    0    0    0 -0.00000000000E+00 -0.00000000000E+00 -0.30000000000E+02  0.30000000000E+02  0.00000000000E+00 0.  1.
         23    2    1    2    0    0  0.00000000000E+00  0.00000000000E+00  0.00000000000E+00  0.60000000000E+02  0.60000000000E+02 0.  0.
          5    1    3    3  501    0 -0.84036968844E+01 -0.25905306466E+02  0.11670603051E+02  0.30000000000E+02  0.47000000000E+01 0. -1.
         -5    1    3    3    0  501  0.84036968844E+01  0.25905306466E+02 -0.11670603051E+02  0.30000000000E+02  0.47000000000E+01 0.  1.
</event>
<event>
 5    1  0.7624361E-002  0.6000000E+02  0.7546771E-02  0.1259629E+00
         11   -1    0    0    0    0  0.00000000000E+00  0.00000000000E+00  0.30000000000E+02  0.30000000000E+02  0.00000000000E+00 0.  1.
        -11   -1    0    0    0    0 -0.00000000000E+00 -0.00000000000E+00 -0.30000000000E+02  0.30000000000E+02  0.00000000000E+00 0. -1.
         23    2    1    2    0    0  0.00000000000E+00  0.00000000000E+00  0.00000000000E+00  0.60000000000E+02  0.60000000000E+02 0.  0.
          5    1    3    3  501    0 -0.21222504019E+02  0.20141823043E+02 -0.46714331495E+01  0.30000000000E+02  0.47000000000E+01 0.  1.
         -5    1    3    3    0  501  0.21222504019E+02 -0.20141823043E+02  0.46714331495E+01  0.30000000000E+02  0.47000000000E+01 0. -1.
</event>
<event>
 5    1  0.7624361E-002  0.6000000E+02  0.7546771E-02  0.1259629E+00
         11   -1    0    0    0    0  0.00000000000E+00  0.00000000000E+00  0.30000000000E+02  0.30000000000E+02  0.00000000000E+00 0.  1.
        -11   -1    0    0    0    0 -0.00000000000E+00 -0.00000000000E+00 -0.30000000000E+02  0.30000000000E+02  0.00000000000E+00 0. -1.
         23    2    1    2    0    0  0.00000000000E+00  0.00000000000E+00  0.00000000000E+00  0.60000000000E+02  0.60000000000E+02 0.  0.
          5    1    3    3  501    0 -0.74837351439E+01 -0.23397161330E+02  0.16567333823E+02  0.30000000000E+02  0.47000000000E+01 0.  1.
         -5    1    3    3    0  501  0.74837351439E+01  0.23397161330E+02 -0.16567333823E+02  0.30000000000E+02  0.47000000000E+01 0. -1.
</event>
<event>
 5    1  0.7624361E-002  0.6000000E+02  0.7546771E-02  0.1259629E+00
         11   -1    0    0    0    0  0.00000000000E+00  0.00000000000E+00  0.30000000000E+02  0.30000000000E+02  0.00000000000E+00 0.  1.
        -11   -1    0    0    0    0 -0.00000000000E+00 -0.00000000000E+00 -0.30000000000E+02  0.30000000000E+02  0.00000000000E+00 0. -1.
         23    2    1    2    0    0  0.00000000000E+00  0.00000000000E+00  0.00000000000E+00  0.60000000000E+02  0.60000000000E+02 0.  0.
          5    1    3    3  501    0 -0.54234583014E+01  0.16453845011E+02  0.24036786066E+02  0.30000000000E+02  0.47000000000E+01 0.  1.
         -5    1    3    3    0  501  0.54234583014E+01 -0.16453845011E+02 -0.24036786066E+02  0.30000000000E+02  0.47000000000E+01 0. -1.
</event>
<event>
 5    1  0.7624361E-002  0.6000000E+02  0.7546771E-02  0.1259629E+00
         11   -1    0    0    0    0  0.00000000000E+00  0.00000000000E+00  0.30000000000E+02  0.30000000000E+02  0.00000000000E+00 0. -1.
        -11   -1    0    0    0    0 -0.00000000000E+00 -0.00000000000E+00 -0.30000000000E+02  0.30000000000E+02  0.00000000000E+00 0.  1.
         23    2    1    2    0    0  0.00000000000E+00  0.00000000000E+00  0.00000000000E+00  0.60000000000E+02  0.60000000000E+02 0.  0.
          5    1    3    3  501    0  0.10439278099E+02 -0.88111333382E+01 -0.26292497068E+02  0.30000000000E+02  0.47000000000E+01 0.  1.
         -5    1    3    3    0  501 -0.10439278099E+02  0.88111333382E+01  0.26292497068E+02  0.30000000000E+02  0.47000000000E+01 0. -1.
</event>
<event>
 5    1  0.7624361E-002  0.6000000E+02  0.7546771E-02  0.1259629E+00
         11   -1    0    0    0    0  0.00000000000E+00  0.00000000000E+00  0.30000000000E+02  0.30000000000E+02  0.00000000000E+00 0. -1.
        -11   -1    0    0    0    0 -0.00000000000E+00 -0.00000000000E+00 -0.30000000000E+02  0.30000000000E+02  0.00000000000E+00 0.  1.
         23    2    1    2    0    0  0.00000000000E+00  0.00000000000E+00  0.00000000000E+00  0.60000000000E+02  0.60000000000E+02 0.  0.
          5    1    3    3  501    0 -0.51286663807E+01 -0.20244561950E+02 -0.21018194323E+02  0.30000000000E+02  0.47000000000E+01 0.  1.
         -5    1    3    3    0  501  0.51286663807E+01  0.20244561950E+02  0.21018194323E+02  0.30000000000E+02  0.47000000000E+01 0. -1.
</event>
<event>
 5    1  0.7624361E-002  0.6000000E+02  0.7546771E-02  0.1259629E+00
         11   -1    0    0    0    0  0.00000000000E+00  0.00000000000E+00  0.30000000000E+02  0.30000000000E+02  0.00000000000E+00 0.  1.
        -11   -1    0    0    0    0 -0.00000000000E+00 -0.00000000000E+00 -0.30000000000E+02  0.30000000000E+02  0.00000000000E+00 0. -1.
         23    2    1    2    0    0  0.00000000000E+00  0.00000000000E+00  0.00000000000E+00  0.60000000000E+02  0.60000000000E+02 0.  0.
          5    1    3    3  501    0  0.19354463201E+02  0.13698610169E+02 -0.17766902759E+02  0.30000000000E+02  0.47000000000E+01 0. -1.
         -5    1    3    3    0  501 -0.19354463201E+02 -0.13698610169E+02  0.17766902759E+02  0.30000000000E+02  0.47000000000E+01 0.  1.
</event>
<event>
 5    1  0.7624361E-002  0.6000000E+02  0.7546771E-02  0.1259629E+00
         11   -1    0    0    0    0  0.00000000000E+00  0.00000000000E+00  0.30000000000E+02  0.30000000000E+02  0.00000000000E+00 0.  1.
        -11   -1    0    0    0    0 -0.00000000000E+00 -0.00000000000E+00 -0.30000000000E+02  0.30000000000E+02  0.00000000000E+00 0. -1.
         23    2    1    2    0    0  0.00000000000E+00  0.00000000000E+00  0.00000000000E+00  0.60000000000E+02  0.60000000000E+02 0.  0.
          5    1    3    3  501    0 -0.12468050937E+02  0.23972469243E+02 -0.12156414942E+02  0.30000000000E+02  0.47000000000E+01 0. -1.
         -5    1    3    3    0  501  0.12468050937E+02 -0.23972469243E+02  0.12156414942E+02  0.30000000000E+02  0.47000000000E+01 0.  1.
</event>
<event>
 5    1  0.7624361E-002  0.6000000E+02  0.7546771E-02  0.1259629E+00
         11   -1    0    0    0    0  0.00000000000E+00  0.00000000000E+00  0.30000000000E+02  0.30000000000E+02  0.00000000000E+00 0. -1.
        -11   -1    0    0    0    0 -0.00000000000E+00 -0.00000000000E+00 -0.30000000000E+02  0.30000000000E+02  0.00000000000E+00 0.  1.
         23    2    1    2    0    0  0.00000000000E+00  0.00000000000E+00  0.00000000000E+00  0.60000000000E+02  0.60000000000E+02 0.  0.
          5    1    3    3  501    0 -0.77401932213E+01  0.44904029389E+01 -0.28245985385E+02  0.30000000000E+02  0.47000000000E+01 0.  1.
         -5    1    3    3    0  501  0.77401932213E+01 -0.44904029389E+01  0.28245985385E+02  0.30000000000E+02  0.47000000000E+01 0. -1.
</event>
<event>
 5    1  0.7624361E-002  0.6000000E+02  0.7546771E-02  0.1259629E+00
         11   -1    0    0    0    0  0.00000000000E+00  0.00000000000E+00  0.30000000000E+02  0.30000000000E+02  0.00000000000E+00 0. -1.
        -11   -1    0    0    0    0 -0.00000000000E+00 -0.00000000000E+00 -0.30000000000E+02  0.30000000000E+02  0.00000000000E+00 0.  1.
         23    2    1    2    0    0  0.00000000000E+00  0.00000000000E+00  0.00000000000E+00  0.60000000000E+02  0.60000000000E+02 0.  0.
          5    1    3    3  501    0  0.22330494982E+01 -0.23855056411E+02  0.17431574042E+02  0.30000000000E+02  0.47000000000E+01 0. -1.
         -5    1    3    3    0  501 -0.22330494982E+01  0.23855056411E+02 -0.17431574042E+02  0.30000000000E+02  0.47000000000E+01 0.  1.
</event>
<event>
 5    1  0.7624361E-002  0.6000000E+02  0.7546771E-02  0.1259629E+00
         11   -1    0    0    0    0  0.00000000000E+00  0.00000000000E+00  0.30000000000E+02  0.30000000000E+02  0.00000000000E+00 0.  1.
        -11   -1    0    0    0    0 -0.00000000000E+00 -0.00000000000E+00 -0.30000000000E+02  0.30000000000E+02  0.00000000000E+00 0. -1.
         23    2    1    2    0    0  0.00000000000E+00  0.00000000000E+00  0.00000000000E+00  0.60000000000E+02  0.60000000000E+02 0.  0.
          5    1    3    3  501    0  0.23957080021E+02 -0.17322663169E+02  0.19732353218E+01  0.30000000000E+02  0.47000000000E+01 0. -1.
         -5    1    3    3    0  501 -0.23957080021E+02  0.17322663169E+02 -0.19732353218E+01  0.30000000000E+02  0.47000000000E+01 0.  1.
</event>
<event>
 5    1  0.7624361E-002  0.6000000E+02  0.7546771E-02  0.1259629E+00
         11   -1    0    0    0    0  0.00000000000E+00  0.00000000000E+00  0.30000000000E+02  0.30000000000E+02  0.00000000000E+00 0.  1.
        -11   -1    0    0    0    0 -0.00000000000E+00 -0.00000000000E+00 -0.30000000000E+02  0.30000000000E+02  0.00000000000E+00 0. -1.
         23    2    1    2    0    0  0.00000000000E+00  0.00000000000E+00  0.00000000000E+00  0.60000000000E+02  0.60000000000E+02 0.  0.
          5    1    3    3  501    0  0.12192194017E+02 -0.13201745027E+02 -0.23557893227E+02  0.30000000000E+02  0.47000000000E+01 0. -1.
         -5    1    3    3    0  501 -0.12192194017E+02  0.13201745027E+02  0.23557893227E+02  0.30000000000E+02  0.47000000000E+01 0.  1.
</event>
<event>
 5    1  0.7624361E-002  0.6000000E+02  0.7546771E-02  0.1259629E+00
         11   -1    0    0    0    0  0.00000000000E+00  0.00000000000E+00  0.30000000000E+02  0.30000000000E+02  0.00000000000E+00 0.  1.
        -11   -1    0    0    0    0 -0.00000000000E+00 -0.00000000000E+00 -0.30000000000E+02  0.30000000000E+02  0.00000000000E+00 0. -1.
         23    2    1    2    0    0  0.00000000000E+00  0.00000000000E+00  0.00000000000E+00  0.60000000000E+02  0.60000000000E+02 0.  0.
          5    1    3    3  501    0 -0.29454389266E+02  0.17315592032E+01  0.27112092723E+01  0.30000000000E+02  0.47000000000E+01 0. -1.
         -5    1    3    3    0  501  0.29454389266E+02 -0.17315592032E+01 -0.27112092723E+01  0.30000000000E+02  0.47000000000E+01 0.  1.
</event>
<event>
 5    1  0.7624361E-002  0.6000000E+02  0.7546771E-02  0.1259629E+00
         11   -1    0    0    0    0  0.00000000000E+00  0.00000000000E+00  0.30000000000E+02  0.30000000000E+02  0.00000000000E+00 0.  1.
        -11   -1    0    0    0    0 -0.00000000000E+00 -0.00000000000E+00 -0.30000000000E+02  0.30000000000E+02  0.00000000000E+00 0. -1.
         23    2    1    2    0    0  0.00000000000E+00  0.00000000000E+00  0.00000000000E+00  0.60000000000E+02  0.60000000000E+02 0.  0.
          5    1    3    3  501    0 -0.11653941295E+02 -0.16952902974E+02 -0.21323572239E+02  0.30000000000E+02  0.47000000000E+01 0. -1.
         -5    1    3    3    0  501  0.11653941295E+02  0.16952902974E+02  0.21323572239E+02  0.30000000000E+02  0.47000000000E+01 0.  1.
</event>
<event>
 5    1  0.7624361E-002  0.6000000E+02  0.7546771E-02  0.1259629E+00
         11   -1    0    0    0    0  0.00000000000E+00  0.00000000000E+00  0.30000000000E+02  0.30000000000E+02  0.00000000000E+00 0.  1.
        -11   -1    0    0    0    0 -0.00000000000E+00 -0.00000000000E+00 -0.30000000000E+02  0.30000000000E+02  0.00000000000E+00 0. -1.
         23    2    1    2    0    0  0.00000000000E+00  0.00000000000E+00  0.00000000000E+00  0.60000000000E+02  0.60000000000E+02 0.  0.
          5    1    3    3  501    0  0.59913523386E+01  0.27554026884E+02 -0.90988625460E+01  0.30000000000E+02  0.47000000000E+01 0. -1.
         -5    1    3    3    0  501 -0.59913523386E+01 -0.27554026884E+02  0.90988625460E+01  0.30000000000E+02  0.47000000000E+01 0.  1.
</event>
<event>
 5    1  0.7624361E-002  0.6000000E+02  0.7546771E-02  0.1259629E+00
         11   -1    0    0    0    0  0.00000000000E+00  0.00000000000E+00  0.30000000000E+02  0.30000000000E+02  0.00000000000E+00 0.  1.
        -11   -1    0    0    0    0 -0.00000000000E+00 -0.00000000000E+00 -0.30000000000E+02  0.30000000000E+02  0.00000000000E+00 0. -1.
         23    2    1    2    0    0  0.00000000000E+00  0.00000000000E+00  0.00000000000E+00  0.60000000000E+02  0.60000000000E+02 0.  0.
          5    1    3    3  501    0 -0.11433865506E+02 -0.25221968332E+02 -0.10537031511E+02  0.30000000000E+02  0.47000000000E+01 0. -1.
         -5    1    3    3    0  501  0.11433865506E+02  0.25221968332E+02  0.10537031511E+02  0.30000000000E+02  0.47000000000E+01 0.  1.
</event>
<event>
 5    1  0.7624361E-002  0.6000000E+02  0.7546771E-02  0.1259629E+00
         11   -1    0    0    0    0  0.00000000000E+00  0.00000000000E+00  0.30000000000E+02  0.30000000000E+02  0.00000000000E+00 0.  1.
        -11   -1    0    0    0    0 -0.00000000000E+00 -0.00000000000E+00 -0.30000000000E+02  0.30000000000E+02  0.00000000000E+00 0. -1.
         23    2    1    2    0    0  0.00000000000E+00  0.00000000000E+00  0.00000000000E+00  0.60000000000E+02  0.60000000000E+02 0.  0.
          5    1    3    3  501    0 -0.21516326556E+02 -0.12106089494E+02 -0.16382926744E+02  0.30000000000E+02  0.47000000000E+01 0. -1.
         -5    1    3    3    0  501  0.21516326556E+02  0.12106089494E+02  0.16382926744E+02  0.30000000000E+02  0.47000000000E+01 0.  1.
</event>
<event>
 5    1  0.7624361E-002  0.6000000E+02  0.7546771E-02  0.1259629E+00
         11   -1    0    0    0    0  0.00000000000E+00  0.00000000000E+00  0.30000000000E+02  0.30000000000E+02  0.00000000000E+00 0.  1.
        -11   -1    0    0    0    0 -0.00000000000E+00 -0.00000000000E+00 -0.30000000000E+02  0.30000000000E+02  0.00000000000E+00 0. -1.
         23    2    1    2    0    0  0.00000000000E+00  0.00000000000E+00  0.00000000000E+00  0.60000000000E+02  0.60000000000E+02 0.  0.
          5    1    3    3  501    0  0.46161571653E+01 -0.72552324733E+01 -0.28354235923E+02  0.30000000000E+02  0.47000000000E+01 0. -1.
         -5    1    3    3    0  501 -0.46161571653E+01  0.72552324733E+01  0.28354235923E+02  0.30000000000E+02  0.47000000000E+01 0.  1.
</event>
<event>
 5    1  0.7624361E-002  0.6000000E+02  0.7546771E-02  0.1259629E+00
         11   -1    0    0    0    0  0.00000000000E+00  0.00000000000E+00  0.30000000000E+02  0.30000000000E+02  0.00000000000E+00 0.  1.
        -11   -1    0    0    0    0 -0.00000000000E+00 -0.00000000000E+00 -0.30000000000E+02  0.30000000000E+02  0.00000000000E+00 0. -1.
         23    2    1    2    0    0  0.00000000000E+00  0.00000000000E+00  0.00000000000E+00  0.60000000000E+02  0.60000000000E+02 0.  0.
          5    1    3    3  501    0  0.68317837117E+01  0.22899702539E+02 -0.17516859163E+02  0.30000000000E+02  0.47000000000E+01 0. -1.
         -5    1    3    3    0  501 -0.68317837117E+01 -0.22899702539E+02  0.17516859163E+02  0.30000000000E+02  0.47000000000E+01 0.  1.
</event>
<event>
 5    1  0.7624361E-002  0.6000000E+02  0.7546771E-02  0.1259629E+00
         11   -1    0    0    0    0  0.00000000000E+00  0.00000000000E+00  0.30000000000E+02  0.30000000000E+02  0.00000000000E+00 0.  1.
        -11   -1    0    0    0    0 -0.00000000000E+00 -0.00000000000E+00 -0.30000000000E+02  0.30000000000E+02  0.00000000000E+00 0. -1.
         23    2    1    2    0    0  0.00000000000E+00  0.00000000000E+00  0.00000000000E+00  0.60000000000E+02  0.60000000000E+02 0.  0.
          5    1    3    3  501    0  0.11105067062E+02  0.19079669004E+02 -0.19762431942E+02  0.30000000000E+02  0.47000000000E+01 0. -1.
         -5    1    3    3    0  501 -0.11105067062E+02 -0.19079669004E+02  0.19762431942E+02  0.30000000000E+02  0.47000000000E+01 0.  1.
</event>
<event>
 5    1  0.7624361E-002  0.6000000E+02  0.7546771E-02  0.1259629E+00
         11   -1    0    0    0    0  0.00000000000E+00  0.00000000000E+00  0.30000000000E+02  0.30000000000E+02  0.00000000000E+00 0. -1.
        -11   -1    0    0    0    0 -0.00000000000E+00 -0.00000000000E+00 -0.30000000000E+02  0.30000000000E+02  0.00000000000E+00 0.  1.
         23    2    1    2    0    0  0.00000000000E+00  0.00000000000E+00  0.00000000000E+00  0.60000000000E+02  0.60000000000E+02 0.  0.
          5    1    3    3  501    0 -0.15869314579E+01 -0.23145802988E+02 -0.18429960732E+02  0.30000000000E+02  0.47000000000E+01 0.  1.
         -5    1    3    3    0  501  0.15869314579E+01  0.23145802988E+02  0.18429960732E+02  0.30000000000E+02  0.47000000000E+01 0. -1.
</event>
<event>
 5    1  0.7624361E-002  0.6000000E+02  0.7546771E-02  0.1259629E+00
         11   -1    0    0    0    0  0.00000000000E+00  0.00000000000E+00  0.30000000000E+02  0.30000000000E+02  0.00000000000E+00 0.  1.
        -11   -1    0    0    0    0 -0.00000000000E+00 -0.00000000000E+00 -0.30000000000E+02  0.30000000000E+02  0.00000000000E+00 0. -1.
         23    2    1    2    0    0  0.00000000000E+00  0.00000000000E+00  0.00000000000E+00  0.60000000000E+02  0.60000000000E+02 0.  0.
          5    1    3    3  501    0  0.48431964092E+01 -0.15192817659E+02 -0.24972619809E+02  0.30000000000E+02  0.47000000000E+01 0. -1.
         -5    1    3    3    0  501 -0.48431964092E+01  0.15192817659E+02  0.24972619809E+02  0.30000000000E+02  0.47000000000E+01 0.  1.
</event>
<event>
 5    1  0.7624361E-002  0.6000000E+02  0.7546771E-02  0.1259629E+00
         11   -1    0    0    0    0  0.00000000000E+00  0.00000000000E+00  0.30000000000E+02  0.30000000000E+02  0.00000000000E+00 0.  1.
        -11   -1    0    0    0    0 -0.00000000000E+00 -0.00000000000E+00 -0.30000000000E+02  0.30000000000E+02  0.00000000000E+00 0. -1.
         23    2    1    2    0    0  0.00000000000E+00  0.00000000000E+00  0.00000000000E+00  0.60000000000E+02  0.60000000000E+02 0.  0.
          5    1    3    3  501    0 -0.27461767477E+02  0.12627602314E+01 -0.11052907475E+02  0.30000000000E+02  0.47000000000E+01 0. -1.
         -5    1    3    3    0  501  0.27461767477E+02 -0.12627602314E+01  0.11052907475E+02  0.30000000000E+02  0.47000000000E+01 0.  1.
</event>
<event>
 5    1  0.7624361E-002  0.6000000E+02  0.7546771E-02  0.1259629E+00
         11   -1    0    0    0    0  0.00000000000E+00  0.00000000000E+00  0.30000000000E+02  0.30000000000E+02  0.00000000000E+00 0.  1.
        -11   -1    0    0    0    0 -0.00000000000E+00 -0.00000000000E+00 -0.30000000000E+02  0.30000000000E+02  0.00000000000E+00 0. -1.
         23    2    1    2    0    0  0.00000000000E+00  0.00000000000E+00  0.00000000000E+00  0.60000000000E+02  0.60000000000E+02 0.  0.
          5    1    3    3  501    0 -0.10062991846E+02  0.27654453366E+02 -0.34463609954E+01  0.30000000000E+02  0.47000000000E+01 0.  1.
         -5    1    3    3    0  501  0.10062991846E+02 -0.27654453366E+02  0.34463609954E+01  0.30000000000E+02  0.47000000000E+01 0.  1.
</event>
<event>
 5    1  0.7624361E-002  0.6000000E+02  0.7546771E-02  0.1259629E+00
         11   -1    0    0    0    0  0.00000000000E+00  0.00000000000E+00  0.30000000000E+02  0.30000000000E+02  0.00000000000E+00 0.  1.
        -11   -1    0    0    0    0 -0.00000000000E+00 -0.00000000000E+00 -0.30000000000E+02  0.30000000000E+02  0.00000000000E+00 0. -1.
         23    2    1    2    0    0  0.00000000000E+00  0.00000000000E+00  0.00000000000E+00  0.60000000000E+02  0.60000000000E+02 0.  0.
          5    1    3    3  501    0  0.26583240296E+02 -0.79576281964E+01 -0.10388334267E+02  0.30000000000E+02  0.47000000000E+01 0. -1.
         -5    1    3    3    0  501 -0.26583240296E+02  0.79576281964E+01  0.10388334267E+02  0.30000000000E+02  0.47000000000E+01 0.  1.
</event>
<event>
 5    1  0.7624361E-002  0.6000000E+02  0.7546771E-02  0.1259629E+00
         11   -1    0    0    0    0  0.00000000000E+00  0.00000000000E+00  0.30000000000E+02  0.30000000000E+02  0.00000000000E+00 0. -1.
        -11   -1    0    0    0    0 -0.00000000000E+00 -0.00000000000E+00 -0.30000000000E+02  0.30000000000E+02  0.00000000000E+00 0.  1.
         23    2    1    2    0    0  0.00000000000E+00  0.00000000000E+00  0.00000000000E+00  0.60000000000E+02  0.60000000000E+02 0.  0.
          5    1    3    3  501    0  0.28352559772E+02  0.82222092180E+01 -0.25372485035E+01  0.30000000000E+02  0.47000000000E+01 0.  1.
         -5    1    3    3    0  501 -0.28352559772E+02 -0.82222092180E+01  0.25372485035E+01  0.30000000000E+02  0.47000000000E+01 0. -1.
</event>
<event>
 5    1  0.7624361E-002  0.6000000E+02  0.7546771E-02  0.1259629E+00
         11   -1    0    0    0    0  0.00000000000E+00  0.00000000000E+00  0.30000000000E+02  0.30000000000E+02  0.00000000000E+00 0.  1.
        -11   -1    0    0    0    0 -0.00000000000E+00 -0.00000000000E+00 -0.30000000000E+02  0.30000000000E+02  0.00000000000E+00 0. -1.
         23    2    1    2    0    0  0.00000000000E+00  0.00000000000E+00  0.00000000000E+00  0.60000000000E+02  0.60000000000E+02 0.  0.
          5    1    3    3  501    0 -0.17503269606E+02 -0.16278290028E+02 -0.17508935629E+02  0.30000000000E+02  0.47000000000E+01 0. -1.
         -5    1    3    3    0  501  0.17503269606E+02  0.16278290028E+02  0.17508935629E+02  0.30000000000E+02  0.47000000000E+01 0.  1.
</event>
<event>
 5    1  0.7624361E-002  0.6000000E+02  0.7546771E-02  0.1259629E+00
         11   -1    0    0    0    0  0.00000000000E+00  0.00000000000E+00  0.30000000000E+02  0.30000000000E+02  0.00000000000E+00 0. -1.
        -11   -1    0    0    0    0 -0.00000000000E+00 -0.00000000000E+00 -0.30000000000E+02  0.30000000000E+02  0.00000000000E+00 0.  1.
         23    2    1    2    0    0  0.00000000000E+00  0.00000000000E+00  0.00000000000E+00  0.60000000000E+02  0.60000000000E+02 0.  0.
          5    1    3    3  501    0 -0.25024499697E+02 -0.19917866195E+00  0.15863314369E+02  0.30000000000E+02  0.47000000000E+01 0.  1.
         -5    1    3    3    0  501  0.25024499697E+02  0.19917866195E+00 -0.15863314369E+02  0.30000000000E+02  0.47000000000E+01 0. -1.
</event>
<event>
 5    1  0.7624361E-002  0.6000000E+02  0.7546771E-02  0.1259629E+00
         11   -1    0    0    0    0  0.00000000000E+00  0.00000000000E+00  0.30000000000E+02  0.30000000000E+02  0.00000000000E+00 0. -1.
        -11   -1    0    0    0    0 -0.00000000000E+00 -0.00000000000E+00 -0.30000000000E+02  0.30000000000E+02  0.00000000000E+00 0.  1.
         23    2    1    2    0    0  0.00000000000E+00  0.00000000000E+00  0.00000000000E+00  0.60000000000E+02  0.60000000000E+02 0.  0.
          5    1    3    3  501    0  0.22504272601E+02 -0.82416121088E+01 -0.17422501099E+02  0.30000000000E+02  0.47000000000E+01 0.  1.
         -5    1    3    3    0  501 -0.22504272601E+02  0.82416121088E+01  0.17422501099E+02  0.30000000000E+02  0.47000000000E+01 0. -1.
</event>
<event>
 5    1  0.7624361E-002  0.6000000E+02  0.7546771E-02  0.1259629E+00
         11   -1    0    0    0    0  0.00000000000E+00  0.00000000000E+00  0.30000000000E+02  0.30000000000E+02  0.00000000000E+00 0. -1.
        -11   -1    0    0    0    0 -0.00000000000E+00 -0.00000000000E+00 -0.30000000000E+02  0.30000000000E+02  0.00000000000E+00 0.  1.
         23    2    1    2    0    0  0.00000000000E+00  0.00000000000E+00  0.00000000000E+00  0.60000000000E+02  0.60000000000E+02 0.  0.
          5    1    3    3  501    0  0.99423104058E+01  0.26043034322E+02 -0.10040957478E+02  0.30000000000E+02  0.47000000000E+01 0.  1.
         -5    1    3    3    0  501 -0.99423104058E+01 -0.26043034322E+02  0.10040957478E+02  0.30000000000E+02  0.47000000000E+01 0. -1.
</event>
<event>
 5    1  0.7624361E-002  0.6000000E+02  0.7546771E-02  0.1259629E+00
         11   -1    0    0    0    0  0.00000000000E+00  0.00000000000E+00  0.30000000000E+02  0.30000000000E+02  0.00000000000E+00 0. -1.
        -11   -1    0    0    0    0 -0.00000000000E+00 -0.00000000000E+00 -0.30000000000E+02  0.30000000000E+02  0.00000000000E+00 0.  1.
         23    2    1    2    0    0  0.00000000000E+00  0.00000000000E+00  0.00000000000E+00  0.60000000000E+02  0.60000000000E+02 0.  0.
          5    1    3    3  501    0  0.25954110507E+02  0.57632144653E+01  0.13079736496E+02  0.30000000000E+02  0.47000000000E+01 0. -1.
         -5    1    3    3    0  501 -0.25954110507E+02 -0.57632144653E+01 -0.13079736496E+02  0.30000000000E+02  0.47000000000E+01 0.  1.
</event>
<event>
 5    1  0.7624361E-002  0.6000000E+02  0.7546771E-02  0.1259629E+00
         11   -1    0    0    0    0  0.00000000000E+00  0.00000000000E+00  0.30000000000E+02  0.30000000000E+02  0.00000000000E+00 0.  1.
        -11   -1    0    0    0    0 -0.00000000000E+00 -0.00000000000E+00 -0.30000000000E+02  0.30000000000E+02  0.00000000000E+00 0. -1.
         23    2    1    2    0    0  0.00000000000E+00  0.00000000000E+00  0.00000000000E+00  0.60000000000E+02  0.60000000000E+02 0.  0.
          5    1    3    3  501    0  0.31522825108E+01 -0.27936236324E+02  0.93562714271E+01  0.30000000000E+02  0.47000000000E+01 0. -1.
         -5    1    3    3    0  501 -0.31522825108E+01  0.27936236324E+02 -0.93562714271E+01  0.30000000000E+02  0.47000000000E+01 0.  1.
</event>
<event>
 5    1  0.7624361E-002  0.6000000E+02  0.7546771E-02  0.1259629E+00
         11   -1    0    0    0    0  0.00000000000E+00  0.00000000000E+00  0.30000000000E+02  0.30000000000E+02  0.00000000000E+00 0.  1.
        -11   -1    0    0    0    0 -0.00000000000E+00 -0.00000000000E+00 -0.30000000000E+02  0.30000000000E+02  0.00000000000E+00 0. -1.
         23    2    1    2    0    0  0.00000000000E+00  0.00000000000E+00  0.00000000000E+00  0.60000000000E+02  0.60000000000E+02 0.  0.
          5    1    3    3  501    0  0.74654606145E+01  0.18337942012E+02 -0.22043066497E+02  0.30000000000E+02  0.47000000000E+01 0. -1.
         -5    1    3    3    0  501 -0.74654606145E+01 -0.18337942012E+02  0.22043066497E+02  0.30000000000E+02  0.47000000000E+01 0.  1.
</event>
<event>
 5    1  0.7624361E-002  0.6000000E+02  0.7546771E-02  0.1259629E+00
         11   -1    0    0    0    0  0.00000000000E+00  0.00000000000E+00  0.30000000000E+02  0.30000000000E+02  0.00000000000E+00 0. -1.
        -11   -1    0    0    0    0 -0.00000000000E+00 -0.00000000000E+00 -0.30000000000E+02  0.30000000000E+02  0.00000000000E+00 0.  1.
         23    2    1    2    0    0  0.00000000000E+00  0.00000000000E+00  0.00000000000E+00  0.60000000000E+02  0.60000000000E+02 0.  0.
          5    1    3    3  501    0  0.72298235722E+01 -0.89924269151E+01 -0.27290582795E+02  0.30000000000E+02  0.47000000000E+01 0.  1.
         -5    1    3    3    0  501 -0.72298235722E+01  0.89924269151E+01  0.27290582795E+02  0.30000000000E+02  0.47000000000E+01 0. -1.
</event>
<event>
 5    1  0.7624361E-002  0.6000000E+02  0.7546771E-02  0.1259629E+00
         11   -1    0    0    0    0  0.00000000000E+00  0.00000000000E+00  0.30000000000E+02  0.30000000000E+02  0.00000000000E+00 0.  1.
        -11   -1    0    0    0    0 -0.00000000000E+00 -0.00000000000E+00 -0.30000000000E+02  0.30000000000E+02  0.00000000000E+00 0. -1.
         23    2    1    2    0    0  0.00000000000E+00  0.00000000000E+00  0.00000000000E+00  0.60000000000E+02  0.60000000000E+02 0.  0.
          5    1    3    3  501    0  0.30179727315E+01 -0.14108974575E+02 -0.25879309825E+02  0.30000000000E+02  0.47000000000E+01 0. -1.
         -5    1    3    3    0  501 -0.30179727315E+01  0.14108974575E+02  0.25879309825E+02  0.30000000000E+02  0.47000000000E+01 0.  1.
</event>
<event>
 5    1  0.7624361E-002  0.6000000E+02  0.7546771E-02  0.1259629E+00
         11   -1    0    0    0    0  0.00000000000E+00  0.00000000000E+00  0.30000000000E+02  0.30000000000E+02  0.00000000000E+00 0.  1.
        -11   -1    0    0    0    0 -0.00000000000E+00 -0.00000000000E+00 -0.30000000000E+02  0.30000000000E+02  0.00000000000E+00 0. -1.
         23    2    1    2    0    0  0.00000000000E+00  0.00000000000E+00  0.00000000000E+00  0.60000000000E+02  0.60000000000E+02 0.  0.
          5    1    3    3  501    0 -0.45524906335E+01 -0.28780772474E+02  0.53714025029E+01  0.30000000000E+02  0.47000000000E+01 0. -1.
         -5    1    3    3    0  501  0.45524906335E+01  0.28780772474E+02 -0.53714025029E+01  0.30000000000E+02  0.47000000000E+01 0.  1.
</event>
<event>
 5    1  0.7624361E-002  0.6000000E+02  0.7546771E-02  0.1259629E+00
         11   -1    0    0    0    0  0.00000000000E+00  0.00000000000E+00  0.30000000000E+02  0.30000000000E+02  0.00000000000E+00 0.  1.
        -11   -1    0    0    0    0 -0.00000000000E+00 -0.00000000000E+00 -0.30000000000E+02  0.30000000000E+02  0.00000000000E+00 0. -1.
         23    2    1    2    0    0  0.00000000000E+00  0.00000000000E+00  0.00000000000E+00  0.60000000000E+02  0.60000000000E+02 0.  0.
          5    1    3    3  501    0 -0.14255071504E+02  0.26520297446E+00 -0.25973690608E+02  0.30000000000E+02  0.47000000000E+01 0. -1.
         -5    1    3    3    0  501  0.14255071504E+02 -0.26520297446E+00  0.25973690608E+02  0.30000000000E+02  0.47000000000E+01 0.  1.
</event>
<event>
 5    1  0.7624361E-002  0.6000000E+02  0.7546771E-02  0.1259629E+00
         11   -1    0    0    0    0  0.00000000000E+00  0.00000000000E+00  0.30000000000E+02  0.30000000000E+02  0.00000000000E+00 0.  1.
        -11   -1    0    0    0    0 -0.00000000000E+00 -0.00000000000E+00 -0.30000000000E+02  0.30000000000E+02  0.00000000000E+00 0. -1.
         23    2    1    2    0    0  0.00000000000E+00  0.00000000000E+00  0.00000000000E+00  0.60000000000E+02  0.60000000000E+02 0.  0.
          5    1    3    3  501    0  0.24796784308E+01  0.97616771464E+01 -0.27865226613E+02  0.30000000000E+02  0.47000000000E+01 0. -1.
         -5    1    3    3    0  501 -0.24796784308E+01 -0.97616771464E+01  0.27865226613E+02  0.30000000000E+02  0.47000000000E+01 0.  1.
</event>
<event>
 5    1  0.7624361E-002  0.6000000E+02  0.7546771E-02  0.1259629E+00
         11   -1    0    0    0    0  0.00000000000E+00  0.00000000000E+00  0.30000000000E+02  0.30000000000E+02  0.00000000000E+00 0.  1.
        -11   -1    0    0    0    0 -0.00000000000E+00 -0.00000000000E+00 -0.30000000000E+02  0.30000000000E+02  0.00000000000E+00 0. -1.
         23    2    1    2    0    0  0.00000000000E+00  0.00000000000E+00  0.00000000000E+00  0.60000000000E+02  0.60000000000E+02 0.  0.
          5    1    3    3  501    0  0.13609735814E+02  0.16953370875E+02 -0.20131276837E+02  0.30000000000E+02  0.47000000000E+01 0. -1.
         -5    1    3    3    0  501 -0.13609735814E+02 -0.16953370875E+02  0.20131276837E+02  0.30000000000E+02  0.47000000000E+01 0.  1.
</event>
<event>
 5    1  0.7624361E-002  0.6000000E+02  0.7546771E-02  0.1259629E+00
         11   -1    0    0    0    0  0.00000000000E+00  0.00000000000E+00  0.30000000000E+02  0.30000000000E+02  0.00000000000E+00 0.  1.
        -11   -1    0    0    0    0 -0.00000000000E+00 -0.00000000000E+00 -0.30000000000E+02  0.30000000000E+02  0.00000000000E+00 0. -1.
         23    2    1    2    0    0  0.00000000000E+00  0.00000000000E+00  0.00000000000E+00  0.60000000000E+02  0.60000000000E+02 0.  0.
          5    1    3    3  501    0 -0.23612209731E+02  0.10648042803E+01  0.17867281368E+02  0.30000000000E+02  0.47000000000E+01 0.  1.
         -5    1    3    3    0  501  0.23612209731E+02 -0.10648042803E+01 -0.17867281368E+02  0.30000000000E+02  0.47000000000E+01 0. -1.
</event>
<event>
 5    1  0.7624361E-002  0.6000000E+02  0.7546771E-02  0.1259629E+00
         11   -1    0    0    0    0  0.00000000000E+00  0.00000000000E+00  0.30000000000E+02  0.30000000000E+02  0.00000000000E+00 0.  1.
        -11   -1    0    0    0    0 -0.00000000000E+00 -0.00000000000E+00 -0.30000000000E+02  0.30000000000E+02  0.00000000000E+00 0. -1.
         23    2    1    2    0    0  0.00000000000E+00  0.00000000000E+00  0.00000000000E+00  0.60000000000E+02  0.60000000000E+02 0.  0.
          5    1    3    3  501    0  0.22585404896E+02  0.17669592140E+02 -0.74562054207E+01  0.30000000000E+02  0.47000000000E+01 0. -1.
         -5    1    3    3    0  501 -0.22585404896E+02 -0.17669592140E+02  0.74562054207E+01  0.30000000000E+02  0.47000000000E+01 0.  1.
</event>
<event>
 5    1  0.7624361E-002  0.6000000E+02  0.7546771E-02  0.1259629E+00
         11   -1    0    0    0    0  0.00000000000E+00  0.00000000000E+00  0.30000000000E+02  0.30000000000E+02  0.00000000000E+00 0.  1.
        -11   -1    0    0    0    0 -0.00000000000E+00 -0.00000000000E+00 -0.30000000000E+02  0.30000000000E+02  0.00000000000E+00 0. -1.
         23    2    1    2    0    0  0.00000000000E+00  0.00000000000E+00  0.00000000000E+00  0.60000000000E+02  0.60000000000E+02 0.  0.
          5    1    3    3  501    0  0.17924169413E+01 -0.29546119895E+02 -0.13130272937E+01  0.30000000000E+02  0.47000000000E+01 0. -1.
         -5    1    3    3    0  501 -0.17924169413E+01  0.29546119895E+02  0.13130272937E+01  0.30000000000E+02  0.47000000000E+01 0.  1.
</event>
<event>
 5    1  0.7624361E-002  0.6000000E+02  0.7546771E-02  0.1259629E+00
         11   -1    0    0    0    0  0.00000000000E+00  0.00000000000E+00  0.30000000000E+02  0.30000000000E+02  0.00000000000E+00 0.  1.
        -11   -1    0    0    0    0 -0.00000000000E+00 -0.00000000000E+00 -0.30000000000E+02  0.30000000000E+02  0.00000000000E+00 0. -1.
         23    2    1    2    0    0  0.00000000000E+00  0.00000000000E+00  0.00000000000E+00  0.60000000000E+02  0.60000000000E+02 0.  0.
          5    1    3    3  501    0  0.14758349297E+01 -0.76411847716E+01  0.28589232353E+02  0.30000000000E+02  0.47000000000E+01 0.  1.
         -5    1    3    3    0  501 -0.14758349297E+01  0.76411847716E+01 -0.28589232353E+02  0.30000000000E+02  0.47000000000E+01 0. -1.
</event>
<event>
 5    1  0.7624361E-002  0.6000000E+02  0.7546771E-02  0.1259629E+00
         11   -1    0    0    0    0  0.00000000000E+00  0.00000000000E+00  0.30000000000E+02  0.30000000000E+02  0.00000000000E+00 0.  1.
        -11   -1    0    0    0    0 -0.00000000000E+00 -0.00000000000E+00 -0.30000000000E+02  0.30000000000E+02  0.00000000000E+00 0. -1.
         23    2    1    2    0    0  0.00000000000E+00  0.00000000000E+00  0.00000000000E+00  0.60000000000E+02  0.60000000000E+02 0.  0.
          5    1    3    3  501    0  0.18915965633E+02  0.36812960793E+01 -0.22506539124E+02  0.30000000000E+02  0.47000000000E+01 0. -1.
         -5    1    3    3    0  501 -0.18915965633E+02 -0.36812960793E+01  0.22506539124E+02  0.30000000000E+02  0.47000000000E+01 0.  1.
</event>
<event>
 5    1  0.7624361E-002  0.6000000E+02  0.7546771E-02  0.1259629E+00
         11   -1    0    0    0    0  0.00000000000E+00  0.00000000000E+00  0.30000000000E+02  0.30000000000E+02  0.00000000000E+00 0.  1.
        -11   -1    0    0    0    0 -0.00000000000E+00 -0.00000000000E+00 -0.30000000000E+02  0.30000000000E+02  0.00000000000E+00 0. -1.
         23    2    1    2    0    0  0.00000000000E+00  0.00000000000E+00  0.00000000000E+00  0.60000000000E+02  0.60000000000E+02 0.  0.
          5    1    3    3  501    0 -0.45929787840E+01 -0.12846858603E+02  0.26301573526E+02  0.30000000000E+02  0.47000000000E+01 0.  1.
         -5    1    3    3    0  501  0.45929787840E+01  0.12846858603E+02 -0.26301573526E+02  0.30000000000E+02  0.47000000000E+01 0. -1.
</event>
<event>
 5    1  0.7624361E-002  0.6000000E+02  0.7546771E-02  0.1259629E+00
         11   -1    0    0    0    0  0.00000000000E+00  0.00000000000E+00  0.30000000000E+02  0.30000000000E+02  0.00000000000E+00 0. -1.
        -11   -1    0    0    0    0 -0.00000000000E+00 -0.00000000000E+00 -0.30000000000E+02  0.30000000000E+02  0.00000000000E+00 0.  1.
         23    2    1    2    0    0  0.00000000000E+00  0.00000000000E+00  0.00000000000E+00  0.60000000000E+02  0.60000000000E+02 0.  0.
          5    1    3    3  501    0  0.11963545968E+02  0.15775828002E+02 -0.22043294189E+02  0.30000000000E+02  0.47000000000E+01 0.  1.
         -5    1    3    3    0  501 -0.11963545968E+02 -0.15775828002E+02  0.22043294189E+02  0.30000000000E+02  0.47000000000E+01 0. -1.
</event>
<event>
 5    1  0.7624361E-002  0.6000000E+02  0.7546771E-02  0.1259629E+00
         11   -1    0    0    0    0  0.00000000000E+00  0.00000000000E+00  0.30000000000E+02  0.30000000000E+02  0.00000000000E+00 0.  1.
        -11   -1    0    0    0    0 -0.00000000000E+00 -0.00000000000E+00 -0.30000000000E+02  0.30000000000E+02  0.00000000000E+00 0. -1.
         23    2    1    2    0    0  0.00000000000E+00  0.00000000000E+00  0.00000000000E+00  0.60000000000E+02  0.60000000000E+02 0.  0.
          5    1    3    3  501    0 -0.10992703871E+02  0.70578113133E+01 -0.26594318210E+02  0.30000000000E+02  0.47000000000E+01 0. -1.
         -5    1    3    3    0  501  0.10992703871E+02 -0.70578113133E+01  0.26594318210E+02  0.30000000000E+02  0.47000000000E+01 0.  1.
</event>
<event>
 5    1  0.7624361E-002  0.6000000E+02  0.7546771E-02  0.1259629E+00
         11   -1    0    0    0    0  0.00000000000E+00  0.00000000000E+00  0.30000000000E+02  0.30000000000E+02  0.00000000000E+00 0. -1.
        -11   -1    0    0    0    0 -0.00000000000E+00 -0.00000000000E+00 -0.30000000000E+02  0.30000000000E+02  0.00000000000E+00 0.  1.
         23    2    1    2    0    0  0.00000000000E+00  0.00000000000E+00  0.00000000000E+00  0.60000000000E+02  0.60000000000E+02 0.  0.
          5    1    3    3  501    0 -0.19692271615E+02 -0.12176351224E+02 -0.18489481051E+02  0.30000000000E+02  0.47000000000E+01 0.  1.
         -5    1    3    3    0  501  0.19692271615E+02  0.12176351224E+02  0.18489481051E+02  0.30000000000E+02  0.47000000000E+01 0. -1.
</event>
<event>
 5    1  0.7624361E-002  0.6000000E+02  0.7546771E-02  0.1259629E+00
         11   -1    0    0    0    0  0.00000000000E+00  0.00000000000E+00  0.30000000000E+02  0.30000000000E+02  0.00000000000E+00 0.  1.
        -11   -1    0    0    0    0 -0.00000000000E+00 -0.00000000000E+00 -0.30000000000E+02  0.30000000000E+02  0.00000000000E+00 0. -1.
         23    2    1    2    0    0  0.00000000000E+00  0.00000000000E+00  0.00000000000E+00  0.60000000000E+02  0.60000000000E+02 0.  0.
          5    1    3    3  501    0 -0.18847020855E+02 -0.36983441992E+01 -0.22561517127E+02  0.30000000000E+02  0.47000000000E+01 0. -1.
         -5    1    3    3    0  501  0.18847020855E+02  0.36983441992E+01  0.22561517127E+02  0.30000000000E+02  0.47000000000E+01 0.  1.
</event>
<event>
 5    1  0.7624361E-002  0.6000000E+02  0.7546771E-02  0.1259629E+00
         11   -1    0    0    0    0  0.00000000000E+00  0.00000000000E+00  0.30000000000E+02  0.30000000000E+02  0.00000000000E+00 0.  1.
        -11   -1    0    0    0    0 -0.00000000000E+00 -0.00000000000E+00 -0.30000000000E+02  0.30000000000E+02  0.00000000000E+00 0. -1.
         23    2    1    2    0    0  0.00000000000E+00  0.00000000000E+00  0.00000000000E+00  0.60000000000E+02  0.60000000000E+02 0.  0.
          5    1    3    3  501    0 -0.14169646010E+01 -0.14393527329E+02 -0.25859786974E+02  0.30000000000E+02  0.47000000000E+01 0. -1.
         -5    1    3    3    0  501  0.14169646010E+01  0.14393527329E+02  0.25859786974E+02  0.30000000000E+02  0.47000000000E+01 0.  1.
</event>
<event>
 5    1  0.7624361E-002  0.6000000E+02  0.7546771E-02  0.1259629E+00
         11   -1    0    0    0    0  0.00000000000E+00  0.00000000000E+00  0.30000000000E+02  0.30000000000E+02  0.00000000000E+00 0.  1.
        -11   -1    0    0    0    0 -0.00000000000E+00 -0.00000000000E+00 -0.30000000000E+02  0.30000000000E+02  0.00000000000E+00 0. -1.
         23    2    1    2    0    0  0.00000000000E+00  0.00000000000E+00  0.00000000000E+00  0.60000000000E+02  0.60000000000E+02 0.  0.
          5    1    3    3  501    0 -0.80918804919E+01  0.27747577867E+02 -0.65194626038E+01  0.30000000000E+02  0.47000000000E+01 0. -1.
         -5    1    3    3    0  501  0.80918804919E+01 -0.27747577867E+02  0.65194626038E+01  0.30000000000E+02  0.47000000000E+01 0.  1.
</event>
<event>
 5    1  0.7624361E-002  0.6000000E+02  0.7546771E-02  0.1259629E+00
         11   -1    0    0    0    0  0.00000000000E+00  0.00000000000E+00  0.30000000000E+02  0.30000000000E+02  0.00000000000E+00 0.  1.
        -11   -1    0    0    0    0 -0.00000000000E+00 -0.00000000000E+00 -0.30000000000E+02  0.30000000000E+02  0.00000000000E+00 0. -1.
         23    2    1    2    0    0  0.00000000000E+00  0.00000000000E+00  0.00000000000E+00  0.60000000000E+02  0.60000000000E+02 0.  0.
          5    1    3    3  501    0  0.12049639914E+02 -0.99418774175E+01 -0.25176879301E+02  0.30000000000E+02  0.47000000000E+01 0. -1.
         -5    1    3    3    0  501 -0.12049639914E+02  0.99418774175E+01  0.25176879301E+02  0.30000000000E+02  0.47000000000E+01 0.  1.
</event>
<event>
 5    1  0.7624361E-002  0.6000000E+02  0.7546771E-02  0.1259629E+00
         11   -1    0    0    0    0  0.00000000000E+00  0.00000000000E+00  0.30000000000E+02  0.30000000000E+02  0.00000000000E+00 0.  1.
        -11   -1    0    0    0    0 -0.00000000000E+00 -0.00000000000E+00 -0.30000000000E+02  0.30000000000E+02  0.00000000000E+00 0. -1.
         23    2    1    2    0    0  0.00000000000E+00  0.00000000000E+00  0.00000000000E+00  0.60000000000E+02  0.60000000000E+02 0.  0.
          5    1    3    3  501    0 -0.13757169585E+02 -0.48158307569E+01  0.25796473773E+02  0.30000000000E+02  0.47000000000E+01 0.  1.
         -5    1    3    3    0  501  0.13757169585E+02  0.48158307569E+01 -0.25796473773E+02  0.30000000000E+02  0.47000000000E+01 0. -1.
</event>
<event>
 5    1  0.7624361E-002  0.6000000E+02  0.7546771E-02  0.1259629E+00
         11   -1    0    0    0    0  0.00000000000E+00  0.00000000000E+00  0.30000000000E+02  0.30000000000E+02  0.00000000000E+00 0.  1.
        -11   -1    0    0    0    0 -0.00000000000E+00 -0.00000000000E+00 -0.30000000000E+02  0.30000000000E+02  0.00000000000E+00 0. -1.
         23    2    1    2    0    0  0.00000000000E+00  0.00000000000E+00  0.00000000000E+00  0.60000000000E+02  0.60000000000E+02 0.  0.
          5    1    3    3  501    0  0.31130213892E+01 -0.20320767922E+02 -0.21337419921E+02  0.30000000000E+02  0.47000000000E+01 0. -1.
         -5    1    3    3    0  501 -0.31130213892E+01  0.20320767922E+02  0.21337419921E+02  0.30000000000E+02  0.47000000000E+01 0.  1.
</event>
<event>
 5    1  0.7624361E-002  0.6000000E+02  0.7546771E-02  0.1259629E+00
         11   -1    0    0    0    0  0.00000000000E+00  0.00000000000E+00  0.30000000000E+02  0.30000000000E+02  0.00000000000E+00 0.  1.
        -11   -1    0    0    0    0 -0.00000000000E+00 -0.00000000000E+00 -0.30000000000E+02  0.30000000000E+02  0.00000000000E+00 0. -1.
         23    2    1    2    0    0  0.00000000000E+00  0.00000000000E+00  0.00000000000E+00  0.60000000000E+02  0.60000000000E+02 0.  0.
          5    1    3    3  501    0 -0.28527848182E+02  0.79015666530E+01  0.12795008954E+01  0.30000000000E+02  0.47000000000E+01 0. -1.
         -5    1    3    3    0  501  0.28527848182E+02 -0.79015666530E+01 -0.12795008954E+01  0.30000000000E+02  0.47000000000E+01 0.  1.
</event>
<event>
 5    1  0.7624361E-002  0.6000000E+02  0.7546771E-02  0.1259629E+00
         11   -1    0    0    0    0  0.00000000000E+00  0.00000000000E+00  0.30000000000E+02  0.30000000000E+02  0.00000000000E+00 0.  1.
        -11   -1    0    0    0    0 -0.00000000000E+00 -0.00000000000E+00 -0.30000000000E+02  0.30000000000E+02  0.00000000000E+00 0. -1.
         23    2    1    2    0    0  0.00000000000E+00  0.00000000000E+00  0.00000000000E+00  0.60000000000E+02  0.60000000000E+02 0.  0.
          5    1    3    3  501    0 -0.12304313287E+02  0.15314613666E+02 -0.22180542888E+02  0.30000000000E+02  0.47000000000E+01 0. -1.
         -5    1    3    3    0  501  0.12304313287E+02 -0.15314613666E+02  0.22180542888E+02  0.30000000000E+02  0.47000000000E+01 0.  1.
</event>
<event>
 5    1  0.7624361E-002  0.6000000E+02  0.7546771E-02  0.1259629E+00
         11   -1    0    0    0    0  0.00000000000E+00  0.00000000000E+00  0.30000000000E+02  0.30000000000E+02  0.00000000000E+00 0. -1.
        -11   -1    0    0    0    0 -0.00000000000E+00 -0.00000000000E+00 -0.30000000000E+02  0.30000000000E+02  0.00000000000E+00 0.  1.
         23    2    1    2    0    0  0.00000000000E+00  0.00000000000E+00  0.00000000000E+00  0.60000000000E+02  0.60000000000E+02 0.  0.
          5    1    3    3  501    0  0.18958013789E+02 -0.32274372028E+01 -0.22540793293E+02  0.30000000000E+02  0.47000000000E+01 0.  1.
         -5    1    3    3    0  501 -0.18958013789E+02  0.32274372028E+01  0.22540793293E+02  0.30000000000E+02  0.47000000000E+01 0. -1.
</event>
<event>
 5    1  0.7624361E-002  0.6000000E+02  0.7546771E-02  0.1259629E+00
         11   -1    0    0    0    0  0.00000000000E+00  0.00000000000E+00  0.30000000000E+02  0.30000000000E+02  0.00000000000E+00 0. -1.
        -11   -1    0    0    0    0 -0.00000000000E+00 -0.00000000000E+00 -0.30000000000E+02  0.30000000000E+02  0.00000000000E+00 0.  1.
         23    2    1    2    0    0  0.00000000000E+00  0.00000000000E+00  0.00000000000E+00  0.60000000000E+02  0.60000000000E+02 0.  0.
          5    1    3    3  501    0 -0.26047181536E+02  0.14043753083E+02 -0.14924253259E+01  0.30000000000E+02  0.47000000000E+01 0.  1.
         -5    1    3    3    0  501  0.26047181536E+02 -0.14043753083E+02  0.14924253259E+01  0.30000000000E+02  0.47000000000E+01 0. -1.
</event>
<event>
 5    1  0.7624361E-002  0.6000000E+02  0.7546771E-02  0.1259629E+00
         11   -1    0    0    0    0  0.00000000000E+00  0.00000000000E+00  0.30000000000E+02  0.30000000000E+02  0.00000000000E+00 0.  1.
        -11   -1    0    0    0    0 -0.00000000000E+00 -0.00000000000E+00 -0.30000000000E+02  0.30000000000E+02  0.00000000000E+00 0. -1.
         23    2    1    2    0    0  0.00000000000E+00  0.00000000000E+00  0.00000000000E+00  0.60000000000E+02  0.60000000000E+02 0.  0.
          5    1    3    3  501    0 -0.24484319754E+01 -0.29517078308E+02  0.81072130267E+00  0.30000000000E+02  0.47000000000E+01 0. -1.
         -5    1    3    3    0  501  0.24484319754E+01  0.29517078308E+02 -0.81072130267E+00  0.30000000000E+02  0.47000000000E+01 0.  1.
</event>
<event>
 5    1  0.7624361E-002  0.6000000E+02  0.7546771E-02  0.1259629E+00
         11   -1    0    0    0    0  0.00000000000E+00  0.00000000000E+00  0.30000000000E+02  0.30000000000E+02  0.00000000000E+00 0.  1.
        -11   -1    0    0    0    0 -0.00000000000E+00 -0.00000000000E+00 -0.30000000000E+02  0.30000000000E+02  0.00000000000E+00 0. -1.
         23    2    1    2    0    0  0.00000000000E+00  0.00000000000E+00  0.00000000000E+00  0.60000000000E+02  0.60000000000E+02 0.  0.
          5    1    3    3  501    0 -0.11463007739E+02 -0.25465388064E+02 -0.99006799926E+01  0.30000000000E+02  0.47000000000E+01 0. -1.
         -5    1    3    3    0  501  0.11463007739E+02  0.25465388064E+02  0.99006799926E+01  0.30000000000E+02  0.47000000000E+01 0.  1.
</event>
<event>
 5    1  0.7624361E-002  0.6000000E+02  0.7546771E-02  0.1259629E+00
         11   -1    0    0    0    0  0.00000000000E+00  0.00000000000E+00  0.30000000000E+02  0.30000000000E+02  0.00000000000E+00 0. -1.
        -11   -1    0    0    0    0 -0.00000000000E+00 -0.00000000000E+00 -0.30000000000E+02  0.30000000000E+02  0.00000000000E+00 0.  1.
         23    2    1    2    0    0  0.00000000000E+00  0.00000000000E+00  0.00000000000E+00  0.60000000000E+02  0.60000000000E+02 0.  0.
          5    1    3    3  501    0 -0.52248285540E+01 -0.26690403102E+02  0.11757276420E+02  0.30000000000E+02  0.47000000000E+01 0. -1.
         -5    1    3    3    0  501  0.52248285540E+01  0.26690403102E+02 -0.11757276420E+02  0.30000000000E+02  0.47000000000E+01 0.  1.
</event>
<event>
 5    1  0.7624361E-002  0.6000000E+02  0.7546771E-02  0.1259629E+00
         11   -1    0    0    0    0  0.00000000000E+00  0.00000000000E+00  0.30000000000E+02  0.30000000000E+02  0.00000000000E+00 0.  1.
        -11   -1    0    0    0    0 -0.00000000000E+00 -0.00000000000E+00 -0.30000000000E+02  0.30000000000E+02  0.00000000000E+00 0. -1.
         23    2    1    2    0    0  0.00000000000E+00  0.00000000000E+00  0.00000000000E+00  0.60000000000E+02  0.60000000000E+02 0.  0.
          5    1    3    3  501    0  0.15093243487E+02 -0.62028477279E+01 -0.24731127777E+02  0.30000000000E+02  0.47000000000E+01 0. -1.
         -5    1    3    3    0  501 -0.15093243487E+02  0.62028477279E+01  0.24731127777E+02  0.30000000000E+02  0.47000000000E+01 0.  1.
</event>
<event>
 5    1  0.7624361E-002  0.6000000E+02  0.7546771E-02  0.1259629E+00
         11   -1    0    0    0    0  0.00000000000E+00  0.00000000000E+00  0.30000000000E+02  0.30000000000E+02  0.00000000000E+00 0.  1.
        -11   -1    0    0    0    0 -0.00000000000E+00 -0.00000000000E+00 -0.30000000000E+02  0.30000000000E+02  0.00000000000E+00 0. -1.
         23    2    1    2    0    0  0.00000000000E+00  0.00000000000E+00  0.00000000000E+00  0.60000000000E+02  0.60000000000E+02 0.  0.
          5    1    3    3  501    0 -0.23166779436E+02  0.16632409090E+02 -0.80357512680E+01  0.30000000000E+02  0.47000000000E+01 0. -1.
         -5    1    3    3    0  501  0.23166779436E+02 -0.16632409090E+02  0.80357512680E+01  0.30000000000E+02  0.47000000000E+01 0.  1.
</event>
<event>
 5    1  0.7624361E-002  0.6000000E+02  0.7546771E-02  0.1259629E+00
         11   -1    0    0    0    0  0.00000000000E+00  0.00000000000E+00  0.30000000000E+02  0.30000000000E+02  0.00000000000E+00 0.  1.
        -11   -1    0    0    0    0 -0.00000000000E+00 -0.00000000000E+00 -0.30000000000E+02  0.30000000000E+02  0.00000000000E+00 0. -1.
         23    2    1    2    0    0  0.00000000000E+00  0.00000000000E+00  0.00000000000E+00  0.60000000000E+02  0.60000000000E+02 0.  0.
          5    1    3    3  501    0  0.84833899870E+01 -0.24998521583E+02 -0.13454219152E+02  0.30000000000E+02  0.47000000000E+01 0.  1.
         -5    1    3    3    0  501 -0.84833899870E+01  0.24998521583E+02  0.13454219152E+02  0.30000000000E+02  0.47000000000E+01 0. -1.
</event>
<event>
 5    1  0.7624361E-002  0.6000000E+02  0.7546771E-02  0.1259629E+00
         11   -1    0    0    0    0  0.00000000000E+00  0.00000000000E+00  0.30000000000E+02  0.30000000000E+02  0.00000000000E+00 0.  1.
        -11   -1    0    0    0    0 -0.00000000000E+00 -0.00000000000E+00 -0.30000000000E+02  0.30000000000E+02  0.00000000000E+00 0. -1.
         23    2    1    2    0    0  0.00000000000E+00  0.00000000000E+00  0.00000000000E+00  0.60000000000E+02  0.60000000000E+02 0.  0.
          5    1    3    3  501    0  0.75288905192E+01 -0.19814951418E+02 -0.20702500038E+02  0.30000000000E+02  0.47000000000E+01 0. -1.
         -5    1    3    3    0  501 -0.75288905192E+01  0.19814951418E+02  0.20702500038E+02  0.30000000000E+02  0.47000000000E+01 0.  1.
</event>
<event>
 5    1  0.7624361E-002  0.6000000E+02  0.7546771E-02  0.1259629E+00
         11   -1    0    0    0    0  0.00000000000E+00  0.00000000000E+00  0.30000000000E+02  0.30000000000E+02  0.00000000000E+00 0. -1.
        -11   -1    0    0    0    0 -0.00000000000E+00 -0.00000000000E+00 -0.30000000000E+02  0.30000000000E+02  0.00000000000E+00 0.  1.
         23    2    1    2    0    0  0.00000000000E+00  0.00000000000E+00  0.00000000000E+00  0.60000000000E+02  0.60000000000E+02 0.  0.
          5    1    3    3  501    0  0.12228737264E+02  0.26392330932E+02 -0.56402883731E+01  0.30000000000E+02  0.47000000000E+01 0.  1.
         -5    1    3    3    0  501 -0.12228737264E+02 -0.26392330932E+02  0.56402883731E+01  0.30000000000E+02  0.47000000000E+01 0. -1.
</event>
<event>
 5    1  0.7624361E-002  0.6000000E+02  0.7546771E-02  0.1259629E+00
         11   -1    0    0    0    0  0.00000000000E+00  0.00000000000E+00  0.30000000000E+02  0.30000000000E+02  0.00000000000E+00 0. -1.
        -11   -1    0    0    0    0 -0.00000000000E+00 -0.00000000000E+00 -0.30000000000E+02  0.30000000000E+02  0.00000000000E+00 0.  1.
         23    2    1    2    0    0  0.00000000000E+00  0.00000000000E+00  0.00000000000E+00  0.60000000000E+02  0.60000000000E+02 0.  0.
          5    1    3    3  501    0 -0.86967426339E+01 -0.17835430192E+02 -0.22003956404E+02  0.30000000000E+02  0.47000000000E+01 0.  1.
         -5    1    3    3    0  501  0.86967426339E+01  0.17835430192E+02  0.22003956404E+02  0.30000000000E+02  0.47000000000E+01 0. -1.
</event>
<event>
 5    1  0.7624361E-002  0.6000000E+02  0.7546771E-02  0.1259629E+00
         11   -1    0    0    0    0  0.00000000000E+00  0.00000000000E+00  0.30000000000E+02  0.30000000000E+02  0.00000000000E+00 0. -1.
        -11   -1    0    0    0    0 -0.00000000000E+00 -0.00000000000E+00 -0.30000000000E+02  0.30000000000E+02  0.00000000000E+00 0.  1.
         23    2    1    2    0    0  0.00000000000E+00  0.00000000000E+00  0.00000000000E+00  0.60000000000E+02  0.60000000000E+02 0.  0.
          5    1    3    3  501    0  0.19516419356E+02  0.21201505347E+02 -0.68931521479E+01  0.30000000000E+02  0.47000000000E+01 0.  1.
         -5    1    3    3    0  501 -0.19516419356E+02 -0.21201505347E+02  0.68931521479E+01  0.30000000000E+02  0.47000000000E+01 0. -1.
</event>
<event>
 5    1  0.7624361E-002  0.6000000E+02  0.7546771E-02  0.1259629E+00
         11   -1    0    0    0    0  0.00000000000E+00  0.00000000000E+00  0.30000000000E+02  0.30000000000E+02  0.00000000000E+00 0.  1.
        -11   -1    0    0    0    0 -0.00000000000E+00 -0.00000000000E+00 -0.30000000000E+02  0.30000000000E+02  0.00000000000E+00 0. -1.
         23    2    1    2    0    0  0.00000000000E+00  0.00000000000E+00  0.00000000000E+00  0.60000000000E+02  0.60000000000E+02 0.  0.
          5    1    3    3  501    0 -0.27066014220E+02 -0.12013726293E+02 -0.10056116548E+01  0.30000000000E+02  0.47000000000E+01 0. -1.
         -5    1    3    3    0  501  0.27066014220E+02  0.12013726293E+02  0.10056116548E+01  0.30000000000E+02  0.47000000000E+01 0.  1.
</event>
<event>
 5    1  0.7624361E-002  0.6000000E+02  0.7546771E-02  0.1259629E+00
         11   -1    0    0    0    0  0.00000000000E+00  0.00000000000E+00  0.30000000000E+02  0.30000000000E+02  0.00000000000E+00 0. -1.
        -11   -1    0    0    0    0 -0.00000000000E+00 -0.00000000000E+00 -0.30000000000E+02  0.30000000000E+02  0.00000000000E+00 0.  1.
         23    2    1    2    0    0  0.00000000000E+00  0.00000000000E+00  0.00000000000E+00  0.60000000000E+02  0.60000000000E+02 0.  0.
          5    1    3    3  501    0  0.12060594586E+02  0.26975307791E+02  0.21874249294E+01  0.30000000000E+02  0.47000000000E+01 0.  1.
         -5    1    3    3    0  501 -0.12060594586E+02 -0.26975307791E+02 -0.21874249294E+01  0.30000000000E+02  0.47000000000E+01 0. -1.
</event>
<event>
 5    1  0.7624361E-002  0.6000000E+02  0.7546771E-02  0.1259629E+00
         11   -1    0    0    0    0  0.00000000000E+00  0.00000000000E+00  0.30000000000E+02  0.30000000000E+02  0.00000000000E+00 0.  1.
        -11   -1    0    0    0    0 -0.00000000000E+00 -0.00000000000E+00 -0.30000000000E+02  0.30000000000E+02  0.00000000000E+00 0. -1.
         23    2    1    2    0    0  0.00000000000E+00  0.00000000000E+00  0.00000000000E+00  0.60000000000E+02  0.60000000000E+02 0.  0.
          5    1    3    3  501    0 -0.23116566144E+02 -0.15183995121E+02 -0.10629236185E+02  0.30000000000E+02  0.47000000000E+01 0. -1.
         -5    1    3    3    0  501  0.23116566144E+02  0.15183995121E+02  0.10629236185E+02  0.30000000000E+02  0.47000000000E+01 0.  1.
</event>
<event>
 5    1  0.7624361E-002  0.6000000E+02  0.7546771E-02  0.1259629E+00
         11   -1    0    0    0    0  0.00000000000E+00  0.00000000000E+00  0.30000000000E+02  0.30000000000E+02  0.00000000000E+00 0.  1.
        -11   -1    0    0    0    0 -0.00000000000E+00 -0.00000000000E+00 -0.30000000000E+02  0.30000000000E+02  0.00000000000E+00 0. -1.
         23    2    1    2    0    0  0.00000000000E+00  0.00000000000E+00  0.00000000000E+00  0.60000000000E+02  0.60000000000E+02 0.  0.
          5    1    3    3  501    0  0.32049045370E+01 -0.18184094142E+02 -0.23172770813E+02  0.30000000000E+02  0.47000000000E+01 0. -1.
         -5    1    3    3    0  501 -0.32049045370E+01  0.18184094142E+02  0.23172770813E+02  0.30000000000E+02  0.47000000000E+01 0.  1.
</event>
<event>
 5    1  0.7624361E-002  0.6000000E+02  0.7546771E-02  0.1259629E+00
         11   -1    0    0    0    0  0.00000000000E+00  0.00000000000E+00  0.30000000000E+02  0.30000000000E+02  0.00000000000E+00 0. -1.
        -11   -1    0    0    0    0 -0.00000000000E+00 -0.00000000000E+00 -0.30000000000E+02  0.30000000000E+02  0.00000000000E+00 0.  1.
         23    2    1    2    0    0  0.00000000000E+00  0.00000000000E+00  0.00000000000E+00  0.60000000000E+02  0.60000000000E+02 0.  0.
          5    1    3    3  501    0 -0.90150692388E+01 -0.43934406454E+01 -0.27880749737E+02  0.30000000000E+02  0.47000000000E+01 0.  1.
         -5    1    3    3    0  501  0.90150692388E+01  0.43934406454E+01  0.27880749737E+02  0.30000000000E+02  0.47000000000E+01 0. -1.
</event>
<event>
 5    1  0.7624361E-002  0.6000000E+02  0.7546771E-02  0.1259629E+00
         11   -1    0    0    0    0  0.00000000000E+00  0.00000000000E+00  0.30000000000E+02  0.30000000000E+02  0.00000000000E+00 0.  1.
        -11   -1    0    0    0    0 -0.00000000000E+00 -0.00000000000E+00 -0.30000000000E+02  0.30000000000E+02  0.00000000000E+00 0. -1.
         23    2    1    2    0    0  0.00000000000E+00  0.00000000000E+00  0.00000000000E+00  0.60000000000E+02  0.60000000000E+02 0.  0.
          5    1    3    3  501    0 -0.35888287664E-01  0.13440467265E+02  0.26405729525E+02  0.30000000000E+02  0.47000000000E+01 0.  1.
         -5    1    3    3    0  501  0.35888287664E-01 -0.13440467265E+02 -0.26405729525E+02  0.30000000000E+02  0.47000000000E+01 0. -1.
</event>
<event>
 5    1  0.7624361E-002  0.6000000E+02  0.7546771E-02  0.1259629E+00
         11   -1    0    0    0    0  0.00000000000E+00  0.00000000000E+00  0.30000000000E+02  0.30000000000E+02  0.00000000000E+00 0.  1.
        -11   -1    0    0    0    0 -0.00000000000E+00 -0.00000000000E+00 -0.30000000000E+02  0.30000000000E+02  0.00000000000E+00 0. -1.
         23    2    1    2    0    0  0.00000000000E+00  0.00000000000E+00  0.00000000000E+00  0.60000000000E+02  0.60000000000E+02 0.  0.
          5    1    3    3  501    0  0.20683869085E+02  0.81989366015E+01 -0.19566936354E+02  0.30000000000E+02  0.47000000000E+01 0. -1.
         -5    1    3    3    0  501 -0.20683869085E+02 -0.81989366015E+01  0.19566936354E+02  0.30000000000E+02  0.47000000000E+01 0.  1.
</event>
<event>
 5    1  0.7624361E-002  0.6000000E+02  0.7546771E-02  0.1259629E+00
         11   -1    0    0    0    0  0.00000000000E+00  0.00000000000E+00  0.30000000000E+02  0.30000000000E+02  0.00000000000E+00 0. -1.
        -11   -1    0    0    0    0 -0.00000000000E+00 -0.00000000000E+00 -0.30000000000E+02  0.30000000000E+02  0.00000000000E+00 0.  1.
         23    2    1    2    0    0  0.00000000000E+00  0.00000000000E+00  0.00000000000E+00  0.60000000000E+02  0.60000000000E+02 0.  0.
          5    1    3    3  501    0 -0.77553220036E+01 -0.22427173243E+02 -0.17742234384E+02  0.30000000000E+02  0.47000000000E+01 0.  1.
         -5    1    3    3    0  501  0.77553220036E+01  0.22427173243E+02  0.17742234384E+02  0.30000000000E+02  0.47000000000E+01 0. -1.
</event>
<event>
 5    1  0.7624361E-002  0.6000000E+02  0.7546771E-02  0.1259629E+00
         11   -1    0    0    0    0  0.00000000000E+00  0.00000000000E+00  0.30000000000E+02  0.30000000000E+02  0.00000000000E+00 0.  1.
        -11   -1    0    0    0    0 -0.00000000000E+00 -0.00000000000E+00 -0.30000000000E+02  0.30000000000E+02  0.00000000000E+00 0. -1.
         23    2    1    2    0    0  0.00000000000E+00  0.00000000000E+00  0.00000000000E+00  0.60000000000E+02  0.60000000000E+02 0.  0.
          5    1    3    3  501    0  0.19932007928E+02  0.20166066426E+02  0.85996991147E+01  0.30000000000E+02  0.47000000000E+01 0. -1.
         -5    1    3    3    0  501 -0.19932007928E+02 -0.20166066426E+02 -0.85996991147E+01  0.30000000000E+02  0.47000000000E+01 0. -1.
</event>
<event>
 5    1  0.7624361E-002  0.6000000E+02  0.7546771E-02  0.1259629E+00
         11   -1    0    0    0    0  0.00000000000E+00  0.00000000000E+00  0.30000000000E+02  0.30000000000E+02  0.00000000000E+00 0.  1.
        -11   -1    0    0    0    0 -0.00000000000E+00 -0.00000000000E+00 -0.30000000000E+02  0.30000000000E+02  0.00000000000E+00 0. -1.
         23    2    1    2    0    0  0.00000000000E+00  0.00000000000E+00  0.00000000000E+00  0.60000000000E+02  0.60000000000E+02 0.  0.
          5    1    3    3  501    0  0.10389300609E+02 -0.75851874172E+01 -0.26691522338E+02  0.30000000000E+02  0.47000000000E+01 0. -1.
         -5    1    3    3    0  501 -0.10389300609E+02  0.75851874172E+01  0.26691522338E+02  0.30000000000E+02  0.47000000000E+01 0.  1.
</event>
<event>
 5    1  0.7624361E-002  0.6000000E+02  0.7546771E-02  0.1259629E+00
         11   -1    0    0    0    0  0.00000000000E+00  0.00000000000E+00  0.30000000000E+02  0.30000000000E+02  0.00000000000E+00 0.  1.
        -11   -1    0    0    0    0 -0.00000000000E+00 -0.00000000000E+00 -0.30000000000E+02  0.30000000000E+02  0.00000000000E+00 0. -1.
         23    2    1    2    0    0  0.00000000000E+00  0.00000000000E+00  0.00000000000E+00  0.60000000000E+02  0.60000000000E+02 0.  0.
          5    1    3    3  501    0  0.49024275839E+01  0.11976432536E+02 -0.26654104140E+02  0.30000000000E+02  0.47000000000E+01 0. -1.
         -5    1    3    3    0  501 -0.49024275839E+01 -0.11976432536E+02  0.26654104140E+02  0.30000000000E+02  0.47000000000E+01 0.  1.
</event>
<event>
 5    1  0.7624361E-002  0.6000000E+02  0.7546771E-02  0.1259629E+00
         11   -1    0    0    0    0  0.00000000000E+00  0.00000000000E+00  0.30000000000E+02  0.30000000000E+02  0.00000000000E+00 0.  1.
        -11   -1    0    0    0    0 -0.00000000000E+00 -0.00000000000E+00 -0.30000000000E+02  0.30000000000E+02  0.00000000000E+00 0. -1.
         23    2    1    2    0    0  0.00000000000E+00  0.00000000000E+00  0.00000000000E+00  0.60000000000E+02  0.60000000000E+02 0.  0.
          5    1    3    3  501    0  0.31085843782E+01  0.12389046406E+02  0.26734962733E+02  0.30000000000E+02  0.47000000000E+01 0.  1.
         -5    1    3    3    0  501 -0.31085843782E+01 -0.12389046406E+02 -0.26734962733E+02  0.30000000000E+02  0.47000000000E+01 0. -1.
</event>
<event>
 5    1  0.7624361E-002  0.6000000E+02  0.7546771E-02  0.1259629E+00
         11   -1    0    0    0    0  0.00000000000E+00  0.00000000000E+00  0.30000000000E+02  0.30000000000E+02  0.00000000000E+00 0.  1.
        -11   -1    0    0    0    0 -0.00000000000E+00 -0.00000000000E+00 -0.30000000000E+02  0.30000000000E+02  0.00000000000E+00 0. -1.
         23    2    1    2    0    0  0.00000000000E+00  0.00000000000E+00  0.00000000000E+00  0.60000000000E+02  0.60000000000E+02 0.  0.
          5    1    3    3  501    0 -0.22786501690E+02  0.13738829168E+02 -0.13035716851E+02  0.30000000000E+02  0.47000000000E+01 0. -1.
         -5    1    3    3    0  501  0.22786501690E+02 -0.13738829168E+02  0.13035716851E+02  0.30000000000E+02  0.47000000000E+01 0.  1.
</event>
<event>
 5    1  0.7624361E-002  0.6000000E+02  0.7546771E-02  0.1259629E+00
         11   -1    0    0    0    0  0.00000000000E+00  0.00000000000E+00  0.30000000000E+02  0.30000000000E+02  0.00000000000E+00 0. -1.
        -11   -1    0    0    0    0 -0.00000000000E+00 -0.00000000000E+00 -0.30000000000E+02  0.30000000000E+02  0.00000000000E+00 0.  1.
         23    2    1    2    0    0  0.00000000000E+00  0.00000000000E+00  0.00000000000E+00  0.60000000000E+02  0.60000000000E+02 0.  0.
          5    1    3    3  501    0 -0.19967933867E+02 -0.48058345716E+01 -0.21356394152E+02  0.30000000000E+02  0.47000000000E+01 0.  1.
         -5    1    3    3    0  501  0.19967933867E+02  0.48058345716E+01  0.21356394152E+02  0.30000000000E+02  0.47000000000E+01 0. -1.
</event>
<event>
 5    1  0.7624361E-002  0.6000000E+02  0.7546771E-02  0.1259629E+00
         11   -1    0    0    0    0  0.00000000000E+00  0.00000000000E+00  0.30000000000E+02  0.30000000000E+02  0.00000000000E+00 0.  1.
        -11   -1    0    0    0    0 -0.00000000000E+00 -0.00000000000E+00 -0.30000000000E+02  0.30000000000E+02  0.00000000000E+00 0. -1.
         23    2    1    2    0    0  0.00000000000E+00  0.00000000000E+00  0.00000000000E+00  0.60000000000E+02  0.60000000000E+02 0.  0.
          5    1    3    3  501    0  0.13207943684E+02 -0.12385585111E+02 -0.23453304780E+02  0.30000000000E+02  0.47000000000E+01 0. -1.
         -5    1    3    3    0  501 -0.13207943684E+02  0.12385585111E+02  0.23453304780E+02  0.30000000000E+02  0.47000000000E+01 0.  1.
</event>
<event>
 5    1  0.7624361E-002  0.6000000E+02  0.7546771E-02  0.1259629E+00
         11   -1    0    0    0    0  0.00000000000E+00  0.00000000000E+00  0.30000000000E+02  0.30000000000E+02  0.00000000000E+00 0.  1.
        -11   -1    0    0    0    0 -0.00000000000E+00 -0.00000000000E+00 -0.30000000000E+02  0.30000000000E+02  0.00000000000E+00 0. -1.
         23    2    1    2    0    0  0.00000000000E+00  0.00000000000E+00  0.00000000000E+00  0.60000000000E+02  0.60000000000E+02 0.  0.
          5    1    3    3  501    0 -0.15347147850E+02  0.35985156854E+01 -0.25088358610E+02  0.30000000000E+02  0.47000000000E+01 0. -1.
         -5    1    3    3    0  501  0.15347147850E+02 -0.35985156854E+01  0.25088358610E+02  0.30000000000E+02  0.47000000000E+01 0.  1.
</event>
<event>
 5    1  0.7624361E-002  0.6000000E+02  0.7546771E-02  0.1259629E+00
         11   -1    0    0    0    0  0.00000000000E+00  0.00000000000E+00  0.30000000000E+02  0.30000000000E+02  0.00000000000E+00 0.  1.
        -11   -1    0    0    0    0 -0.00000000000E+00 -0.00000000000E+00 -0.30000000000E+02  0.30000000000E+02  0.00000000000E+00 0. -1.
         23    2    1    2    0    0  0.00000000000E+00  0.00000000000E+00  0.00000000000E+00  0.60000000000E+02  0.60000000000E+02 0.  0.
          5    1    3    3  501    0 -0.35157931685E+01 -0.14146098352E+02 -0.25796067526E+02  0.30000000000E+02  0.47000000000E+01 0. -1.
         -5    1    3    3    0  501  0.35157931685E+01  0.14146098352E+02  0.25796067526E+02  0.30000000000E+02  0.47000000000E+01 0.  1.
</event>
<event>
 5    1  0.7624361E-002  0.6000000E+02  0.7546771E-02  0.1259629E+00
         11   -1    0    0    0    0  0.00000000000E+00  0.00000000000E+00  0.30000000000E+02  0.30000000000E+02  0.00000000000E+00 0. -1.
        -11   -1    0    0    0    0 -0.00000000000E+00 -0.00000000000E+00 -0.30000000000E+02  0.30000000000E+02  0.00000000000E+00 0.  1.
         23    2    1    2    0    0  0.00000000000E+00  0.00000000000E+00  0.00000000000E+00  0.60000000000E+02  0.60000000000E+02 0.  0.
          5    1    3    3  501    0  0.21598794750E+01 -0.28029753724E+02 -0.93583025615E+01  0.30000000000E+02  0.47000000000E+01 0.  1.
         -5    1    3    3    0  501 -0.21598794750E+01  0.28029753724E+02  0.93583025615E+01  0.30000000000E+02  0.47000000000E+01 0. -1.
</event>
<event>
 5    1  0.7624361E-002  0.6000000E+02  0.7546771E-02  0.1259629E+00
         11   -1    0    0    0    0  0.00000000000E+00  0.00000000000E+00  0.30000000000E+02  0.30000000000E+02  0.00000000000E+00 0. -1.
        -11   -1    0    0    0    0 -0.00000000000E+00 -0.00000000000E+00 -0.30000000000E+02  0.30000000000E+02  0.00000000000E+00 0.  1.
         23    2    1    2    0    0  0.00000000000E+00  0.00000000000E+00  0.00000000000E+00  0.60000000000E+02  0.60000000000E+02 0.  0.
          5    1    3    3  501    0 -0.18628152032E+02  0.77838196449E+01 -0.21686726438E+02  0.30000000000E+02  0.47000000000E+01 0.  1.
         -5    1    3    3    0  501  0.18628152032E+02 -0.77838196449E+01  0.21686726438E+02  0.30000000000E+02  0.47000000000E+01 0. -1.
</event>
<event>
 5    1  0.7624361E-002  0.6000000E+02  0.7546771E-02  0.1259629E+00
         11   -1    0    0    0    0  0.00000000000E+00  0.00000000000E+00  0.30000000000E+02  0.30000000000E+02  0.00000000000E+00 0. -1.
        -11   -1    0    0    0    0 -0.00000000000E+00 -0.00000000000E+00 -0.30000000000E+02  0.30000000000E+02  0.00000000000E+00 0.  1.
         23    2    1    2    0    0  0.00000000000E+00  0.00000000000E+00  0.00000000000E+00  0.60000000000E+02  0.60000000000E+02 0.  0.
          5    1    3    3  501    0  0.22004982681E+02  0.14278254163E+02 -0.13777597588E+02  0.30000000000E+02  0.47000000000E+01 0.  1.
         -5    1    3    3    0  501 -0.22004982681E+02 -0.14278254163E+02  0.13777597588E+02  0.30000000000E+02  0.47000000000E+01 0. -1.
</event>
<event>
 5    1  0.7624361E-002  0.6000000E+02  0.7546771E-02  0.1259629E+00
         11   -1    0    0    0    0  0.00000000000E+00  0.00000000000E+00  0.30000000000E+02  0.30000000000E+02  0.00000000000E+00 0.  1.
        -11   -1    0    0    0    0 -0.00000000000E+00 -0.00000000000E+00 -0.30000000000E+02  0.30000000000E+02  0.00000000000E+00 0. -1.
         23    2    1    2    0    0  0.00000000000E+00  0.00000000000E+00  0.00000000000E+00  0.60000000000E+02  0.60000000000E+02 0.  0.
          5    1    3    3  501    0  0.24613969712E+01  0.96275508350E+01 -0.27913469685E+02  0.30000000000E+02  0.47000000000E+01 0. -1.
         -5    1    3    3    0  501 -0.24613969712E+01 -0.96275508350E+01  0.27913469685E+02  0.30000000000E+02  0.47000000000E+01 0.  1.
</event>
<event>
 5    1  0.7624361E-002  0.6000000E+02  0.7546771E-02  0.1259629E+00
         11   -1    0    0    0    0  0.00000000000E+00  0.00000000000E+00  0.30000000000E+02  0.30000000000E+02  0.00000000000E+00 0. -1.
        -11   -1    0    0    0    0 -0.00000000000E+00 -0.00000000000E+00 -0.30000000000E+02  0.30000000000E+02  0.00000000000E+00 0.  1.
         23    2    1    2    0    0  0.00000000000E+00  0.00000000000E+00  0.00000000000E+00  0.60000000000E+02  0.60000000000E+02 0.  0.
          5    1    3    3  501    0  0.19135476784E+02  0.19576486770E+02 -0.11335991089E+02  0.30000000000E+02  0.47000000000E+01 0.  1.
         -5    1    3    3    0  501 -0.19135476784E+02 -0.19576486770E+02  0.11335991089E+02  0.30000000000E+02  0.47000000000E+01 0. -1.
</event>
<event>
 5    1  0.7624361E-002  0.6000000E+02  0.7546771E-02  0.1259629E+00
         11   -1    0    0    0    0  0.00000000000E+00  0.00000000000E+00  0.30000000000E+02  0.30000000000E+02  0.00000000000E+00 0.  1.
        -11   -1    0    0    0    0 -0.00000000000E+00 -0.00000000000E+00 -0.30000000000E+02  0.30000000000E+02  0.00000000000E+00 0. -1.
         23    2    1    2    0    0  0.00000000000E+00  0.00000000000E+00  0.00000000000E+00  0.60000000000E+02  0.60000000000E+02 0.  0.
          5    1    3    3  501    0 -0.23847115479E+02  0.16945523618E+02 -0.46983308395E+01  0.30000000000E+02  0.47000000000E+01 0. -1.
         -5    1    3    3    0  501  0.23847115479E+02 -0.16945523618E+02  0.46983308395E+01  0.30000000000E+02  0.47000000000E+01 0.  1.
</event>
<event>
 5    1  0.7624361E-002  0.6000000E+02  0.7546771E-02  0.1259629E+00
         11   -1    0    0    0    0  0.00000000000E+00  0.00000000000E+00  0.30000000000E+02  0.30000000000E+02  0.00000000000E+00 0.  1.
        -11   -1    0    0    0    0 -0.00000000000E+00 -0.00000000000E+00 -0.30000000000E+02  0.30000000000E+02  0.00000000000E+00 0. -1.
         23    2    1    2    0    0  0.00000000000E+00  0.00000000000E+00  0.00000000000E+00  0.60000000000E+02  0.60000000000E+02 0.  0.
          5    1    3    3  501    0 -0.46493094320E+01  0.10694764774E+00 -0.29262304831E+02  0.30000000000E+02  0.47000000000E+01 0. -1.
         -5    1    3    3    0  501  0.46493094320E+01 -0.10694764774E+00  0.29262304831E+02  0.30000000000E+02  0.47000000000E+01 0.  1.
</event>
<event>
 5    1  0.7624361E-002  0.6000000E+02  0.7546771E-02  0.1259629E+00
         11   -1    0    0    0    0  0.00000000000E+00  0.00000000000E+00  0.30000000000E+02  0.30000000000E+02  0.00000000000E+00 0.  1.
        -11   -1    0    0    0    0 -0.00000000000E+00 -0.00000000000E+00 -0.30000000000E+02  0.30000000000E+02  0.00000000000E+00 0. -1.
         23    2    1    2    0    0  0.00000000000E+00  0.00000000000E+00  0.00000000000E+00  0.60000000000E+02  0.60000000000E+02 0.  0.
          5    1    3    3  501    0  0.39866273779E+01 -0.20309976593E+02 -0.21201925690E+02  0.30000000000E+02  0.47000000000E+01 0. -1.
         -5    1    3    3    0  501 -0.39866273779E+01  0.20309976593E+02  0.21201925690E+02  0.30000000000E+02  0.47000000000E+01 0.  1.
</event>
<event>
 5    1  0.7624361E-002  0.6000000E+02  0.7546771E-02  0.1259629E+00
         11   -1    0    0    0    0  0.00000000000E+00  0.00000000000E+00  0.30000000000E+02  0.30000000000E+02  0.00000000000E+00 0.  1.
        -11   -1    0    0    0    0 -0.00000000000E+00 -0.00000000000E+00 -0.30000000000E+02  0.30000000000E+02  0.00000000000E+00 0. -1.
         23    2    1    2    0    0  0.00000000000E+00  0.00000000000E+00  0.00000000000E+00  0.60000000000E+02  0.60000000000E+02 0.  0.
          5    1    3    3  501    0 -0.23174667448E+02 -0.12148926520E+02  0.13901380259E+02  0.30000000000E+02  0.47000000000E+01 0.  1.
         -5    1    3    3    0  501  0.23174667448E+02  0.12148926520E+02 -0.13901380259E+02  0.30000000000E+02  0.47000000000E+01 0. -1.
</event>
<event>
 5    1  0.7624361E-002  0.6000000E+02  0.7546771E-02  0.1259629E+00
         11   -1    0    0    0    0  0.00000000000E+00  0.00000000000E+00  0.30000000000E+02  0.30000000000E+02  0.00000000000E+00 0.  1.
        -11   -1    0    0    0    0 -0.00000000000E+00 -0.00000000000E+00 -0.30000000000E+02  0.30000000000E+02  0.00000000000E+00 0. -1.
         23    2    1    2    0    0  0.00000000000E+00  0.00000000000E+00  0.00000000000E+00  0.60000000000E+02  0.60000000000E+02 0.  0.
          5    1    3    3  501    0 -0.89624370690E+01  0.25304836709E+02  0.12539934646E+02  0.30000000000E+02  0.47000000000E+01 0. -1.
         -5    1    3    3    0  501  0.89624370690E+01 -0.25304836709E+02 -0.12539934646E+02  0.30000000000E+02  0.47000000000E+01 0.  1.
</event>
<event>
 5    1  0.7624361E-002  0.6000000E+02  0.7546771E-02  0.1259629E+00
         11   -1    0    0    0    0  0.00000000000E+00  0.00000000000E+00  0.30000000000E+02  0.30000000000E+02  0.00000000000E+00 0. -1.
        -11   -1    0    0    0    0 -0.00000000000E+00 -0.00000000000E+00 -0.30000000000E+02  0.30000000000E+02  0.00000000000E+00 0.  1.
         23    2    1    2    0    0  0.00000000000E+00  0.00000000000E+00  0.00000000000E+00  0.60000000000E+02  0.60000000000E+02 0.  0.
          5    1    3    3  501    0  0.18939444986E+02 -0.18190513759E+02  0.13722705011E+02  0.30000000000E+02  0.47000000000E+01 0. -1.
         -5    1    3    3    0  501 -0.18939444986E+02  0.18190513759E+02 -0.13722705011E+02  0.30000000000E+02  0.47000000000E+01 0.  1.
</event>
<event>
 5    1  0.7624361E-002  0.6000000E+02  0.7546771E-02  0.1259629E+00
         11   -1    0    0    0    0  0.00000000000E+00  0.00000000000E+00  0.30000000000E+02  0.30000000000E+02  0.00000000000E+00 0.  1.
        -11   -1    0    0    0    0 -0.00000000000E+00 -0.00000000000E+00 -0.30000000000E+02  0.30000000000E+02  0.00000000000E+00 0. -1.
         23    2    1    2    0    0  0.00000000000E+00  0.00000000000E+00  0.00000000000E+00  0.60000000000E+02  0.60000000000E+02 0.  0.
          5    1    3    3  501    0  0.28798225224E+02  0.57777195550E+01 -0.38974582368E+01  0.30000000000E+02  0.47000000000E+01 0. -1.
         -5    1    3    3    0  501 -0.28798225224E+02 -0.57777195550E+01  0.38974582368E+01  0.30000000000E+02  0.47000000000E+01 0.  1.
</event>
<event>
 5    1  0.7624361E-002  0.6000000E+02  0.7546771E-02  0.1259629E+00
         11   -1    0    0    0    0  0.00000000000E+00  0.00000000000E+00  0.30000000000E+02  0.30000000000E+02  0.00000000000E+00 0.  1.
        -11   -1    0    0    0    0 -0.00000000000E+00 -0.00000000000E+00 -0.30000000000E+02  0.30000000000E+02  0.00000000000E+00 0. -1.
         23    2    1    2    0    0  0.00000000000E+00  0.00000000000E+00  0.00000000000E+00  0.60000000000E+02  0.60000000000E+02 0.  0.
          5    1    3    3  501    0 -0.14839124762E+02  0.17661576397E+02  0.18595136339E+02  0.30000000000E+02  0.47000000000E+01 0.  1.
         -5    1    3    3    0  501  0.14839124762E+02 -0.17661576397E+02 -0.18595136339E+02  0.30000000000E+02  0.47000000000E+01 0.  1.
</event>
<event>
 5    1  0.7624361E-002  0.6000000E+02  0.7546771E-02  0.1259629E+00
         11   -1    0    0    0    0  0.00000000000E+00  0.00000000000E+00  0.30000000000E+02  0.30000000000E+02  0.00000000000E+00 0.  1.
        -11   -1    0    0    0    0 -0.00000000000E+00 -0.00000000000E+00 -0.30000000000E+02  0.30000000000E+02  0.00000000000E+00 0. -1.
         23    2    1    2    0    0  0.00000000000E+00  0.00000000000E+00  0.00000000000E+00  0.60000000000E+02  0.60000000000E+02 0.  0.
          5    1    3    3  501    0  0.80499084332E+01 -0.17329151732E+02 -0.22645296961E+02  0.30000000000E+02  0.47000000000E+01 0. -1.
         -5    1    3    3    0  501 -0.80499084332E+01  0.17329151732E+02  0.22645296961E+02  0.30000000000E+02  0.47000000000E+01 0.  1.
</event>
<event>
 5    1  0.7624361E-002  0.6000000E+02  0.7546771E-02  0.1259629E+00
         11   -1    0    0    0    0  0.00000000000E+00  0.00000000000E+00  0.30000000000E+02  0.30000000000E+02  0.00000000000E+00 0.  1.
        -11   -1    0    0    0    0 -0.00000000000E+00 -0.00000000000E+00 -0.30000000000E+02  0.30000000000E+02  0.00000000000E+00 0. -1.
         23    2    1    2    0    0  0.00000000000E+00  0.00000000000E+00  0.00000000000E+00  0.60000000000E+02  0.60000000000E+02 0.  0.
          5    1    3    3  501    0  0.13151857560E+02  0.70249577053E+01 -0.25604464688E+02  0.30000000000E+02  0.47000000000E+01 0. -1.
         -5    1    3    3    0  501 -0.13151857560E+02 -0.70249577053E+01  0.25604464688E+02  0.30000000000E+02  0.47000000000E+01 0.  1.
</event>
<event>
 5    1  0.7624361E-002  0.6000000E+02  0.7546771E-02  0.1259629E+00
         11   -1    0    0    0    0  0.00000000000E+00  0.00000000000E+00  0.30000000000E+02  0.30000000000E+02  0.00000000000E+00 0.  1.
        -11   -1    0    0    0    0 -0.00000000000E+00 -0.00000000000E+00 -0.30000000000E+02  0.30000000000E+02  0.00000000000E+00 0. -1.
         23    2    1    2    0    0  0.00000000000E+00  0.00000000000E+00  0.00000000000E+00  0.60000000000E+02  0.60000000000E+02 0.  0.
          5    1    3    3  501    0  0.96933499710E+01 -0.22373350084E+02  0.16833958904E+02  0.30000000000E+02  0.47000000000E+01 0.  1.
         -5    1    3    3    0  501 -0.96933499710E+01  0.22373350084E+02 -0.16833958904E+02  0.30000000000E+02  0.47000000000E+01 0. -1.
</event>
<event>
 5    1  0.7624361E-002  0.6000000E+02  0.7546771E-02  0.1259629E+00
         11   -1    0    0    0    0  0.00000000000E+00  0.00000000000E+00  0.30000000000E+02  0.30000000000E+02  0.00000000000E+00 0.  1.
        -11   -1    0    0    0    0 -0.00000000000E+00 -0.00000000000E+00 -0.30000000000E+02  0.30000000000E+02  0.00000000000E+00 0. -1.
         23    2    1    2    0    0  0.00000000000E+00  0.00000000000E+00  0.00000000000E+00  0.60000000000E+02  0.60000000000E+02 0.  0.
          5    1    3    3  501    0  0.13596141391E+02  0.69040053257E+01 -0.25404520262E+02  0.30000000000E+02  0.47000000000E+01 0. -1.
         -5    1    3    3    0  501 -0.13596141391E+02 -0.69040053257E+01  0.25404520262E+02  0.30000000000E+02  0.47000000000E+01 0.  1.
</event>
<event>
 5    1  0.7624361E-002  0.6000000E+02  0.7546771E-02  0.1259629E+00
         11   -1    0    0    0    0  0.00000000000E+00  0.00000000000E+00  0.30000000000E+02  0.30000000000E+02  0.00000000000E+00 0. -1.
        -11   -1    0    0    0    0 -0.00000000000E+00 -0.00000000000E+00 -0.30000000000E+02  0.30000000000E+02  0.00000000000E+00 0.  1.
         23    2    1    2    0    0  0.00000000000E+00  0.00000000000E+00  0.00000000000E+00  0.60000000000E+02  0.60000000000E+02 0.  0.
          5    1    3    3  501    0 -0.79056231274E+01  0.22541266543E+02 -0.17530043514E+02  0.30000000000E+02  0.47000000000E+01 0.  1.
         -5    1    3    3    0  501  0.79056231274E+01 -0.22541266543E+02  0.17530043514E+02  0.30000000000E+02  0.47000000000E+01 0. -1.
</event>
<event>
 5    1  0.7624361E-002  0.6000000E+02  0.7546771E-02  0.1259629E+00
         11   -1    0    0    0    0  0.00000000000E+00  0.00000000000E+00  0.30000000000E+02  0.30000000000E+02  0.00000000000E+00 0.  1.
        -11   -1    0    0    0    0 -0.00000000000E+00 -0.00000000000E+00 -0.30000000000E+02  0.30000000000E+02  0.00000000000E+00 0. -1.
         23    2    1    2    0    0  0.00000000000E+00  0.00000000000E+00  0.00000000000E+00  0.60000000000E+02  0.60000000000E+02 0.  0.
          5    1    3    3  501    0  0.29036428779E+02  0.37672319916E+01 -0.45391372390E+01  0.30000000000E+02  0.47000000000E+01 0. -1.
         -5    1    3    3    0  501 -0.29036428779E+02 -0.37672319916E+01  0.45391372390E+01  0.30000000000E+02  0.47000000000E+01 0.  1.
</event>
<event>
 5    1  0.7624361E-002  0.6000000E+02  0.7546771E-02  0.1259629E+00
         11   -1    0    0    0    0  0.00000000000E+00  0.00000000000E+00  0.30000000000E+02  0.30000000000E+02  0.00000000000E+00 0. -1.
        -11   -1    0    0    0    0 -0.00000000000E+00 -0.00000000000E+00 -0.30000000000E+02  0.30000000000E+02  0.00000000000E+00 0.  1.
         23    2    1    2    0    0  0.00000000000E+00  0.00000000000E+00  0.00000000000E+00  0.60000000000E+02  0.60000000000E+02 0.  0.
          5    1    3    3  501    0  0.12912229739E+02 -0.26040010850E+02 -0.57534474938E+01  0.30000000000E+02  0.47000000000E+01 0. -1.
         -5    1    3    3    0  501 -0.12912229739E+02  0.26040010850E+02  0.57534474938E+01  0.30000000000E+02  0.47000000000E+01 0.  1.
</event>
<event>
 5    1  0.7624361E-002  0.6000000E+02  0.7546771E-02  0.1259629E+00
         11   -1    0    0    0    0  0.00000000000E+00  0.00000000000E+00  0.30000000000E+02  0.30000000000E+02  0.00000000000E+00 0.  1.
        -11   -1    0    0    0    0 -0.00000000000E+00 -0.00000000000E+00 -0.30000000000E+02  0.30000000000E+02  0.00000000000E+00 0. -1.
         23    2    1    2    0    0  0.00000000000E+00  0.00000000000E+00  0.00000000000E+00  0.60000000000E+02  0.60000000000E+02 0.  0.
          5    1    3    3  501    0 -0.17807212669E+02 -0.65265123888E+01 -0.22764397928E+02  0.30000000000E+02  0.47000000000E+01 0. -1.
         -5    1    3    3    0  501  0.17807212669E+02  0.65265123888E+01  0.22764397928E+02  0.30000000000E+02  0.47000000000E+01 0.  1.
</event>
<event>
 5    1  0.7624361E-002  0.6000000E+02  0.7546771E-02  0.1259629E+00
         11   -1    0    0    0    0  0.00000000000E+00  0.00000000000E+00  0.30000000000E+02  0.30000000000E+02  0.00000000000E+00 0. -1.
        -11   -1    0    0    0    0 -0.00000000000E+00 -0.00000000000E+00 -0.30000000000E+02  0.30000000000E+02  0.00000000000E+00 0.  1.
         23    2    1    2    0    0  0.00000000000E+00  0.00000000000E+00  0.00000000000E+00  0.60000000000E+02  0.60000000000E+02 0.  0.
          5    1    3    3  501    0 -0.50662161006E+01  0.22206539946E+01 -0.29108626733E+02  0.30000000000E+02  0.47000000000E+01 0.  1.
         -5    1    3    3    0  501  0.50662161006E+01 -0.22206539946E+01  0.29108626733E+02  0.30000000000E+02  0.47000000000E+01 0. -1.
</event>
<event>
 5    1  0.7624361E-002  0.6000000E+02  0.7546771E-02  0.1259629E+00
         11   -1    0    0    0    0  0.00000000000E+00  0.00000000000E+00  0.30000000000E+02  0.30000000000E+02  0.00000000000E+00 0.  1.
        -11   -1    0    0    0    0 -0.00000000000E+00 -0.00000000000E+00 -0.30000000000E+02  0.30000000000E+02  0.00000000000E+00 0. -1.
         23    2    1    2    0    0  0.00000000000E+00  0.00000000000E+00  0.00000000000E+00  0.60000000000E+02  0.60000000000E+02 0.  0.
          5    1    3    3  501    0  0.82497947221E+01 -0.12051512213E+02 -0.25780068666E+02  0.30000000000E+02  0.47000000000E+01 0. -1.
         -5    1    3    3    0  501 -0.82497947221E+01  0.12051512213E+02  0.25780068666E+02  0.30000000000E+02  0.47000000000E+01 0.  1.
</event>
<event>
 5    1  0.7624361E-002  0.6000000E+02  0.7546771E-02  0.1259629E+00
         11   -1    0    0    0    0  0.00000000000E+00  0.00000000000E+00  0.30000000000E+02  0.30000000000E+02  0.00000000000E+00 0.  1.
        -11   -1    0    0    0    0 -0.00000000000E+00 -0.00000000000E+00 -0.30000000000E+02  0.30000000000E+02  0.00000000000E+00 0. -1.
         23    2    1    2    0    0  0.00000000000E+00  0.00000000000E+00  0.00000000000E+00  0.60000000000E+02  0.60000000000E+02 0.  0.
          5    1    3    3  501    0  0.27297725703E+02  0.95064465029E+01 -0.65093506824E+01  0.30000000000E+02  0.47000000000E+01 0. -1.
         -5    1    3    3    0  501 -0.27297725703E+02 -0.95064465029E+01  0.65093506824E+01  0.30000000000E+02  0.47000000000E+01 0.  1.
</event>
<event>
 5    1  0.7624361E-002  0.6000000E+02  0.7546771E-02  0.1259629E+00
         11   -1    0    0    0    0  0.00000000000E+00  0.00000000000E+00  0.30000000000E+02  0.30000000000E+02  0.00000000000E+00 0.  1.
        -11   -1    0    0    0    0 -0.00000000000E+00 -0.00000000000E+00 -0.30000000000E+02  0.30000000000E+02  0.00000000000E+00 0. -1.
         23    2    1    2    0    0  0.00000000000E+00  0.00000000000E+00  0.00000000000E+00  0.60000000000E+02  0.60000000000E+02 0.  0.
          5    1    3    3  501    0  0.11053493693E+02 -0.27478779640E+02  0.80432996676E+00  0.30000000000E+02  0.47000000000E+01 0. -1.
         -5    1    3    3    0  501 -0.11053493693E+02  0.27478779640E+02 -0.80432996676E+00  0.30000000000E+02  0.47000000000E+01 0.  1.
</event>
<event>
 5    1  0.7624361E-002  0.6000000E+02  0.7546771E-02  0.1259629E+00
         11   -1    0    0    0    0  0.00000000000E+00  0.00000000000E+00  0.30000000000E+02  0.30000000000E+02  0.00000000000E+00 0.  1.
        -11   -1    0    0    0    0 -0.00000000000E+00 -0.00000000000E+00 -0.30000000000E+02  0.30000000000E+02  0.00000000000E+00 0. -1.
         23    2    1    2    0    0  0.00000000000E+00  0.00000000000E+00  0.00000000000E+00  0.60000000000E+02  0.60000000000E+02 0.  0.
          5    1    3    3  501    0  0.21347298147E+02  0.17632695019E+02  0.10549451560E+02  0.30000000000E+02  0.47000000000E+01 0. -1.
         -5    1    3    3    0  501 -0.21347298147E+02 -0.17632695019E+02 -0.10549451560E+02  0.30000000000E+02  0.47000000000E+01 0.  1.
</event>
<event>
 5    1  0.7624361E-002  0.6000000E+02  0.7546771E-02  0.1259629E+00
         11   -1    0    0    0    0  0.00000000000E+00  0.00000000000E+00  0.30000000000E+02  0.30000000000E+02  0.00000000000E+00 0.  1.
        -11   -1    0    0    0    0 -0.00000000000E+00 -0.00000000000E+00 -0.30000000000E+02  0.30000000000E+02  0.00000000000E+00 0. -1.
         23    2    1    2    0    0  0.00000000000E+00  0.00000000000E+00  0.00000000000E+00  0.60000000000E+02  0.60000000000E+02 0.  0.
          5    1    3    3  501    0 -0.77094832176E+01  0.16773437144E+02 -0.23175971930E+02  0.30000000000E+02  0.47000000000E+01 0. -1.
         -5    1    3    3    0  501  0.77094832176E+01 -0.16773437144E+02  0.23175971930E+02  0.30000000000E+02  0.47000000000E+01 0.  1.
</event>
<event>
 5    1  0.7624361E-002  0.6000000E+02  0.7546771E-02  0.1259629E+00
         11   -1    0    0    0    0  0.00000000000E+00  0.00000000000E+00  0.30000000000E+02  0.30000000000E+02  0.00000000000E+00 0.  1.
        -11   -1    0    0    0    0 -0.00000000000E+00 -0.00000000000E+00 -0.30000000000E+02  0.30000000000E+02  0.00000000000E+00 0. -1.
         23    2    1    2    0    0  0.00000000000E+00  0.00000000000E+00  0.00000000000E+00  0.60000000000E+02  0.60000000000E+02 0.  0.
          5    1    3    3  501    0  0.52510969096E+01  0.20350256986E+02  0.20885473943E+02  0.30000000000E+02  0.47000000000E+01 0.  1.
         -5    1    3    3    0  501 -0.52510969096E+01 -0.20350256986E+02 -0.20885473943E+02  0.30000000000E+02  0.47000000000E+01 0. -1.
</event>
<event>
 5    1  0.7624361E-002  0.6000000E+02  0.7546771E-02  0.1259629E+00
         11   -1    0    0    0    0  0.00000000000E+00  0.00000000000E+00  0.30000000000E+02  0.30000000000E+02  0.00000000000E+00 0. -1.
        -11   -1    0    0    0    0 -0.00000000000E+00 -0.00000000000E+00 -0.30000000000E+02  0.30000000000E+02  0.00000000000E+00 0.  1.
         23    2    1    2    0    0  0.00000000000E+00  0.00000000000E+00  0.00000000000E+00  0.60000000000E+02  0.60000000000E+02 0.  0.
          5    1    3    3  501    0  0.16783574505E+02 -0.21245051437E+02 -0.12036171163E+02  0.30000000000E+02  0.47000000000E+01 0.  1.
         -5    1    3    3    0  501 -0.16783574505E+02  0.21245051437E+02  0.12036171163E+02  0.30000000000E+02  0.47000000000E+01 0. -1.
</event>
<event>
 5    1  0.7624361E-002  0.6000000E+02  0.7546771E-02  0.1259629E+00
         11   -1    0    0    0    0  0.00000000000E+00  0.00000000000E+00  0.30000000000E+02  0.30000000000E+02  0.00000000000E+00 0.  1.
        -11   -1    0    0    0    0 -0.00000000000E+00 -0.00000000000E+00 -0.30000000000E+02  0.30000000000E+02  0.00000000000E+00 0. -1.
         23    2    1    2    0    0  0.00000000000E+00  0.00000000000E+00  0.00000000000E+00  0.60000000000E+02  0.60000000000E+02 0.  0.
          5    1    3    3  501    0  0.18721714608E+02  0.19728383354E+02  0.11755776979E+02  0.30000000000E+02  0.47000000000E+01 0. -1.
         -5    1    3    3    0  501 -0.18721714608E+02 -0.19728383354E+02 -0.11755776979E+02  0.30000000000E+02  0.47000000000E+01 0.  1.
</event>
<event>
 5    1  0.7624361E-002  0.6000000E+02  0.7546771E-02  0.1259629E+00
         11   -1    0    0    0    0  0.00000000000E+00  0.00000000000E+00  0.30000000000E+02  0.30000000000E+02  0.00000000000E+00 0.  1.
        -11   -1    0    0    0    0 -0.00000000000E+00 -0.00000000000E+00 -0.30000000000E+02  0.30000000000E+02  0.00000000000E+00 0. -1.
         23    2    1    2    0    0  0.00000000000E+00  0.00000000000E+00  0.00000000000E+00  0.60000000000E+02  0.60000000000E+02 0.  0.
          5    1    3    3  501    0 -0.13489808729E+02 -0.26280201869E+02  0.22991411805E+01  0.30000000000E+02  0.47000000000E+01 0. -1.
         -5    1    3    3    0  501  0.13489808729E+02  0.26280201869E+02 -0.22991411805E+01  0.30000000000E+02  0.47000000000E+01 0.  1.
</event>
<event>
 5    1  0.7624361E-002  0.6000000E+02  0.7546771E-02  0.1259629E+00
         11   -1    0    0    0    0  0.00000000000E+00  0.00000000000E+00  0.30000000000E+02  0.30000000000E+02  0.00000000000E+00 0.  1.
        -11   -1    0    0    0    0 -0.00000000000E+00 -0.00000000000E+00 -0.30000000000E+02  0.30000000000E+02  0.00000000000E+00 0. -1.
         23    2    1    2    0    0  0.00000000000E+00  0.00000000000E+00  0.00000000000E+00  0.60000000000E+02  0.60000000000E+02 0.  0.
          5    1    3    3  501    0 -0.13914037186E+01  0.13210457013E+02 -0.26485049012E+02  0.30000000000E+02  0.47000000000E+01 0. -1.
         -5    1    3    3    0  501  0.13914037186E+01 -0.13210457013E+02  0.26485049012E+02  0.30000000000E+02  0.47000000000E+01 0.  1.
</event>
<event>
 5    1  0.7624361E-002  0.6000000E+02  0.7546771E-02  0.1259629E+00
         11   -1    0    0    0    0  0.00000000000E+00  0.00000000000E+00  0.30000000000E+02  0.30000000000E+02  0.00000000000E+00 0.  1.
        -11   -1    0    0    0    0 -0.00000000000E+00 -0.00000000000E+00 -0.30000000000E+02  0.30000000000E+02  0.00000000000E+00 0. -1.
         23    2    1    2    0    0  0.00000000000E+00  0.00000000000E+00  0.00000000000E+00  0.60000000000E+02  0.60000000000E+02 0.  0.
          5    1    3    3  501    0  0.80233675010E+01 -0.76270219180E+01 -0.27483888200E+02  0.30000000000E+02  0.47000000000E+01 0. -1.
         -5    1    3    3    0  501 -0.80233675010E+01  0.76270219180E+01  0.27483888200E+02  0.30000000000E+02  0.47000000000E+01 0.  1.
</event>
<event>
 5    1  0.7624361E-002  0.6000000E+02  0.7546771E-02  0.1259629E+00
         11   -1    0    0    0    0  0.00000000000E+00  0.00000000000E+00  0.30000000000E+02  0.30000000000E+02  0.00000000000E+00 0.  1.
        -11   -1    0    0    0    0 -0.00000000000E+00 -0.00000000000E+00 -0.30000000000E+02  0.30000000000E+02  0.00000000000E+00 0. -1.
         23    2    1    2    0    0  0.00000000000E+00  0.00000000000E+00  0.00000000000E+00  0.60000000000E+02  0.60000000000E+02 0.  0.
          5    1    3    3  501    0 -0.18694062254E+02 -0.22500379844E+02  0.47090278528E+01  0.30000000000E+02  0.47000000000E+01 0. -1.
         -5    1    3    3    0  501  0.18694062254E+02  0.22500379844E+02 -0.47090278528E+01  0.30000000000E+02  0.47000000000E+01 0.  1.
</event>
<event>
 5    1  0.7624361E-002  0.6000000E+02  0.7546771E-02  0.1259629E+00
         11   -1    0    0    0    0  0.00000000000E+00  0.00000000000E+00  0.30000000000E+02  0.30000000000E+02  0.00000000000E+00 0.  1.
        -11   -1    0    0    0    0 -0.00000000000E+00 -0.00000000000E+00 -0.30000000000E+02  0.30000000000E+02  0.00000000000E+00 0. -1.
         23    2    1    2    0    0  0.00000000000E+00  0.00000000000E+00  0.00000000000E+00  0.60000000000E+02  0.60000000000E+02 0.  0.
          5    1    3    3  501    0 -0.15808957594E+02  0.90722816292E+01 -0.23359806631E+02  0.30000000000E+02  0.47000000000E+01 0. -1.
         -5    1    3    3    0  501  0.15808957594E+02 -0.90722816292E+01  0.23359806631E+02  0.30000000000E+02  0.47000000000E+01 0.  1.
</event>
<event>
 5    1  0.7624361E-002  0.6000000E+02  0.7546771E-02  0.1259629E+00
         11   -1    0    0    0    0  0.00000000000E+00  0.00000000000E+00  0.30000000000E+02  0.30000000000E+02  0.00000000000E+00 0.  1.
        -11   -1    0    0    0    0 -0.00000000000E+00 -0.00000000000E+00 -0.30000000000E+02  0.30000000000E+02  0.00000000000E+00 0. -1.
         23    2    1    2    0    0  0.00000000000E+00  0.00000000000E+00  0.00000000000E+00  0.60000000000E+02  0.60000000000E+02 0.  0.
          5    1    3    3  501    0 -0.29082095272E+02  0.54462610010E+01 -0.15747938617E+01  0.30000000000E+02  0.47000000000E+01 0. -1.
         -5    1    3    3    0  501  0.29082095272E+02 -0.54462610010E+01  0.15747938617E+01  0.30000000000E+02  0.47000000000E+01 0.  1.
</event>
<event>
 5    1  0.7624361E-002  0.6000000E+02  0.7546771E-02  0.1259629E+00
         11   -1    0    0    0    0  0.00000000000E+00  0.00000000000E+00  0.30000000000E+02  0.30000000000E+02  0.00000000000E+00 0.  1.
        -11   -1    0    0    0    0 -0.00000000000E+00 -0.00000000000E+00 -0.30000000000E+02  0.30000000000E+02  0.00000000000E+00 0. -1.
         23    2    1    2    0    0  0.00000000000E+00  0.00000000000E+00  0.00000000000E+00  0.60000000000E+02  0.60000000000E+02 0.  0.
          5    1    3    3  501    0 -0.19639381395E+02  0.22134109965E+02 -0.15119108784E+01  0.30000000000E+02  0.47000000000E+01 0. -1.
         -5    1    3    3    0  501  0.19639381395E+02 -0.22134109965E+02  0.15119108784E+01  0.30000000000E+02  0.47000000000E+01 0.  1.
</event>
<event>
 5    1  0.7624361E-002  0.6000000E+02  0.7546771E-02  0.1259629E+00
         11   -1    0    0    0    0  0.00000000000E+00  0.00000000000E+00  0.30000000000E+02  0.30000000000E+02  0.00000000000E+00 0.  1.
        -11   -1    0    0    0    0 -0.00000000000E+00 -0.00000000000E+00 -0.30000000000E+02  0.30000000000E+02  0.00000000000E+00 0. -1.
         23    2    1    2    0    0  0.00000000000E+00  0.00000000000E+00  0.00000000000E+00  0.60000000000E+02  0.60000000000E+02 0.  0.
          5    1    3    3  501    0  0.34828173633E+00 -0.27797693545E+02 -0.10250704045E+02  0.30000000000E+02  0.47000000000E+01 0. -1.
         -5    1    3    3    0  501 -0.34828173633E+00  0.27797693545E+02  0.10250704045E+02  0.30000000000E+02  0.47000000000E+01 0.  1.
</event>
<event>
 5    1  0.7624361E-002  0.6000000E+02  0.7546771E-02  0.1259629E+00
         11   -1    0    0    0    0  0.00000000000E+00  0.00000000000E+00  0.30000000000E+02  0.30000000000E+02  0.00000000000E+00 0.  1.
        -11   -1    0    0    0    0 -0.00000000000E+00 -0.00000000000E+00 -0.30000000000E+02  0.30000000000E+02  0.00000000000E+00 0. -1.
         23    2    1    2    0    0  0.00000000000E+00  0.00000000000E+00  0.00000000000E+00  0.60000000000E+02  0.60000000000E+02 0.  0.
          5    1    3    3  501    0  0.24592925471E+02 -0.53966905279E+01 -0.15619659027E+02  0.30000000000E+02  0.47000000000E+01 0. -1.
         -5    1    3    3    0  501 -0.24592925471E+02  0.53966905279E+01  0.15619659027E+02  0.30000000000E+02  0.47000000000E+01 0.  1.
</event>
<event>
 5    1  0.7624361E-002  0.6000000E+02  0.7546771E-02  0.1259629E+00
         11   -1    0    0    0    0  0.00000000000E+00  0.00000000000E+00  0.30000000000E+02  0.30000000000E+02  0.00000000000E+00 0.  1.
        -11   -1    0    0    0    0 -0.00000000000E+00 -0.00000000000E+00 -0.30000000000E+02  0.30000000000E+02  0.00000000000E+00 0. -1.
         23    2    1    2    0    0  0.00000000000E+00  0.00000000000E+00  0.00000000000E+00  0.60000000000E+02  0.60000000000E+02 0.  0.
          5    1    3    3  501    0 -0.25164989900E+02 -0.15637671695E+02  0.31065625153E+00  0.30000000000E+02  0.47000000000E+01 0. -1.
         -5    1    3    3    0  501  0.25164989900E+02  0.15637671695E+02 -0.31065625153E+00  0.30000000000E+02  0.47000000000E+01 0.  1.
</event>
<event>
 5    1  0.7624361E-002  0.6000000E+02  0.7546771E-02  0.1259629E+00
         11   -1    0    0    0    0  0.00000000000E+00  0.00000000000E+00  0.30000000000E+02  0.30000000000E+02  0.00000000000E+00 0.  1.
        -11   -1    0    0    0    0 -0.00000000000E+00 -0.00000000000E+00 -0.30000000000E+02  0.30000000000E+02  0.00000000000E+00 0. -1.
         23    2    1    2    0    0  0.00000000000E+00  0.00000000000E+00  0.00000000000E+00  0.60000000000E+02  0.60000000000E+02 0.  0.
          5    1    3    3  501    0  0.82376684160E+00 -0.19699883251E+02 -0.22116645498E+02  0.30000000000E+02  0.47000000000E+01 0. -1.
         -5    1    3    3    0  501 -0.82376684160E+00  0.19699883251E+02  0.22116645498E+02  0.30000000000E+02  0.47000000000E+01 0.  1.
</event>
<event>
 5    1  0.7624361E-002  0.6000000E+02  0.7546771E-02  0.1259629E+00
         11   -1    0    0    0    0  0.00000000000E+00  0.00000000000E+00  0.30000000000E+02  0.30000000000E+02  0.00000000000E+00 0.  1.
        -11   -1    0    0    0    0 -0.00000000000E+00 -0.00000000000E+00 -0.30000000000E+02  0.30000000000E+02  0.00000000000E+00 0. -1.
         23    2    1    2    0    0  0.00000000000E+00  0.00000000000E+00  0.00000000000E+00  0.60000000000E+02  0.60000000000E+02 0.  0.
          5    1    3    3  501    0 -0.25652181806E+02 -0.59406297576E+01 -0.13586187348E+02  0.30000000000E+02  0.47000000000E+01 0. -1.
         -5    1    3    3    0  501  0.25652181806E+02  0.59406297576E+01  0.13586187348E+02  0.30000000000E+02  0.47000000000E+01 0.  1.
</event>
<event>
 5    1  0.7624361E-002  0.6000000E+02  0.7546771E-02  0.1259629E+00
         11   -1    0    0    0    0  0.00000000000E+00  0.00000000000E+00  0.30000000000E+02  0.30000000000E+02  0.00000000000E+00 0.  1.
        -11   -1    0    0    0    0 -0.00000000000E+00 -0.00000000000E+00 -0.30000000000E+02  0.30000000000E+02  0.00000000000E+00 0. -1.
         23    2    1    2    0    0  0.00000000000E+00  0.00000000000E+00  0.00000000000E+00  0.60000000000E+02  0.60000000000E+02 0.  0.
          5    1    3    3  501    0 -0.42609786079E+01 -0.22953093286E+02 -0.18245809653E+02  0.30000000000E+02  0.47000000000E+01 0. -1.
         -5    1    3    3    0  501  0.42609786079E+01  0.22953093286E+02  0.18245809653E+02  0.30000000000E+02  0.47000000000E+01 0.  1.
</event>
<event>
 5    1  0.7624361E-002  0.6000000E+02  0.7546771E-02  0.1259629E+00
         11   -1    0    0    0    0  0.00000000000E+00  0.00000000000E+00  0.30000000000E+02  0.30000000000E+02  0.00000000000E+00 0.  1.
        -11   -1    0    0    0    0 -0.00000000000E+00 -0.00000000000E+00 -0.30000000000E+02  0.30000000000E+02  0.00000000000E+00 0. -1.
         23    2    1    2    0    0  0.00000000000E+00  0.00000000000E+00  0.00000000000E+00  0.60000000000E+02  0.60000000000E+02 0.  0.
          5    1    3    3  501    0  0.28111550385E+02  0.84216048274E+01  0.40899030678E+01  0.30000000000E+02  0.47000000000E+01 0. -1.
         -5    1    3    3    0  501 -0.28111550385E+02 -0.84216048274E+01 -0.40899030678E+01  0.30000000000E+02  0.47000000000E+01 0.  1.
</event>
<event>
 5    1  0.7624361E-002  0.6000000E+02  0.7546771E-02  0.1259629E+00
         11   -1    0    0    0    0  0.00000000000E+00  0.00000000000E+00  0.30000000000E+02  0.30000000000E+02  0.00000000000E+00 0.  1.
        -11   -1    0    0    0    0 -0.00000000000E+00 -0.00000000000E+00 -0.30000000000E+02  0.30000000000E+02  0.00000000000E+00 0. -1.
         23    2    1    2    0    0  0.00000000000E+00  0.00000000000E+00  0.00000000000E+00  0.60000000000E+02  0.60000000000E+02 0.  0.
          5    1    3    3  501    0  0.46782996012E+01  0.11510289733E+02 -0.26898638313E+02  0.30000000000E+02  0.47000000000E+01 0. -1.
         -5    1    3    3    0  501 -0.46782996012E+01 -0.11510289733E+02  0.26898638313E+02  0.30000000000E+02  0.47000000000E+01 0.  1.
</event>
<event>
 5    1  0.7624361E-002  0.6000000E+02  0.7546771E-02  0.1259629E+00
         11   -1    0    0    0    0  0.00000000000E+00  0.00000000000E+00  0.30000000000E+02  0.30000000000E+02  0.00000000000E+00 0.  1.
        -11   -1    0    0    0    0 -0.00000000000E+00 -0.00000000000E+00 -0.30000000000E+02  0.30000000000E+02  0.00000000000E+00 0. -1.
         23    2    1    2    0    0  0.00000000000E+00  0.00000000000E+00  0.00000000000E+00  0.60000000000E+02  0.60000000000E+02 0.  0.
          5    1    3    3  501    0  0.34098251807E+01 -0.22546980179E+01 -0.29346199568E+02  0.30000000000E+02  0.47000000000E+01 0. -1.
         -5    1    3    3    0  501 -0.34098251807E+01  0.22546980179E+01  0.29346199568E+02  0.30000000000E+02  0.47000000000E+01 0.  1.
</event>
<event>
 5    1  0.7624361E-002  0.6000000E+02  0.7546771E-02  0.1259629E+00
         11   -1    0    0    0    0  0.00000000000E+00  0.00000000000E+00  0.30000000000E+02  0.30000000000E+02  0.00000000000E+00 0.  1.
        -11   -1    0    0    0    0 -0.00000000000E+00 -0.00000000000E+00 -0.30000000000E+02  0.30000000000E+02  0.00000000000E+00 0. -1.
         23    2    1    2    0    0  0.00000000000E+00  0.00000000000E+00  0.00000000000E+00  0.60000000000E+02  0.60000000000E+02 0.  0.
          5    1    3    3  501    0  0.12274123325E+02  0.25195622651E+02  0.96143900403E+01  0.30000000000E+02  0.47000000000E+01 0.  1.
         -5    1    3    3    0  501 -0.12274123325E+02 -0.25195622651E+02 -0.96143900403E+01  0.30000000000E+02  0.47000000000E+01 0. -1.
</event>
<event>
 5    1  0.7624361E-002  0.6000000E+02  0.7546771E-02  0.1259629E+00
         11   -1    0    0    0    0  0.00000000000E+00  0.00000000000E+00  0.30000000000E+02  0.30000000000E+02  0.00000000000E+00 0.  1.
        -11   -1    0    0    0    0 -0.00000000000E+00 -0.00000000000E+00 -0.30000000000E+02  0.30000000000E+02  0.00000000000E+00 0. -1.
         23    2    1    2    0    0  0.00000000000E+00  0.00000000000E+00  0.00000000000E+00  0.60000000000E+02  0.60000000000E+02 0.  0.
          5    1    3    3  501    0  0.22142665334E+02  0.98003374136E+01  0.17075296731E+02  0.30000000000E+02  0.47000000000E+01 0.  1.
         -5    1    3    3    0  501 -0.22142665334E+02 -0.98003374136E+01 -0.17075296731E+02  0.30000000000E+02  0.47000000000E+01 0. -1.
</event>
<event>
 5    1  0.7624361E-002  0.6000000E+02  0.7546771E-02  0.1259629E+00
         11   -1    0    0    0    0  0.00000000000E+00  0.00000000000E+00  0.30000000000E+02  0.30000000000E+02  0.00000000000E+00 0.  1.
        -11   -1    0    0    0    0 -0.00000000000E+00 -0.00000000000E+00 -0.30000000000E+02  0.30000000000E+02  0.00000000000E+00 0. -1.
         23    2    1    2    0    0  0.00000000000E+00  0.00000000000E+00  0.00000000000E+00  0.60000000000E+02  0.60000000000E+02 0.  0.
          5    1    3    3  501    0  0.22438448544E+02  0.72286918952E+00  0.19336584162E+02  0.30000000000E+02  0.47000000000E+01 0. -1.
         -5    1    3    3    0  501 -0.22438448544E+02 -0.72286918952E+00 -0.19336584162E+02  0.30000000000E+02  0.47000000000E+01 0.  1.
</event>
<event>
 5    1  0.7624361E-002  0.6000000E+02  0.7546771E-02  0.1259629E+00
         11   -1    0    0    0    0  0.00000000000E+00  0.00000000000E+00  0.30000000000E+02  0.30000000000E+02  0.00000000000E+00 0.  1.
        -11   -1    0    0    0    0 -0.00000000000E+00 -0.00000000000E+00 -0.30000000000E+02  0.30000000000E+02  0.00000000000E+00 0. -1.
         23    2    1    2    0    0  0.00000000000E+00  0.00000000000E+00  0.00000000000E+00  0.60000000000E+02  0.60000000000E+02 0.  0.
          5    1    3    3  501    0  0.81425204210E+00 -0.29610321455E+02  0.68982385016E+00  0.30000000000E+02  0.47000000000E+01 0. -1.
         -5    1    3    3    0  501 -0.81425204210E+00  0.29610321455E+02 -0.68982385016E+00  0.30000000000E+02  0.47000000000E+01 0.  1.
</event>
<event>
 5    1  0.7624361E-002  0.6000000E+02  0.7546771E-02  0.1259629E+00
         11   -1    0    0    0    0  0.00000000000E+00  0.00000000000E+00  0.30000000000E+02  0.30000000000E+02  0.00000000000E+00 0.  1.
        -11   -1    0    0    0    0 -0.00000000000E+00 -0.00000000000E+00 -0.30000000000E+02  0.30000000000E+02  0.00000000000E+00 0. -1.
         23    2    1    2    0    0  0.00000000000E+00  0.00000000000E+00  0.00000000000E+00  0.60000000000E+02  0.60000000000E+02 0.  0.
          5    1    3    3  501    0 -0.22543365570E+02  0.11998625496E+00 -0.19227383392E+02  0.30000000000E+02  0.47000000000E+01 0. -1.
         -5    1    3    3    0  501  0.22543365570E+02 -0.11998625496E+00  0.19227383392E+02  0.30000000000E+02  0.47000000000E+01 0.  1.
</event>
<event>
 5    1  0.7624361E-002  0.6000000E+02  0.7546771E-02  0.1259629E+00
         11   -1    0    0    0    0  0.00000000000E+00  0.00000000000E+00  0.30000000000E+02  0.30000000000E+02  0.00000000000E+00 0.  1.
        -11   -1    0    0    0    0 -0.00000000000E+00 -0.00000000000E+00 -0.30000000000E+02  0.30000000000E+02  0.00000000000E+00 0. -1.
         23    2    1    2    0    0  0.00000000000E+00  0.00000000000E+00  0.00000000000E+00  0.60000000000E+02  0.60000000000E+02 0.  0.
          5    1    3    3  501    0 -0.14274102557E+02 -0.25528353347E+02 -0.47395328453E+01  0.30000000000E+02  0.47000000000E+01 0. -1.
         -5    1    3    3    0  501  0.14274102557E+02  0.25528353347E+02  0.47395328453E+01  0.30000000000E+02  0.47000000000E+01 0.  1.
</event>
<event>
 5    1  0.7624361E-002  0.6000000E+02  0.7546771E-02  0.1259629E+00
         11   -1    0    0    0    0  0.00000000000E+00  0.00000000000E+00  0.30000000000E+02  0.30000000000E+02  0.00000000000E+00 0.  1.
        -11   -1    0    0    0    0 -0.00000000000E+00 -0.00000000000E+00 -0.30000000000E+02  0.30000000000E+02  0.00000000000E+00 0. -1.
         23    2    1    2    0    0  0.00000000000E+00  0.00000000000E+00  0.00000000000E+00  0.60000000000E+02  0.60000000000E+02 0.  0.
          5    1    3    3  501    0 -0.24271751798E+01 -0.33291138749E+01 -0.29341707882E+02  0.30000000000E+02  0.47000000000E+01 0. -1.
         -5    1    3    3    0  501  0.24271751798E+01  0.33291138749E+01  0.29341707882E+02  0.30000000000E+02  0.47000000000E+01 0.  1.
</event>
<event>
 5    1  0.7624361E-002  0.6000000E+02  0.7546771E-02  0.1259629E+00
         11   -1    0    0    0    0  0.00000000000E+00  0.00000000000E+00  0.30000000000E+02  0.30000000000E+02  0.00000000000E+00 0.  1.
        -11   -1    0    0    0    0 -0.00000000000E+00 -0.00000000000E+00 -0.30000000000E+02  0.30000000000E+02  0.00000000000E+00 0. -1.
         23    2    1    2    0    0  0.00000000000E+00  0.00000000000E+00  0.00000000000E+00  0.60000000000E+02  0.60000000000E+02 0.  0.
          5    1    3    3  501    0  0.55843306863E+01 -0.53316065723E+01 -0.28605929842E+02  0.30000000000E+02  0.47000000000E+01 0. -1.
         -5    1    3    3    0  501 -0.55843306863E+01  0.53316065723E+01  0.28605929842E+02  0.30000000000E+02  0.47000000000E+01 0.  1.
</event>
<event>
 5    1  0.7624361E-002  0.6000000E+02  0.7546771E-02  0.1259629E+00
         11   -1    0    0    0    0  0.00000000000E+00  0.00000000000E+00  0.30000000000E+02  0.30000000000E+02  0.00000000000E+00 0.  1.
        -11   -1    0    0    0    0 -0.00000000000E+00 -0.00000000000E+00 -0.30000000000E+02  0.30000000000E+02  0.00000000000E+00 0. -1.
         23    2    1    2    0    0  0.00000000000E+00  0.00000000000E+00  0.00000000000E+00  0.60000000000E+02  0.60000000000E+02 0.  0.
          5    1    3    3  501    0  0.15116575502E+02 -0.23767220379E+02 -0.91933878725E+01  0.30000000000E+02  0.47000000000E+01 0. -1.
         -5    1    3    3    0  501 -0.15116575502E+02  0.23767220379E+02  0.91933878725E+01  0.30000000000E+02  0.47000000000E+01 0.  1.
</event>
<event>
 5    1  0.7624361E-002  0.6000000E+02  0.7546771E-02  0.1259629E+00
         11   -1    0    0    0    0  0.00000000000E+00  0.00000000000E+00  0.30000000000E+02  0.30000000000E+02  0.00000000000E+00 0. -1.
        -11   -1    0    0    0    0 -0.00000000000E+00 -0.00000000000E+00 -0.30000000000E+02  0.30000000000E+02  0.00000000000E+00 0.  1.
         23    2    1    2    0    0  0.00000000000E+00  0.00000000000E+00  0.00000000000E+00  0.60000000000E+02  0.60000000000E+02 0.  0.
          5    1    3    3  501    0 -0.19158919931E+02  0.21009215154E+02  0.83341865630E+01  0.30000000000E+02  0.47000000000E+01 0. -1.
         -5    1    3    3    0  501  0.19158919931E+02 -0.21009215154E+02 -0.83341865630E+01  0.30000000000E+02  0.47000000000E+01 0.  1.
</event>
<event>
 5    1  0.7624361E-002  0.6000000E+02  0.7546771E-02  0.1259629E+00
         11   -1    0    0    0    0  0.00000000000E+00  0.00000000000E+00  0.30000000000E+02  0.30000000000E+02  0.00000000000E+00 0.  1.
        -11   -1    0    0    0    0 -0.00000000000E+00 -0.00000000000E+00 -0.30000000000E+02  0.30000000000E+02  0.00000000000E+00 0. -1.
         23    2    1    2    0    0  0.00000000000E+00  0.00000000000E+00  0.00000000000E+00  0.60000000000E+02  0.60000000000E+02 0.  0.
          5    1    3    3  501    0 -0.15623672989E+02  0.16249652480E+01 -0.25123103516E+02  0.30000000000E+02  0.47000000000E+01 0. -1.
         -5    1    3    3    0  501  0.15623672989E+02 -0.16249652480E+01  0.25123103516E+02  0.30000000000E+02  0.47000000000E+01 0.  1.
</event>
<event>
 5    1  0.7624361E-002  0.6000000E+02  0.7546771E-02  0.1259629E+00
         11   -1    0    0    0    0  0.00000000000E+00  0.00000000000E+00  0.30000000000E+02  0.30000000000E+02  0.00000000000E+00 0.  1.
        -11   -1    0    0    0    0 -0.00000000000E+00 -0.00000000000E+00 -0.30000000000E+02  0.30000000000E+02  0.00000000000E+00 0. -1.
         23    2    1    2    0    0  0.00000000000E+00  0.00000000000E+00  0.00000000000E+00  0.60000000000E+02  0.60000000000E+02 0.  0.
          5    1    3    3  501    0  0.64861468458E+01 -0.12077458247E+02  0.26267373325E+02  0.30000000000E+02  0.47000000000E+01 0.  1.
         -5    1    3    3    0  501 -0.64861468458E+01  0.12077458247E+02 -0.26267373325E+02  0.30000000000E+02  0.47000000000E+01 0. -1.
</event>
<event>
 5    1  0.7624361E-002  0.6000000E+02  0.7546771E-02  0.1259629E+00
         11   -1    0    0    0    0  0.00000000000E+00  0.00000000000E+00  0.30000000000E+02  0.30000000000E+02  0.00000000000E+00 0.  1.
        -11   -1    0    0    0    0 -0.00000000000E+00 -0.00000000000E+00 -0.30000000000E+02  0.30000000000E+02  0.00000000000E+00 0. -1.
         23    2    1    2    0    0  0.00000000000E+00  0.00000000000E+00  0.00000000000E+00  0.60000000000E+02  0.60000000000E+02 0.  0.
          5    1    3    3  501    0  0.23698756172E+02 -0.65804684194E+00 -0.17772054756E+02  0.30000000000E+02  0.47000000000E+01 0. -1.
         -5    1    3    3    0  501 -0.23698756172E+02  0.65804684194E+00  0.17772054756E+02  0.30000000000E+02  0.47000000000E+01 0.  1.
</event>
<event>
 5    1  0.7624361E-002  0.6000000E+02  0.7546771E-02  0.1259629E+00
         11   -1    0    0    0    0  0.00000000000E+00  0.00000000000E+00  0.30000000000E+02  0.30000000000E+02  0.00000000000E+00 0. -1.
        -11   -1    0    0    0    0 -0.00000000000E+00 -0.00000000000E+00 -0.30000000000E+02  0.30000000000E+02  0.00000000000E+00 0.  1.
         23    2    1    2    0    0  0.00000000000E+00  0.00000000000E+00  0.00000000000E+00  0.60000000000E+02  0.60000000000E+02 0.  0.
          5    1    3    3  501    0  0.16576794278E+02 -0.66231084750E+01 -0.23648558637E+02  0.30000000000E+02  0.47000000000E+01 0.  1.
         -5    1    3    3    0  501 -0.16576794278E+02  0.66231084750E+01  0.23648558637E+02  0.30000000000E+02  0.47000000000E+01 0. -1.
</event>
<event>
 5    1  0.7624361E-002  0.6000000E+02  0.7546771E-02  0.1259629E+00
         11   -1    0    0    0    0  0.00000000000E+00  0.00000000000E+00  0.30000000000E+02  0.30000000000E+02  0.00000000000E+00 0.  1.
        -11   -1    0    0    0    0 -0.00000000000E+00 -0.00000000000E+00 -0.30000000000E+02  0.30000000000E+02  0.00000000000E+00 0. -1.
         23    2    1    2    0    0  0.00000000000E+00  0.00000000000E+00  0.00000000000E+00  0.60000000000E+02  0.60000000000E+02 0.  0.
          5    1    3    3  501    0  0.31105426713E+01  0.35817516853E+01 -0.29247317469E+02  0.30000000000E+02  0.47000000000E+01 0. -1.
         -5    1    3    3    0  501 -0.31105426713E+01 -0.35817516853E+01  0.29247317469E+02  0.30000000000E+02  0.47000000000E+01 0.  1.
</event>
<event>
 5    1  0.7624361E-002  0.6000000E+02  0.7546771E-02  0.1259629E+00
         11   -1    0    0    0    0  0.00000000000E+00  0.00000000000E+00  0.30000000000E+02  0.30000000000E+02  0.00000000000E+00 0.  1.
        -11   -1    0    0    0    0 -0.00000000000E+00 -0.00000000000E+00 -0.30000000000E+02  0.30000000000E+02  0.00000000000E+00 0. -1.
         23    2    1    2    0    0  0.00000000000E+00  0.00000000000E+00  0.00000000000E+00  0.60000000000E+02  0.60000000000E+02 0.  0.
          5    1    3    3  501    0 -0.15974278740E+02  0.46158878991E+01 -0.24523988208E+02  0.30000000000E+02  0.47000000000E+01 0. -1.
         -5    1    3    3    0  501  0.15974278740E+02 -0.46158878991E+01  0.24523988208E+02  0.30000000000E+02  0.47000000000E+01 0.  1.
</event>
<event>
 5    1  0.7624361E-002  0.6000000E+02  0.7546771E-02  0.1259629E+00
         11   -1    0    0    0    0  0.00000000000E+00  0.00000000000E+00  0.30000000000E+02  0.30000000000E+02  0.00000000000E+00 0.  1.
        -11   -1    0    0    0    0 -0.00000000000E+00 -0.00000000000E+00 -0.30000000000E+02  0.30000000000E+02  0.00000000000E+00 0. -1.
         23    2    1    2    0    0  0.00000000000E+00  0.00000000000E+00  0.00000000000E+00  0.60000000000E+02  0.60000000000E+02 0.  0.
          5    1    3    3  501    0  0.52960573998E+01  0.26089846540E+02 -0.13006985951E+02  0.30000000000E+02  0.47000000000E+01 0. -1.
         -5    1    3    3    0  501 -0.52960573998E+01 -0.26089846540E+02  0.13006985951E+02  0.30000000000E+02  0.47000000000E+01 0.  1.
</event>
<event>
 5    1  0.7624361E-002  0.6000000E+02  0.7546771E-02  0.1259629E+00
         11   -1    0    0    0    0  0.00000000000E+00  0.00000000000E+00  0.30000000000E+02  0.30000000000E+02  0.00000000000E+00 0.  1.
        -11   -1    0    0    0    0 -0.00000000000E+00 -0.00000000000E+00 -0.30000000000E+02  0.30000000000E+02  0.00000000000E+00 0. -1.
         23    2    1    2    0    0  0.00000000000E+00  0.00000000000E+00  0.00000000000E+00  0.60000000000E+02  0.60000000000E+02 0.  0.
          5    1    3    3  501    0 -0.42944767575E+01 -0.26891045440E+02 -0.11676435438E+02  0.30000000000E+02  0.47000000000E+01 0.  1.
         -5    1    3    3    0  501  0.42944767575E+01  0.26891045440E+02  0.11676435438E+02  0.30000000000E+02  0.47000000000E+01 0. -1.
</event>
<event>
 5    1  0.7624361E-002  0.6000000E+02  0.7546771E-02  0.1259629E+00
         11   -1    0    0    0    0  0.00000000000E+00  0.00000000000E+00  0.30000000000E+02  0.30000000000E+02  0.00000000000E+00 0.  1.
        -11   -1    0    0    0    0 -0.00000000000E+00 -0.00000000000E+00 -0.30000000000E+02  0.30000000000E+02  0.00000000000E+00 0. -1.
         23    2    1    2    0    0  0.00000000000E+00  0.00000000000E+00  0.00000000000E+00  0.60000000000E+02  0.60000000000E+02 0.  0.
          5    1    3    3  501    0 -0.19920630534E+02  0.12909168504E+02 -0.17732226247E+02  0.30000000000E+02  0.47000000000E+01 0. -1.
         -5    1    3    3    0  501  0.19920630534E+02 -0.12909168504E+02  0.17732226247E+02  0.30000000000E+02  0.47000000000E+01 0.  1.
</event>
<event>
 5    1  0.7624361E-002  0.6000000E+02  0.7546771E-02  0.1259629E+00
         11   -1    0    0    0    0  0.00000000000E+00  0.00000000000E+00  0.30000000000E+02  0.30000000000E+02  0.00000000000E+00 0.  1.
        -11   -1    0    0    0    0 -0.00000000000E+00 -0.00000000000E+00 -0.30000000000E+02  0.30000000000E+02  0.00000000000E+00 0. -1.
         23    2    1    2    0    0  0.00000000000E+00  0.00000000000E+00  0.00000000000E+00  0.60000000000E+02  0.60000000000E+02 0.  0.
          5    1    3    3  501    0 -0.15996204290E+02  0.60101595679E+01 -0.24205566101E+02  0.30000000000E+02  0.47000000000E+01 0. -1.
         -5    1    3    3    0  501  0.15996204290E+02 -0.60101595679E+01  0.24205566101E+02  0.30000000000E+02  0.47000000000E+01 0.  1.
</event>
<event>
 5    1  0.7624361E-002  0.6000000E+02  0.7546771E-02  0.1259629E+00
         11   -1    0    0    0    0  0.00000000000E+00  0.00000000000E+00  0.30000000000E+02  0.30000000000E+02  0.00000000000E+00 0. -1.
        -11   -1    0    0    0    0 -0.00000000000E+00 -0.00000000000E+00 -0.30000000000E+02  0.30000000000E+02  0.00000000000E+00 0.  1.
         23    2    1    2    0    0  0.00000000000E+00  0.00000000000E+00  0.00000000000E+00  0.60000000000E+02  0.60000000000E+02 0.  0.
          5    1    3    3  501    0  0.35319437099E+01 -0.20879694333E+02 -0.20723748170E+02  0.30000000000E+02  0.47000000000E+01 0.  1.
         -5    1    3    3    0  501 -0.35319437099E+01  0.20879694333E+02  0.20723748170E+02  0.30000000000E+02  0.47000000000E+01 0. -1.
</event>
<event>
 5    1  0.7624361E-002  0.6000000E+02  0.7546771E-02  0.1259629E+00
         11   -1    0    0    0    0  0.00000000000E+00  0.00000000000E+00  0.30000000000E+02  0.30000000000E+02  0.00000000000E+00 0. -1.
        -11   -1    0    0    0    0 -0.00000000000E+00 -0.00000000000E+00 -0.30000000000E+02  0.30000000000E+02  0.00000000000E+00 0.  1.
         23    2    1    2    0    0  0.00000000000E+00  0.00000000000E+00  0.00000000000E+00  0.60000000000E+02  0.60000000000E+02 0.  0.
          5    1    3    3  501    0 -0.52267108482E+01 -0.28258159977E+02  0.72158082305E+01  0.30000000000E+02  0.47000000000E+01 0.  1.
         -5    1    3    3    0  501  0.52267108482E+01  0.28258159977E+02 -0.72158082305E+01  0.30000000000E+02  0.47000000000E+01 0. -1.
</event>
<event>
 5    1  0.7624361E-002  0.6000000E+02  0.7546771E-02  0.1259629E+00
         11   -1    0    0    0    0  0.00000000000E+00  0.00000000000E+00  0.30000000000E+02  0.30000000000E+02  0.00000000000E+00 0.  1.
        -11   -1    0    0    0    0 -0.00000000000E+00 -0.00000000000E+00 -0.30000000000E+02  0.30000000000E+02  0.00000000000E+00 0. -1.
         23    2    1    2    0    0  0.00000000000E+00  0.00000000000E+00  0.00000000000E+00  0.60000000000E+02  0.60000000000E+02 0.  0.
          5    1    3    3  501    0 -0.58622774479E+01  0.27250095224E+02 -0.10048682172E+02  0.30000000000E+02  0.47000000000E+01 0. -1.
         -5    1    3    3    0  501  0.58622774479E+01 -0.27250095224E+02  0.10048682172E+02  0.30000000000E+02  0.47000000000E+01 0.  1.
</event>
<event>
 5    1  0.7624361E-002  0.6000000E+02  0.7546771E-02  0.1259629E+00
         11   -1    0    0    0    0  0.00000000000E+00  0.00000000000E+00  0.30000000000E+02  0.30000000000E+02  0.00000000000E+00 0. -1.
        -11   -1    0    0    0    0 -0.00000000000E+00 -0.00000000000E+00 -0.30000000000E+02  0.30000000000E+02  0.00000000000E+00 0.  1.
         23    2    1    2    0    0  0.00000000000E+00  0.00000000000E+00  0.00000000000E+00  0.60000000000E+02  0.60000000000E+02 0.  0.
          5    1    3    3  501    0  0.62763967548E+01  0.28718309246E+02  0.37115438613E+01  0.30000000000E+02  0.47000000000E+01 0. -1.
         -5    1    3    3    0  501 -0.62763967548E+01 -0.28718309246E+02 -0.37115438613E+01  0.30000000000E+02  0.47000000000E+01 0.  1.
</event>
<event>
 5    1  0.7624361E-002  0.6000000E+02  0.7546771E-02  0.1259629E+00
         11   -1    0    0    0    0  0.00000000000E+00  0.00000000000E+00  0.30000000000E+02  0.30000000000E+02  0.00000000000E+00 0. -1.
        -11   -1    0    0    0    0 -0.00000000000E+00 -0.00000000000E+00 -0.30000000000E+02  0.30000000000E+02  0.00000000000E+00 0.  1.
         23    2    1    2    0    0  0.00000000000E+00  0.00000000000E+00  0.00000000000E+00  0.60000000000E+02  0.60000000000E+02 0.  0.
          5    1    3    3  501    0  0.26073289888E+01 -0.14303691345E+02  0.25816975994E+02  0.30000000000E+02  0.47000000000E+01 0. -1.
         -5    1    3    3    0  501 -0.26073289888E+01  0.14303691345E+02 -0.25816975994E+02  0.30000000000E+02  0.47000000000E+01 0.  1.
</event>
<event>
 5    1  0.7624361E-002  0.6000000E+02  0.7546771E-02  0.1259629E+00
         11   -1    0    0    0    0  0.00000000000E+00  0.00000000000E+00  0.30000000000E+02  0.30000000000E+02  0.00000000000E+00 0.  1.
        -11   -1    0    0    0    0 -0.00000000000E+00 -0.00000000000E+00 -0.30000000000E+02  0.30000000000E+02  0.00000000000E+00 0. -1.
         23    2    1    2    0    0  0.00000000000E+00  0.00000000000E+00  0.00000000000E+00  0.60000000000E+02  0.60000000000E+02 0.  0.
          5    1    3    3  501    0  0.67875707773E+01  0.19650165128E+02 -0.21111842492E+02  0.30000000000E+02  0.47000000000E+01 0. -1.
         -5    1    3    3    0  501 -0.67875707773E+01 -0.19650165128E+02  0.21111842492E+02  0.30000000000E+02  0.47000000000E+01 0.  1.
</event>
<event>
 5    1  0.7624361E-002  0.6000000E+02  0.7546771E-02  0.1259629E+00
         11   -1    0    0    0    0  0.00000000000E+00  0.00000000000E+00  0.30000000000E+02  0.30000000000E+02  0.00000000000E+00 0.  1.
        -11   -1    0    0    0    0 -0.00000000000E+00 -0.00000000000E+00 -0.30000000000E+02  0.30000000000E+02  0.00000000000E+00 0. -1.
         23    2    1    2    0    0  0.00000000000E+00  0.00000000000E+00  0.00000000000E+00  0.60000000000E+02  0.60000000000E+02 0.  0.
          5    1    3    3  501    0  0.12074329001E+02  0.92663413569E+01 -0.25421555755E+02  0.30000000000E+02  0.47000000000E+01 0. -1.
         -5    1    3    3    0  501 -0.12074329001E+02 -0.92663413569E+01  0.25421555755E+02  0.30000000000E+02  0.47000000000E+01 0.  1.
</event>
<event>
 5    1  0.7624361E-002  0.6000000E+02  0.7546771E-02  0.1259629E+00
         11   -1    0    0    0    0  0.00000000000E+00  0.00000000000E+00  0.30000000000E+02  0.30000000000E+02  0.00000000000E+00 0. -1.
        -11   -1    0    0    0    0 -0.00000000000E+00 -0.00000000000E+00 -0.30000000000E+02  0.30000000000E+02  0.00000000000E+00 0.  1.
         23    2    1    2    0    0  0.00000000000E+00  0.00000000000E+00  0.00000000000E+00  0.60000000000E+02  0.60000000000E+02 0.  0.
          5    1    3    3  501    0  0.95471365446E+01  0.25988068444E+02  0.10553789951E+02  0.30000000000E+02  0.47000000000E+01 0.  1.
         -5    1    3    3    0  501 -0.95471365446E+01 -0.25988068444E+02 -0.10553789951E+02  0.30000000000E+02  0.47000000000E+01 0. -1.
</event>
<event>
 5    1  0.7624361E-002  0.6000000E+02  0.7546771E-02  0.1259629E+00
         11   -1    0    0    0    0  0.00000000000E+00  0.00000000000E+00  0.30000000000E+02  0.30000000000E+02  0.00000000000E+00 0.  1.
        -11   -1    0    0    0    0 -0.00000000000E+00 -0.00000000000E+00 -0.30000000000E+02  0.30000000000E+02  0.00000000000E+00 0. -1.
         23    2    1    2    0    0  0.00000000000E+00  0.00000000000E+00  0.00000000000E+00  0.60000000000E+02  0.60000000000E+02 0.  0.
          5    1    3    3  501    0  0.16152027346E+02 -0.19897513769E+02 -0.14869800214E+02  0.30000000000E+02  0.47000000000E+01 0. -1.
         -5    1    3    3    0  501 -0.16152027346E+02  0.19897513769E+02  0.14869800214E+02  0.30000000000E+02  0.47000000000E+01 0.  1.
</event>
<event>
 5    1  0.7624361E-002  0.6000000E+02  0.7546771E-02  0.1259629E+00
         11   -1    0    0    0    0  0.00000000000E+00  0.00000000000E+00  0.30000000000E+02  0.30000000000E+02  0.00000000000E+00 0.  1.
        -11   -1    0    0    0    0 -0.00000000000E+00 -0.00000000000E+00 -0.30000000000E+02  0.30000000000E+02  0.00000000000E+00 0. -1.
         23    2    1    2    0    0  0.00000000000E+00  0.00000000000E+00  0.00000000000E+00  0.60000000000E+02  0.60000000000E+02 0.  0.
          5    1    3    3  501    0  0.83175236416E+01 -0.27548755727E+02 -0.70565471983E+01  0.30000000000E+02  0.47000000000E+01 0. -1.
         -5    1    3    3    0  501 -0.83175236416E+01  0.27548755727E+02  0.70565471983E+01  0.30000000000E+02  0.47000000000E+01 0.  1.
</event>
<event>
 5    1  0.7624361E-002  0.6000000E+02  0.7546771E-02  0.1259629E+00
         11   -1    0    0    0    0  0.00000000000E+00  0.00000000000E+00  0.30000000000E+02  0.30000000000E+02  0.00000000000E+00 0.  1.
        -11   -1    0    0    0    0 -0.00000000000E+00 -0.00000000000E+00 -0.30000000000E+02  0.30000000000E+02  0.00000000000E+00 0. -1.
         23    2    1    2    0    0  0.00000000000E+00  0.00000000000E+00  0.00000000000E+00  0.60000000000E+02  0.60000000000E+02 0.  0.
          5    1    3    3  501    0 -0.25479653673E+02 -0.13075167896E+02  0.75985020343E+01  0.30000000000E+02  0.47000000000E+01 0.  1.
         -5    1    3    3    0  501  0.25479653673E+02  0.13075167896E+02 -0.75985020343E+01  0.30000000000E+02  0.47000000000E+01 0. -1.
</event>
<event>
 5    1  0.7624361E-002  0.6000000E+02  0.7546771E-02  0.1259629E+00
         11   -1    0    0    0    0  0.00000000000E+00  0.00000000000E+00  0.30000000000E+02  0.30000000000E+02  0.00000000000E+00 0. -1.
        -11   -1    0    0    0    0 -0.00000000000E+00 -0.00000000000E+00 -0.30000000000E+02  0.30000000000E+02  0.00000000000E+00 0.  1.
         23    2    1    2    0    0  0.00000000000E+00  0.00000000000E+00  0.00000000000E+00  0.60000000000E+02  0.60000000000E+02 0.  0.
          5    1    3    3  501    0 -0.25543532904E+01  0.10311750170E+02 -0.27659593050E+02  0.30000000000E+02  0.47000000000E+01 0.  1.
         -5    1    3    3    0  501  0.25543532904E+01 -0.10311750170E+02  0.27659593050E+02  0.30000000000E+02  0.47000000000E+01 0. -1.
</event>
<event>
 5    1  0.7624361E-002  0.6000000E+02  0.7546771E-02  0.1259629E+00
         11   -1    0    0    0    0  0.00000000000E+00  0.00000000000E+00  0.30000000000E+02  0.30000000000E+02  0.00000000000E+00 0.  1.
        -11   -1    0    0    0    0 -0.00000000000E+00 -0.00000000000E+00 -0.30000000000E+02  0.30000000000E+02  0.00000000000E+00 0. -1.
         23    2    1    2    0    0  0.00000000000E+00  0.00000000000E+00  0.00000000000E+00  0.60000000000E+02  0.60000000000E+02 0.  0.
          5    1    3    3  501    0 -0.61025674249E+01  0.16732477780E+02 -0.23678953908E+02  0.30000000000E+02  0.47000000000E+01 0. -1.
         -5    1    3    3    0  501  0.61025674249E+01 -0.16732477780E+02  0.23678953908E+02  0.30000000000E+02  0.47000000000E+01 0.  1.
</event>
<event>
 5    1  0.7624361E-002  0.6000000E+02  0.7546771E-02  0.1259629E+00
         11   -1    0    0    0    0  0.00000000000E+00  0.00000000000E+00  0.30000000000E+02  0.30000000000E+02  0.00000000000E+00 0.  1.
        -11   -1    0    0    0    0 -0.00000000000E+00 -0.00000000000E+00 -0.30000000000E+02  0.30000000000E+02  0.00000000000E+00 0. -1.
         23    2    1    2    0    0  0.00000000000E+00  0.00000000000E+00  0.00000000000E+00  0.60000000000E+02  0.60000000000E+02 0.  0.
          5    1    3    3  501    0 -0.21525840444E+02 -0.30854005811E+01 -0.20125319784E+02  0.30000000000E+02  0.47000000000E+01 0. -1.
         -5    1    3    3    0  501  0.21525840444E+02  0.30854005811E+01  0.20125319784E+02  0.30000000000E+02  0.47000000000E+01 0.  1.
</event>
<event>
 5    1  0.7624361E-002  0.6000000E+02  0.7546771E-02  0.1259629E+00
         11   -1    0    0    0    0  0.00000000000E+00  0.00000000000E+00  0.30000000000E+02  0.30000000000E+02  0.00000000000E+00 0.  1.
        -11   -1    0    0    0    0 -0.00000000000E+00 -0.00000000000E+00 -0.30000000000E+02  0.30000000000E+02  0.00000000000E+00 0. -1.
         23    2    1    2    0    0  0.00000000000E+00  0.00000000000E+00  0.00000000000E+00  0.60000000000E+02  0.60000000000E+02 0.  0.
          5    1    3    3  501    0 -0.14328794068E+02  0.37629444225E+01 -0.25660006037E+02  0.30000000000E+02  0.47000000000E+01 0. -1.
         -5    1    3    3    0  501  0.14328794068E+02 -0.37629444225E+01  0.25660006037E+02  0.30000000000E+02  0.47000000000E+01 0.  1.
</event>
<event>
 5    1  0.7624361E-002  0.6000000E+02  0.7546771E-02  0.1259629E+00
         11   -1    0    0    0    0  0.00000000000E+00  0.00000000000E+00  0.30000000000E+02  0.30000000000E+02  0.00000000000E+00 0. -1.
        -11   -1    0    0    0    0 -0.00000000000E+00 -0.00000000000E+00 -0.30000000000E+02  0.30000000000E+02  0.00000000000E+00 0.  1.
         23    2    1    2    0    0  0.00000000000E+00  0.00000000000E+00  0.00000000000E+00  0.60000000000E+02  0.60000000000E+02 0.  0.
          5    1    3    3  501    0  0.64372490437E+01  0.25318153397E+02 -0.13980805890E+02  0.30000000000E+02  0.47000000000E+01 0.  1.
         -5    1    3    3    0  501 -0.64372490437E+01 -0.25318153397E+02  0.13980805890E+02  0.30000000000E+02  0.47000000000E+01 0. -1.
</event>
<event>
 5    1  0.7624361E-002  0.6000000E+02  0.7546771E-02  0.1259629E+00
         11   -1    0    0    0    0  0.00000000000E+00  0.00000000000E+00  0.30000000000E+02  0.30000000000E+02  0.00000000000E+00 0.  1.
        -11   -1    0    0    0    0 -0.00000000000E+00 -0.00000000000E+00 -0.30000000000E+02  0.30000000000E+02  0.00000000000E+00 0. -1.
         23    2    1    2    0    0  0.00000000000E+00  0.00000000000E+00  0.00000000000E+00  0.60000000000E+02  0.60000000000E+02 0.  0.
          5    1    3    3  501    0 -0.99087151618E+00  0.62527423352E+01 -0.28945317185E+02  0.30000000000E+02  0.47000000000E+01 0. -1.
         -5    1    3    3    0  501  0.99087151618E+00 -0.62527423352E+01  0.28945317185E+02  0.30000000000E+02  0.47000000000E+01 0.  1.
</event>
<event>
 5    1  0.7624361E-002  0.6000000E+02  0.7546771E-02  0.1259629E+00
         11   -1    0    0    0    0  0.00000000000E+00  0.00000000000E+00  0.30000000000E+02  0.30000000000E+02  0.00000000000E+00 0. -1.
        -11   -1    0    0    0    0 -0.00000000000E+00 -0.00000000000E+00 -0.30000000000E+02  0.30000000000E+02  0.00000000000E+00 0.  1.
         23    2    1    2    0    0  0.00000000000E+00  0.00000000000E+00  0.00000000000E+00  0.60000000000E+02  0.60000000000E+02 0.  0.
          5    1    3    3  501    0 -0.21904218542E+02 -0.19921251385E+02  0.11220309049E+01  0.30000000000E+02  0.47000000000E+01 0.  1.
         -5    1    3    3    0  501  0.21904218542E+02  0.19921251385E+02 -0.11220309049E+01  0.30000000000E+02  0.47000000000E+01 0. -1.
</event>
<event>
 5    1  0.7624361E-002  0.6000000E+02  0.7546771E-02  0.1259629E+00
         11   -1    0    0    0    0  0.00000000000E+00  0.00000000000E+00  0.30000000000E+02  0.30000000000E+02  0.00000000000E+00 0.  1.
        -11   -1    0    0    0    0 -0.00000000000E+00 -0.00000000000E+00 -0.30000000000E+02  0.30000000000E+02  0.00000000000E+00 0. -1.
         23    2    1    2    0    0  0.00000000000E+00  0.00000000000E+00  0.00000000000E+00  0.60000000000E+02  0.60000000000E+02 0.  0.
          5    1    3    3  501    0 -0.31826507949E+01 -0.23102551741E+02 -0.18277112381E+02  0.30000000000E+02  0.47000000000E+01 0. -1.
         -5    1    3    3    0  501  0.31826507949E+01  0.23102551741E+02  0.18277112381E+02  0.30000000000E+02  0.47000000000E+01 0.  1.
</event>
<event>
 5    1  0.7624361E-002  0.6000000E+02  0.7546771E-02  0.1259629E+00
         11   -1    0    0    0    0  0.00000000000E+00  0.00000000000E+00  0.30000000000E+02  0.30000000000E+02  0.00000000000E+00 0.  1.
        -11   -1    0    0    0    0 -0.00000000000E+00 -0.00000000000E+00 -0.30000000000E+02  0.30000000000E+02  0.00000000000E+00 0. -1.
         23    2    1    2    0    0  0.00000000000E+00  0.00000000000E+00  0.00000000000E+00  0.60000000000E+02  0.60000000000E+02 0.  0.
          5    1    3    3  501    0  0.16030600700E+02 -0.23182184146E+02 -0.91387186963E+01  0.30000000000E+02  0.47000000000E+01 0. -1.
         -5    1    3    3    0  501 -0.16030600700E+02  0.23182184146E+02  0.91387186963E+01  0.30000000000E+02  0.47000000000E+01 0.  1.
</event>
<event>
 5    1  0.7624361E-002  0.6000000E+02  0.7546771E-02  0.1259629E+00
         11   -1    0    0    0    0  0.00000000000E+00  0.00000000000E+00  0.30000000000E+02  0.30000000000E+02  0.00000000000E+00 0.  1.
        -11   -1    0    0    0    0 -0.00000000000E+00 -0.00000000000E+00 -0.30000000000E+02  0.30000000000E+02  0.00000000000E+00 0. -1.
         23    2    1    2    0    0  0.00000000000E+00  0.00000000000E+00  0.00000000000E+00  0.60000000000E+02  0.60000000000E+02 0.  0.
          5    1    3    3  501    0  0.10355207297E+02 -0.87552642233E+01 -0.26344354808E+02  0.30000000000E+02  0.47000000000E+01 0. -1.
         -5    1    3    3    0  501 -0.10355207297E+02  0.87552642233E+01  0.26344354808E+02  0.30000000000E+02  0.47000000000E+01 0.  1.
</event>
<event>
 5    1  0.7624361E-002  0.6000000E+02  0.7546771E-02  0.1259629E+00
         11   -1    0    0    0    0  0.00000000000E+00  0.00000000000E+00  0.30000000000E+02  0.30000000000E+02  0.00000000000E+00 0. -1.
        -11   -1    0    0    0    0 -0.00000000000E+00 -0.00000000000E+00 -0.30000000000E+02  0.30000000000E+02  0.00000000000E+00 0.  1.
         23    2    1    2    0    0  0.00000000000E+00  0.00000000000E+00  0.00000000000E+00  0.60000000000E+02  0.60000000000E+02 0.  0.
          5    1    3    3  501    0 -0.13226016571E+02 -0.55668558081E+00 -0.26507972137E+02  0.30000000000E+02  0.47000000000E+01 0.  1.
         -5    1    3    3    0  501  0.13226016571E+02  0.55668558081E+00  0.26507972137E+02  0.30000000000E+02  0.47000000000E+01 0. -1.
</event>
<event>
 5    1  0.7624361E-002  0.6000000E+02  0.7546771E-02  0.1259629E+00
         11   -1    0    0    0    0  0.00000000000E+00  0.00000000000E+00  0.30000000000E+02  0.30000000000E+02  0.00000000000E+00 0.  1.
        -11   -1    0    0    0    0 -0.00000000000E+00 -0.00000000000E+00 -0.30000000000E+02  0.30000000000E+02  0.00000000000E+00 0. -1.
         23    2    1    2    0    0  0.00000000000E+00  0.00000000000E+00  0.00000000000E+00  0.60000000000E+02  0.60000000000E+02 0.  0.
          5    1    3    3  501    0  0.37518893070E+00 -0.19201686233E+02 -0.22562457292E+02  0.30000000000E+02  0.47000000000E+01 0. -1.
         -5    1    3    3    0  501 -0.37518893070E+00  0.19201686233E+02  0.22562457292E+02  0.30000000000E+02  0.47000000000E+01 0.  1.
</event>
<event>
 5    1  0.7624361E-002  0.6000000E+02  0.7546771E-02  0.1259629E+00
         11   -1    0    0    0    0  0.00000000000E+00  0.00000000000E+00  0.30000000000E+02  0.30000000000E+02  0.00000000000E+00 0.  1.
        -11   -1    0    0    0    0 -0.00000000000E+00 -0.00000000000E+00 -0.30000000000E+02  0.30000000000E+02  0.00000000000E+00 0. -1.
         23    2    1    2    0    0  0.00000000000E+00  0.00000000000E+00  0.00000000000E+00  0.60000000000E+02  0.60000000000E+02 0.  0.
          5    1    3    3  501    0 -0.16841594343E+02  0.17325712745E+02 -0.17149063469E+02  0.30000000000E+02  0.47000000000E+01 0. -1.
         -5    1    3    3    0  501  0.16841594343E+02 -0.17325712745E+02  0.17149063469E+02  0.30000000000E+02  0.47000000000E+01 0.  1.
</event>
<event>
 5    1  0.7624361E-002  0.6000000E+02  0.7546771E-02  0.1259629E+00
         11   -1    0    0    0    0  0.00000000000E+00  0.00000000000E+00  0.30000000000E+02  0.30000000000E+02  0.00000000000E+00 0. -1.
        -11   -1    0    0    0    0 -0.00000000000E+00 -0.00000000000E+00 -0.30000000000E+02  0.30000000000E+02  0.00000000000E+00 0.  1.
         23    2    1    2    0    0  0.00000000000E+00  0.00000000000E+00  0.00000000000E+00  0.60000000000E+02  0.60000000000E+02 0.  0.
          5    1    3    3  501    0  0.25270442671E+02 -0.14568303396E+02 -0.52037739555E+01  0.30000000000E+02  0.47000000000E+01 0.  1.
         -5    1    3    3    0  501 -0.25270442671E+02  0.14568303396E+02  0.52037739555E+01  0.30000000000E+02  0.47000000000E+01 0. -1.
</event>
<event>
 5    1  0.7624361E-002  0.6000000E+02  0.7546771E-02  0.1259629E+00
         11   -1    0    0    0    0  0.00000000000E+00  0.00000000000E+00  0.30000000000E+02  0.30000000000E+02  0.00000000000E+00 0.  1.
        -11   -1    0    0    0    0 -0.00000000000E+00 -0.00000000000E+00 -0.30000000000E+02  0.30000000000E+02  0.00000000000E+00 0. -1.
         23    2    1    2    0    0  0.00000000000E+00  0.00000000000E+00  0.00000000000E+00  0.60000000000E+02  0.60000000000E+02 0.  0.
          5    1    3    3  501    0  0.27179507528E+02 -0.85978351620E+01 -0.80784652649E+01  0.30000000000E+02  0.47000000000E+01 0. -1.
         -5    1    3    3    0  501 -0.27179507528E+02  0.85978351620E+01  0.80784652649E+01  0.30000000000E+02  0.47000000000E+01 0.  1.
</event>
<event>
 5    1  0.7624361E-002  0.6000000E+02  0.7546771E-02  0.1259629E+00
         11   -1    0    0    0    0  0.00000000000E+00  0.00000000000E+00  0.30000000000E+02  0.30000000000E+02  0.00000000000E+00 0.  1.
        -11   -1    0    0    0    0 -0.00000000000E+00 -0.00000000000E+00 -0.30000000000E+02  0.30000000000E+02  0.00000000000E+00 0. -1.
         23    2    1    2    0    0  0.00000000000E+00  0.00000000000E+00  0.00000000000E+00  0.60000000000E+02  0.60000000000E+02 0.  0.
          5    1    3    3  501    0 -0.10978967674E+02  0.26031781506E+02 -0.89285284573E+01  0.30000000000E+02  0.47000000000E+01 0. -1.
         -5    1    3    3    0  501  0.10978967674E+02 -0.26031781506E+02  0.89285284573E+01  0.30000000000E+02  0.47000000000E+01 0.  1.
</event>
<event>
 5    1  0.7624361E-002  0.6000000E+02  0.7546771E-02  0.1259629E+00
         11   -1    0    0    0    0  0.00000000000E+00  0.00000000000E+00  0.30000000000E+02  0.30000000000E+02  0.00000000000E+00 0. -1.
        -11   -1    0    0    0    0 -0.00000000000E+00 -0.00000000000E+00 -0.30000000000E+02  0.30000000000E+02  0.00000000000E+00 0.  1.
         23    2    1    2    0    0  0.00000000000E+00  0.00000000000E+00  0.00000000000E+00  0.60000000000E+02  0.60000000000E+02 0.  0.
          5    1    3    3  501    0 -0.96386255047E+00 -0.26040855921E+02 -0.14101588276E+02  0.30000000000E+02  0.47000000000E+01 0.  1.
         -5    1    3    3    0  501  0.96386255047E+00  0.26040855921E+02  0.14101588276E+02  0.30000000000E+02  0.47000000000E+01 0. -1.
</event>
<event>
 5    1  0.7624361E-002  0.6000000E+02  0.7546771E-02  0.1259629E+00
         11   -1    0    0    0    0  0.00000000000E+00  0.00000000000E+00  0.30000000000E+02  0.30000000000E+02  0.00000000000E+00 0.  1.
        -11   -1    0    0    0    0 -0.00000000000E+00 -0.00000000000E+00 -0.30000000000E+02  0.30000000000E+02  0.00000000000E+00 0. -1.
         23    2    1    2    0    0  0.00000000000E+00  0.00000000000E+00  0.00000000000E+00  0.60000000000E+02  0.60000000000E+02 0.  0.
          5    1    3    3  501    0 -0.62435142175E+01 -0.27761581373E+02 -0.82597294065E+01  0.30000000000E+02  0.47000000000E+01 0. -1.
         -5    1    3    3    0  501  0.62435142175E+01  0.27761581373E+02  0.82597294065E+01  0.30000000000E+02  0.47000000000E+01 0.  1.
</event>
<event>
 5    1  0.7624361E-002  0.6000000E+02  0.7546771E-02  0.1259629E+00
         11   -1    0    0    0    0  0.00000000000E+00  0.00000000000E+00  0.30000000000E+02  0.30000000000E+02  0.00000000000E+00 0.  1.
        -11   -1    0    0    0    0 -0.00000000000E+00 -0.00000000000E+00 -0.30000000000E+02  0.30000000000E+02  0.00000000000E+00 0. -1.
         23    2    1    2    0    0  0.00000000000E+00  0.00000000000E+00  0.00000000000E+00  0.60000000000E+02  0.60000000000E+02 0.  0.
          5    1    3    3  501    0  0.13680055351E+02  0.17914311776E+02 -0.19231316107E+02  0.30000000000E+02  0.47000000000E+01 0. -1.
         -5    1    3    3    0  501 -0.13680055351E+02 -0.17914311776E+02  0.19231316107E+02  0.30000000000E+02  0.47000000000E+01 0.  1.
</event>
<event>
 5    1  0.7624361E-002  0.6000000E+02  0.7546771E-02  0.1259629E+00
         11   -1    0    0    0    0  0.00000000000E+00  0.00000000000E+00  0.30000000000E+02  0.30000000000E+02  0.00000000000E+00 0.  1.
        -11   -1    0    0    0    0 -0.00000000000E+00 -0.00000000000E+00 -0.30000000000E+02  0.30000000000E+02  0.00000000000E+00 0. -1.
         23    2    1    2    0    0  0.00000000000E+00  0.00000000000E+00  0.00000000000E+00  0.60000000000E+02  0.60000000000E+02 0.  0.
          5    1    3    3  501    0 -0.38612384974E+01  0.13729925066E+02 -0.25970945207E+02  0.30000000000E+02  0.47000000000E+01 0. -1.
         -5    1    3    3    0  501  0.38612384974E+01 -0.13729925066E+02  0.25970945207E+02  0.30000000000E+02  0.47000000000E+01 0.  1.
</event>
<event>
 5    1  0.7624361E-002  0.6000000E+02  0.7546771E-02  0.1259629E+00
         11   -1    0    0    0    0  0.00000000000E+00  0.00000000000E+00  0.30000000000E+02  0.30000000000E+02  0.00000000000E+00 0. -1.
        -11   -1    0    0    0    0 -0.00000000000E+00 -0.00000000000E+00 -0.30000000000E+02  0.30000000000E+02  0.00000000000E+00 0.  1.
         23    2    1    2    0    0  0.00000000000E+00  0.00000000000E+00  0.00000000000E+00  0.60000000000E+02  0.60000000000E+02 0.  0.
          5    1    3    3  501    0 -0.44955616440E+01  0.27715509506E+02  0.94631103945E+01  0.30000000000E+02  0.47000000000E+01 0.  1.
         -5    1    3    3    0  501  0.44955616440E+01 -0.27715509506E+02 -0.94631103945E+01  0.30000000000E+02  0.47000000000E+01 0. -1.
</event>
<event>
 5    1  0.7624361E-002  0.6000000E+02  0.7546771E-02  0.1259629E+00
         11   -1    0    0    0    0  0.00000000000E+00  0.00000000000E+00  0.30000000000E+02  0.30000000000E+02  0.00000000000E+00 0. -1.
        -11   -1    0    0    0    0 -0.00000000000E+00 -0.00000000000E+00 -0.30000000000E+02  0.30000000000E+02  0.00000000000E+00 0.  1.
         23    2    1    2    0    0  0.00000000000E+00  0.00000000000E+00  0.00000000000E+00  0.60000000000E+02  0.60000000000E+02 0.  0.
          5    1    3    3  501    0 -0.26249269598E+02 -0.13254092228E+02 -0.36352282963E+01  0.30000000000E+02  0.47000000000E+01 0.  1.
         -5    1    3    3    0  501  0.26249269598E+02  0.13254092228E+02  0.36352282963E+01  0.30000000000E+02  0.47000000000E+01 0. -1.
</event>
<event>
 5    1  0.7624361E-002  0.6000000E+02  0.7546771E-02  0.1259629E+00
         11   -1    0    0    0    0  0.00000000000E+00  0.00000000000E+00  0.30000000000E+02  0.30000000000E+02  0.00000000000E+00 0. -1.
        -11   -1    0    0    0    0 -0.00000000000E+00 -0.00000000000E+00 -0.30000000000E+02  0.30000000000E+02  0.00000000000E+00 0.  1.
         23    2    1    2    0    0  0.00000000000E+00  0.00000000000E+00  0.00000000000E+00  0.60000000000E+02  0.60000000000E+02 0.  0.
          5    1    3    3  501    0 -0.21423022843E+02  0.20460333622E+01 -0.20366095349E+02  0.30000000000E+02  0.47000000000E+01 0.  1.
         -5    1    3    3    0  501  0.21423022843E+02 -0.20460333622E+01  0.20366095349E+02  0.30000000000E+02  0.47000000000E+01 0. -1.
</event>
<event>
 5    1  0.7624361E-002  0.6000000E+02  0.7546771E-02  0.1259629E+00
         11   -1    0    0    0    0  0.00000000000E+00  0.00000000000E+00  0.30000000000E+02  0.30000000000E+02  0.00000000000E+00 0.  1.
        -11   -1    0    0    0    0 -0.00000000000E+00 -0.00000000000E+00 -0.30000000000E+02  0.30000000000E+02  0.00000000000E+00 0. -1.
         23    2    1    2    0    0  0.00000000000E+00  0.00000000000E+00  0.00000000000E+00  0.60000000000E+02  0.60000000000E+02 0.  0.
          5    1    3    3  501    0  0.55831642706E+00 -0.28415807130E+02 -0.83749739060E+01  0.30000000000E+02  0.47000000000E+01 0.  1.
         -5    1    3    3    0  501 -0.55831642706E+00  0.28415807130E+02  0.83749739060E+01  0.30000000000E+02  0.47000000000E+01 0. -1.
</event>
<event>
 5    1  0.7624361E-002  0.6000000E+02  0.7546771E-02  0.1259629E+00
         11   -1    0    0    0    0  0.00000000000E+00  0.00000000000E+00  0.30000000000E+02  0.30000000000E+02  0.00000000000E+00 0.  1.
        -11   -1    0    0    0    0 -0.00000000000E+00 -0.00000000000E+00 -0.30000000000E+02  0.30000000000E+02  0.00000000000E+00 0. -1.
         23    2    1    2    0    0  0.00000000000E+00  0.00000000000E+00  0.00000000000E+00  0.60000000000E+02  0.60000000000E+02 0.  0.
          5    1    3    3  501    0  0.19300724604E+02  0.57096755733E+01 -0.21743772318E+02  0.30000000000E+02  0.47000000000E+01 0. -1.
         -5    1    3    3    0  501 -0.19300724604E+02 -0.57096755733E+01  0.21743772318E+02  0.30000000000E+02  0.47000000000E+01 0.  1.
</event>
<event>
 5    1  0.7624361E-002  0.6000000E+02  0.7546771E-02  0.1259629E+00
         11   -1    0    0    0    0  0.00000000000E+00  0.00000000000E+00  0.30000000000E+02  0.30000000000E+02  0.00000000000E+00 0. -1.
        -11   -1    0    0    0    0 -0.00000000000E+00 -0.00000000000E+00 -0.30000000000E+02  0.30000000000E+02  0.00000000000E+00 0.  1.
         23    2    1    2    0    0  0.00000000000E+00  0.00000000000E+00  0.00000000000E+00  0.60000000000E+02  0.60000000000E+02 0.  0.
          5    1    3    3  501    0 -0.20130659245E+02  0.12194739441E+02 -0.17998746855E+02  0.30000000000E+02  0.47000000000E+01 0.  1.
         -5    1    3    3    0  501  0.20130659245E+02 -0.12194739441E+02  0.17998746855E+02  0.30000000000E+02  0.47000000000E+01 0. -1.
</event>
<event>
 5    1  0.7624361E-002  0.6000000E+02  0.7546771E-02  0.1259629E+00
         11   -1    0    0    0    0  0.00000000000E+00  0.00000000000E+00  0.30000000000E+02  0.30000000000E+02  0.00000000000E+00 0.  1.
        -11   -1    0    0    0    0 -0.00000000000E+00 -0.00000000000E+00 -0.30000000000E+02  0.30000000000E+02  0.00000000000E+00 0. -1.
         23    2    1    2    0    0  0.00000000000E+00  0.00000000000E+00  0.00000000000E+00  0.60000000000E+02  0.60000000000E+02 0.  0.
          5    1    3    3  501    0 -0.27870863984E+02 -0.25405275860E+01 -0.97298849092E+01  0.30000000000E+02  0.47000000000E+01 0. -1.
         -5    1    3    3    0  501  0.27870863984E+02  0.25405275860E+01  0.97298849092E+01  0.30000000000E+02  0.47000000000E+01 0.  1.
</event>
<event>
 5    1  0.7624361E-002  0.6000000E+02  0.7546771E-02  0.1259629E+00
         11   -1    0    0    0    0  0.00000000000E+00  0.00000000000E+00  0.30000000000E+02  0.30000000000E+02  0.00000000000E+00 0.  1.
        -11   -1    0    0    0    0 -0.00000000000E+00 -0.00000000000E+00 -0.30000000000E+02  0.30000000000E+02  0.00000000000E+00 0. -1.
         23    2    1    2    0    0  0.00000000000E+00  0.00000000000E+00  0.00000000000E+00  0.60000000000E+02  0.60000000000E+02 0.  0.
          5    1    3    3  501    0  0.20762504852E+02  0.74552339694E+01 -0.19779986823E+02  0.30000000000E+02  0.47000000000E+01 0. -1.
         -5    1    3    3    0  501 -0.20762504852E+02 -0.74552339694E+01  0.19779986823E+02  0.30000000000E+02  0.47000000000E+01 0.  1.
</event>
<event>
 5    1  0.7624361E-002  0.6000000E+02  0.7546771E-02  0.1259629E+00
         11   -1    0    0    0    0  0.00000000000E+00  0.00000000000E+00  0.30000000000E+02  0.30000000000E+02  0.00000000000E+00 0.  1.
        -11   -1    0    0    0    0 -0.00000000000E+00 -0.00000000000E+00 -0.30000000000E+02  0.30000000000E+02  0.00000000000E+00 0. -1.
         23    2    1    2    0    0  0.00000000000E+00  0.00000000000E+00  0.00000000000E+00  0.60000000000E+02  0.60000000000E+02 0.  0.
          5    1    3    3  501    0 -0.94784029111E+01  0.21310075424E+02 -0.18274314315E+02  0.30000000000E+02  0.47000000000E+01 0. -1.
         -5    1    3    3    0  501  0.94784029111E+01 -0.21310075424E+02  0.18274314315E+02  0.30000000000E+02  0.47000000000E+01 0.  1.
</event>
<event>
 5    1  0.7624361E-002  0.6000000E+02  0.7546771E-02  0.1259629E+00
         11   -1    0    0    0    0  0.00000000000E+00  0.00000000000E+00  0.30000000000E+02  0.30000000000E+02  0.00000000000E+00 0.  1.
        -11   -1    0    0    0    0 -0.00000000000E+00 -0.00000000000E+00 -0.30000000000E+02  0.30000000000E+02  0.00000000000E+00 0. -1.
         23    2    1    2    0    0  0.00000000000E+00  0.00000000000E+00  0.00000000000E+00  0.60000000000E+02  0.60000000000E+02 0.  0.
          5    1    3    3  501    0 -0.10497660521E+01 -0.77166736458E+01 -0.28587776043E+02  0.30000000000E+02  0.47000000000E+01 0. -1.
         -5    1    3    3    0  501  0.10497660521E+01  0.77166736458E+01  0.28587776043E+02  0.30000000000E+02  0.47000000000E+01 0.  1.
</event>
<event>
 5    1  0.7624361E-002  0.6000000E+02  0.7546771E-02  0.1259629E+00
         11   -1    0    0    0    0  0.00000000000E+00  0.00000000000E+00  0.30000000000E+02  0.30000000000E+02  0.00000000000E+00 0.  1.
        -11   -1    0    0    0    0 -0.00000000000E+00 -0.00000000000E+00 -0.30000000000E+02  0.30000000000E+02  0.00000000000E+00 0. -1.
         23    2    1    2    0    0  0.00000000000E+00  0.00000000000E+00  0.00000000000E+00  0.60000000000E+02  0.60000000000E+02 0.  0.
          5    1    3    3  501    0  0.28612095027E+02 -0.69685308569E+01 -0.32707179436E+01  0.30000000000E+02  0.47000000000E+01 0. -1.
         -5    1    3    3    0  501 -0.28612095027E+02  0.69685308569E+01  0.32707179436E+01  0.30000000000E+02  0.47000000000E+01 0.  1.
</event>
<event>
 5    1  0.7624361E-002  0.6000000E+02  0.7546771E-02  0.1259629E+00
         11   -1    0    0    0    0  0.00000000000E+00  0.00000000000E+00  0.30000000000E+02  0.30000000000E+02  0.00000000000E+00 0.  1.
        -11   -1    0    0    0    0 -0.00000000000E+00 -0.00000000000E+00 -0.30000000000E+02  0.30000000000E+02  0.00000000000E+00 0. -1.
         23    2    1    2    0    0  0.00000000000E+00  0.00000000000E+00  0.00000000000E+00  0.60000000000E+02  0.60000000000E+02 0.  0.
          5    1    3    3  501    0 -0.13757415797E+02  0.21485765130E+02 -0.15066698622E+02  0.30000000000E+02  0.47000000000E+01 0. -1.
         -5    1    3    3    0  501  0.13757415797E+02 -0.21485765130E+02  0.15066698622E+02  0.30000000000E+02  0.47000000000E+01 0.  1.
</event>
<event>
 5    1  0.7624361E-002  0.6000000E+02  0.7546771E-02  0.1259629E+00
         11   -1    0    0    0    0  0.00000000000E+00  0.00000000000E+00  0.30000000000E+02  0.30000000000E+02  0.00000000000E+00 0.  1.
        -11   -1    0    0    0    0 -0.00000000000E+00 -0.00000000000E+00 -0.30000000000E+02  0.30000000000E+02  0.00000000000E+00 0. -1.
         23    2    1    2    0    0  0.00000000000E+00  0.00000000000E+00  0.00000000000E+00  0.60000000000E+02  0.60000000000E+02 0.  0.
          5    1    3    3  501    0 -0.20081447945E+02 -0.11645824760E+02 -0.18412501571E+02  0.30000000000E+02  0.47000000000E+01 0. -1.
         -5    1    3    3    0  501  0.20081447945E+02  0.11645824760E+02  0.18412501571E+02  0.30000000000E+02  0.47000000000E+01 0.  1.
</event>
<event>
 5    1  0.7624361E-002  0.6000000E+02  0.7546771E-02  0.1259629E+00
         11   -1    0    0    0    0  0.00000000000E+00  0.00000000000E+00  0.30000000000E+02  0.30000000000E+02  0.00000000000E+00 0.  1.
        -11   -1    0    0    0    0 -0.00000000000E+00 -0.00000000000E+00 -0.30000000000E+02  0.30000000000E+02  0.00000000000E+00 0. -1.
         23    2    1    2    0    0  0.00000000000E+00  0.00000000000E+00  0.00000000000E+00  0.60000000000E+02  0.60000000000E+02 0.  0.
          5    1    3    3  501    0 -0.20642032990E+02 -0.20860434351E+02 -0.40815135312E+01  0.30000000000E+02  0.47000000000E+01 0. -1.
         -5    1    3    3    0  501  0.20642032990E+02  0.20860434351E+02  0.40815135312E+01  0.30000000000E+02  0.47000000000E+01 0.  1.
</event>
<event>
 5    1  0.7624361E-002  0.6000000E+02  0.7546771E-02  0.1259629E+00
         11   -1    0    0    0    0  0.00000000000E+00  0.00000000000E+00  0.30000000000E+02  0.30000000000E+02  0.00000000000E+00 0. -1.
        -11   -1    0    0    0    0 -0.00000000000E+00 -0.00000000000E+00 -0.30000000000E+02  0.30000000000E+02  0.00000000000E+00 0.  1.
         23    2    1    2    0    0  0.00000000000E+00  0.00000000000E+00  0.00000000000E+00  0.60000000000E+02  0.60000000000E+02 0.  0.
          5    1    3    3  501    0  0.44168964496E+01 -0.22479031610E+02 -0.18790799973E+02  0.30000000000E+02  0.47000000000E+01 0.  1.
         -5    1    3    3    0  501 -0.44168964496E+01  0.22479031610E+02  0.18790799973E+02  0.30000000000E+02  0.47000000000E+01 0. -1.
</event>
<event>
 5    1  0.7624361E-002  0.6000000E+02  0.7546771E-02  0.1259629E+00
         11   -1    0    0    0    0  0.00000000000E+00  0.00000000000E+00  0.30000000000E+02  0.30000000000E+02  0.00000000000E+00 0.  1.
        -11   -1    0    0    0    0 -0.00000000000E+00 -0.00000000000E+00 -0.30000000000E+02  0.30000000000E+02  0.00000000000E+00 0. -1.
         23    2    1    2    0    0  0.00000000000E+00  0.00000000000E+00  0.00000000000E+00  0.60000000000E+02  0.60000000000E+02 0.  0.
          5    1    3    3  501    0 -0.16284445257E+00  0.10832209475E+02 -0.27578011523E+02  0.30000000000E+02  0.47000000000E+01 0. -1.
         -5    1    3    3    0  501  0.16284445257E+00 -0.10832209475E+02  0.27578011523E+02  0.30000000000E+02  0.47000000000E+01 0.  1.
</event>
<event>
 5    1  0.7624361E-002  0.6000000E+02  0.7546771E-02  0.1259629E+00
         11   -1    0    0    0    0  0.00000000000E+00  0.00000000000E+00  0.30000000000E+02  0.30000000000E+02  0.00000000000E+00 0. -1.
        -11   -1    0    0    0    0 -0.00000000000E+00 -0.00000000000E+00 -0.30000000000E+02  0.30000000000E+02  0.00000000000E+00 0.  1.
         23    2    1    2    0    0  0.00000000000E+00  0.00000000000E+00  0.00000000000E+00  0.60000000000E+02  0.60000000000E+02 0.  0.
          5    1    3    3  501    0  0.27991392192E+02 -0.97039904371E+01 -0.47384884700E+00  0.30000000000E+02  0.47000000000E+01 0.  1.
         -5    1    3    3    0  501 -0.27991392192E+02  0.97039904371E+01  0.47384884700E+00  0.30000000000E+02  0.47000000000E+01 0. -1.
</event>
<event>
 5    1  0.7624361E-002  0.6000000E+02  0.7546771E-02  0.1259629E+00
         11   -1    0    0    0    0  0.00000000000E+00  0.00000000000E+00  0.30000000000E+02  0.30000000000E+02  0.00000000000E+00 0. -1.
        -11   -1    0    0    0    0 -0.00000000000E+00 -0.00000000000E+00 -0.30000000000E+02  0.30000000000E+02  0.00000000000E+00 0.  1.
         23    2    1    2    0    0  0.00000000000E+00  0.00000000000E+00  0.00000000000E+00  0.60000000000E+02  0.60000000000E+02 0.  0.
          5    1    3    3  501    0 -0.64711366919E+00 -0.85756761694E+01 -0.28353994818E+02  0.30000000000E+02  0.47000000000E+01 0.  1.
         -5    1    3    3    0  501  0.64711366919E+00  0.85756761694E+01  0.28353994818E+02  0.30000000000E+02  0.47000000000E+01 0. -1.
</event>
<event>
 5    1  0.7624361E-002  0.6000000E+02  0.7546771E-02  0.1259629E+00
         11   -1    0    0    0    0  0.00000000000E+00  0.00000000000E+00  0.30000000000E+02  0.30000000000E+02  0.00000000000E+00 0.  1.
        -11   -1    0    0    0    0 -0.00000000000E+00 -0.00000000000E+00 -0.30000000000E+02  0.30000000000E+02  0.00000000000E+00 0. -1.
         23    2    1    2    0    0  0.00000000000E+00  0.00000000000E+00  0.00000000000E+00  0.60000000000E+02  0.60000000000E+02 0.  0.
          5    1    3    3  501    0  0.16914610021E+02  0.19844713552E+02 -0.14071009625E+02  0.30000000000E+02  0.47000000000E+01 0. -1.
         -5    1    3    3    0  501 -0.16914610021E+02 -0.19844713552E+02  0.14071009625E+02  0.30000000000E+02  0.47000000000E+01 0.  1.
</event>
<event>
 5    1  0.7624361E-002  0.6000000E+02  0.7546771E-02  0.1259629E+00
         11   -1    0    0    0    0  0.00000000000E+00  0.00000000000E+00  0.30000000000E+02  0.30000000000E+02  0.00000000000E+00 0.  1.
        -11   -1    0    0    0    0 -0.00000000000E+00 -0.00000000000E+00 -0.30000000000E+02  0.30000000000E+02  0.00000000000E+00 0. -1.
         23    2    1    2    0    0  0.00000000000E+00  0.00000000000E+00  0.00000000000E+00  0.60000000000E+02  0.60000000000E+02 0.  0.
          5    1    3    3  501    0 -0.12171923939E+02 -0.48120417866E+01 -0.26581920951E+02  0.30000000000E+02  0.47000000000E+01 0. -1.
         -5    1    3    3    0  501  0.12171923939E+02  0.48120417866E+01  0.26581920951E+02  0.30000000000E+02  0.47000000000E+01 0.  1.
</event>
<event>
 5    1  0.7624361E-002  0.6000000E+02  0.7546771E-02  0.1259629E+00
         11   -1    0    0    0    0  0.00000000000E+00  0.00000000000E+00  0.30000000000E+02  0.30000000000E+02  0.00000000000E+00 0.  1.
        -11   -1    0    0    0    0 -0.00000000000E+00 -0.00000000000E+00 -0.30000000000E+02  0.30000000000E+02  0.00000000000E+00 0. -1.
         23    2    1    2    0    0  0.00000000000E+00  0.00000000000E+00  0.00000000000E+00  0.60000000000E+02  0.60000000000E+02 0.  0.
          5    1    3    3  501    0 -0.99679186488E+01  0.27333283770E+02  0.56073341423E+01  0.30000000000E+02  0.47000000000E+01 0. -1.
         -5    1    3    3    0  501  0.99679186488E+01 -0.27333283770E+02 -0.56073341423E+01  0.30000000000E+02  0.47000000000E+01 0.  1.
</event>
<event>
 5    1  0.7624361E-002  0.6000000E+02  0.7546771E-02  0.1259629E+00
         11   -1    0    0    0    0  0.00000000000E+00  0.00000000000E+00  0.30000000000E+02  0.30000000000E+02  0.00000000000E+00 0. -1.
        -11   -1    0    0    0    0 -0.00000000000E+00 -0.00000000000E+00 -0.30000000000E+02  0.30000000000E+02  0.00000000000E+00 0.  1.
         23    2    1    2    0    0  0.00000000000E+00  0.00000000000E+00  0.00000000000E+00  0.60000000000E+02  0.60000000000E+02 0.  0.
          5    1    3    3  501    0  0.26887440762E+02  0.75759614320E+01 -0.98782760464E+01  0.30000000000E+02  0.47000000000E+01 0.  1.
         -5    1    3    3    0  501 -0.26887440762E+02 -0.75759614320E+01  0.98782760464E+01  0.30000000000E+02  0.47000000000E+01 0. -1.
</event>
<event>
 5    1  0.7624361E-002  0.6000000E+02  0.7546771E-02  0.1259629E+00
         11   -1    0    0    0    0  0.00000000000E+00  0.00000000000E+00  0.30000000000E+02  0.30000000000E+02  0.00000000000E+00 0.  1.
        -11   -1    0    0    0    0 -0.00000000000E+00 -0.00000000000E+00 -0.30000000000E+02  0.30000000000E+02  0.00000000000E+00 0. -1.
         23    2    1    2    0    0  0.00000000000E+00  0.00000000000E+00  0.00000000000E+00  0.60000000000E+02  0.60000000000E+02 0.  0.
          5    1    3    3  501    0 -0.77276534536E+01  0.27335861614E+02  0.84228286174E+01  0.30000000000E+02  0.47000000000E+01 0.  1.
         -5    1    3    3    0  501  0.77276534536E+01 -0.27335861614E+02 -0.84228286174E+01  0.30000000000E+02  0.47000000000E+01 0. -1.
</event>
<event>
 5    1  0.7624361E-002  0.6000000E+02  0.7546771E-02  0.1259629E+00
         11   -1    0    0    0    0  0.00000000000E+00  0.00000000000E+00  0.30000000000E+02  0.30000000000E+02  0.00000000000E+00 0.  1.
        -11   -1    0    0    0    0 -0.00000000000E+00 -0.00000000000E+00 -0.30000000000E+02  0.30000000000E+02  0.00000000000E+00 0. -1.
         23    2    1    2    0    0  0.00000000000E+00  0.00000000000E+00  0.00000000000E+00  0.60000000000E+02  0.60000000000E+02 0.  0.
          5    1    3    3  501    0  0.16422073776E+02  0.13985497108E+02 -0.20313329701E+02  0.30000000000E+02  0.47000000000E+01 0. -1.
         -5    1    3    3    0  501 -0.16422073776E+02 -0.13985497108E+02  0.20313329701E+02  0.30000000000E+02  0.47000000000E+01 0.  1.
</event>
<event>
 5    1  0.7624361E-002  0.6000000E+02  0.7546771E-02  0.1259629E+00
         11   -1    0    0    0    0  0.00000000000E+00  0.00000000000E+00  0.30000000000E+02  0.30000000000E+02  0.00000000000E+00 0.  1.
        -11   -1    0    0    0    0 -0.00000000000E+00 -0.00000000000E+00 -0.30000000000E+02  0.30000000000E+02  0.00000000000E+00 0. -1.
         23    2    1    2    0    0  0.00000000000E+00  0.00000000000E+00  0.00000000000E+00  0.60000000000E+02  0.60000000000E+02 0.  0.
          5    1    3    3  501    0  0.15757086820E+02 -0.52670669236E+01 -0.24533288018E+02  0.30000000000E+02  0.47000000000E+01 0. -1.
         -5    1    3    3    0  501 -0.15757086820E+02  0.52670669236E+01  0.24533288018E+02  0.30000000000E+02  0.47000000000E+01 0.  1.
</event>
<event>
 5    1  0.7624361E-002  0.6000000E+02  0.7546771E-02  0.1259629E+00
         11   -1    0    0    0    0  0.00000000000E+00  0.00000000000E+00  0.30000000000E+02  0.30000000000E+02  0.00000000000E+00 0. -1.
        -11   -1    0    0    0    0 -0.00000000000E+00 -0.00000000000E+00 -0.30000000000E+02  0.30000000000E+02  0.00000000000E+00 0.  1.
         23    2    1    2    0    0  0.00000000000E+00  0.00000000000E+00  0.00000000000E+00  0.60000000000E+02  0.60000000000E+02 0.  0.
          5    1    3    3  501    0 -0.16628581924E+02 -0.20270676543E+02 -0.13802171411E+02  0.30000000000E+02  0.47000000000E+01 0.  1.
         -5    1    3    3    0  501  0.16628581924E+02  0.20270676543E+02  0.13802171411E+02  0.30000000000E+02  0.47000000000E+01 0. -1.
</event>
<event>
 5    1  0.7624361E-002  0.6000000E+02  0.7546771E-02  0.1259629E+00
         11   -1    0    0    0    0  0.00000000000E+00  0.00000000000E+00  0.30000000000E+02  0.30000000000E+02  0.00000000000E+00 0.  1.
        -11   -1    0    0    0    0 -0.00000000000E+00 -0.00000000000E+00 -0.30000000000E+02  0.30000000000E+02  0.00000000000E+00 0. -1.
         23    2    1    2    0    0  0.00000000000E+00  0.00000000000E+00  0.00000000000E+00  0.60000000000E+02  0.60000000000E+02 0.  0.
          5    1    3    3  501    0 -0.51291443176E+01 -0.17245637924E+02 -0.23541237248E+02  0.30000000000E+02  0.47000000000E+01 0. -1.
         -5    1    3    3    0  501  0.51291443176E+01  0.17245637924E+02  0.23541237248E+02  0.30000000000E+02  0.47000000000E+01 0.  1.
</event>
<event>
 5    1  0.7624361E-002  0.6000000E+02  0.7546771E-02  0.1259629E+00
         11   -1    0    0    0    0  0.00000000000E+00  0.00000000000E+00  0.30000000000E+02  0.30000000000E+02  0.00000000000E+00 0.  1.
        -11   -1    0    0    0    0 -0.00000000000E+00 -0.00000000000E+00 -0.30000000000E+02  0.30000000000E+02  0.00000000000E+00 0. -1.
         23    2    1    2    0    0  0.00000000000E+00  0.00000000000E+00  0.00000000000E+00  0.60000000000E+02  0.60000000000E+02 0.  0.
          5    1    3    3  501    0  0.13468917069E+02  0.29441812700E+01 -0.26226514630E+02  0.30000000000E+02  0.47000000000E+01 0. -1.
         -5    1    3    3    0  501 -0.13468917069E+02 -0.29441812700E+01  0.26226514630E+02  0.30000000000E+02  0.47000000000E+01 0.  1.
</event>
<event>
 5    1  0.7624361E-002  0.6000000E+02  0.7546771E-02  0.1259629E+00
         11   -1    0    0    0    0  0.00000000000E+00  0.00000000000E+00  0.30000000000E+02  0.30000000000E+02  0.00000000000E+00 0. -1.
        -11   -1    0    0    0    0 -0.00000000000E+00 -0.00000000000E+00 -0.30000000000E+02  0.30000000000E+02  0.00000000000E+00 0.  1.
         23    2    1    2    0    0  0.00000000000E+00  0.00000000000E+00  0.00000000000E+00  0.60000000000E+02  0.60000000000E+02 0.  0.
          5    1    3    3  501    0  0.29840171399E+01  0.15263404321E+02 -0.25219717093E+02  0.30000000000E+02  0.47000000000E+01 0.  1.
         -5    1    3    3    0  501 -0.29840171399E+01 -0.15263404321E+02  0.25219717093E+02  0.30000000000E+02  0.47000000000E+01 0. -1.
</event>
<event>
 5    1  0.7624361E-002  0.6000000E+02  0.7546771E-02  0.1259629E+00
         11   -1    0    0    0    0  0.00000000000E+00  0.00000000000E+00  0.30000000000E+02  0.30000000000E+02  0.00000000000E+00 0.  1.
        -11   -1    0    0    0    0 -0.00000000000E+00 -0.00000000000E+00 -0.30000000000E+02  0.30000000000E+02  0.00000000000E+00 0. -1.
         23    2    1    2    0    0  0.00000000000E+00  0.00000000000E+00  0.00000000000E+00  0.60000000000E+02  0.60000000000E+02 0.  0.
          5    1    3    3  501    0 -0.35158808793E+01 -0.17950216873E+01 -0.29365395941E+02  0.30000000000E+02  0.47000000000E+01 0. -1.
         -5    1    3    3    0  501  0.35158808793E+01  0.17950216873E+01  0.29365395941E+02  0.30000000000E+02  0.47000000000E+01 0.  1.
</event>
<event>
 5    1  0.7624361E-002  0.6000000E+02  0.7546771E-02  0.1259629E+00
         11   -1    0    0    0    0  0.00000000000E+00  0.00000000000E+00  0.30000000000E+02  0.30000000000E+02  0.00000000000E+00 0.  1.
        -11   -1    0    0    0    0 -0.00000000000E+00 -0.00000000000E+00 -0.30000000000E+02  0.30000000000E+02  0.00000000000E+00 0. -1.
         23    2    1    2    0    0  0.00000000000E+00  0.00000000000E+00  0.00000000000E+00  0.60000000000E+02  0.60000000000E+02 0.  0.
          5    1    3    3  501    0  0.19231108591E+02  0.12471885508E+02  0.18775689980E+02  0.30000000000E+02  0.47000000000E+01 0. -1.
         -5    1    3    3    0  501 -0.19231108591E+02 -0.12471885508E+02 -0.18775689980E+02  0.30000000000E+02  0.47000000000E+01 0.  1.
</event>
<event>
 5    1  0.7624361E-002  0.6000000E+02  0.7546771E-02  0.1259629E+00
         11   -1    0    0    0    0  0.00000000000E+00  0.00000000000E+00  0.30000000000E+02  0.30000000000E+02  0.00000000000E+00 0.  1.
        -11   -1    0    0    0    0 -0.00000000000E+00 -0.00000000000E+00 -0.30000000000E+02  0.30000000000E+02  0.00000000000E+00 0. -1.
         23    2    1    2    0    0  0.00000000000E+00  0.00000000000E+00  0.00000000000E+00  0.60000000000E+02  0.60000000000E+02 0.  0.
          5    1    3    3  501    0  0.11285204640E+01  0.22589155661E+02 -0.19140702392E+02  0.30000000000E+02  0.47000000000E+01 0. -1.
         -5    1    3    3    0  501 -0.11285204640E+01 -0.22589155661E+02  0.19140702392E+02  0.30000000000E+02  0.47000000000E+01 0.  1.
</event>
<event>
 5    1  0.7624361E-002  0.6000000E+02  0.7546771E-02  0.1259629E+00
         11   -1    0    0    0    0  0.00000000000E+00  0.00000000000E+00  0.30000000000E+02  0.30000000000E+02  0.00000000000E+00 0. -1.
        -11   -1    0    0    0    0 -0.00000000000E+00 -0.00000000000E+00 -0.30000000000E+02  0.30000000000E+02  0.00000000000E+00 0.  1.
         23    2    1    2    0    0  0.00000000000E+00  0.00000000000E+00  0.00000000000E+00  0.60000000000E+02  0.60000000000E+02 0.  0.
          5    1    3    3  501    0 -0.13821322424E+02  0.25420165242E+02 -0.63793609008E+01  0.30000000000E+02  0.47000000000E+01 0.  1.
         -5    1    3    3    0  501  0.13821322424E+02 -0.25420165242E+02  0.63793609008E+01  0.30000000000E+02  0.47000000000E+01 0. -1.
</event>
<event>
 5    1  0.7624361E-002  0.6000000E+02  0.7546771E-02  0.1259629E+00
         11   -1    0    0    0    0  0.00000000000E+00  0.00000000000E+00  0.30000000000E+02  0.30000000000E+02  0.00000000000E+00 0.  1.
        -11   -1    0    0    0    0 -0.00000000000E+00 -0.00000000000E+00 -0.30000000000E+02  0.30000000000E+02  0.00000000000E+00 0. -1.
         23    2    1    2    0    0  0.00000000000E+00  0.00000000000E+00  0.00000000000E+00  0.60000000000E+02  0.60000000000E+02 0.  0.
          5    1    3    3  501    0 -0.62580411623E+01 -0.27771626956E+02 -0.82148437001E+01  0.30000000000E+02  0.47000000000E+01 0. -1.
         -5    1    3    3    0  501  0.62580411623E+01  0.27771626956E+02  0.82148437001E+01  0.30000000000E+02  0.47000000000E+01 0.  1.
</event>
<event>
 5    1  0.7624361E-002  0.6000000E+02  0.7546771E-02  0.1259629E+00
         11   -1    0    0    0    0  0.00000000000E+00  0.00000000000E+00  0.30000000000E+02  0.30000000000E+02  0.00000000000E+00 0.  1.
        -11   -1    0    0    0    0 -0.00000000000E+00 -0.00000000000E+00 -0.30000000000E+02  0.30000000000E+02  0.00000000000E+00 0. -1.
         23    2    1    2    0    0  0.00000000000E+00  0.00000000000E+00  0.00000000000E+00  0.60000000000E+02  0.60000000000E+02 0.  0.
          5    1    3    3  501    0  0.94021030712E+01 -0.23831129638E+01 -0.27996986096E+02  0.30000000000E+02  0.47000000000E+01 0. -1.
         -5    1    3    3    0  501 -0.94021030712E+01  0.23831129638E+01  0.27996986096E+02  0.30000000000E+02  0.47000000000E+01 0.  1.
</event>
<event>
 5    1  0.7624361E-002  0.6000000E+02  0.7546771E-02  0.1259629E+00
         11   -1    0    0    0    0  0.00000000000E+00  0.00000000000E+00  0.30000000000E+02  0.30000000000E+02  0.00000000000E+00 0.  1.
        -11   -1    0    0    0    0 -0.00000000000E+00 -0.00000000000E+00 -0.30000000000E+02  0.30000000000E+02  0.00000000000E+00 0. -1.
         23    2    1    2    0    0  0.00000000000E+00  0.00000000000E+00  0.00000000000E+00  0.60000000000E+02  0.60000000000E+02 0.  0.
          5    1    3    3  501    0 -0.79108384749E+01  0.74522735937E+01 -0.27564329357E+02  0.30000000000E+02  0.47000000000E+01 0. -1.
         -5    1    3    3    0  501  0.79108384749E+01 -0.74522735937E+01  0.27564329357E+02  0.30000000000E+02  0.47000000000E+01 0.  1.
</event>
<event>
 5    1  0.7624361E-002  0.6000000E+02  0.7546771E-02  0.1259629E+00
         11   -1    0    0    0    0  0.00000000000E+00  0.00000000000E+00  0.30000000000E+02  0.30000000000E+02  0.00000000000E+00 0.  1.
        -11   -1    0    0    0    0 -0.00000000000E+00 -0.00000000000E+00 -0.30000000000E+02  0.30000000000E+02  0.00000000000E+00 0. -1.
         23    2    1    2    0    0  0.00000000000E+00  0.00000000000E+00  0.00000000000E+00  0.60000000000E+02  0.60000000000E+02 0.  0.
          5    1    3    3  501    0  0.48445310265E+00  0.20233430774E+02 -0.21639861005E+02  0.30000000000E+02  0.47000000000E+01 0. -1.
         -5    1    3    3    0  501 -0.48445310265E+00 -0.20233430774E+02  0.21639861005E+02  0.30000000000E+02  0.47000000000E+01 0.  1.
</event>
<event>
 5    1  0.7624361E-002  0.6000000E+02  0.7546771E-02  0.1259629E+00
         11   -1    0    0    0    0  0.00000000000E+00  0.00000000000E+00  0.30000000000E+02  0.30000000000E+02  0.00000000000E+00 0. -1.
        -11   -1    0    0    0    0 -0.00000000000E+00 -0.00000000000E+00 -0.30000000000E+02  0.30000000000E+02  0.00000000000E+00 0.  1.
         23    2    1    2    0    0  0.00000000000E+00  0.00000000000E+00  0.00000000000E+00  0.60000000000E+02  0.60000000000E+02 0.  0.
          5    1    3    3  501    0 -0.78808732264E+01 -0.25318539536E+02 -0.13220188840E+02  0.30000000000E+02  0.47000000000E+01 0.  1.
         -5    1    3    3    0  501  0.78808732264E+01  0.25318539536E+02  0.13220188840E+02  0.30000000000E+02  0.47000000000E+01 0. -1.
</event>
<event>
 5    1  0.7624361E-002  0.6000000E+02  0.7546771E-02  0.1259629E+00
         11   -1    0    0    0    0  0.00000000000E+00  0.00000000000E+00  0.30000000000E+02  0.30000000000E+02  0.00000000000E+00 0.  1.
        -11   -1    0    0    0    0 -0.00000000000E+00 -0.00000000000E+00 -0.30000000000E+02  0.30000000000E+02  0.00000000000E+00 0. -1.
         23    2    1    2    0    0  0.00000000000E+00  0.00000000000E+00  0.00000000000E+00  0.60000000000E+02  0.60000000000E+02 0.  0.
          5    1    3    3  501    0  0.48033316423E+01  0.25853696169E+02  0.13653732073E+02  0.30000000000E+02  0.47000000000E+01 0. -1.
         -5    1    3    3    0  501 -0.48033316423E+01 -0.25853696169E+02 -0.13653732073E+02  0.30000000000E+02  0.47000000000E+01 0.  1.
</event>
<event>
 5    1  0.7624361E-002  0.6000000E+02  0.7546771E-02  0.1259629E+00
         11   -1    0    0    0    0  0.00000000000E+00  0.00000000000E+00  0.30000000000E+02  0.30000000000E+02  0.00000000000E+00 0.  1.
        -11   -1    0    0    0    0 -0.00000000000E+00 -0.00000000000E+00 -0.30000000000E+02  0.30000000000E+02  0.00000000000E+00 0. -1.
         23    2    1    2    0    0  0.00000000000E+00  0.00000000000E+00  0.00000000000E+00  0.60000000000E+02  0.60000000000E+02 0.  0.
          5    1    3    3  501    0 -0.29307523237E+02  0.43448751505E+01  0.31802771385E+00  0.30000000000E+02  0.47000000000E+01 0. -1.
         -5    1    3    3    0  501  0.29307523237E+02 -0.43448751505E+01 -0.31802771385E+00  0.30000000000E+02  0.47000000000E+01 0.  1.
</event>
<event>
 5    1  0.7624361E-002  0.6000000E+02  0.7546771E-02  0.1259629E+00
         11   -1    0    0    0    0  0.00000000000E+00  0.00000000000E+00  0.30000000000E+02  0.30000000000E+02  0.00000000000E+00 0. -1.
        -11   -1    0    0    0    0 -0.00000000000E+00 -0.00000000000E+00 -0.30000000000E+02  0.30000000000E+02  0.00000000000E+00 0.  1.
         23    2    1    2    0    0  0.00000000000E+00  0.00000000000E+00  0.00000000000E+00  0.60000000000E+02  0.60000000000E+02 0.  0.
          5    1    3    3  501    0  0.35328990593E+01  0.13473198464E+02  0.26151511379E+02  0.30000000000E+02  0.47000000000E+01 0. -1.
         -5    1    3    3    0  501 -0.35328990593E+01 -0.13473198464E+02 -0.26151511379E+02  0.30000000000E+02  0.47000000000E+01 0.  1.
</event>
<event>
 5    1  0.7624361E-002  0.6000000E+02  0.7546771E-02  0.1259629E+00
         11   -1    0    0    0    0  0.00000000000E+00  0.00000000000E+00  0.30000000000E+02  0.30000000000E+02  0.00000000000E+00 0. -1.
        -11   -1    0    0    0    0 -0.00000000000E+00 -0.00000000000E+00 -0.30000000000E+02  0.30000000000E+02  0.00000000000E+00 0.  1.
         23    2    1    2    0    0  0.00000000000E+00  0.00000000000E+00  0.00000000000E+00  0.60000000000E+02  0.60000000000E+02 0.  0.
          5    1    3    3  501    0 -0.17316940388E+02  0.67644665350E+01 -0.23071098112E+02  0.30000000000E+02  0.47000000000E+01 0.  1.
         -5    1    3    3    0  501  0.17316940388E+02 -0.67644665350E+01  0.23071098112E+02  0.30000000000E+02  0.47000000000E+01 0. -1.
</event>
<event>
 5    1  0.7624361E-002  0.6000000E+02  0.7546771E-02  0.1259629E+00
         11   -1    0    0    0    0  0.00000000000E+00  0.00000000000E+00  0.30000000000E+02  0.30000000000E+02  0.00000000000E+00 0. -1.
        -11   -1    0    0    0    0 -0.00000000000E+00 -0.00000000000E+00 -0.30000000000E+02  0.30000000000E+02  0.00000000000E+00 0.  1.
         23    2    1    2    0    0  0.00000000000E+00  0.00000000000E+00  0.00000000000E+00  0.60000000000E+02  0.60000000000E+02 0.  0.
          5    1    3    3  501    0 -0.76553939957E+01  0.28209477312E+02 -0.48508074104E+01  0.30000000000E+02  0.47000000000E+01 0.  1.
         -5    1    3    3    0  501  0.76553939957E+01 -0.28209477312E+02  0.48508074104E+01  0.30000000000E+02  0.47000000000E+01 0. -1.
</event>
<event>
 5    1  0.7624361E-002  0.6000000E+02  0.7546771E-02  0.1259629E+00
         11   -1    0    0    0    0  0.00000000000E+00  0.00000000000E+00  0.30000000000E+02  0.30000000000E+02  0.00000000000E+00 0.  1.
        -11   -1    0    0    0    0 -0.00000000000E+00 -0.00000000000E+00 -0.30000000000E+02  0.30000000000E+02  0.00000000000E+00 0. -1.
         23    2    1    2    0    0  0.00000000000E+00  0.00000000000E+00  0.00000000000E+00  0.60000000000E+02  0.60000000000E+02 0.  0.
          5    1    3    3  501    0  0.26073351322E+01 -0.29299319147E+02  0.35583284006E+01  0.30000000000E+02  0.47000000000E+01 0. -1.
         -5    1    3    3    0  501 -0.26073351322E+01  0.29299319147E+02 -0.35583284006E+01  0.30000000000E+02  0.47000000000E+01 0.  1.
</event>
<event>
 5    1  0.7624361E-002  0.6000000E+02  0.7546771E-02  0.1259629E+00
         11   -1    0    0    0    0  0.00000000000E+00  0.00000000000E+00  0.30000000000E+02  0.30000000000E+02  0.00000000000E+00 0.  1.
        -11   -1    0    0    0    0 -0.00000000000E+00 -0.00000000000E+00 -0.30000000000E+02  0.30000000000E+02  0.00000000000E+00 0. -1.
         23    2    1    2    0    0  0.00000000000E+00  0.00000000000E+00  0.00000000000E+00  0.60000000000E+02  0.60000000000E+02 0.  0.
          5    1    3    3  501    0 -0.27807534594E+02  0.76187197576E+01 -0.68268681736E+01  0.30000000000E+02  0.47000000000E+01 0. -1.
         -5    1    3    3    0  501  0.27807534594E+02 -0.76187197576E+01  0.68268681736E+01  0.30000000000E+02  0.47000000000E+01 0.  1.
</event>
<event>
 5    1  0.7624361E-002  0.6000000E+02  0.7546771E-02  0.1259629E+00
         11   -1    0    0    0    0  0.00000000000E+00  0.00000000000E+00  0.30000000000E+02  0.30000000000E+02  0.00000000000E+00 0.  1.
        -11   -1    0    0    0    0 -0.00000000000E+00 -0.00000000000E+00 -0.30000000000E+02  0.30000000000E+02  0.00000000000E+00 0. -1.
         23    2    1    2    0    0  0.00000000000E+00  0.00000000000E+00  0.00000000000E+00  0.60000000000E+02  0.60000000000E+02 0.  0.
          5    1    3    3  501    0 -0.15799589130E+02  0.95027697419E+01 -0.23194403432E+02  0.30000000000E+02  0.47000000000E+01 0. -1.
         -5    1    3    3    0  501  0.15799589130E+02 -0.95027697419E+01  0.23194403432E+02  0.30000000000E+02  0.47000000000E+01 0.  1.
</event>
<event>
 5    1  0.7624361E-002  0.6000000E+02  0.7546771E-02  0.1259629E+00
         11   -1    0    0    0    0  0.00000000000E+00  0.00000000000E+00  0.30000000000E+02  0.30000000000E+02  0.00000000000E+00 0.  1.
        -11   -1    0    0    0    0 -0.00000000000E+00 -0.00000000000E+00 -0.30000000000E+02  0.30000000000E+02  0.00000000000E+00 0. -1.
         23    2    1    2    0    0  0.00000000000E+00  0.00000000000E+00  0.00000000000E+00  0.60000000000E+02  0.60000000000E+02 0.  0.
          5    1    3    3  501    0  0.11692189236E+02  0.85295881527E+01 -0.25854377518E+02  0.30000000000E+02  0.47000000000E+01 0. -1.
         -5    1    3    3    0  501 -0.11692189236E+02 -0.85295881527E+01  0.25854377518E+02  0.30000000000E+02  0.47000000000E+01 0.  1.
</event>
<event>
 5    1  0.7624361E-002  0.6000000E+02  0.7546771E-02  0.1259629E+00
         11   -1    0    0    0    0  0.00000000000E+00  0.00000000000E+00  0.30000000000E+02  0.30000000000E+02  0.00000000000E+00 0.  1.
        -11   -1    0    0    0    0 -0.00000000000E+00 -0.00000000000E+00 -0.30000000000E+02  0.30000000000E+02  0.00000000000E+00 0. -1.
         23    2    1    2    0    0  0.00000000000E+00  0.00000000000E+00  0.00000000000E+00  0.60000000000E+02  0.60000000000E+02 0.  0.
          5    1    3    3  501    0  0.69241604956E+01  0.26590689896E+02  0.11086081919E+02  0.30000000000E+02  0.47000000000E+01 0.  1.
         -5    1    3    3    0  501 -0.69241604956E+01 -0.26590689896E+02 -0.11086081919E+02  0.30000000000E+02  0.47000000000E+01 0. -1.
</event>
<event>
 5    1  0.7624361E-002  0.6000000E+02  0.7546771E-02  0.1259629E+00
         11   -1    0    0    0    0  0.00000000000E+00  0.00000000000E+00  0.30000000000E+02  0.30000000000E+02  0.00000000000E+00 0.  1.
        -11   -1    0    0    0    0 -0.00000000000E+00 -0.00000000000E+00 -0.30000000000E+02  0.30000000000E+02  0.00000000000E+00 0. -1.
         23    2    1    2    0    0  0.00000000000E+00  0.00000000000E+00  0.00000000000E+00  0.60000000000E+02  0.60000000000E+02 0.  0.
          5    1    3    3  501    0  0.15025822490E+02 -0.17396130864E+02 -0.18695167543E+02  0.30000000000E+02  0.47000000000E+01 0. -1.
         -5    1    3    3    0  501 -0.15025822490E+02  0.17396130864E+02  0.18695167543E+02  0.30000000000E+02  0.47000000000E+01 0.  1.
</event>
<event>
 5    1  0.7624361E-002  0.6000000E+02  0.7546771E-02  0.1259629E+00
         11   -1    0    0    0    0  0.00000000000E+00  0.00000000000E+00  0.30000000000E+02  0.30000000000E+02  0.00000000000E+00 0.  1.
        -11   -1    0    0    0    0 -0.00000000000E+00 -0.00000000000E+00 -0.30000000000E+02  0.30000000000E+02  0.00000000000E+00 0. -1.
         23    2    1    2    0    0  0.00000000000E+00  0.00000000000E+00  0.00000000000E+00  0.60000000000E+02  0.60000000000E+02 0.  0.
          5    1    3    3  501    0 -0.77598640262E+01  0.14522897263E+02 -0.24632904120E+02  0.30000000000E+02  0.47000000000E+01 0. -1.
         -5    1    3    3    0  501  0.77598640262E+01 -0.14522897263E+02  0.24632904120E+02  0.30000000000E+02  0.47000000000E+01 0.  1.
</event>
<event>
 5    1  0.7624361E-002  0.6000000E+02  0.7546771E-02  0.1259629E+00
         11   -1    0    0    0    0  0.00000000000E+00  0.00000000000E+00  0.30000000000E+02  0.30000000000E+02  0.00000000000E+00 0.  1.
        -11   -1    0    0    0    0 -0.00000000000E+00 -0.00000000000E+00 -0.30000000000E+02  0.30000000000E+02  0.00000000000E+00 0. -1.
         23    2    1    2    0    0  0.00000000000E+00  0.00000000000E+00  0.00000000000E+00  0.60000000000E+02  0.60000000000E+02 0.  0.
          5    1    3    3  501    0  0.11381421643E+02  0.27059342945E+02 -0.40205970669E+01  0.30000000000E+02  0.47000000000E+01 0. -1.
         -5    1    3    3    0  501 -0.11381421643E+02 -0.27059342945E+02  0.40205970669E+01  0.30000000000E+02  0.47000000000E+01 0.  1.
</event>
<event>
 5    1  0.7624361E-002  0.6000000E+02  0.7546771E-02  0.1259629E+00
         11   -1    0    0    0    0  0.00000000000E+00  0.00000000000E+00  0.30000000000E+02  0.30000000000E+02  0.00000000000E+00 0.  1.
        -11   -1    0    0    0    0 -0.00000000000E+00 -0.00000000000E+00 -0.30000000000E+02  0.30000000000E+02  0.00000000000E+00 0. -1.
         23    2    1    2    0    0  0.00000000000E+00  0.00000000000E+00  0.00000000000E+00  0.60000000000E+02  0.60000000000E+02 0.  0.
          5    1    3    3  501    0 -0.14067993036E+02  0.13341857610E+02  0.22405276330E+02  0.30000000000E+02  0.47000000000E+01 0.  1.
         -5    1    3    3    0  501  0.14067993036E+02 -0.13341857610E+02 -0.22405276330E+02  0.30000000000E+02  0.47000000000E+01 0. -1.
</event>
<event>
 5    1  0.7624361E-002  0.6000000E+02  0.7546771E-02  0.1259629E+00
         11   -1    0    0    0    0  0.00000000000E+00  0.00000000000E+00  0.30000000000E+02  0.30000000000E+02  0.00000000000E+00 0.  1.
        -11   -1    0    0    0    0 -0.00000000000E+00 -0.00000000000E+00 -0.30000000000E+02  0.30000000000E+02  0.00000000000E+00 0. -1.
         23    2    1    2    0    0  0.00000000000E+00  0.00000000000E+00  0.00000000000E+00  0.60000000000E+02  0.60000000000E+02 0.  0.
          5    1    3    3  501    0  0.26839648073E+02  0.31552504425E+01 -0.12148567240E+02  0.30000000000E+02  0.47000000000E+01 0. -1.
         -5    1    3    3    0  501 -0.26839648073E+02 -0.31552504425E+01  0.12148567240E+02  0.30000000000E+02  0.47000000000E+01 0.  1.
</event>
<event>
 5    1  0.7624361E-002  0.6000000E+02  0.7546771E-02  0.1259629E+00
         11   -1    0    0    0    0  0.00000000000E+00  0.00000000000E+00  0.30000000000E+02  0.30000000000E+02  0.00000000000E+00 0. -1.
        -11   -1    0    0    0    0 -0.00000000000E+00 -0.00000000000E+00 -0.30000000000E+02  0.30000000000E+02  0.00000000000E+00 0.  1.
         23    2    1    2    0    0  0.00000000000E+00  0.00000000000E+00  0.00000000000E+00  0.60000000000E+02  0.60000000000E+02 0.  0.
          5    1    3    3  501    0 -0.21385889054E+02 -0.18569809388E+02 -0.87014900264E+01  0.30000000000E+02  0.47000000000E+01 0.  1.
         -5    1    3    3    0  501  0.21385889054E+02  0.18569809388E+02  0.87014900264E+01  0.30000000000E+02  0.47000000000E+01 0. -1.
</event>
<event>
 5    1  0.7624361E-002  0.6000000E+02  0.7546771E-02  0.1259629E+00
         11   -1    0    0    0    0  0.00000000000E+00  0.00000000000E+00  0.30000000000E+02  0.30000000000E+02  0.00000000000E+00 0. -1.
        -11   -1    0    0    0    0 -0.00000000000E+00 -0.00000000000E+00 -0.30000000000E+02  0.30000000000E+02  0.00000000000E+00 0.  1.
         23    2    1    2    0    0  0.00000000000E+00  0.00000000000E+00  0.00000000000E+00  0.60000000000E+02  0.60000000000E+02 0.  0.
          5    1    3    3  501    0  0.22783755423E+00  0.25759854150E+01 -0.29516476571E+02  0.30000000000E+02  0.47000000000E+01 0.  1.
         -5    1    3    3    0  501 -0.22783755423E+00 -0.25759854150E+01  0.29516476571E+02  0.30000000000E+02  0.47000000000E+01 0. -1.
</event>
<event>
 5    1  0.7624361E-002  0.6000000E+02  0.7546771E-02  0.1259629E+00
         11   -1    0    0    0    0  0.00000000000E+00  0.00000000000E+00  0.30000000000E+02  0.30000000000E+02  0.00000000000E+00 0.  1.
        -11   -1    0    0    0    0 -0.00000000000E+00 -0.00000000000E+00 -0.30000000000E+02  0.30000000000E+02  0.00000000000E+00 0. -1.
         23    2    1    2    0    0  0.00000000000E+00  0.00000000000E+00  0.00000000000E+00  0.60000000000E+02  0.60000000000E+02 0.  0.
          5    1    3    3  501    0 -0.58196141733E+01  0.24323119786E+02  0.15887980827E+02  0.30000000000E+02  0.47000000000E+01 0. -1.
         -5    1    3    3    0  501  0.58196141733E+01 -0.24323119786E+02 -0.15887980827E+02  0.30000000000E+02  0.47000000000E+01 0.  1.
</event>
<event>
 5    1  0.7624361E-002  0.6000000E+02  0.7546771E-02  0.1259629E+00
         11   -1    0    0    0    0  0.00000000000E+00  0.00000000000E+00  0.30000000000E+02  0.30000000000E+02  0.00000000000E+00 0.  1.
        -11   -1    0    0    0    0 -0.00000000000E+00 -0.00000000000E+00 -0.30000000000E+02  0.30000000000E+02  0.00000000000E+00 0. -1.
         23    2    1    2    0    0  0.00000000000E+00  0.00000000000E+00  0.00000000000E+00  0.60000000000E+02  0.60000000000E+02 0.  0.
          5    1    3    3  501    0 -0.27871311438E+00  0.29556755441E+02  0.20568244482E+01  0.30000000000E+02  0.47000000000E+01 0. -1.
         -5    1    3    3    0  501  0.27871311438E+00 -0.29556755441E+02 -0.20568244482E+01  0.30000000000E+02  0.47000000000E+01 0.  1.
</event>
<event>
 5    1  0.7624361E-002  0.6000000E+02  0.7546771E-02  0.1259629E+00
         11   -1    0    0    0    0  0.00000000000E+00  0.00000000000E+00  0.30000000000E+02  0.30000000000E+02  0.00000000000E+00 0. -1.
        -11   -1    0    0    0    0 -0.00000000000E+00 -0.00000000000E+00 -0.30000000000E+02  0.30000000000E+02  0.00000000000E+00 0.  1.
         23    2    1    2    0    0  0.00000000000E+00  0.00000000000E+00  0.00000000000E+00  0.60000000000E+02  0.60000000000E+02 0.  0.
          5    1    3    3  501    0 -0.53009733658E+01  0.26830441351E+02  0.11398995496E+02  0.30000000000E+02  0.47000000000E+01 0. -1.
         -5    1    3    3    0  501  0.53009733658E+01 -0.26830441351E+02 -0.11398995496E+02  0.30000000000E+02  0.47000000000E+01 0.  1.
</event>
<event>
 5    1  0.7624361E-002  0.6000000E+02  0.7546771E-02  0.1259629E+00
         11   -1    0    0    0    0  0.00000000000E+00  0.00000000000E+00  0.30000000000E+02  0.30000000000E+02  0.00000000000E+00 0. -1.
        -11   -1    0    0    0    0 -0.00000000000E+00 -0.00000000000E+00 -0.30000000000E+02  0.30000000000E+02  0.00000000000E+00 0.  1.
         23    2    1    2    0    0  0.00000000000E+00  0.00000000000E+00  0.00000000000E+00  0.60000000000E+02  0.60000000000E+02 0.  0.
          5    1    3    3  501    0  0.49993953839E+01 -0.54197168641E+01 -0.28697433943E+02  0.30000000000E+02  0.47000000000E+01 0.  1.
         -5    1    3    3    0  501 -0.49993953839E+01  0.54197168641E+01  0.28697433943E+02  0.30000000000E+02  0.47000000000E+01 0. -1.
</event>
<event>
 5    1  0.7624361E-002  0.6000000E+02  0.7546771E-02  0.1259629E+00
         11   -1    0    0    0    0  0.00000000000E+00  0.00000000000E+00  0.30000000000E+02  0.30000000000E+02  0.00000000000E+00 0.  1.
        -11   -1    0    0    0    0 -0.00000000000E+00 -0.00000000000E+00 -0.30000000000E+02  0.30000000000E+02  0.00000000000E+00 0. -1.
         23    2    1    2    0    0  0.00000000000E+00  0.00000000000E+00  0.00000000000E+00  0.60000000000E+02  0.60000000000E+02 0.  0.
          5    1    3    3  501    0  0.81811190835E+01  0.14221333686E+02 -0.24672514236E+02  0.30000000000E+02  0.47000000000E+01 0. -1.
         -5    1    3    3    0  501 -0.81811190835E+01 -0.14221333686E+02  0.24672514236E+02  0.30000000000E+02  0.47000000000E+01 0.  1.
</event>
<event>
 5    1  0.7624361E-002  0.6000000E+02  0.7546771E-02  0.1259629E+00
         11   -1    0    0    0    0  0.00000000000E+00  0.00000000000E+00  0.30000000000E+02  0.30000000000E+02  0.00000000000E+00 0.  1.
        -11   -1    0    0    0    0 -0.00000000000E+00 -0.00000000000E+00 -0.30000000000E+02  0.30000000000E+02  0.00000000000E+00 0. -1.
         23    2    1    2    0    0  0.00000000000E+00  0.00000000000E+00  0.00000000000E+00  0.60000000000E+02  0.60000000000E+02 0.  0.
          5    1    3    3  501    0  0.11091755850E+02 -0.25414578793E+02 -0.10439450988E+02  0.30000000000E+02  0.47000000000E+01 0. -1.
         -5    1    3    3    0  501 -0.11091755850E+02  0.25414578793E+02  0.10439450988E+02  0.30000000000E+02  0.47000000000E+01 0.  1.
</event>
<event>
 5    1  0.7624361E-002  0.6000000E+02  0.7546771E-02  0.1259629E+00
         11   -1    0    0    0    0  0.00000000000E+00  0.00000000000E+00  0.30000000000E+02  0.30000000000E+02  0.00000000000E+00 0.  1.
        -11   -1    0    0    0    0 -0.00000000000E+00 -0.00000000000E+00 -0.30000000000E+02  0.30000000000E+02  0.00000000000E+00 0. -1.
         23    2    1    2    0    0  0.00000000000E+00  0.00000000000E+00  0.00000000000E+00  0.60000000000E+02  0.60000000000E+02 0.  0.
          5    1    3    3  501    0 -0.65435594381E+01 -0.24413457232E+02 -0.15462048242E+02  0.30000000000E+02  0.47000000000E+01 0. -1.
         -5    1    3    3    0  501  0.65435594381E+01  0.24413457232E+02  0.15462048242E+02  0.30000000000E+02  0.47000000000E+01 0.  1.
</event>
<event>
 5    1  0.7624361E-002  0.6000000E+02  0.7546771E-02  0.1259629E+00
         11   -1    0    0    0    0  0.00000000000E+00  0.00000000000E+00  0.30000000000E+02  0.30000000000E+02  0.00000000000E+00 0.  1.
        -11   -1    0    0    0    0 -0.00000000000E+00 -0.00000000000E+00 -0.30000000000E+02  0.30000000000E+02  0.00000000000E+00 0. -1.
         23    2    1    2    0    0  0.00000000000E+00  0.00000000000E+00  0.00000000000E+00  0.60000000000E+02  0.60000000000E+02 0.  0.
          5    1    3    3  501    0  0.21310295870E+01 -0.14082392473E+02 -0.25981819319E+02  0.30000000000E+02  0.47000000000E+01 0. -1.
         -5    1    3    3    0  501 -0.21310295870E+01  0.14082392473E+02  0.25981819319E+02  0.30000000000E+02  0.47000000000E+01 0.  1.
</event>
<event>
 5    1  0.7624361E-002  0.6000000E+02  0.7546771E-02  0.1259629E+00
         11   -1    0    0    0    0  0.00000000000E+00  0.00000000000E+00  0.30000000000E+02  0.30000000000E+02  0.00000000000E+00 0.  1.
        -11   -1    0    0    0    0 -0.00000000000E+00 -0.00000000000E+00 -0.30000000000E+02  0.30000000000E+02  0.00000000000E+00 0. -1.
         23    2    1    2    0    0  0.00000000000E+00  0.00000000000E+00  0.00000000000E+00  0.60000000000E+02  0.60000000000E+02 0.  0.
          5    1    3    3  501    0  0.10894233633E+02  0.30049546623E+01 -0.27389704654E+02  0.30000000000E+02  0.47000000000E+01 0. -1.
         -5    1    3    3    0  501 -0.10894233633E+02 -0.30049546623E+01  0.27389704654E+02  0.30000000000E+02  0.47000000000E+01 0.  1.
</event>
<event>
 5    1  0.7624361E-002  0.6000000E+02  0.7546771E-02  0.1259629E+00
         11   -1    0    0    0    0  0.00000000000E+00  0.00000000000E+00  0.30000000000E+02  0.30000000000E+02  0.00000000000E+00 0.  1.
        -11   -1    0    0    0    0 -0.00000000000E+00 -0.00000000000E+00 -0.30000000000E+02  0.30000000000E+02  0.00000000000E+00 0. -1.
         23    2    1    2    0    0  0.00000000000E+00  0.00000000000E+00  0.00000000000E+00  0.60000000000E+02  0.60000000000E+02 0.  0.
          5    1    3    3  501    0  0.17811044981E+02  0.51215380423E+01 -0.23118099506E+02  0.30000000000E+02  0.47000000000E+01 0. -1.
         -5    1    3    3    0  501 -0.17811044981E+02 -0.51215380423E+01  0.23118099506E+02  0.30000000000E+02  0.47000000000E+01 0.  1.
</event>
<event>
 5    1  0.7624361E-002  0.6000000E+02  0.7546771E-02  0.1259629E+00
         11   -1    0    0    0    0  0.00000000000E+00  0.00000000000E+00  0.30000000000E+02  0.30000000000E+02  0.00000000000E+00 0.  1.
        -11   -1    0    0    0    0 -0.00000000000E+00 -0.00000000000E+00 -0.30000000000E+02  0.30000000000E+02  0.00000000000E+00 0. -1.
         23    2    1    2    0    0  0.00000000000E+00  0.00000000000E+00  0.00000000000E+00  0.60000000000E+02  0.60000000000E+02 0.  0.
          5    1    3    3  501    0 -0.63901975177E+01 -0.23700480364E+02 -0.16594053339E+02  0.30000000000E+02  0.47000000000E+01 0. -1.
         -5    1    3    3    0  501  0.63901975177E+01  0.23700480364E+02  0.16594053339E+02  0.30000000000E+02  0.47000000000E+01 0.  1.
</event>
<event>
 5    1  0.7624361E-002  0.6000000E+02  0.7546771E-02  0.1259629E+00
         11   -1    0    0    0    0  0.00000000000E+00  0.00000000000E+00  0.30000000000E+02  0.30000000000E+02  0.00000000000E+00 0.  1.
        -11   -1    0    0    0    0 -0.00000000000E+00 -0.00000000000E+00 -0.30000000000E+02  0.30000000000E+02  0.00000000000E+00 0. -1.
         23    2    1    2    0    0  0.00000000000E+00  0.00000000000E+00  0.00000000000E+00  0.60000000000E+02  0.60000000000E+02 0.  0.
          5    1    3    3  501    0  0.88044845239E+01  0.18970365447E+02 -0.20988479866E+02  0.30000000000E+02  0.47000000000E+01 0. -1.
         -5    1    3    3    0  501 -0.88044845239E+01 -0.18970365447E+02  0.20988479866E+02  0.30000000000E+02  0.47000000000E+01 0.  1.
</event>
<event>
 5    1  0.7624361E-002  0.6000000E+02  0.7546771E-02  0.1259629E+00
         11   -1    0    0    0    0  0.00000000000E+00  0.00000000000E+00  0.30000000000E+02  0.30000000000E+02  0.00000000000E+00 0.  1.
        -11   -1    0    0    0    0 -0.00000000000E+00 -0.00000000000E+00 -0.30000000000E+02  0.30000000000E+02  0.00000000000E+00 0. -1.
         23    2    1    2    0    0  0.00000000000E+00  0.00000000000E+00  0.00000000000E+00  0.60000000000E+02  0.60000000000E+02 0.  0.
          5    1    3    3  501    0  0.90285008364E+01 -0.15232806054E+02 -0.23756215868E+02  0.30000000000E+02  0.47000000000E+01 0. -1.
         -5    1    3    3    0  501 -0.90285008364E+01  0.15232806054E+02  0.23756215868E+02  0.30000000000E+02  0.47000000000E+01 0.  1.
</event>
<event>
 5    1  0.7624361E-002  0.6000000E+02  0.7546771E-02  0.1259629E+00
         11   -1    0    0    0    0  0.00000000000E+00  0.00000000000E+00  0.30000000000E+02  0.30000000000E+02  0.00000000000E+00 0.  1.
        -11   -1    0    0    0    0 -0.00000000000E+00 -0.00000000000E+00 -0.30000000000E+02  0.30000000000E+02  0.00000000000E+00 0. -1.
         23    2    1    2    0    0  0.00000000000E+00  0.00000000000E+00  0.00000000000E+00  0.60000000000E+02  0.60000000000E+02 0.  0.
          5    1    3    3  501    0 -0.19099438315E+02 -0.84177809405E+01 -0.21030036141E+02  0.30000000000E+02  0.47000000000E+01 0. -1.
         -5    1    3    3    0  501  0.19099438315E+02  0.84177809405E+01  0.21030036141E+02  0.30000000000E+02  0.47000000000E+01 0.  1.
</event>
<event>
 5    1  0.7624361E-002  0.6000000E+02  0.7546771E-02  0.1259629E+00
         11   -1    0    0    0    0  0.00000000000E+00  0.00000000000E+00  0.30000000000E+02  0.30000000000E+02  0.00000000000E+00 0.  1.
        -11   -1    0    0    0    0 -0.00000000000E+00 -0.00000000000E+00 -0.30000000000E+02  0.30000000000E+02  0.00000000000E+00 0. -1.
         23    2    1    2    0    0  0.00000000000E+00  0.00000000000E+00  0.00000000000E+00  0.60000000000E+02  0.60000000000E+02 0.  0.
          5    1    3    3  501    0  0.18404340222E+01  0.15252770529E+02 -0.25335267786E+02  0.30000000000E+02  0.47000000000E+01 0. -1.
         -5    1    3    3    0  501 -0.18404340222E+01 -0.15252770529E+02  0.25335267786E+02  0.30000000000E+02  0.47000000000E+01 0.  1.
</event>
<event>
 5    1  0.7624361E-002  0.6000000E+02  0.7546771E-02  0.1259629E+00
         11   -1    0    0    0    0  0.00000000000E+00  0.00000000000E+00  0.30000000000E+02  0.30000000000E+02  0.00000000000E+00 0.  1.
        -11   -1    0    0    0    0 -0.00000000000E+00 -0.00000000000E+00 -0.30000000000E+02  0.30000000000E+02  0.00000000000E+00 0. -1.
         23    2    1    2    0    0  0.00000000000E+00  0.00000000000E+00  0.00000000000E+00  0.60000000000E+02  0.60000000000E+02 0.  0.
          5    1    3    3  501    0  0.11446179368E+01 -0.25359205512E+02 -0.15281051847E+02  0.30000000000E+02  0.47000000000E+01 0. -1.
         -5    1    3    3    0  501 -0.11446179368E+01  0.25359205512E+02  0.15281051847E+02  0.30000000000E+02  0.47000000000E+01 0.  1.
</event>
<event>
 5    1  0.7624361E-002  0.6000000E+02  0.7546771E-02  0.1259629E+00
         11   -1    0    0    0    0  0.00000000000E+00  0.00000000000E+00  0.30000000000E+02  0.30000000000E+02  0.00000000000E+00 0.  1.
        -11   -1    0    0    0    0 -0.00000000000E+00 -0.00000000000E+00 -0.30000000000E+02  0.30000000000E+02  0.00000000000E+00 0. -1.
         23    2    1    2    0    0  0.00000000000E+00  0.00000000000E+00  0.00000000000E+00  0.60000000000E+02  0.60000000000E+02 0.  0.
          5    1    3    3  501    0 -0.18672977223E+02 -0.12364798643E+02 -0.19399527729E+02  0.30000000000E+02  0.47000000000E+01 0. -1.
         -5    1    3    3    0  501  0.18672977223E+02  0.12364798643E+02  0.19399527729E+02  0.30000000000E+02  0.47000000000E+01 0.  1.
</event>
<event>
 5    1  0.7624361E-002  0.6000000E+02  0.7546771E-02  0.1259629E+00
         11   -1    0    0    0    0  0.00000000000E+00  0.00000000000E+00  0.30000000000E+02  0.30000000000E+02  0.00000000000E+00 0.  1.
        -11   -1    0    0    0    0 -0.00000000000E+00 -0.00000000000E+00 -0.30000000000E+02  0.30000000000E+02  0.00000000000E+00 0. -1.
         23    2    1    2    0    0  0.00000000000E+00  0.00000000000E+00  0.00000000000E+00  0.60000000000E+02  0.60000000000E+02 0.  0.
          5    1    3    3  501    0 -0.46777226411E+01  0.28152317583E+02 -0.79671780195E+01  0.30000000000E+02  0.47000000000E+01 0. -1.
         -5    1    3    3    0  501  0.46777226411E+01 -0.28152317583E+02  0.79671780195E+01  0.30000000000E+02  0.47000000000E+01 0.  1.
</event>
<event>
 5    1  0.7624361E-002  0.6000000E+02  0.7546771E-02  0.1259629E+00
         11   -1    0    0    0    0  0.00000000000E+00  0.00000000000E+00  0.30000000000E+02  0.30000000000E+02  0.00000000000E+00 0.  1.
        -11   -1    0    0    0    0 -0.00000000000E+00 -0.00000000000E+00 -0.30000000000E+02  0.30000000000E+02  0.00000000000E+00 0. -1.
         23    2    1    2    0    0  0.00000000000E+00  0.00000000000E+00  0.00000000000E+00  0.60000000000E+02  0.60000000000E+02 0.  0.
          5    1    3    3  501    0 -0.22571036312E+02 -0.94977320031E+01 -0.16680869479E+02  0.30000000000E+02  0.47000000000E+01 0. -1.
         -5    1    3    3    0  501  0.22571036312E+02  0.94977320031E+01  0.16680869479E+02  0.30000000000E+02  0.47000000000E+01 0.  1.
</event>
<event>
 5    1  0.7624361E-002  0.6000000E+02  0.7546771E-02  0.1259629E+00
         11   -1    0    0    0    0  0.00000000000E+00  0.00000000000E+00  0.30000000000E+02  0.30000000000E+02  0.00000000000E+00 0.  1.
        -11   -1    0    0    0    0 -0.00000000000E+00 -0.00000000000E+00 -0.30000000000E+02  0.30000000000E+02  0.00000000000E+00 0. -1.
         23    2    1    2    0    0  0.00000000000E+00  0.00000000000E+00  0.00000000000E+00  0.60000000000E+02  0.60000000000E+02 0.  0.
          5    1    3    3  501    0 -0.14263633484E+02 -0.68932055794E+01 -0.25038819394E+02  0.30000000000E+02  0.47000000000E+01 0. -1.
         -5    1    3    3    0  501  0.14263633484E+02  0.68932055794E+01  0.25038819394E+02  0.30000000000E+02  0.47000000000E+01 0.  1.
</event>
<event>
 5    1  0.7624361E-002  0.6000000E+02  0.7546771E-02  0.1259629E+00
         11   -1    0    0    0    0  0.00000000000E+00  0.00000000000E+00  0.30000000000E+02  0.30000000000E+02  0.00000000000E+00 0.  1.
        -11   -1    0    0    0    0 -0.00000000000E+00 -0.00000000000E+00 -0.30000000000E+02  0.30000000000E+02  0.00000000000E+00 0. -1.
         23    2    1    2    0    0  0.00000000000E+00  0.00000000000E+00  0.00000000000E+00  0.60000000000E+02  0.60000000000E+02 0.  0.
          5    1    3    3  501    0  0.19082555234E+02  0.20061985423E+02 -0.10549067571E+02  0.30000000000E+02  0.47000000000E+01 0.  1.
         -5    1    3    3    0  501 -0.19082555234E+02 -0.20061985423E+02  0.10549067571E+02  0.30000000000E+02  0.47000000000E+01 0. -1.
</event>
<event>
 5    1  0.7624361E-002  0.6000000E+02  0.7546771E-02  0.1259629E+00
         11   -1    0    0    0    0  0.00000000000E+00  0.00000000000E+00  0.30000000000E+02  0.30000000000E+02  0.00000000000E+00 0. -1.
        -11   -1    0    0    0    0 -0.00000000000E+00 -0.00000000000E+00 -0.30000000000E+02  0.30000000000E+02  0.00000000000E+00 0.  1.
         23    2    1    2    0    0  0.00000000000E+00  0.00000000000E+00  0.00000000000E+00  0.60000000000E+02  0.60000000000E+02 0.  0.
          5    1    3    3  501    0  0.28739824969E+02  0.26964936447E+01  0.66829172336E+01  0.30000000000E+02  0.47000000000E+01 0.  1.
         -5    1    3    3    0  501 -0.28739824969E+02 -0.26964936447E+01 -0.66829172336E+01  0.30000000000E+02  0.47000000000E+01 0. -1.
</event>
<event>
 5    1  0.7624361E-002  0.6000000E+02  0.7546771E-02  0.1259629E+00
         11   -1    0    0    0    0  0.00000000000E+00  0.00000000000E+00  0.30000000000E+02  0.30000000000E+02  0.00000000000E+00 0.  1.
        -11   -1    0    0    0    0 -0.00000000000E+00 -0.00000000000E+00 -0.30000000000E+02  0.30000000000E+02  0.00000000000E+00 0. -1.
         23    2    1    2    0    0  0.00000000000E+00  0.00000000000E+00  0.00000000000E+00  0.60000000000E+02  0.60000000000E+02 0.  0.
          5    1    3    3  501    0 -0.36072332744E+01 -0.12400308169E+02 -0.26667025057E+02  0.30000000000E+02  0.47000000000E+01 0. -1.
         -5    1    3    3    0  501  0.36072332744E+01  0.12400308169E+02  0.26667025057E+02  0.30000000000E+02  0.47000000000E+01 0.  1.
</event>
<event>
 5    1  0.7624361E-002  0.6000000E+02  0.7546771E-02  0.1259629E+00
         11   -1    0    0    0    0  0.00000000000E+00  0.00000000000E+00  0.30000000000E+02  0.30000000000E+02  0.00000000000E+00 0. -1.
        -11   -1    0    0    0    0 -0.00000000000E+00 -0.00000000000E+00 -0.30000000000E+02  0.30000000000E+02  0.00000000000E+00 0.  1.
         23    2    1    2    0    0  0.00000000000E+00  0.00000000000E+00  0.00000000000E+00  0.60000000000E+02  0.60000000000E+02 0.  0.
          5    1    3    3  501    0  0.11235742052E+02  0.10465605386E+02 -0.25340465751E+02  0.30000000000E+02  0.47000000000E+01 0.  1.
         -5    1    3    3    0  501 -0.11235742052E+02 -0.10465605386E+02  0.25340465751E+02  0.30000000000E+02  0.47000000000E+01 0. -1.
</event>
<event>
 5    1  0.7624361E-002  0.6000000E+02  0.7546771E-02  0.1259629E+00
         11   -1    0    0    0    0  0.00000000000E+00  0.00000000000E+00  0.30000000000E+02  0.30000000000E+02  0.00000000000E+00 0. -1.
        -11   -1    0    0    0    0 -0.00000000000E+00 -0.00000000000E+00 -0.30000000000E+02  0.30000000000E+02  0.00000000000E+00 0.  1.
         23    2    1    2    0    0  0.00000000000E+00  0.00000000000E+00  0.00000000000E+00  0.60000000000E+02  0.60000000000E+02 0.  0.
          5    1    3    3  501    0  0.10848214970E+02  0.18520802913E+02  0.20425623403E+02  0.30000000000E+02  0.47000000000E+01 0. -1.
         -5    1    3    3    0  501 -0.10848214970E+02 -0.18520802913E+02 -0.20425623403E+02  0.30000000000E+02  0.47000000000E+01 0.  1.
</event>
<event>
 5    1  0.7624361E-002  0.6000000E+02  0.7546771E-02  0.1259629E+00
         11   -1    0    0    0    0  0.00000000000E+00  0.00000000000E+00  0.30000000000E+02  0.30000000000E+02  0.00000000000E+00 0.  1.
        -11   -1    0    0    0    0 -0.00000000000E+00 -0.00000000000E+00 -0.30000000000E+02  0.30000000000E+02  0.00000000000E+00 0. -1.
         23    2    1    2    0    0  0.00000000000E+00  0.00000000000E+00  0.00000000000E+00  0.60000000000E+02  0.60000000000E+02 0.  0.
          5    1    3    3  501    0 -0.87004734322E+01 -0.27364508232E+02  0.73072191213E+01  0.30000000000E+02  0.47000000000E+01 0.  1.
         -5    1    3    3    0  501  0.87004734322E+01  0.27364508232E+02 -0.73072191213E+01  0.30000000000E+02  0.47000000000E+01 0. -1.
</event>
<event>
 5    1  0.7624361E-002  0.6000000E+02  0.7546771E-02  0.1259629E+00
         11   -1    0    0    0    0  0.00000000000E+00  0.00000000000E+00  0.30000000000E+02  0.30000000000E+02  0.00000000000E+00 0.  1.
        -11   -1    0    0    0    0 -0.00000000000E+00 -0.00000000000E+00 -0.30000000000E+02  0.30000000000E+02  0.00000000000E+00 0. -1.
         23    2    1    2    0    0  0.00000000000E+00  0.00000000000E+00  0.00000000000E+00  0.60000000000E+02  0.60000000000E+02 0.  0.
          5    1    3    3  501    0 -0.13348110884E+02  0.57359983029E+01 -0.25823172913E+02  0.30000000000E+02  0.47000000000E+01 0. -1.
         -5    1    3    3    0  501  0.13348110884E+02 -0.57359983029E+01  0.25823172913E+02  0.30000000000E+02  0.47000000000E+01 0.  1.
</event>
<event>
 5    1  0.7624361E-002  0.6000000E+02  0.7546771E-02  0.1259629E+00
         11   -1    0    0    0    0  0.00000000000E+00  0.00000000000E+00  0.30000000000E+02  0.30000000000E+02  0.00000000000E+00 0.  1.
        -11   -1    0    0    0    0 -0.00000000000E+00 -0.00000000000E+00 -0.30000000000E+02  0.30000000000E+02  0.00000000000E+00 0. -1.
         23    2    1    2    0    0  0.00000000000E+00  0.00000000000E+00  0.00000000000E+00  0.60000000000E+02  0.60000000000E+02 0.  0.
          5    1    3    3  501    0 -0.23570434678E+02 -0.16185737648E+02  0.77695885266E+01  0.30000000000E+02  0.47000000000E+01 0.  1.
         -5    1    3    3    0  501  0.23570434678E+02  0.16185737648E+02 -0.77695885266E+01  0.30000000000E+02  0.47000000000E+01 0. -1.
</event>
<event>
 5    1  0.7624361E-002  0.6000000E+02  0.7546771E-02  0.1259629E+00
         11   -1    0    0    0    0  0.00000000000E+00  0.00000000000E+00  0.30000000000E+02  0.30000000000E+02  0.00000000000E+00 0.  1.
        -11   -1    0    0    0    0 -0.00000000000E+00 -0.00000000000E+00 -0.30000000000E+02  0.30000000000E+02  0.00000000000E+00 0. -1.
         23    2    1    2    0    0  0.00000000000E+00  0.00000000000E+00  0.00000000000E+00  0.60000000000E+02  0.60000000000E+02 0.  0.
          5    1    3    3  501    0 -0.12736018557E+02 -0.19335425119E+02  0.18489055324E+02  0.30000000000E+02  0.47000000000E+01 0. -1.
         -5    1    3    3    0  501  0.12736018557E+02  0.19335425119E+02 -0.18489055324E+02  0.30000000000E+02  0.47000000000E+01 0.  1.
</event>
<event>
 5    1  0.7624361E-002  0.6000000E+02  0.7546771E-02  0.1259629E+00
         11   -1    0    0    0    0  0.00000000000E+00  0.00000000000E+00  0.30000000000E+02  0.30000000000E+02  0.00000000000E+00 0.  1.
        -11   -1    0    0    0    0 -0.00000000000E+00 -0.00000000000E+00 -0.30000000000E+02  0.30000000000E+02  0.00000000000E+00 0. -1.
         23    2    1    2    0    0  0.00000000000E+00  0.00000000000E+00  0.00000000000E+00  0.60000000000E+02  0.60000000000E+02 0.  0.
          5    1    3    3  501    0  0.79956696151E+01 -0.47339324087E+01 -0.28134838748E+02  0.30000000000E+02  0.47000000000E+01 0. -1.
         -5    1    3    3    0  501 -0.79956696151E+01  0.47339324087E+01  0.28134838748E+02  0.30000000000E+02  0.47000000000E+01 0.  1.
</event>
<event>
 5    1  0.7624361E-002  0.6000000E+02  0.7546771E-02  0.1259629E+00
         11   -1    0    0    0    0  0.00000000000E+00  0.00000000000E+00  0.30000000000E+02  0.30000000000E+02  0.00000000000E+00 0.  1.
        -11   -1    0    0    0    0 -0.00000000000E+00 -0.00000000000E+00 -0.30000000000E+02  0.30000000000E+02  0.00000000000E+00 0. -1.
         23    2    1    2    0    0  0.00000000000E+00  0.00000000000E+00  0.00000000000E+00  0.60000000000E+02  0.60000000000E+02 0.  0.
          5    1    3    3  501    0  0.84363563631E+00 -0.24432645898E+02 -0.16740492626E+02  0.30000000000E+02  0.47000000000E+01 0. -1.
         -5    1    3    3    0  501 -0.84363563631E+00  0.24432645898E+02  0.16740492626E+02  0.30000000000E+02  0.47000000000E+01 0.  1.
</event>
<event>
 5    1  0.7624361E-002  0.6000000E+02  0.7546771E-02  0.1259629E+00
         11   -1    0    0    0    0  0.00000000000E+00  0.00000000000E+00  0.30000000000E+02  0.30000000000E+02  0.00000000000E+00 0.  1.
        -11   -1    0    0    0    0 -0.00000000000E+00 -0.00000000000E+00 -0.30000000000E+02  0.30000000000E+02  0.00000000000E+00 0. -1.
         23    2    1    2    0    0  0.00000000000E+00  0.00000000000E+00  0.00000000000E+00  0.60000000000E+02  0.60000000000E+02 0.  0.
          5    1    3    3  501    0  0.23919136008E+02  0.12823192674E+02 -0.11889098464E+02  0.30000000000E+02  0.47000000000E+01 0. -1.
         -5    1    3    3    0  501 -0.23919136008E+02 -0.12823192674E+02  0.11889098464E+02  0.30000000000E+02  0.47000000000E+01 0.  1.
</event>
<event>
 5    1  0.7624361E-002  0.6000000E+02  0.7546771E-02  0.1259629E+00
         11   -1    0    0    0    0  0.00000000000E+00  0.00000000000E+00  0.30000000000E+02  0.30000000000E+02  0.00000000000E+00 0.  1.
        -11   -1    0    0    0    0 -0.00000000000E+00 -0.00000000000E+00 -0.30000000000E+02  0.30000000000E+02  0.00000000000E+00 0. -1.
         23    2    1    2    0    0  0.00000000000E+00  0.00000000000E+00  0.00000000000E+00  0.60000000000E+02  0.60000000000E+02 0.  0.
          5    1    3    3  501    0 -0.26960374333E+02 -0.34615419182E+01  0.11792622414E+02  0.30000000000E+02  0.47000000000E+01 0. -1.
         -5    1    3    3    0  501  0.26960374333E+02  0.34615419182E+01 -0.11792622414E+02  0.30000000000E+02  0.47000000000E+01 0.  1.
</event>
<event>
 5    1  0.7624361E-002  0.6000000E+02  0.7546771E-02  0.1259629E+00
         11   -1    0    0    0    0  0.00000000000E+00  0.00000000000E+00  0.30000000000E+02  0.30000000000E+02  0.00000000000E+00 0.  1.
        -11   -1    0    0    0    0 -0.00000000000E+00 -0.00000000000E+00 -0.30000000000E+02  0.30000000000E+02  0.00000000000E+00 0. -1.
         23    2    1    2    0    0  0.00000000000E+00  0.00000000000E+00  0.00000000000E+00  0.60000000000E+02  0.60000000000E+02 0.  0.
          5    1    3    3  501    0 -0.12963903239E+02 -0.20005254495E+02  0.17596505488E+02  0.30000000000E+02  0.47000000000E+01 0. -1.
         -5    1    3    3    0  501  0.12963903239E+02  0.20005254495E+02 -0.17596505488E+02  0.30000000000E+02  0.47000000000E+01 0.  1.
</event>
<event>
 5    1  0.7624361E-002  0.6000000E+02  0.7546771E-02  0.1259629E+00
         11   -1    0    0    0    0  0.00000000000E+00  0.00000000000E+00  0.30000000000E+02  0.30000000000E+02  0.00000000000E+00 0.  1.
        -11   -1    0    0    0    0 -0.00000000000E+00 -0.00000000000E+00 -0.30000000000E+02  0.30000000000E+02  0.00000000000E+00 0. -1.
         23    2    1    2    0    0  0.00000000000E+00  0.00000000000E+00  0.00000000000E+00  0.60000000000E+02  0.60000000000E+02 0.  0.
          5    1    3    3  501    0 -0.28519232141E+02 -0.14677434170E+01  0.78999447702E+01  0.30000000000E+02  0.47000000000E+01 0. -1.
         -5    1    3    3    0  501  0.28519232141E+02  0.14677434170E+01 -0.78999447702E+01  0.30000000000E+02  0.47000000000E+01 0.  1.
</event>
<event>
 5    1  0.7624361E-002  0.6000000E+02  0.7546771E-02  0.1259629E+00
         11   -1    0    0    0    0  0.00000000000E+00  0.00000000000E+00  0.30000000000E+02  0.30000000000E+02  0.00000000000E+00 0.  1.
        -11   -1    0    0    0    0 -0.00000000000E+00 -0.00000000000E+00 -0.30000000000E+02  0.30000000000E+02  0.00000000000E+00 0. -1.
         23    2    1    2    0    0  0.00000000000E+00  0.00000000000E+00  0.00000000000E+00  0.60000000000E+02  0.60000000000E+02 0.  0.
          5    1    3    3  501    0 -0.50211139225E+01  0.13562489949E+02 -0.25860341865E+02  0.30000000000E+02  0.47000000000E+01 0. -1.
         -5    1    3    3    0  501  0.50211139225E+01 -0.13562489949E+02  0.25860341865E+02  0.30000000000E+02  0.47000000000E+01 0.  1.
</event>
<event>
 5    1  0.7624361E-002  0.6000000E+02  0.7546771E-02  0.1259629E+00
         11   -1    0    0    0    0  0.00000000000E+00  0.00000000000E+00  0.30000000000E+02  0.30000000000E+02  0.00000000000E+00 0.  1.
        -11   -1    0    0    0    0 -0.00000000000E+00 -0.00000000000E+00 -0.30000000000E+02  0.30000000000E+02  0.00000000000E+00 0. -1.
         23    2    1    2    0    0  0.00000000000E+00  0.00000000000E+00  0.00000000000E+00  0.60000000000E+02  0.60000000000E+02 0.  0.
          5    1    3    3  501    0  0.27295908606E+02  0.90497818681E+01 -0.71375641145E+01  0.30000000000E+02  0.47000000000E+01 0. -1.
         -5    1    3    3    0  501 -0.27295908606E+02 -0.90497818681E+01  0.71375641145E+01  0.30000000000E+02  0.47000000000E+01 0.  1.
</event>
<event>
 5    1  0.7624361E-002  0.6000000E+02  0.7546771E-02  0.1259629E+00
         11   -1    0    0    0    0  0.00000000000E+00  0.00000000000E+00  0.30000000000E+02  0.30000000000E+02  0.00000000000E+00 0.  1.
        -11   -1    0    0    0    0 -0.00000000000E+00 -0.00000000000E+00 -0.30000000000E+02  0.30000000000E+02  0.00000000000E+00 0. -1.
         23    2    1    2    0    0  0.00000000000E+00  0.00000000000E+00  0.00000000000E+00  0.60000000000E+02  0.60000000000E+02 0.  0.
          5    1    3    3  501    0  0.17286178313E+02  0.23341448498E+02 -0.58544702008E+01  0.30000000000E+02  0.47000000000E+01 0. -1.
         -5    1    3    3    0  501 -0.17286178313E+02 -0.23341448498E+02  0.58544702008E+01  0.30000000000E+02  0.47000000000E+01 0.  1.
</event>
<event>
 5    1  0.7624361E-002  0.6000000E+02  0.7546771E-02  0.1259629E+00
         11   -1    0    0    0    0  0.00000000000E+00  0.00000000000E+00  0.30000000000E+02  0.30000000000E+02  0.00000000000E+00 0.  1.
        -11   -1    0    0    0    0 -0.00000000000E+00 -0.00000000000E+00 -0.30000000000E+02  0.30000000000E+02  0.00000000000E+00 0. -1.
         23    2    1    2    0    0  0.00000000000E+00  0.00000000000E+00  0.00000000000E+00  0.60000000000E+02  0.60000000000E+02 0.  0.
          5    1    3    3  501    0 -0.73066739044E+01 -0.20597754754E+02 -0.20006374373E+02  0.30000000000E+02  0.47000000000E+01 0. -1.
         -5    1    3    3    0  501  0.73066739044E+01  0.20597754754E+02  0.20006374373E+02  0.30000000000E+02  0.47000000000E+01 0.  1.
</event>
<event>
 5    1  0.7624361E-002  0.6000000E+02  0.7546771E-02  0.1259629E+00
         11   -1    0    0    0    0  0.00000000000E+00  0.00000000000E+00  0.30000000000E+02  0.30000000000E+02  0.00000000000E+00 0.  1.
        -11   -1    0    0    0    0 -0.00000000000E+00 -0.00000000000E+00 -0.30000000000E+02  0.30000000000E+02  0.00000000000E+00 0. -1.
         23    2    1    2    0    0  0.00000000000E+00  0.00000000000E+00  0.00000000000E+00  0.60000000000E+02  0.60000000000E+02 0.  0.
          5    1    3    3  501    0 -0.14714595447E+02 -0.94542123155E+01 -0.23916700239E+02  0.30000000000E+02  0.47000000000E+01 0. -1.
         -5    1    3    3    0  501  0.14714595447E+02  0.94542123155E+01  0.23916700239E+02  0.30000000000E+02  0.47000000000E+01 0.  1.
</event>
<event>
 5    1  0.7624361E-002  0.6000000E+02  0.7546771E-02  0.1259629E+00
         11   -1    0    0    0    0  0.00000000000E+00  0.00000000000E+00  0.30000000000E+02  0.30000000000E+02  0.00000000000E+00 0.  1.
        -11   -1    0    0    0    0 -0.00000000000E+00 -0.00000000000E+00 -0.30000000000E+02  0.30000000000E+02  0.00000000000E+00 0. -1.
         23    2    1    2    0    0  0.00000000000E+00  0.00000000000E+00  0.00000000000E+00  0.60000000000E+02  0.60000000000E+02 0.  0.
          5    1    3    3  501    0  0.10406578435E+02  0.15052188594E+02 -0.23303320446E+02  0.30000000000E+02  0.47000000000E+01 0. -1.
         -5    1    3    3    0  501 -0.10406578435E+02 -0.15052188594E+02  0.23303320446E+02  0.30000000000E+02  0.47000000000E+01 0.  1.
</event>
<event>
 5    1  0.7624361E-002  0.6000000E+02  0.7546771E-02  0.1259629E+00
         11   -1    0    0    0    0  0.00000000000E+00  0.00000000000E+00  0.30000000000E+02  0.30000000000E+02  0.00000000000E+00 0.  1.
        -11   -1    0    0    0    0 -0.00000000000E+00 -0.00000000000E+00 -0.30000000000E+02  0.30000000000E+02  0.00000000000E+00 0. -1.
         23    2    1    2    0    0  0.00000000000E+00  0.00000000000E+00  0.00000000000E+00  0.60000000000E+02  0.60000000000E+02 0.  0.
          5    1    3    3  501    0  0.31978445528E+01  0.27440493762E+02  0.10709952956E+02  0.30000000000E+02  0.47000000000E+01 0. -1.
         -5    1    3    3    0  501 -0.31978445528E+01 -0.27440493762E+02 -0.10709952956E+02  0.30000000000E+02  0.47000000000E+01 0.  1.
</event>
<event>
 5    1  0.7624361E-002  0.6000000E+02  0.7546771E-02  0.1259629E+00
         11   -1    0    0    0    0  0.00000000000E+00  0.00000000000E+00  0.30000000000E+02  0.30000000000E+02  0.00000000000E+00 0.  1.
        -11   -1    0    0    0    0 -0.00000000000E+00 -0.00000000000E+00 -0.30000000000E+02  0.30000000000E+02  0.00000000000E+00 0. -1.
         23    2    1    2    0    0  0.00000000000E+00  0.00000000000E+00  0.00000000000E+00  0.60000000000E+02  0.60000000000E+02 0.  0.
          5    1    3    3  501    0  0.73245048440E+01 -0.18767638830E+01 -0.28648549459E+02  0.30000000000E+02  0.47000000000E+01 0. -1.
         -5    1    3    3    0  501 -0.73245048440E+01  0.18767638830E+01  0.28648549459E+02  0.30000000000E+02  0.47000000000E+01 0.  1.
</event>
<event>
 5    1  0.7624361E-002  0.6000000E+02  0.7546771E-02  0.1259629E+00
         11   -1    0    0    0    0  0.00000000000E+00  0.00000000000E+00  0.30000000000E+02  0.30000000000E+02  0.00000000000E+00 0.  1.
        -11   -1    0    0    0    0 -0.00000000000E+00 -0.00000000000E+00 -0.30000000000E+02  0.30000000000E+02  0.00000000000E+00 0. -1.
         23    2    1    2    0    0  0.00000000000E+00  0.00000000000E+00  0.00000000000E+00  0.60000000000E+02  0.60000000000E+02 0.  0.
          5    1    3    3  501    0  0.84943092847E+01 -0.22533379052E+02 -0.17262778985E+02  0.30000000000E+02  0.47000000000E+01 0. -1.
         -5    1    3    3    0  501 -0.84943092847E+01  0.22533379052E+02  0.17262778985E+02  0.30000000000E+02  0.47000000000E+01 0.  1.
</event>
<event>
 5    1  0.7624361E-002  0.6000000E+02  0.7546771E-02  0.1259629E+00
         11   -1    0    0    0    0  0.00000000000E+00  0.00000000000E+00  0.30000000000E+02  0.30000000000E+02  0.00000000000E+00 0.  1.
        -11   -1    0    0    0    0 -0.00000000000E+00 -0.00000000000E+00 -0.30000000000E+02  0.30000000000E+02  0.00000000000E+00 0. -1.
         23    2    1    2    0    0  0.00000000000E+00  0.00000000000E+00  0.00000000000E+00  0.60000000000E+02  0.60000000000E+02 0.  0.
          5    1    3    3  501    0 -0.13478442678E+02  0.23085145478E+02 -0.12779579071E+02  0.30000000000E+02  0.47000000000E+01 0. -1.
         -5    1    3    3    0  501  0.13478442678E+02 -0.23085145478E+02  0.12779579071E+02  0.30000000000E+02  0.47000000000E+01 0.  1.
</event>
<event>
 5    1  0.7624361E-002  0.6000000E+02  0.7546771E-02  0.1259629E+00
         11   -1    0    0    0    0  0.00000000000E+00  0.00000000000E+00  0.30000000000E+02  0.30000000000E+02  0.00000000000E+00 0.  1.
        -11   -1    0    0    0    0 -0.00000000000E+00 -0.00000000000E+00 -0.30000000000E+02  0.30000000000E+02  0.00000000000E+00 0. -1.
         23    2    1    2    0    0  0.00000000000E+00  0.00000000000E+00  0.00000000000E+00  0.60000000000E+02  0.60000000000E+02 0.  0.
          5    1    3    3  501    0 -0.26701728613E+02  0.12770025324E+02  0.13616689423E+01  0.30000000000E+02  0.47000000000E+01 0. -1.
         -5    1    3    3    0  501  0.26701728613E+02 -0.12770025324E+02 -0.13616689423E+01  0.30000000000E+02  0.47000000000E+01 0.  1.
</event>
<event>
 5    1  0.7624361E-002  0.6000000E+02  0.7546771E-02  0.1259629E+00
         11   -1    0    0    0    0  0.00000000000E+00  0.00000000000E+00  0.30000000000E+02  0.30000000000E+02  0.00000000000E+00 0.  1.
        -11   -1    0    0    0    0 -0.00000000000E+00 -0.00000000000E+00 -0.30000000000E+02  0.30000000000E+02  0.00000000000E+00 0. -1.
         23    2    1    2    0    0  0.00000000000E+00  0.00000000000E+00  0.00000000000E+00  0.60000000000E+02  0.60000000000E+02 0.  0.
          5    1    3    3  501    0 -0.42624871303E+01 -0.28978575408E+02  0.44702763649E+01  0.30000000000E+02  0.47000000000E+01 0. -1.
         -5    1    3    3    0  501  0.42624871303E+01  0.28978575408E+02 -0.44702763649E+01  0.30000000000E+02  0.47000000000E+01 0.  1.
</event>
<event>
 5    1  0.7624361E-002  0.6000000E+02  0.7546771E-02  0.1259629E+00
         11   -1    0    0    0    0  0.00000000000E+00  0.00000000000E+00  0.30000000000E+02  0.30000000000E+02  0.00000000000E+00 0.  1.
        -11   -1    0    0    0    0 -0.00000000000E+00 -0.00000000000E+00 -0.30000000000E+02  0.30000000000E+02  0.00000000000E+00 0. -1.
         23    2    1    2    0    0  0.00000000000E+00  0.00000000000E+00  0.00000000000E+00  0.60000000000E+02  0.60000000000E+02 0.  0.
          5    1    3    3  501    0  0.18770106583E+02  0.13205023705E+02 -0.18740876389E+02  0.30000000000E+02  0.47000000000E+01 0. -1.
         -5    1    3    3    0  501 -0.18770106583E+02 -0.13205023705E+02  0.18740876389E+02  0.30000000000E+02  0.47000000000E+01 0.  1.
</event>
<event>
 5    1  0.7624361E-002  0.6000000E+02  0.7546771E-02  0.1259629E+00
         11   -1    0    0    0    0  0.00000000000E+00  0.00000000000E+00  0.30000000000E+02  0.30000000000E+02  0.00000000000E+00 0.  1.
        -11   -1    0    0    0    0 -0.00000000000E+00 -0.00000000000E+00 -0.30000000000E+02  0.30000000000E+02  0.00000000000E+00 0. -1.
         23    2    1    2    0    0  0.00000000000E+00  0.00000000000E+00  0.00000000000E+00  0.60000000000E+02  0.60000000000E+02 0.  0.
          5    1    3    3  501    0  0.13546766545E+02  0.57671809621E+01 -0.25712540519E+02  0.30000000000E+02  0.47000000000E+01 0. -1.
         -5    1    3    3    0  501 -0.13546766545E+02 -0.57671809621E+01  0.25712540519E+02  0.30000000000E+02  0.47000000000E+01 0.  1.
</event>
<event>
 5    1  0.7624361E-002  0.6000000E+02  0.7546771E-02  0.1259629E+00
         11   -1    0    0    0    0  0.00000000000E+00  0.00000000000E+00  0.30000000000E+02  0.30000000000E+02  0.00000000000E+00 0.  1.
        -11   -1    0    0    0    0 -0.00000000000E+00 -0.00000000000E+00 -0.30000000000E+02  0.30000000000E+02  0.00000000000E+00 0. -1.
         23    2    1    2    0    0  0.00000000000E+00  0.00000000000E+00  0.00000000000E+00  0.60000000000E+02  0.60000000000E+02 0.  0.
          5    1    3    3  501    0  0.83977273315E+01 -0.26737940519E+02 -0.96161693240E+01  0.30000000000E+02  0.47000000000E+01 0. -1.
         -5    1    3    3    0  501 -0.83977273315E+01  0.26737940519E+02  0.96161693240E+01  0.30000000000E+02  0.47000000000E+01 0.  1.
</event>
<event>
 5    1  0.7624361E-002  0.6000000E+02  0.7546771E-02  0.1259629E+00
         11   -1    0    0    0    0  0.00000000000E+00  0.00000000000E+00  0.30000000000E+02  0.30000000000E+02  0.00000000000E+00 0.  1.
        -11   -1    0    0    0    0 -0.00000000000E+00 -0.00000000000E+00 -0.30000000000E+02  0.30000000000E+02  0.00000000000E+00 0. -1.
         23    2    1    2    0    0  0.00000000000E+00  0.00000000000E+00  0.00000000000E+00  0.60000000000E+02  0.60000000000E+02 0.  0.
          5    1    3    3  501    0 -0.16571702557E+02 -0.59514007768E+00 -0.24554724243E+02  0.30000000000E+02  0.47000000000E+01 0. -1.
         -5    1    3    3    0  501  0.16571702557E+02  0.59514007768E+00  0.24554724243E+02  0.30000000000E+02  0.47000000000E+01 0.  1.
</event>
<event>
 5    1  0.7624361E-002  0.6000000E+02  0.7546771E-02  0.1259629E+00
         11   -1    0    0    0    0  0.00000000000E+00  0.00000000000E+00  0.30000000000E+02  0.30000000000E+02  0.00000000000E+00 0.  1.
        -11   -1    0    0    0    0 -0.00000000000E+00 -0.00000000000E+00 -0.30000000000E+02  0.30000000000E+02  0.00000000000E+00 0. -1.
         23    2    1    2    0    0  0.00000000000E+00  0.00000000000E+00  0.00000000000E+00  0.60000000000E+02  0.60000000000E+02 0.  0.
          5    1    3    3  501    0  0.26722005989E+02 -0.43079607984E+01 -0.12053458827E+02  0.30000000000E+02  0.47000000000E+01 0. -1.
         -5    1    3    3    0  501 -0.26722005989E+02  0.43079607984E+01  0.12053458827E+02  0.30000000000E+02  0.47000000000E+01 0.  1.
</event>
<event>
 5    1  0.7624361E-002  0.6000000E+02  0.7546771E-02  0.1259629E+00
         11   -1    0    0    0    0  0.00000000000E+00  0.00000000000E+00  0.30000000000E+02  0.30000000000E+02  0.00000000000E+00 0. -1.
        -11   -1    0    0    0    0 -0.00000000000E+00 -0.00000000000E+00 -0.30000000000E+02  0.30000000000E+02  0.00000000000E+00 0.  1.
         23    2    1    2    0    0  0.00000000000E+00  0.00000000000E+00  0.00000000000E+00  0.60000000000E+02  0.60000000000E+02 0.  0.
          5    1    3    3  501    0 -0.16909162002E+02  0.23850754645E+02  0.48095470921E+01  0.30000000000E+02  0.47000000000E+01 0.  1.
         -5    1    3    3    0  501  0.16909162002E+02 -0.23850754645E+02 -0.48095470921E+01  0.30000000000E+02  0.47000000000E+01 0. -1.
</event>
<event>
 5    1  0.7624361E-002  0.6000000E+02  0.7546771E-02  0.1259629E+00
         11   -1    0    0    0    0  0.00000000000E+00  0.00000000000E+00  0.30000000000E+02  0.30000000000E+02  0.00000000000E+00 0. -1.
        -11   -1    0    0    0    0 -0.00000000000E+00 -0.00000000000E+00 -0.30000000000E+02  0.30000000000E+02  0.00000000000E+00 0.  1.
         23    2    1    2    0    0  0.00000000000E+00  0.00000000000E+00  0.00000000000E+00  0.60000000000E+02  0.60000000000E+02 0.  0.
          5    1    3    3  501    0  0.97909487222E+01  0.29966399835E+01 -0.27804090921E+02  0.30000000000E+02  0.47000000000E+01 0.  1.
         -5    1    3    3    0  501 -0.97909487222E+01 -0.29966399835E+01  0.27804090921E+02  0.30000000000E+02  0.47000000000E+01 0. -1.
</event>
<event>
 5    1  0.7624361E-002  0.6000000E+02  0.7546771E-02  0.1259629E+00
         11   -1    0    0    0    0  0.00000000000E+00  0.00000000000E+00  0.30000000000E+02  0.30000000000E+02  0.00000000000E+00 0.  1.
        -11   -1    0    0    0    0 -0.00000000000E+00 -0.00000000000E+00 -0.30000000000E+02  0.30000000000E+02  0.00000000000E+00 0. -1.
         23    2    1    2    0    0  0.00000000000E+00  0.00000000000E+00  0.00000000000E+00  0.60000000000E+02  0.60000000000E+02 0.  0.
          5    1    3    3  501    0 -0.23373690005E+02 -0.46765100558E+01 -0.17598604184E+02  0.30000000000E+02  0.47000000000E+01 0. -1.
         -5    1    3    3    0  501  0.23373690005E+02  0.46765100558E+01  0.17598604184E+02  0.30000000000E+02  0.47000000000E+01 0.  1.
</event>
<event>
 5    1  0.7624361E-002  0.6000000E+02  0.7546771E-02  0.1259629E+00
         11   -1    0    0    0    0  0.00000000000E+00  0.00000000000E+00  0.30000000000E+02  0.30000000000E+02  0.00000000000E+00 0.  1.
        -11   -1    0    0    0    0 -0.00000000000E+00 -0.00000000000E+00 -0.30000000000E+02  0.30000000000E+02  0.00000000000E+00 0. -1.
         23    2    1    2    0    0  0.00000000000E+00  0.00000000000E+00  0.00000000000E+00  0.60000000000E+02  0.60000000000E+02 0.  0.
          5    1    3    3  501    0 -0.65405910814E+01  0.17126707309E+02 -0.23276738712E+02  0.30000000000E+02  0.47000000000E+01 0. -1.
         -5    1    3    3    0  501  0.65405910814E+01 -0.17126707309E+02  0.23276738712E+02  0.30000000000E+02  0.47000000000E+01 0.  1.
</event>
<event>
 5    1  0.7624361E-002  0.6000000E+02  0.7546771E-02  0.1259629E+00
         11   -1    0    0    0    0  0.00000000000E+00  0.00000000000E+00  0.30000000000E+02  0.30000000000E+02  0.00000000000E+00 0.  1.
        -11   -1    0    0    0    0 -0.00000000000E+00 -0.00000000000E+00 -0.30000000000E+02  0.30000000000E+02  0.00000000000E+00 0. -1.
         23    2    1    2    0    0  0.00000000000E+00  0.00000000000E+00  0.00000000000E+00  0.60000000000E+02  0.60000000000E+02 0.  0.
          5    1    3    3  501    0 -0.12284790333E+02 -0.16636151712E+01 -0.26911453157E+02  0.30000000000E+02  0.47000000000E+01 0. -1.
         -5    1    3    3    0  501  0.12284790333E+02  0.16636151712E+01  0.26911453157E+02  0.30000000000E+02  0.47000000000E+01 0.  1.
</event>
<event>
 5    1  0.7624361E-002  0.6000000E+02  0.7546771E-02  0.1259629E+00
         11   -1    0    0    0    0  0.00000000000E+00  0.00000000000E+00  0.30000000000E+02  0.30000000000E+02  0.00000000000E+00 0.  1.
        -11   -1    0    0    0    0 -0.00000000000E+00 -0.00000000000E+00 -0.30000000000E+02  0.30000000000E+02  0.00000000000E+00 0. -1.
         23    2    1    2    0    0  0.00000000000E+00  0.00000000000E+00  0.00000000000E+00  0.60000000000E+02  0.60000000000E+02 0.  0.
          5    1    3    3  501    0  0.10694559129E+02  0.10549163268E+02 -0.25539216107E+02  0.30000000000E+02  0.47000000000E+01 0. -1.
         -5    1    3    3    0  501 -0.10694559129E+02 -0.10549163268E+02  0.25539216107E+02  0.30000000000E+02  0.47000000000E+01 0.  1.
</event>
<event>
 5    1  0.7624361E-002  0.6000000E+02  0.7546771E-02  0.1259629E+00
         11   -1    0    0    0    0  0.00000000000E+00  0.00000000000E+00  0.30000000000E+02  0.30000000000E+02  0.00000000000E+00 0. -1.
        -11   -1    0    0    0    0 -0.00000000000E+00 -0.00000000000E+00 -0.30000000000E+02  0.30000000000E+02  0.00000000000E+00 0.  1.
         23    2    1    2    0    0  0.00000000000E+00  0.00000000000E+00  0.00000000000E+00  0.60000000000E+02  0.60000000000E+02 0.  0.
          5    1    3    3  501    0  0.14401792379E+02 -0.11811915851E+02 -0.23042938619E+02  0.30000000000E+02  0.47000000000E+01 0.  1.
         -5    1    3    3    0  501 -0.14401792379E+02  0.11811915851E+02  0.23042938619E+02  0.30000000000E+02  0.47000000000E+01 0. -1.
</event>
<event>
 5    1  0.7624361E-002  0.6000000E+02  0.7546771E-02  0.1259629E+00
         11   -1    0    0    0    0  0.00000000000E+00  0.00000000000E+00  0.30000000000E+02  0.30000000000E+02  0.00000000000E+00 0.  1.
        -11   -1    0    0    0    0 -0.00000000000E+00 -0.00000000000E+00 -0.30000000000E+02  0.30000000000E+02  0.00000000000E+00 0. -1.
         23    2    1    2    0    0  0.00000000000E+00  0.00000000000E+00  0.00000000000E+00  0.60000000000E+02  0.60000000000E+02 0.  0.
          5    1    3    3  501    0 -0.24843426570E+02 -0.90539486957E+01 -0.13369374304E+02  0.30000000000E+02  0.47000000000E+01 0. -1.
         -5    1    3    3    0  501  0.24843426570E+02  0.90539486957E+01  0.13369374304E+02  0.30000000000E+02  0.47000000000E+01 0.  1.
</event>
<event>
 5    1  0.7624361E-002  0.6000000E+02  0.7546771E-02  0.1259629E+00
         11   -1    0    0    0    0  0.00000000000E+00  0.00000000000E+00  0.30000000000E+02  0.30000000000E+02  0.00000000000E+00 0.  1.
        -11   -1    0    0    0    0 -0.00000000000E+00 -0.00000000000E+00 -0.30000000000E+02  0.30000000000E+02  0.00000000000E+00 0. -1.
         23    2    1    2    0    0  0.00000000000E+00  0.00000000000E+00  0.00000000000E+00  0.60000000000E+02  0.60000000000E+02 0.  0.
          5    1    3    3  501    0 -0.47027885233E+01 -0.18662708706E+02 -0.22527695929E+02  0.30000000000E+02  0.47000000000E+01 0. -1.
         -5    1    3    3    0  501  0.47027885233E+01  0.18662708706E+02  0.22527695929E+02  0.30000000000E+02  0.47000000000E+01 0.  1.
</event>
<event>
 5    1  0.7624361E-002  0.6000000E+02  0.7546771E-02  0.1259629E+00
         11   -1    0    0    0    0  0.00000000000E+00  0.00000000000E+00  0.30000000000E+02  0.30000000000E+02  0.00000000000E+00 0.  1.
        -11   -1    0    0    0    0 -0.00000000000E+00 -0.00000000000E+00 -0.30000000000E+02  0.30000000000E+02  0.00000000000E+00 0. -1.
         23    2    1    2    0    0  0.00000000000E+00  0.00000000000E+00  0.00000000000E+00  0.60000000000E+02  0.60000000000E+02 0.  0.
          5    1    3    3  501    0 -0.20445233656E+02 -0.11299558645E+02 -0.18226968898E+02  0.30000000000E+02  0.47000000000E+01 0. -1.
         -5    1    3    3    0  501  0.20445233656E+02  0.11299558645E+02  0.18226968898E+02  0.30000000000E+02  0.47000000000E+01 0.  1.
</event>
<event>
 5    1  0.7624361E-002  0.6000000E+02  0.7546771E-02  0.1259629E+00
         11   -1    0    0    0    0  0.00000000000E+00  0.00000000000E+00  0.30000000000E+02  0.30000000000E+02  0.00000000000E+00 0.  1.
        -11   -1    0    0    0    0 -0.00000000000E+00 -0.00000000000E+00 -0.30000000000E+02  0.30000000000E+02  0.00000000000E+00 0. -1.
         23    2    1    2    0    0  0.00000000000E+00  0.00000000000E+00  0.00000000000E+00  0.60000000000E+02  0.60000000000E+02 0.  0.
          5    1    3    3  501    0  0.30501540724E+01 -0.53693554020E+00 -0.29467240461E+02  0.30000000000E+02  0.47000000000E+01 0. -1.
         -5    1    3    3    0  501 -0.30501540724E+01  0.53693554020E+00  0.29467240461E+02  0.30000000000E+02  0.47000000000E+01 0.  1.
</event>
<event>
 5    1  0.7624361E-002  0.6000000E+02  0.7546771E-02  0.1259629E+00
         11   -1    0    0    0    0  0.00000000000E+00  0.00000000000E+00  0.30000000000E+02  0.30000000000E+02  0.00000000000E+00 0.  1.
        -11   -1    0    0    0    0 -0.00000000000E+00 -0.00000000000E+00 -0.30000000000E+02  0.30000000000E+02  0.00000000000E+00 0. -1.
         23    2    1    2    0    0  0.00000000000E+00  0.00000000000E+00  0.00000000000E+00  0.60000000000E+02  0.60000000000E+02 0.  0.
          5    1    3    3  501    0 -0.18510387137E+02 -0.22747504206E+02 -0.42221582697E+01  0.30000000000E+02  0.47000000000E+01 0. -1.
         -5    1    3    3    0  501  0.18510387137E+02  0.22747504206E+02  0.42221582697E+01  0.30000000000E+02  0.47000000000E+01 0.  1.
</event>
<event>
 5    1  0.7624361E-002  0.6000000E+02  0.7546771E-02  0.1259629E+00
         11   -1    0    0    0    0  0.00000000000E+00  0.00000000000E+00  0.30000000000E+02  0.30000000000E+02  0.00000000000E+00 0.  1.
        -11   -1    0    0    0    0 -0.00000000000E+00 -0.00000000000E+00 -0.30000000000E+02  0.30000000000E+02  0.00000000000E+00 0. -1.
         23    2    1    2    0    0  0.00000000000E+00  0.00000000000E+00  0.00000000000E+00  0.60000000000E+02  0.60000000000E+02 0.  0.
          5    1    3    3  501    0 -0.14276424278E+02 -0.49776395231E+01 -0.25481695678E+02  0.30000000000E+02  0.47000000000E+01 0. -1.
         -5    1    3    3    0  501  0.14276424278E+02  0.49776395231E+01  0.25481695678E+02  0.30000000000E+02  0.47000000000E+01 0.  1.
</event>
<event>
 5    1  0.7624361E-002  0.6000000E+02  0.7546771E-02  0.1259629E+00
         11   -1    0    0    0    0  0.00000000000E+00  0.00000000000E+00  0.30000000000E+02  0.30000000000E+02  0.00000000000E+00 0.  1.
        -11   -1    0    0    0    0 -0.00000000000E+00 -0.00000000000E+00 -0.30000000000E+02  0.30000000000E+02  0.00000000000E+00 0. -1.
         23    2    1    2    0    0  0.00000000000E+00  0.00000000000E+00  0.00000000000E+00  0.60000000000E+02  0.60000000000E+02 0.  0.
          5    1    3    3  501    0 -0.28972520882E+02  0.31826005225E+01  0.53267332982E+01  0.30000000000E+02  0.47000000000E+01 0. -1.
         -5    1    3    3    0  501  0.28972520882E+02 -0.31826005225E+01 -0.53267332982E+01  0.30000000000E+02  0.47000000000E+01 0.  1.
</event>
<event>
 5    1  0.7624361E-002  0.6000000E+02  0.7546771E-02  0.1259629E+00
         11   -1    0    0    0    0  0.00000000000E+00  0.00000000000E+00  0.30000000000E+02  0.30000000000E+02  0.00000000000E+00 0. -1.
        -11   -1    0    0    0    0 -0.00000000000E+00 -0.00000000000E+00 -0.30000000000E+02  0.30000000000E+02  0.00000000000E+00 0.  1.
         23    2    1    2    0    0  0.00000000000E+00  0.00000000000E+00  0.00000000000E+00  0.60000000000E+02  0.60000000000E+02 0.  0.
          5    1    3    3  501    0 -0.16123403631E+02 -0.24561098808E+02  0.38338336797E+01  0.30000000000E+02  0.47000000000E+01 0.  1.
         -5    1    3    3    0  501  0.16123403631E+02  0.24561098808E+02 -0.38338336797E+01  0.30000000000E+02  0.47000000000E+01 0. -1.
</event>
<event>
 5    1  0.7624361E-002  0.6000000E+02  0.7546771E-02  0.1259629E+00
         11   -1    0    0    0    0  0.00000000000E+00  0.00000000000E+00  0.30000000000E+02  0.30000000000E+02  0.00000000000E+00 0.  1.
        -11   -1    0    0    0    0 -0.00000000000E+00 -0.00000000000E+00 -0.30000000000E+02  0.30000000000E+02  0.00000000000E+00 0. -1.
         23    2    1    2    0    0  0.00000000000E+00  0.00000000000E+00  0.00000000000E+00  0.60000000000E+02  0.60000000000E+02 0.  0.
          5    1    3    3  501    0 -0.19973064702E+02 -0.53733223438E+01 -0.21215892472E+02  0.30000000000E+02  0.47000000000E+01 0. -1.
         -5    1    3    3    0  501  0.19973064702E+02  0.53733223438E+01  0.21215892472E+02  0.30000000000E+02  0.47000000000E+01 0.  1.
</event>
<event>
 5    1  0.7624361E-002  0.6000000E+02  0.7546771E-02  0.1259629E+00
         11   -1    0    0    0    0  0.00000000000E+00  0.00000000000E+00  0.30000000000E+02  0.30000000000E+02  0.00000000000E+00 0.  1.
        -11   -1    0    0    0    0 -0.00000000000E+00 -0.00000000000E+00 -0.30000000000E+02  0.30000000000E+02  0.00000000000E+00 0. -1.
         23    2    1    2    0    0  0.00000000000E+00  0.00000000000E+00  0.00000000000E+00  0.60000000000E+02  0.60000000000E+02 0.  0.
          5    1    3    3  501    0 -0.16308563567E+02 -0.14693145006E+02 -0.19901061384E+02  0.30000000000E+02  0.47000000000E+01 0. -1.
         -5    1    3    3    0  501  0.16308563567E+02  0.14693145006E+02  0.19901061384E+02  0.30000000000E+02  0.47000000000E+01 0.  1.
</event>
<event>
 5    1  0.7624361E-002  0.6000000E+02  0.7546771E-02  0.1259629E+00
         11   -1    0    0    0    0  0.00000000000E+00  0.00000000000E+00  0.30000000000E+02  0.30000000000E+02  0.00000000000E+00 0.  1.
        -11   -1    0    0    0    0 -0.00000000000E+00 -0.00000000000E+00 -0.30000000000E+02  0.30000000000E+02  0.00000000000E+00 0. -1.
         23    2    1    2    0    0  0.00000000000E+00  0.00000000000E+00  0.00000000000E+00  0.60000000000E+02  0.60000000000E+02 0.  0.
          5    1    3    3  501    0  0.29176464713E+02 -0.50272892029E+01  0.11705853775E+01  0.30000000000E+02  0.47000000000E+01 0. -1.
         -5    1    3    3    0  501 -0.29176464713E+02  0.50272892029E+01 -0.11705853775E+01  0.30000000000E+02  0.47000000000E+01 0.  1.
</event>
<event>
 5    1  0.7624361E-002  0.6000000E+02  0.7546771E-02  0.1259629E+00
         11   -1    0    0    0    0  0.00000000000E+00  0.00000000000E+00  0.30000000000E+02  0.30000000000E+02  0.00000000000E+00 0.  1.
        -11   -1    0    0    0    0 -0.00000000000E+00 -0.00000000000E+00 -0.30000000000E+02  0.30000000000E+02  0.00000000000E+00 0. -1.
         23    2    1    2    0    0  0.00000000000E+00  0.00000000000E+00  0.00000000000E+00  0.60000000000E+02  0.60000000000E+02 0.  0.
          5    1    3    3  501    0  0.20364598131E+02 -0.21495228150E+02  0.10715921603E+01  0.30000000000E+02  0.47000000000E+01 0. -1.
         -5    1    3    3    0  501 -0.20364598131E+02  0.21495228150E+02 -0.10715921603E+01  0.30000000000E+02  0.47000000000E+01 0.  1.
</event>
<event>
 5    1  0.7624361E-002  0.6000000E+02  0.7546771E-02  0.1259629E+00
         11   -1    0    0    0    0  0.00000000000E+00  0.00000000000E+00  0.30000000000E+02  0.30000000000E+02  0.00000000000E+00 0.  1.
        -11   -1    0    0    0    0 -0.00000000000E+00 -0.00000000000E+00 -0.30000000000E+02  0.30000000000E+02  0.00000000000E+00 0. -1.
         23    2    1    2    0    0  0.00000000000E+00  0.00000000000E+00  0.00000000000E+00  0.60000000000E+02  0.60000000000E+02 0.  0.
          5    1    3    3  501    0 -0.54551780369E+01  0.97867401755E+01 -0.27429377487E+02  0.30000000000E+02  0.47000000000E+01 0. -1.
         -5    1    3    3    0  501  0.54551780369E+01 -0.97867401755E+01  0.27429377487E+02  0.30000000000E+02  0.47000000000E+01 0.  1.
</event>
<event>
 5    1  0.7624361E-002  0.6000000E+02  0.7546771E-02  0.1259629E+00
         11   -1    0    0    0    0  0.00000000000E+00  0.00000000000E+00  0.30000000000E+02  0.30000000000E+02  0.00000000000E+00 0.  1.
        -11   -1    0    0    0    0 -0.00000000000E+00 -0.00000000000E+00 -0.30000000000E+02  0.30000000000E+02  0.00000000000E+00 0. -1.
         23    2    1    2    0    0  0.00000000000E+00  0.00000000000E+00  0.00000000000E+00  0.60000000000E+02  0.60000000000E+02 0.  0.
          5    1    3    3  501    0  0.26721414488E+01  0.23358891088E+02 -0.18031413346E+02  0.30000000000E+02  0.47000000000E+01 0. -1.
         -5    1    3    3    0  501 -0.26721414488E+01 -0.23358891088E+02  0.18031413346E+02  0.30000000000E+02  0.47000000000E+01 0.  1.
</event>
<event>
 5    1  0.7624361E-002  0.6000000E+02  0.7546771E-02  0.1259629E+00
         11   -1    0    0    0    0  0.00000000000E+00  0.00000000000E+00  0.30000000000E+02  0.30000000000E+02  0.00000000000E+00 0.  1.
        -11   -1    0    0    0    0 -0.00000000000E+00 -0.00000000000E+00 -0.30000000000E+02  0.30000000000E+02  0.00000000000E+00 0. -1.
         23    2    1    2    0    0  0.00000000000E+00  0.00000000000E+00  0.00000000000E+00  0.60000000000E+02  0.60000000000E+02 0.  0.
          5    1    3    3  501    0  0.15493050193E+02  0.16993965218E+02 -0.18683697222E+02  0.30000000000E+02  0.47000000000E+01 0. -1.
         -5    1    3    3    0  501 -0.15493050193E+02 -0.16993965218E+02  0.18683697222E+02  0.30000000000E+02  0.47000000000E+01 0.  1.
</event>
<event>
 5    1  0.7624361E-002  0.6000000E+02  0.7546771E-02  0.1259629E+00
         11   -1    0    0    0    0  0.00000000000E+00  0.00000000000E+00  0.30000000000E+02  0.30000000000E+02  0.00000000000E+00 0.  1.
        -11   -1    0    0    0    0 -0.00000000000E+00 -0.00000000000E+00 -0.30000000000E+02  0.30000000000E+02  0.00000000000E+00 0. -1.
         23    2    1    2    0    0  0.00000000000E+00  0.00000000000E+00  0.00000000000E+00  0.60000000000E+02  0.60000000000E+02 0.  0.
          5    1    3    3  501    0 -0.20003436826E+02 -0.11148386458E+01 -0.21829559087E+02  0.30000000000E+02  0.47000000000E+01 0. -1.
         -5    1    3    3    0  501  0.20003436826E+02  0.11148386458E+01  0.21829559087E+02  0.30000000000E+02  0.47000000000E+01 0.  1.
</event>
<event>
 5    1  0.7624361E-002  0.6000000E+02  0.7546771E-02  0.1259629E+00
         11   -1    0    0    0    0  0.00000000000E+00  0.00000000000E+00  0.30000000000E+02  0.30000000000E+02  0.00000000000E+00 0. -1.
        -11   -1    0    0    0    0 -0.00000000000E+00 -0.00000000000E+00 -0.30000000000E+02  0.30000000000E+02  0.00000000000E+00 0.  1.
         23    2    1    2    0    0  0.00000000000E+00  0.00000000000E+00  0.00000000000E+00  0.60000000000E+02  0.60000000000E+02 0.  0.
          5    1    3    3  501    0 -0.79230729514E+01 -0.66224495689E+01 -0.27771893647E+02  0.30000000000E+02  0.47000000000E+01 0.  1.
         -5    1    3    3    0  501  0.79230729514E+01  0.66224495689E+01  0.27771893647E+02  0.30000000000E+02  0.47000000000E+01 0. -1.
</event>
<event>
 5    1  0.7624361E-002  0.6000000E+02  0.7546771E-02  0.1259629E+00
         11   -1    0    0    0    0  0.00000000000E+00  0.00000000000E+00  0.30000000000E+02  0.30000000000E+02  0.00000000000E+00 0.  1.
        -11   -1    0    0    0    0 -0.00000000000E+00 -0.00000000000E+00 -0.30000000000E+02  0.30000000000E+02  0.00000000000E+00 0. -1.
         23    2    1    2    0    0  0.00000000000E+00  0.00000000000E+00  0.00000000000E+00  0.60000000000E+02  0.60000000000E+02 0.  0.
          5    1    3    3  501    0 -0.40804164188E+01 -0.24628175864E+02 -0.15959735444E+02  0.30000000000E+02  0.47000000000E+01 0. -1.
         -5    1    3    3    0  501  0.40804164188E+01  0.24628175864E+02  0.15959735444E+02  0.30000000000E+02  0.47000000000E+01 0.  1.
</event>
<event>
 5    1  0.7624361E-002  0.6000000E+02  0.7546771E-02  0.1259629E+00
         11   -1    0    0    0    0  0.00000000000E+00  0.00000000000E+00  0.30000000000E+02  0.30000000000E+02  0.00000000000E+00 0.  1.
        -11   -1    0    0    0    0 -0.00000000000E+00 -0.00000000000E+00 -0.30000000000E+02  0.30000000000E+02  0.00000000000E+00 0. -1.
         23    2    1    2    0    0  0.00000000000E+00  0.00000000000E+00  0.00000000000E+00  0.60000000000E+02  0.60000000000E+02 0.  0.
          5    1    3    3  501    0 -0.10229285616E+02 -0.41410817458E+01 -0.27497693681E+02  0.30000000000E+02  0.47000000000E+01 0. -1.
         -5    1    3    3    0  501  0.10229285616E+02  0.41410817458E+01  0.27497693681E+02  0.30000000000E+02  0.47000000000E+01 0.  1.
</event>
<event>
 5    1  0.7624361E-002  0.6000000E+02  0.7546771E-02  0.1259629E+00
         11   -1    0    0    0    0  0.00000000000E+00  0.00000000000E+00  0.30000000000E+02  0.30000000000E+02  0.00000000000E+00 0.  1.
        -11   -1    0    0    0    0 -0.00000000000E+00 -0.00000000000E+00 -0.30000000000E+02  0.30000000000E+02  0.00000000000E+00 0. -1.
         23    2    1    2    0    0  0.00000000000E+00  0.00000000000E+00  0.00000000000E+00  0.60000000000E+02  0.60000000000E+02 0.  0.
          5    1    3    3  501    0 -0.19645062640E+02  0.17840332465E+02  0.13179683282E+02  0.30000000000E+02  0.47000000000E+01 0.  1.
         -5    1    3    3    0  501  0.19645062640E+02 -0.17840332465E+02 -0.13179683282E+02  0.30000000000E+02  0.47000000000E+01 0. -1.
</event>
<event>
 5    1  0.7624361E-002  0.6000000E+02  0.7546771E-02  0.1259629E+00
         11   -1    0    0    0    0  0.00000000000E+00  0.00000000000E+00  0.30000000000E+02  0.30000000000E+02  0.00000000000E+00 0.  1.
        -11   -1    0    0    0    0 -0.00000000000E+00 -0.00000000000E+00 -0.30000000000E+02  0.30000000000E+02  0.00000000000E+00 0. -1.
         23    2    1    2    0    0  0.00000000000E+00  0.00000000000E+00  0.00000000000E+00  0.60000000000E+02  0.60000000000E+02 0.  0.
          5    1    3    3  501    0  0.74130839305E+01 -0.20989832745E+01 -0.28610320793E+02  0.30000000000E+02  0.47000000000E+01 0. -1.
         -5    1    3    3    0  501 -0.74130839305E+01  0.20989832745E+01  0.28610320793E+02  0.30000000000E+02  0.47000000000E+01 0.  1.
</event>
<event>
 5    1  0.7624361E-002  0.6000000E+02  0.7546771E-02  0.1259629E+00
         11   -1    0    0    0    0  0.00000000000E+00  0.00000000000E+00  0.30000000000E+02  0.30000000000E+02  0.00000000000E+00 0.  1.
        -11   -1    0    0    0    0 -0.00000000000E+00 -0.00000000000E+00 -0.30000000000E+02  0.30000000000E+02  0.00000000000E+00 0. -1.
         23    2    1    2    0    0  0.00000000000E+00  0.00000000000E+00  0.00000000000E+00  0.60000000000E+02  0.60000000000E+02 0.  0.
          5    1    3    3  501    0 -0.53170914314E+01  0.16882925947E+02  0.23761425676E+02  0.30000000000E+02  0.47000000000E+01 0.  1.
         -5    1    3    3    0  501  0.53170914314E+01 -0.16882925947E+02 -0.23761425676E+02  0.30000000000E+02  0.47000000000E+01 0. -1.
</event>
<event>
 5    1  0.7624361E-002  0.6000000E+02  0.7546771E-02  0.1259629E+00
         11   -1    0    0    0    0  0.00000000000E+00  0.00000000000E+00  0.30000000000E+02  0.30000000000E+02  0.00000000000E+00 0.  1.
        -11   -1    0    0    0    0 -0.00000000000E+00 -0.00000000000E+00 -0.30000000000E+02  0.30000000000E+02  0.00000000000E+00 0. -1.
         23    2    1    2    0    0  0.00000000000E+00  0.00000000000E+00  0.00000000000E+00  0.60000000000E+02  0.60000000000E+02 0.  0.
          5    1    3    3  501    0 -0.42211217540E+01 -0.22564682655E+02  0.18733051748E+02  0.30000000000E+02  0.47000000000E+01 0. -1.
         -5    1    3    3    0  501  0.42211217540E+01  0.22564682655E+02 -0.18733051748E+02  0.30000000000E+02  0.47000000000E+01 0. -1.
</event>
<event>
 5    1  0.7624361E-002  0.6000000E+02  0.7546771E-02  0.1259629E+00
         11   -1    0    0    0    0  0.00000000000E+00  0.00000000000E+00  0.30000000000E+02  0.30000000000E+02  0.00000000000E+00 0.  1.
        -11   -1    0    0    0    0 -0.00000000000E+00 -0.00000000000E+00 -0.30000000000E+02  0.30000000000E+02  0.00000000000E+00 0. -1.
         23    2    1    2    0    0  0.00000000000E+00  0.00000000000E+00  0.00000000000E+00  0.60000000000E+02  0.60000000000E+02 0.  0.
          5    1    3    3  501    0 -0.18451385469E+02  0.17877673518E+02  0.14759578716E+02  0.30000000000E+02  0.47000000000E+01 0. -1.
         -5    1    3    3    0  501  0.18451385469E+02 -0.17877673518E+02 -0.14759578716E+02  0.30000000000E+02  0.47000000000E+01 0.  1.
</event>
<event>
 5    1  0.7624361E-002  0.6000000E+02  0.7546771E-02  0.1259629E+00
         11   -1    0    0    0    0  0.00000000000E+00  0.00000000000E+00  0.30000000000E+02  0.30000000000E+02  0.00000000000E+00 0.  1.
        -11   -1    0    0    0    0 -0.00000000000E+00 -0.00000000000E+00 -0.30000000000E+02  0.30000000000E+02  0.00000000000E+00 0. -1.
         23    2    1    2    0    0  0.00000000000E+00  0.00000000000E+00  0.00000000000E+00  0.60000000000E+02  0.60000000000E+02 0.  0.
          5    1    3    3  501    0 -0.16413956641E+02 -0.21185212251E+02 -0.12636408083E+02  0.30000000000E+02  0.47000000000E+01 0. -1.
         -5    1    3    3    0  501  0.16413956641E+02  0.21185212251E+02  0.12636408083E+02  0.30000000000E+02  0.47000000000E+01 0.  1.
</event>
<event>
 5    1  0.7624361E-002  0.6000000E+02  0.7546771E-02  0.1259629E+00
         11   -1    0    0    0    0  0.00000000000E+00  0.00000000000E+00  0.30000000000E+02  0.30000000000E+02  0.00000000000E+00 0.  1.
        -11   -1    0    0    0    0 -0.00000000000E+00 -0.00000000000E+00 -0.30000000000E+02  0.30000000000E+02  0.00000000000E+00 0. -1.
         23    2    1    2    0    0  0.00000000000E+00  0.00000000000E+00  0.00000000000E+00  0.60000000000E+02  0.60000000000E+02 0.  0.
          5    1    3    3  501    0  0.23116450831E+02  0.16362364658E+02  0.87070502359E+01  0.30000000000E+02  0.47000000000E+01 0. -1.
         -5    1    3    3    0  501 -0.23116450831E+02 -0.16362364658E+02 -0.87070502359E+01  0.30000000000E+02  0.47000000000E+01 0.  1.
</event>
<event>
 5    1  0.7624361E-002  0.6000000E+02  0.7546771E-02  0.1259629E+00
         11   -1    0    0    0    0  0.00000000000E+00  0.00000000000E+00  0.30000000000E+02  0.30000000000E+02  0.00000000000E+00 0. -1.
        -11   -1    0    0    0    0 -0.00000000000E+00 -0.00000000000E+00 -0.30000000000E+02  0.30000000000E+02  0.00000000000E+00 0.  1.
         23    2    1    2    0    0  0.00000000000E+00  0.00000000000E+00  0.00000000000E+00  0.60000000000E+02  0.60000000000E+02 0.  0.
          5    1    3    3  501    0 -0.13432456284E+02  0.90983754910E+01  0.24793117626E+02  0.30000000000E+02  0.47000000000E+01 0. -1.
         -5    1    3    3    0  501  0.13432456284E+02 -0.90983754910E+01 -0.24793117626E+02  0.30000000000E+02  0.47000000000E+01 0.  1.
</event>
<event>
 5    1  0.7624361E-002  0.6000000E+02  0.7546771E-02  0.1259629E+00
         11   -1    0    0    0    0  0.00000000000E+00  0.00000000000E+00  0.30000000000E+02  0.30000000000E+02  0.00000000000E+00 0.  1.
        -11   -1    0    0    0    0 -0.00000000000E+00 -0.00000000000E+00 -0.30000000000E+02  0.30000000000E+02  0.00000000000E+00 0. -1.
         23    2    1    2    0    0  0.00000000000E+00  0.00000000000E+00  0.00000000000E+00  0.60000000000E+02  0.60000000000E+02 0.  0.
          5    1    3    3  501    0  0.32565185295E+01  0.24976083509E+01 -0.29343943832E+02  0.30000000000E+02  0.47000000000E+01 0. -1.
         -5    1    3    3    0  501 -0.32565185295E+01 -0.24976083509E+01  0.29343943832E+02  0.30000000000E+02  0.47000000000E+01 0.  1.
</event>
<event>
 5    1  0.7624361E-002  0.6000000E+02  0.7546771E-02  0.1259629E+00
         11   -1    0    0    0    0  0.00000000000E+00  0.00000000000E+00  0.30000000000E+02  0.30000000000E+02  0.00000000000E+00 0. -1.
        -11   -1    0    0    0    0 -0.00000000000E+00 -0.00000000000E+00 -0.30000000000E+02  0.30000000000E+02  0.00000000000E+00 0.  1.
         23    2    1    2    0    0  0.00000000000E+00  0.00000000000E+00  0.00000000000E+00  0.60000000000E+02  0.60000000000E+02 0.  0.
          5    1    3    3  501    0  0.89848203628E+01  0.14237389465E+02 -0.24381955300E+02  0.30000000000E+02  0.47000000000E+01 0.  1.
         -5    1    3    3    0  501 -0.89848203628E+01 -0.14237389465E+02  0.24381955300E+02  0.30000000000E+02  0.47000000000E+01 0. -1.
</event>
<event>
 5    1  0.7624361E-002  0.6000000E+02  0.7546771E-02  0.1259629E+00
         11   -1    0    0    0    0  0.00000000000E+00  0.00000000000E+00  0.30000000000E+02  0.30000000000E+02  0.00000000000E+00 0. -1.
        -11   -1    0    0    0    0 -0.00000000000E+00 -0.00000000000E+00 -0.30000000000E+02  0.30000000000E+02  0.00000000000E+00 0.  1.
         23    2    1    2    0    0  0.00000000000E+00  0.00000000000E+00  0.00000000000E+00  0.60000000000E+02  0.60000000000E+02 0.  0.
          5    1    3    3  501    0  0.54791692459E+00 -0.76349145945E+01 -0.28623729075E+02  0.30000000000E+02  0.47000000000E+01 0.  1.
         -5    1    3    3    0  501 -0.54791692459E+00  0.76349145945E+01  0.28623729075E+02  0.30000000000E+02  0.47000000000E+01 0. -1.
</event>
<event>
 5    1  0.7624361E-002  0.6000000E+02  0.7546771E-02  0.1259629E+00
         11   -1    0    0    0    0  0.00000000000E+00  0.00000000000E+00  0.30000000000E+02  0.30000000000E+02  0.00000000000E+00 0.  1.
        -11   -1    0    0    0    0 -0.00000000000E+00 -0.00000000000E+00 -0.30000000000E+02  0.30000000000E+02  0.00000000000E+00 0. -1.
         23    2    1    2    0    0  0.00000000000E+00  0.00000000000E+00  0.00000000000E+00  0.60000000000E+02  0.60000000000E+02 0.  0.
          5    1    3    3  501    0 -0.17877525063E+02 -0.80823748937E+01 -0.22203137474E+02  0.30000000000E+02  0.47000000000E+01 0. -1.
         -5    1    3    3    0  501  0.17877525063E+02  0.80823748937E+01  0.22203137474E+02  0.30000000000E+02  0.47000000000E+01 0.  1.
</event>
<event>
 5    1  0.7624361E-002  0.6000000E+02  0.7546771E-02  0.1259629E+00
         11   -1    0    0    0    0  0.00000000000E+00  0.00000000000E+00  0.30000000000E+02  0.30000000000E+02  0.00000000000E+00 0.  1.
        -11   -1    0    0    0    0 -0.00000000000E+00 -0.00000000000E+00 -0.30000000000E+02  0.30000000000E+02  0.00000000000E+00 0. -1.
         23    2    1    2    0    0  0.00000000000E+00  0.00000000000E+00  0.00000000000E+00  0.60000000000E+02  0.60000000000E+02 0.  0.
          5    1    3    3  501    0 -0.71183688083E+01 -0.15697195329E+02 -0.24100557759E+02  0.30000000000E+02  0.47000000000E+01 0. -1.
         -5    1    3    3    0  501  0.71183688083E+01  0.15697195329E+02  0.24100557759E+02  0.30000000000E+02  0.47000000000E+01 0.  1.
</event>
<event>
 5    1  0.7624361E-002  0.6000000E+02  0.7546771E-02  0.1259629E+00
         11   -1    0    0    0    0  0.00000000000E+00  0.00000000000E+00  0.30000000000E+02  0.30000000000E+02  0.00000000000E+00 0.  1.
        -11   -1    0    0    0    0 -0.00000000000E+00 -0.00000000000E+00 -0.30000000000E+02  0.30000000000E+02  0.00000000000E+00 0. -1.
         23    2    1    2    0    0  0.00000000000E+00  0.00000000000E+00  0.00000000000E+00  0.60000000000E+02  0.60000000000E+02 0.  0.
          5    1    3    3  501    0 -0.10553472276E+02  0.17079283250E+02 -0.21790647227E+02  0.30000000000E+02  0.47000000000E+01 0. -1.
         -5    1    3    3    0  501  0.10553472276E+02 -0.17079283250E+02  0.21790647227E+02  0.30000000000E+02  0.47000000000E+01 0.  1.
</event>
<event>
 5    1  0.7624361E-002  0.6000000E+02  0.7546771E-02  0.1259629E+00
         11   -1    0    0    0    0  0.00000000000E+00  0.00000000000E+00  0.30000000000E+02  0.30000000000E+02  0.00000000000E+00 0.  1.
        -11   -1    0    0    0    0 -0.00000000000E+00 -0.00000000000E+00 -0.30000000000E+02  0.30000000000E+02  0.00000000000E+00 0. -1.
         23    2    1    2    0    0  0.00000000000E+00  0.00000000000E+00  0.00000000000E+00  0.60000000000E+02  0.60000000000E+02 0.  0.
          5    1    3    3  501    0  0.10440779197E+01  0.29137551257E+02 -0.52747519435E+01  0.30000000000E+02  0.47000000000E+01 0. -1.
         -5    1    3    3    0  501 -0.10440779197E+01 -0.29137551257E+02  0.52747519435E+01  0.30000000000E+02  0.47000000000E+01 0.  1.
</event>
<event>
 5    1  0.7624361E-002  0.6000000E+02  0.7546771E-02  0.1259629E+00
         11   -1    0    0    0    0  0.00000000000E+00  0.00000000000E+00  0.30000000000E+02  0.30000000000E+02  0.00000000000E+00 0.  1.
        -11   -1    0    0    0    0 -0.00000000000E+00 -0.00000000000E+00 -0.30000000000E+02  0.30000000000E+02  0.00000000000E+00 0. -1.
         23    2    1    2    0    0  0.00000000000E+00  0.00000000000E+00  0.00000000000E+00  0.60000000000E+02  0.60000000000E+02 0.  0.
          5    1    3    3  501    0 -0.24950606130E+01  0.28090069162E+02  0.90902523060E+01  0.30000000000E+02  0.47000000000E+01 0. -1.
         -5    1    3    3    0  501  0.24950606130E+01 -0.28090069162E+02 -0.90902523060E+01  0.30000000000E+02  0.47000000000E+01 0.  1.
</event>
<event>
 5    1  0.7624361E-002  0.6000000E+02  0.7546771E-02  0.1259629E+00
         11   -1    0    0    0    0  0.00000000000E+00  0.00000000000E+00  0.30000000000E+02  0.30000000000E+02  0.00000000000E+00 0.  1.
        -11   -1    0    0    0    0 -0.00000000000E+00 -0.00000000000E+00 -0.30000000000E+02  0.30000000000E+02  0.00000000000E+00 0. -1.
         23    2    1    2    0    0  0.00000000000E+00  0.00000000000E+00  0.00000000000E+00  0.60000000000E+02  0.60000000000E+02 0.  0.
          5    1    3    3  501    0  0.58380750642E+01 -0.11822996866E+02 -0.26533820393E+02  0.30000000000E+02  0.47000000000E+01 0. -1.
         -5    1    3    3    0  501 -0.58380750642E+01  0.11822996866E+02  0.26533820393E+02  0.30000000000E+02  0.47000000000E+01 0.  1.
</event>
<event>
 5    1  0.7624361E-002  0.6000000E+02  0.7546771E-02  0.1259629E+00
         11   -1    0    0    0    0  0.00000000000E+00  0.00000000000E+00  0.30000000000E+02  0.30000000000E+02  0.00000000000E+00 0.  1.
        -11   -1    0    0    0    0 -0.00000000000E+00 -0.00000000000E+00 -0.30000000000E+02  0.30000000000E+02  0.00000000000E+00 0. -1.
         23    2    1    2    0    0  0.00000000000E+00  0.00000000000E+00  0.00000000000E+00  0.60000000000E+02  0.60000000000E+02 0.  0.
          5    1    3    3  501    0 -0.11450808073E+02 -0.22318068834E+02 -0.15769996766E+02  0.30000000000E+02  0.47000000000E+01 0. -1.
         -5    1    3    3    0  501  0.11450808073E+02  0.22318068834E+02  0.15769996766E+02  0.30000000000E+02  0.47000000000E+01 0.  1.
</event>
<event>
 5    1  0.7624361E-002  0.6000000E+02  0.7546771E-02  0.1259629E+00
         11   -1    0    0    0    0  0.00000000000E+00  0.00000000000E+00  0.30000000000E+02  0.30000000000E+02  0.00000000000E+00 0. -1.
        -11   -1    0    0    0    0 -0.00000000000E+00 -0.00000000000E+00 -0.30000000000E+02  0.30000000000E+02  0.00000000000E+00 0.  1.
         23    2    1    2    0    0  0.00000000000E+00  0.00000000000E+00  0.00000000000E+00  0.60000000000E+02  0.60000000000E+02 0.  0.
          5    1    3    3  501    0  0.11589130735E+02  0.23744772288E+02 -0.13408498716E+02  0.30000000000E+02  0.47000000000E+01 0.  1.
         -5    1    3    3    0  501 -0.11589130735E+02 -0.23744772288E+02  0.13408498716E+02  0.30000000000E+02  0.47000000000E+01 0. -1.
</event>
<event>
 5    1  0.7624361E-002  0.6000000E+02  0.7546771E-02  0.1259629E+00
         11   -1    0    0    0    0  0.00000000000E+00  0.00000000000E+00  0.30000000000E+02  0.30000000000E+02  0.00000000000E+00 0.  1.
        -11   -1    0    0    0    0 -0.00000000000E+00 -0.00000000000E+00 -0.30000000000E+02  0.30000000000E+02  0.00000000000E+00 0. -1.
         23    2    1    2    0    0  0.00000000000E+00  0.00000000000E+00  0.00000000000E+00  0.60000000000E+02  0.60000000000E+02 0.  0.
          5    1    3    3  501    0  0.54107752623E+01 -0.80147887014E+01 -0.28007082553E+02  0.30000000000E+02  0.47000000000E+01 0. -1.
         -5    1    3    3    0  501 -0.54107752623E+01  0.80147887014E+01  0.28007082553E+02  0.30000000000E+02  0.47000000000E+01 0.  1.
</event>
<event>
 5    1  0.7624361E-002  0.6000000E+02  0.7546771E-02  0.1259629E+00
         11   -1    0    0    0    0  0.00000000000E+00  0.00000000000E+00  0.30000000000E+02  0.30000000000E+02  0.00000000000E+00 0.  1.
        -11   -1    0    0    0    0 -0.00000000000E+00 -0.00000000000E+00 -0.30000000000E+02  0.30000000000E+02  0.00000000000E+00 0. -1.
         23    2    1    2    0    0  0.00000000000E+00  0.00000000000E+00  0.00000000000E+00  0.60000000000E+02  0.60000000000E+02 0.  0.
          5    1    3    3  501    0 -0.15747869036E+02 -0.12075452981E+02 -0.22002228436E+02  0.30000000000E+02  0.47000000000E+01 0. -1.
         -5    1    3    3    0  501  0.15747869036E+02  0.12075452981E+02  0.22002228436E+02  0.30000000000E+02  0.47000000000E+01 0.  1.
</event>
<event>
 5    1  0.7624361E-002  0.6000000E+02  0.7546771E-02  0.1259629E+00
         11   -1    0    0    0    0  0.00000000000E+00  0.00000000000E+00  0.30000000000E+02  0.30000000000E+02  0.00000000000E+00 0.  1.
        -11   -1    0    0    0    0 -0.00000000000E+00 -0.00000000000E+00 -0.30000000000E+02  0.30000000000E+02  0.00000000000E+00 0. -1.
         23    2    1    2    0    0  0.00000000000E+00  0.00000000000E+00  0.00000000000E+00  0.60000000000E+02  0.60000000000E+02 0.  0.
          5    1    3    3  501    0  0.50361764429E+01 -0.28493350194E+02 -0.63777677573E+01  0.30000000000E+02  0.47000000000E+01 0. -1.
         -5    1    3    3    0  501 -0.50361764429E+01  0.28493350194E+02  0.63777677573E+01  0.30000000000E+02  0.47000000000E+01 0.  1.
</event>
<event>
 5    1  0.7624361E-002  0.6000000E+02  0.7546771E-02  0.1259629E+00
         11   -1    0    0    0    0  0.00000000000E+00  0.00000000000E+00  0.30000000000E+02  0.30000000000E+02  0.00000000000E+00 0.  1.
        -11   -1    0    0    0    0 -0.00000000000E+00 -0.00000000000E+00 -0.30000000000E+02  0.30000000000E+02  0.00000000000E+00 0. -1.
         23    2    1    2    0    0  0.00000000000E+00  0.00000000000E+00  0.00000000000E+00  0.60000000000E+02  0.60000000000E+02 0.  0.
          5    1    3    3  501    0  0.20054838358E+02  0.12247621973E+02 -0.18047415727E+02  0.30000000000E+02  0.47000000000E+01 0. -1.
         -5    1    3    3    0  501 -0.20054838358E+02 -0.12247621973E+02  0.18047415727E+02  0.30000000000E+02  0.47000000000E+01 0.  1.
</event>
<event>
 5    1  0.7624361E-002  0.6000000E+02  0.7546771E-02  0.1259629E+00
         11   -1    0    0    0    0  0.00000000000E+00  0.00000000000E+00  0.30000000000E+02  0.30000000000E+02  0.00000000000E+00 0.  1.
        -11   -1    0    0    0    0 -0.00000000000E+00 -0.00000000000E+00 -0.30000000000E+02  0.30000000000E+02  0.00000000000E+00 0. -1.
         23    2    1    2    0    0  0.00000000000E+00  0.00000000000E+00  0.00000000000E+00  0.60000000000E+02  0.60000000000E+02 0.  0.
          5    1    3    3  501    0 -0.39461757195E+00  0.17627417061E+02 -0.23812359075E+02  0.30000000000E+02  0.47000000000E+01 0. -1.
         -5    1    3    3    0  501  0.39461757195E+00 -0.17627417061E+02  0.23812359075E+02  0.30000000000E+02  0.47000000000E+01 0.  1.
</event>
<event>
 5    1  0.7624361E-002  0.6000000E+02  0.7546771E-02  0.1259629E+00
         11   -1    0    0    0    0  0.00000000000E+00  0.00000000000E+00  0.30000000000E+02  0.30000000000E+02  0.00000000000E+00 0.  1.
        -11   -1    0    0    0    0 -0.00000000000E+00 -0.00000000000E+00 -0.30000000000E+02  0.30000000000E+02  0.00000000000E+00 0. -1.
         23    2    1    2    0    0  0.00000000000E+00  0.00000000000E+00  0.00000000000E+00  0.60000000000E+02  0.60000000000E+02 0.  0.
          5    1    3    3  501    0 -0.16967788525E+02 -0.19830320990E+02 -0.14027206493E+02  0.30000000000E+02  0.47000000000E+01 0. -1.
         -5    1    3    3    0  501  0.16967788525E+02  0.19830320990E+02  0.14027206493E+02  0.30000000000E+02  0.47000000000E+01 0.  1.
</event>
<event>
 5    1  0.7624361E-002  0.6000000E+02  0.7546771E-02  0.1259629E+00
         11   -1    0    0    0    0  0.00000000000E+00  0.00000000000E+00  0.30000000000E+02  0.30000000000E+02  0.00000000000E+00 0.  1.
        -11   -1    0    0    0    0 -0.00000000000E+00 -0.00000000000E+00 -0.30000000000E+02  0.30000000000E+02  0.00000000000E+00 0. -1.
         23    2    1    2    0    0  0.00000000000E+00  0.00000000000E+00  0.00000000000E+00  0.60000000000E+02  0.60000000000E+02 0.  0.
          5    1    3    3  501    0  0.21046228748E+02 -0.20761931652E+02 -0.19769799052E+01  0.30000000000E+02  0.47000000000E+01 0. -1.
         -5    1    3    3    0  501 -0.21046228748E+02  0.20761931652E+02  0.19769799052E+01  0.30000000000E+02  0.47000000000E+01 0.  1.
</event>
<event>
 5    1  0.7624361E-002  0.6000000E+02  0.7546771E-02  0.1259629E+00
         11   -1    0    0    0    0  0.00000000000E+00  0.00000000000E+00  0.30000000000E+02  0.30000000000E+02  0.00000000000E+00 0.  1.
        -11   -1    0    0    0    0 -0.00000000000E+00 -0.00000000000E+00 -0.30000000000E+02  0.30000000000E+02  0.00000000000E+00 0. -1.
         23    2    1    2    0    0  0.00000000000E+00  0.00000000000E+00  0.00000000000E+00  0.60000000000E+02  0.60000000000E+02 0.  0.
          5    1    3    3  501    0  0.19872785817E+02  0.67793618041E+01  0.20905086401E+02  0.30000000000E+02  0.47000000000E+01 0. -1.
         -5    1    3    3    0  501 -0.19872785817E+02 -0.67793618041E+01 -0.20905086401E+02  0.30000000000E+02  0.47000000000E+01 0.  1.
</event>
<event>
 5    1  0.7624361E-002  0.6000000E+02  0.7546771E-02  0.1259629E+00
         11   -1    0    0    0    0  0.00000000000E+00  0.00000000000E+00  0.30000000000E+02  0.30000000000E+02  0.00000000000E+00 0. -1.
        -11   -1    0    0    0    0 -0.00000000000E+00 -0.00000000000E+00 -0.30000000000E+02  0.30000000000E+02  0.00000000000E+00 0.  1.
         23    2    1    2    0    0  0.00000000000E+00  0.00000000000E+00  0.00000000000E+00  0.60000000000E+02  0.60000000000E+02 0.  0.
          5    1    3    3  501    0  0.12938164757E+02  0.24224169329E+02 -0.11122208100E+02  0.30000000000E+02  0.47000000000E+01 0.  1.
         -5    1    3    3    0  501 -0.12938164757E+02 -0.24224169329E+02  0.11122208100E+02  0.30000000000E+02  0.47000000000E+01 0. -1.
</event>
<event>
 5    1  0.7624361E-002  0.6000000E+02  0.7546771E-02  0.1259629E+00
         11   -1    0    0    0    0  0.00000000000E+00  0.00000000000E+00  0.30000000000E+02  0.30000000000E+02  0.00000000000E+00 0.  1.
        -11   -1    0    0    0    0 -0.00000000000E+00 -0.00000000000E+00 -0.30000000000E+02  0.30000000000E+02  0.00000000000E+00 0. -1.
         23    2    1    2    0    0  0.00000000000E+00  0.00000000000E+00  0.00000000000E+00  0.60000000000E+02  0.60000000000E+02 0.  0.
          5    1    3    3  501    0 -0.18930433454E+02 -0.50787782275E+01 -0.22220591823E+02  0.30000000000E+02  0.47000000000E+01 0. -1.
         -5    1    3    3    0  501  0.18930433454E+02  0.50787782275E+01  0.22220591823E+02  0.30000000000E+02  0.47000000000E+01 0.  1.
</event>
<event>
 5    1  0.7624361E-002  0.6000000E+02  0.7546771E-02  0.1259629E+00
         11   -1    0    0    0    0  0.00000000000E+00  0.00000000000E+00  0.30000000000E+02  0.30000000000E+02  0.00000000000E+00 0.  1.
        -11   -1    0    0    0    0 -0.00000000000E+00 -0.00000000000E+00 -0.30000000000E+02  0.30000000000E+02  0.00000000000E+00 0. -1.
         23    2    1    2    0    0  0.00000000000E+00  0.00000000000E+00  0.00000000000E+00  0.60000000000E+02  0.60000000000E+02 0.  0.
          5    1    3    3  501    0 -0.32463560785E+00  0.59910880561E+01 -0.29015710841E+02  0.30000000000E+02  0.47000000000E+01 0. -1.
         -5    1    3    3    0  501  0.32463560785E+00 -0.59910880561E+01  0.29015710841E+02  0.30000000000E+02  0.47000000000E+01 0.  1.
</event>
<event>
 5    1  0.7624361E-002  0.6000000E+02  0.7546771E-02  0.1259629E+00
         11   -1    0    0    0    0  0.00000000000E+00  0.00000000000E+00  0.30000000000E+02  0.30000000000E+02  0.00000000000E+00 0.  1.
        -11   -1    0    0    0    0 -0.00000000000E+00 -0.00000000000E+00 -0.30000000000E+02  0.30000000000E+02  0.00000000000E+00 0. -1.
         23    2    1    2    0    0  0.00000000000E+00  0.00000000000E+00  0.00000000000E+00  0.60000000000E+02  0.60000000000E+02 0.  0.
          5    1    3    3  501    0 -0.12614185344E+02  0.17848479822E+02 -0.20005601619E+02  0.30000000000E+02  0.47000000000E+01 0. -1.
         -5    1    3    3    0  501  0.12614185344E+02 -0.17848479822E+02  0.20005601619E+02  0.30000000000E+02  0.47000000000E+01 0.  1.
</event>
<event>
 5    1  0.7624361E-002  0.6000000E+02  0.7546771E-02  0.1259629E+00
         11   -1    0    0    0    0  0.00000000000E+00  0.00000000000E+00  0.30000000000E+02  0.30000000000E+02  0.00000000000E+00 0. -1.
        -11   -1    0    0    0    0 -0.00000000000E+00 -0.00000000000E+00 -0.30000000000E+02  0.30000000000E+02  0.00000000000E+00 0.  1.
         23    2    1    2    0    0  0.00000000000E+00  0.00000000000E+00  0.00000000000E+00  0.60000000000E+02  0.60000000000E+02 0.  0.
          5    1    3    3  501    0 -0.12744205500E+02  0.26693823579E+02  0.17131867791E+01  0.30000000000E+02  0.47000000000E+01 0.  1.
         -5    1    3    3    0  501  0.12744205500E+02 -0.26693823579E+02 -0.17131867791E+01  0.30000000000E+02  0.47000000000E+01 0. -1.
</event>
<event>
 5    1  0.7624361E-002  0.6000000E+02  0.7546771E-02  0.1259629E+00
         11   -1    0    0    0    0  0.00000000000E+00  0.00000000000E+00  0.30000000000E+02  0.30000000000E+02  0.00000000000E+00 0.  1.
        -11   -1    0    0    0    0 -0.00000000000E+00 -0.00000000000E+00 -0.30000000000E+02  0.30000000000E+02  0.00000000000E+00 0. -1.
         23    2    1    2    0    0  0.00000000000E+00  0.00000000000E+00  0.00000000000E+00  0.60000000000E+02  0.60000000000E+02 0.  0.
          5    1    3    3  501    0 -0.31234455356E+00  0.37937969344E+01 -0.29384001526E+02  0.30000000000E+02  0.47000000000E+01 0. -1.
         -5    1    3    3    0  501  0.31234455356E+00 -0.37937969344E+01  0.29384001526E+02  0.30000000000E+02  0.47000000000E+01 0.  1.
</event>
<event>
 5    1  0.7624361E-002  0.6000000E+02  0.7546771E-02  0.1259629E+00
         11   -1    0    0    0    0  0.00000000000E+00  0.00000000000E+00  0.30000000000E+02  0.30000000000E+02  0.00000000000E+00 0.  1.
        -11   -1    0    0    0    0 -0.00000000000E+00 -0.00000000000E+00 -0.30000000000E+02  0.30000000000E+02  0.00000000000E+00 0. -1.
         23    2    1    2    0    0  0.00000000000E+00  0.00000000000E+00  0.00000000000E+00  0.60000000000E+02  0.60000000000E+02 0.  0.
          5    1    3    3  501    0 -0.11568987242E+02  0.26341234742E+02  0.70857523572E+01  0.30000000000E+02  0.47000000000E+01 0. -1.
         -5    1    3    3    0  501  0.11568987242E+02 -0.26341234742E+02 -0.70857523572E+01  0.30000000000E+02  0.47000000000E+01 0.  1.
</event>
<event>
 5    1  0.7624361E-002  0.6000000E+02  0.7546771E-02  0.1259629E+00
         11   -1    0    0    0    0  0.00000000000E+00  0.00000000000E+00  0.30000000000E+02  0.30000000000E+02  0.00000000000E+00 0.  1.
        -11   -1    0    0    0    0 -0.00000000000E+00 -0.00000000000E+00 -0.30000000000E+02  0.30000000000E+02  0.00000000000E+00 0. -1.
         23    2    1    2    0    0  0.00000000000E+00  0.00000000000E+00  0.00000000000E+00  0.60000000000E+02  0.60000000000E+02 0.  0.
          5    1    3    3  501    0  0.21142601974E+02  0.53682839709E+00 -0.20751197485E+02  0.30000000000E+02  0.47000000000E+01 0. -1.
         -5    1    3    3    0  501 -0.21142601974E+02 -0.53682839709E+00  0.20751197485E+02  0.30000000000E+02  0.47000000000E+01 0.  1.
</event>
<event>
 5    1  0.7624361E-002  0.6000000E+02  0.7546771E-02  0.1259629E+00
         11   -1    0    0    0    0  0.00000000000E+00  0.00000000000E+00  0.30000000000E+02  0.30000000000E+02  0.00000000000E+00 0.  1.
        -11   -1    0    0    0    0 -0.00000000000E+00 -0.00000000000E+00 -0.30000000000E+02  0.30000000000E+02  0.00000000000E+00 0. -1.
         23    2    1    2    0    0  0.00000000000E+00  0.00000000000E+00  0.00000000000E+00  0.60000000000E+02  0.60000000000E+02 0.  0.
          5    1    3    3  501    0 -0.53342286484E+01 -0.22483513869E+02 -0.18545824566E+02  0.30000000000E+02  0.47000000000E+01 0. -1.
         -5    1    3    3    0  501  0.53342286484E+01  0.22483513869E+02  0.18545824566E+02  0.30000000000E+02  0.47000000000E+01 0.  1.
</event>
<event>
 5    1  0.7624361E-002  0.6000000E+02  0.7546771E-02  0.1259629E+00
         11   -1    0    0    0    0  0.00000000000E+00  0.00000000000E+00  0.30000000000E+02  0.30000000000E+02  0.00000000000E+00 0.  1.
        -11   -1    0    0    0    0 -0.00000000000E+00 -0.00000000000E+00 -0.30000000000E+02  0.30000000000E+02  0.00000000000E+00 0. -1.
         23    2    1    2    0    0  0.00000000000E+00  0.00000000000E+00  0.00000000000E+00  0.60000000000E+02  0.60000000000E+02 0.  0.
          5    1    3    3  501    0  0.14313819911E+02 -0.20090878751E+02 -0.16412834934E+02  0.30000000000E+02  0.47000000000E+01 0. -1.
         -5    1    3    3    0  501 -0.14313819911E+02  0.20090878751E+02  0.16412834934E+02  0.30000000000E+02  0.47000000000E+01 0.  1.
</event>
<event>
 5    1  0.7624361E-002  0.6000000E+02  0.7546771E-02  0.1259629E+00
         11   -1    0    0    0    0  0.00000000000E+00  0.00000000000E+00  0.30000000000E+02  0.30000000000E+02  0.00000000000E+00 0.  1.
        -11   -1    0    0    0    0 -0.00000000000E+00 -0.00000000000E+00 -0.30000000000E+02  0.30000000000E+02  0.00000000000E+00 0. -1.
         23    2    1    2    0    0  0.00000000000E+00  0.00000000000E+00  0.00000000000E+00  0.60000000000E+02  0.60000000000E+02 0.  0.
          5    1    3    3  501    0  0.33702709751E+01  0.26079133097E+02 -0.13653940473E+02  0.30000000000E+02  0.47000000000E+01 0. -1.
         -5    1    3    3    0  501 -0.33702709751E+01 -0.26079133097E+02  0.13653940473E+02  0.30000000000E+02  0.47000000000E+01 0.  1.
</event>
<event>
 5    1  0.7624361E-002  0.6000000E+02  0.7546771E-02  0.1259629E+00
         11   -1    0    0    0    0  0.00000000000E+00  0.00000000000E+00  0.30000000000E+02  0.30000000000E+02  0.00000000000E+00 0.  1.
        -11   -1    0    0    0    0 -0.00000000000E+00 -0.00000000000E+00 -0.30000000000E+02  0.30000000000E+02  0.00000000000E+00 0. -1.
         23    2    1    2    0    0  0.00000000000E+00  0.00000000000E+00  0.00000000000E+00  0.60000000000E+02  0.60000000000E+02 0.  0.
          5    1    3    3  501    0  0.93864642590E+00  0.24655485740E+02 -0.16405363934E+02  0.30000000000E+02  0.47000000000E+01 0. -1.
         -5    1    3    3    0  501 -0.93864642590E+00 -0.24655485740E+02  0.16405363934E+02  0.30000000000E+02  0.47000000000E+01 0.  1.
</event>
<event>
 5    1  0.7624361E-002  0.6000000E+02  0.7546771E-02  0.1259629E+00
         11   -1    0    0    0    0  0.00000000000E+00  0.00000000000E+00  0.30000000000E+02  0.30000000000E+02  0.00000000000E+00 0.  1.
        -11   -1    0    0    0    0 -0.00000000000E+00 -0.00000000000E+00 -0.30000000000E+02  0.30000000000E+02  0.00000000000E+00 0. -1.
         23    2    1    2    0    0  0.00000000000E+00  0.00000000000E+00  0.00000000000E+00  0.60000000000E+02  0.60000000000E+02 0.  0.
          5    1    3    3  501    0  0.18401161106E+00  0.23503604727E+02  0.18040418636E+02  0.30000000000E+02  0.47000000000E+01 0.  1.
         -5    1    3    3    0  501 -0.18401161106E+00 -0.23503604727E+02 -0.18040418636E+02  0.30000000000E+02  0.47000000000E+01 0. -1.
</event>
<event>
 5    1  0.7624361E-002  0.6000000E+02  0.7546771E-02  0.1259629E+00
         11   -1    0    0    0    0  0.00000000000E+00  0.00000000000E+00  0.30000000000E+02  0.30000000000E+02  0.00000000000E+00 0.  1.
        -11   -1    0    0    0    0 -0.00000000000E+00 -0.00000000000E+00 -0.30000000000E+02  0.30000000000E+02  0.00000000000E+00 0. -1.
         23    2    1    2    0    0  0.00000000000E+00  0.00000000000E+00  0.00000000000E+00  0.60000000000E+02  0.60000000000E+02 0.  0.
          5    1    3    3  501    0 -0.81456397447E+01 -0.27703212783E+02  0.66400718877E+01  0.30000000000E+02  0.47000000000E+01 0.  1.
         -5    1    3    3    0  501  0.81456397447E+01  0.27703212783E+02 -0.66400718877E+01  0.30000000000E+02  0.47000000000E+01 0. -1.
</event>
<event>
 5    1  0.7624361E-002  0.6000000E+02  0.7546771E-02  0.1259629E+00
         11   -1    0    0    0    0  0.00000000000E+00  0.00000000000E+00  0.30000000000E+02  0.30000000000E+02  0.00000000000E+00 0. -1.
        -11   -1    0    0    0    0 -0.00000000000E+00 -0.00000000000E+00 -0.30000000000E+02  0.30000000000E+02  0.00000000000E+00 0.  1.
         23    2    1    2    0    0  0.00000000000E+00  0.00000000000E+00  0.00000000000E+00  0.60000000000E+02  0.60000000000E+02 0.  0.
          5    1    3    3  501    0 -0.11147484114E+02  0.20065616071E+02 -0.18735384961E+02  0.30000000000E+02  0.47000000000E+01 0.  1.
         -5    1    3    3    0  501  0.11147484114E+02 -0.20065616071E+02  0.18735384961E+02  0.30000000000E+02  0.47000000000E+01 0. -1.
</event>
<event>
 5    1  0.7624361E-002  0.6000000E+02  0.7546771E-02  0.1259629E+00
         11   -1    0    0    0    0  0.00000000000E+00  0.00000000000E+00  0.30000000000E+02  0.30000000000E+02  0.00000000000E+00 0.  1.
        -11   -1    0    0    0    0 -0.00000000000E+00 -0.00000000000E+00 -0.30000000000E+02  0.30000000000E+02  0.00000000000E+00 0. -1.
         23    2    1    2    0    0  0.00000000000E+00  0.00000000000E+00  0.00000000000E+00  0.60000000000E+02  0.60000000000E+02 0.  0.
          5    1    3    3  501    0 -0.17375199932E+02  0.18493177711E+02 -0.15297542466E+02  0.30000000000E+02  0.47000000000E+01 0. -1.
         -5    1    3    3    0  501  0.17375199932E+02 -0.18493177711E+02  0.15297542466E+02  0.30000000000E+02  0.47000000000E+01 0.  1.
</event>
<event>
 5    1  0.7624361E-002  0.6000000E+02  0.7546771E-02  0.1259629E+00
         11   -1    0    0    0    0  0.00000000000E+00  0.00000000000E+00  0.30000000000E+02  0.30000000000E+02  0.00000000000E+00 0.  1.
        -11   -1    0    0    0    0 -0.00000000000E+00 -0.00000000000E+00 -0.30000000000E+02  0.30000000000E+02  0.00000000000E+00 0. -1.
         23    2    1    2    0    0  0.00000000000E+00  0.00000000000E+00  0.00000000000E+00  0.60000000000E+02  0.60000000000E+02 0.  0.
          5    1    3    3  501    0  0.13949591136E+02  0.22579498663E+02 -0.13171376058E+02  0.30000000000E+02  0.47000000000E+01 0. -1.
         -5    1    3    3    0  501 -0.13949591136E+02 -0.22579498663E+02  0.13171376058E+02  0.30000000000E+02  0.47000000000E+01 0.  1.
</event>
<event>
 5    1  0.7624361E-002  0.6000000E+02  0.7546771E-02  0.1259629E+00
         11   -1    0    0    0    0  0.00000000000E+00  0.00000000000E+00  0.30000000000E+02  0.30000000000E+02  0.00000000000E+00 0. -1.
        -11   -1    0    0    0    0 -0.00000000000E+00 -0.00000000000E+00 -0.30000000000E+02  0.30000000000E+02  0.00000000000E+00 0.  1.
         23    2    1    2    0    0  0.00000000000E+00  0.00000000000E+00  0.00000000000E+00  0.60000000000E+02  0.60000000000E+02 0.  0.
          5    1    3    3  501    0  0.14437331892E+02 -0.16106772964E+02  0.20249575614E+02  0.30000000000E+02  0.47000000000E+01 0. -1.
         -5    1    3    3    0  501 -0.14437331892E+02  0.16106772964E+02 -0.20249575614E+02  0.30000000000E+02  0.47000000000E+01 0.  1.
</event>
<event>
 5    1  0.7624361E-002  0.6000000E+02  0.7546771E-02  0.1259629E+00
         11   -1    0    0    0    0  0.00000000000E+00  0.00000000000E+00  0.30000000000E+02  0.30000000000E+02  0.00000000000E+00 0.  1.
        -11   -1    0    0    0    0 -0.00000000000E+00 -0.00000000000E+00 -0.30000000000E+02  0.30000000000E+02  0.00000000000E+00 0. -1.
         23    2    1    2    0    0  0.00000000000E+00  0.00000000000E+00  0.00000000000E+00  0.60000000000E+02  0.60000000000E+02 0.  0.
          5    1    3    3  501    0  0.92409083305E+01  0.10922356272E+02 -0.25946439962E+02  0.30000000000E+02  0.47000000000E+01 0. -1.
         -5    1    3    3    0  501 -0.92409083305E+01 -0.10922356272E+02  0.25946439962E+02  0.30000000000E+02  0.47000000000E+01 0.  1.
</event>
<event>
 5    1  0.7624361E-002  0.6000000E+02  0.7546771E-02  0.1259629E+00
         11   -1    0    0    0    0  0.00000000000E+00  0.00000000000E+00  0.30000000000E+02  0.30000000000E+02  0.00000000000E+00 0.  1.
        -11   -1    0    0    0    0 -0.00000000000E+00 -0.00000000000E+00 -0.30000000000E+02  0.30000000000E+02  0.00000000000E+00 0. -1.
         23    2    1    2    0    0  0.00000000000E+00  0.00000000000E+00  0.00000000000E+00  0.60000000000E+02  0.60000000000E+02 0.  0.
          5    1    3    3  501    0  0.28527993920E+02 -0.30684293560E+01 -0.73924491347E+01  0.30000000000E+02  0.47000000000E+01 0. -1.
         -5    1    3    3    0  501 -0.28527993920E+02  0.30684293560E+01  0.73924491347E+01  0.30000000000E+02  0.47000000000E+01 0.  1.
</event>
<event>
 5    1  0.7624361E-002  0.6000000E+02  0.7546771E-02  0.1259629E+00
         11   -1    0    0    0    0  0.00000000000E+00  0.00000000000E+00  0.30000000000E+02  0.30000000000E+02  0.00000000000E+00 0.  1.
        -11   -1    0    0    0    0 -0.00000000000E+00 -0.00000000000E+00 -0.30000000000E+02  0.30000000000E+02  0.00000000000E+00 0. -1.
         23    2    1    2    0    0  0.00000000000E+00  0.00000000000E+00  0.00000000000E+00  0.60000000000E+02  0.60000000000E+02 0.  0.
          5    1    3    3  501    0  0.17070473079E+02 -0.23846704808E+02  0.42241707644E+01  0.30000000000E+02  0.47000000000E+01 0. -1.
         -5    1    3    3    0  501 -0.17070473079E+02  0.23846704808E+02 -0.42241707644E+01  0.30000000000E+02  0.47000000000E+01 0.  1.
</event>
<event>
 5    1  0.7624361E-002  0.6000000E+02  0.7546771E-02  0.1259629E+00
         11   -1    0    0    0    0  0.00000000000E+00  0.00000000000E+00  0.30000000000E+02  0.30000000000E+02  0.00000000000E+00 0.  1.
        -11   -1    0    0    0    0 -0.00000000000E+00 -0.00000000000E+00 -0.30000000000E+02  0.30000000000E+02  0.00000000000E+00 0. -1.
         23    2    1    2    0    0  0.00000000000E+00  0.00000000000E+00  0.00000000000E+00  0.60000000000E+02  0.60000000000E+02 0.  0.
          5    1    3    3  501    0  0.23336208322E+00  0.13840852346E+01 -0.29596281020E+02  0.30000000000E+02  0.47000000000E+01 0. -1.
         -5    1    3    3    0  501 -0.23336208322E+00 -0.13840852346E+01  0.29596281020E+02  0.30000000000E+02  0.47000000000E+01 0.  1.
</event>
<event>
 5    1  0.7624361E-002  0.6000000E+02  0.7546771E-02  0.1259629E+00
         11   -1    0    0    0    0  0.00000000000E+00  0.00000000000E+00  0.30000000000E+02  0.30000000000E+02  0.00000000000E+00 0. -1.
        -11   -1    0    0    0    0 -0.00000000000E+00 -0.00000000000E+00 -0.30000000000E+02  0.30000000000E+02  0.00000000000E+00 0.  1.
         23    2    1    2    0    0  0.00000000000E+00  0.00000000000E+00  0.00000000000E+00  0.60000000000E+02  0.60000000000E+02 0.  0.
          5    1    3    3  501    0  0.37224796803E+01  0.59350063527E+01 -0.28789387708E+02  0.30000000000E+02  0.47000000000E+01 0.  1.
         -5    1    3    3    0  501 -0.37224796803E+01 -0.59350063527E+01  0.28789387708E+02  0.30000000000E+02  0.47000000000E+01 0. -1.
</event>
<event>
 5    1  0.7624361E-002  0.6000000E+02  0.7546771E-02  0.1259629E+00
         11   -1    0    0    0    0  0.00000000000E+00  0.00000000000E+00  0.30000000000E+02  0.30000000000E+02  0.00000000000E+00 0.  1.
        -11   -1    0    0    0    0 -0.00000000000E+00 -0.00000000000E+00 -0.30000000000E+02  0.30000000000E+02  0.00000000000E+00 0. -1.
         23    2    1    2    0    0  0.00000000000E+00  0.00000000000E+00  0.00000000000E+00  0.60000000000E+02  0.60000000000E+02 0.  0.
          5    1    3    3  501    0  0.37904665946E+01 -0.90831549605E+00 -0.29372050081E+02  0.30000000000E+02  0.47000000000E+01 0. -1.
         -5    1    3    3    0  501 -0.37904665946E+01  0.90831549605E+00  0.29372050081E+02  0.30000000000E+02  0.47000000000E+01 0.  1.
</event>
<event>
 5    1  0.7624361E-002  0.6000000E+02  0.7546771E-02  0.1259629E+00
         11   -1    0    0    0    0  0.00000000000E+00  0.00000000000E+00  0.30000000000E+02  0.30000000000E+02  0.00000000000E+00 0.  1.
        -11   -1    0    0    0    0 -0.00000000000E+00 -0.00000000000E+00 -0.30000000000E+02  0.30000000000E+02  0.00000000000E+00 0. -1.
         23    2    1    2    0    0  0.00000000000E+00  0.00000000000E+00  0.00000000000E+00  0.60000000000E+02  0.60000000000E+02 0.  0.
          5    1    3    3  501    0 -0.18253452045E+02 -0.16271058655E+02 -0.16732427759E+02  0.30000000000E+02  0.47000000000E+01 0. -1.
         -5    1    3    3    0  501  0.18253452045E+02  0.16271058655E+02  0.16732427759E+02  0.30000000000E+02  0.47000000000E+01 0.  1.
</event>
<event>
 5    1  0.7624361E-002  0.6000000E+02  0.7546771E-02  0.1259629E+00
         11   -1    0    0    0    0  0.00000000000E+00  0.00000000000E+00  0.30000000000E+02  0.30000000000E+02  0.00000000000E+00 0.  1.
        -11   -1    0    0    0    0 -0.00000000000E+00 -0.00000000000E+00 -0.30000000000E+02  0.30000000000E+02  0.00000000000E+00 0. -1.
         23    2    1    2    0    0  0.00000000000E+00  0.00000000000E+00  0.00000000000E+00  0.60000000000E+02  0.60000000000E+02 0.  0.
          5    1    3    3  501    0 -0.69962275128E+01  0.16324729855E+02 -0.23716365568E+02  0.30000000000E+02  0.47000000000E+01 0. -1.
         -5    1    3    3    0  501  0.69962275128E+01 -0.16324729855E+02  0.23716365568E+02  0.30000000000E+02  0.47000000000E+01 0.  1.
</event>
<event>
 5    1  0.7624361E-002  0.6000000E+02  0.7546771E-02  0.1259629E+00
         11   -1    0    0    0    0  0.00000000000E+00  0.00000000000E+00  0.30000000000E+02  0.30000000000E+02  0.00000000000E+00 0. -1.
        -11   -1    0    0    0    0 -0.00000000000E+00 -0.00000000000E+00 -0.30000000000E+02  0.30000000000E+02  0.00000000000E+00 0.  1.
         23    2    1    2    0    0  0.00000000000E+00  0.00000000000E+00  0.00000000000E+00  0.60000000000E+02  0.60000000000E+02 0.  0.
          5    1    3    3  501    0 -0.17961954475E+02  0.18784619315E+02  0.14227307147E+02  0.30000000000E+02  0.47000000000E+01 0. -1.
         -5    1    3    3    0  501  0.17961954475E+02 -0.18784619315E+02 -0.14227307147E+02  0.30000000000E+02  0.47000000000E+01 0.  1.
</event>
<event>
 5    1  0.7624361E-002  0.6000000E+02  0.7546771E-02  0.1259629E+00
         11   -1    0    0    0    0  0.00000000000E+00  0.00000000000E+00  0.30000000000E+02  0.30000000000E+02  0.00000000000E+00 0.  1.
        -11   -1    0    0    0    0 -0.00000000000E+00 -0.00000000000E+00 -0.30000000000E+02  0.30000000000E+02  0.00000000000E+00 0. -1.
         23    2    1    2    0    0  0.00000000000E+00  0.00000000000E+00  0.00000000000E+00  0.60000000000E+02  0.60000000000E+02 0.  0.
          5    1    3    3  501    0 -0.27506366073E+01 -0.45391412339E+01  0.29150303517E+02  0.30000000000E+02  0.47000000000E+01 0.  1.
         -5    1    3    3    0  501  0.27506366073E+01  0.45391412339E+01 -0.29150303517E+02  0.30000000000E+02  0.47000000000E+01 0. -1.
</event>
<event>
 5    1  0.7624361E-002  0.6000000E+02  0.7546771E-02  0.1259629E+00
         11   -1    0    0    0    0  0.00000000000E+00  0.00000000000E+00  0.30000000000E+02  0.30000000000E+02  0.00000000000E+00 0.  1.
        -11   -1    0    0    0    0 -0.00000000000E+00 -0.00000000000E+00 -0.30000000000E+02  0.30000000000E+02  0.00000000000E+00 0. -1.
         23    2    1    2    0    0  0.00000000000E+00  0.00000000000E+00  0.00000000000E+00  0.60000000000E+02  0.60000000000E+02 0.  0.
          5    1    3    3  501    0  0.25710331847E+02  0.78090541156E+00 -0.14706427950E+02  0.30000000000E+02  0.47000000000E+01 0. -1.
         -5    1    3    3    0  501 -0.25710331847E+02 -0.78090541156E+00  0.14706427950E+02  0.30000000000E+02  0.47000000000E+01 0.  1.
</event>
<event>
 5    1  0.7624361E-002  0.6000000E+02  0.7546771E-02  0.1259629E+00
         11   -1    0    0    0    0  0.00000000000E+00  0.00000000000E+00  0.30000000000E+02  0.30000000000E+02  0.00000000000E+00 0.  1.
        -11   -1    0    0    0    0 -0.00000000000E+00 -0.00000000000E+00 -0.30000000000E+02  0.30000000000E+02  0.00000000000E+00 0. -1.
         23    2    1    2    0    0  0.00000000000E+00  0.00000000000E+00  0.00000000000E+00  0.60000000000E+02  0.60000000000E+02 0.  0.
          5    1    3    3  501    0 -0.23767941138E+01 -0.74841912613E+01  0.28570049543E+02  0.30000000000E+02  0.47000000000E+01 0.  1.
         -5    1    3    3    0  501  0.23767941138E+01  0.74841912613E+01 -0.28570049543E+02  0.30000000000E+02  0.47000000000E+01 0. -1.
</event>
<event>
 5    1  0.7624361E-002  0.6000000E+02  0.7546771E-02  0.1259629E+00
         11   -1    0    0    0    0  0.00000000000E+00  0.00000000000E+00  0.30000000000E+02  0.30000000000E+02  0.00000000000E+00 0.  1.
        -11   -1    0    0    0    0 -0.00000000000E+00 -0.00000000000E+00 -0.30000000000E+02  0.30000000000E+02  0.00000000000E+00 0. -1.
         23    2    1    2    0    0  0.00000000000E+00  0.00000000000E+00  0.00000000000E+00  0.60000000000E+02  0.60000000000E+02 0.  0.
          5    1    3    3  501    0 -0.67224618633E+01  0.84036607189E+01 -0.27606104271E+02  0.30000000000E+02  0.47000000000E+01 0. -1.
         -5    1    3    3    0  501  0.67224618633E+01 -0.84036607189E+01  0.27606104271E+02  0.30000000000E+02  0.47000000000E+01 0.  1.
</event>
<event>
 5    1  0.7624361E-002  0.6000000E+02  0.7546771E-02  0.1259629E+00
         11   -1    0    0    0    0  0.00000000000E+00  0.00000000000E+00  0.30000000000E+02  0.30000000000E+02  0.00000000000E+00 0.  1.
        -11   -1    0    0    0    0 -0.00000000000E+00 -0.00000000000E+00 -0.30000000000E+02  0.30000000000E+02  0.00000000000E+00 0. -1.
         23    2    1    2    0    0  0.00000000000E+00  0.00000000000E+00  0.00000000000E+00  0.60000000000E+02  0.60000000000E+02 0.  0.
          5    1    3    3  501    0 -0.11518205417E+01  0.11842588699E+02 -0.27135519202E+02  0.30000000000E+02  0.47000000000E+01 0. -1.
         -5    1    3    3    0  501  0.11518205417E+01 -0.11842588699E+02  0.27135519202E+02  0.30000000000E+02  0.47000000000E+01 0.  1.
</event>
<event>
 5    1  0.7624361E-002  0.6000000E+02  0.7546771E-02  0.1259629E+00
         11   -1    0    0    0    0  0.00000000000E+00  0.00000000000E+00  0.30000000000E+02  0.30000000000E+02  0.00000000000E+00 0. -1.
        -11   -1    0    0    0    0 -0.00000000000E+00 -0.00000000000E+00 -0.30000000000E+02  0.30000000000E+02  0.00000000000E+00 0.  1.
         23    2    1    2    0    0  0.00000000000E+00  0.00000000000E+00  0.00000000000E+00  0.60000000000E+02  0.60000000000E+02 0.  0.
          5    1    3    3  501    0 -0.16096590062E+02 -0.11331318190E+02 -0.22145225591E+02  0.30000000000E+02  0.47000000000E+01 0.  1.
         -5    1    3    3    0  501  0.16096590062E+02  0.11331318190E+02  0.22145225591E+02  0.30000000000E+02  0.47000000000E+01 0. -1.
</event>
<event>
 5    1  0.7624361E-002  0.6000000E+02  0.7546771E-02  0.1259629E+00
         11   -1    0    0    0    0  0.00000000000E+00  0.00000000000E+00  0.30000000000E+02  0.30000000000E+02  0.00000000000E+00 0. -1.
        -11   -1    0    0    0    0 -0.00000000000E+00 -0.00000000000E+00 -0.30000000000E+02  0.30000000000E+02  0.00000000000E+00 0.  1.
         23    2    1    2    0    0  0.00000000000E+00  0.00000000000E+00  0.00000000000E+00  0.60000000000E+02  0.60000000000E+02 0.  0.
          5    1    3    3  501    0  0.27664935552E+02  0.36083468253E+01 -0.99770323300E+01  0.30000000000E+02  0.47000000000E+01 0.  1.
         -5    1    3    3    0  501 -0.27664935552E+02 -0.36083468253E+01  0.99770323300E+01  0.30000000000E+02  0.47000000000E+01 0. -1.
</event>
<event>
 5    1  0.7624361E-002  0.6000000E+02  0.7546771E-02  0.1259629E+00
         11   -1    0    0    0    0  0.00000000000E+00  0.00000000000E+00  0.30000000000E+02  0.30000000000E+02  0.00000000000E+00 0.  1.
        -11   -1    0    0    0    0 -0.00000000000E+00 -0.00000000000E+00 -0.30000000000E+02  0.30000000000E+02  0.00000000000E+00 0. -1.
         23    2    1    2    0    0  0.00000000000E+00  0.00000000000E+00  0.00000000000E+00  0.60000000000E+02  0.60000000000E+02 0.  0.
          5    1    3    3  501    0  0.10319919224E+02 -0.19726773792E+02 -0.19551564208E+02  0.30000000000E+02  0.47000000000E+01 0. -1.
         -5    1    3    3    0  501 -0.10319919224E+02  0.19726773792E+02  0.19551564208E+02  0.30000000000E+02  0.47000000000E+01 0.  1.
</event>
<event>
 5    1  0.7624361E-002  0.6000000E+02  0.7546771E-02  0.1259629E+00
         11   -1    0    0    0    0  0.00000000000E+00  0.00000000000E+00  0.30000000000E+02  0.30000000000E+02  0.00000000000E+00 0.  1.
        -11   -1    0    0    0    0 -0.00000000000E+00 -0.00000000000E+00 -0.30000000000E+02  0.30000000000E+02  0.00000000000E+00 0. -1.
         23    2    1    2    0    0  0.00000000000E+00  0.00000000000E+00  0.00000000000E+00  0.60000000000E+02  0.60000000000E+02 0.  0.
          5    1    3    3  501    0  0.26867011756E+02 -0.98714590555E+01 -0.76568907154E+01  0.30000000000E+02  0.47000000000E+01 0. -1.
         -5    1    3    3    0  501 -0.26867011756E+02  0.98714590555E+01  0.76568907154E+01  0.30000000000E+02  0.47000000000E+01 0.  1.
</event>
<event>
 5    1  0.7624361E-002  0.6000000E+02  0.7546771E-02  0.1259629E+00
         11   -1    0    0    0    0  0.00000000000E+00  0.00000000000E+00  0.30000000000E+02  0.30000000000E+02  0.00000000000E+00 0.  1.
        -11   -1    0    0    0    0 -0.00000000000E+00 -0.00000000000E+00 -0.30000000000E+02  0.30000000000E+02  0.00000000000E+00 0. -1.
         23    2    1    2    0    0  0.00000000000E+00  0.00000000000E+00  0.00000000000E+00  0.60000000000E+02  0.60000000000E+02 0.  0.
          5    1    3    3  501    0  0.12408840475E+02 -0.25275548715E+02 -0.92237365108E+01  0.30000000000E+02  0.47000000000E+01 0. -1.
         -5    1    3    3    0  501 -0.12408840475E+02  0.25275548715E+02  0.92237365108E+01  0.30000000000E+02  0.47000000000E+01 0.  1.
</event>
<event>
 5    1  0.7624361E-002  0.6000000E+02  0.7546771E-02  0.1259629E+00
         11   -1    0    0    0    0  0.00000000000E+00  0.00000000000E+00  0.30000000000E+02  0.30000000000E+02  0.00000000000E+00 0.  1.
        -11   -1    0    0    0    0 -0.00000000000E+00 -0.00000000000E+00 -0.30000000000E+02  0.30000000000E+02  0.00000000000E+00 0. -1.
         23    2    1    2    0    0  0.00000000000E+00  0.00000000000E+00  0.00000000000E+00  0.60000000000E+02  0.60000000000E+02 0.  0.
          5    1    3    3  501    0  0.33624755019E-01  0.20399844328E+02 -0.21488490425E+02  0.30000000000E+02  0.47000000000E+01 0. -1.
         -5    1    3    3    0  501 -0.33624755019E-01 -0.20399844328E+02  0.21488490425E+02  0.30000000000E+02  0.47000000000E+01 0.  1.
</event>
<event>
 5    1  0.7624361E-002  0.6000000E+02  0.7546771E-02  0.1259629E+00
         11   -1    0    0    0    0  0.00000000000E+00  0.00000000000E+00  0.30000000000E+02  0.30000000000E+02  0.00000000000E+00 0.  1.
        -11   -1    0    0    0    0 -0.00000000000E+00 -0.00000000000E+00 -0.30000000000E+02  0.30000000000E+02  0.00000000000E+00 0. -1.
         23    2    1    2    0    0  0.00000000000E+00  0.00000000000E+00  0.00000000000E+00  0.60000000000E+02  0.60000000000E+02 0.  0.
          5    1    3    3  501    0 -0.87242803963E+01 -0.25973227501E+02  0.11277782794E+02  0.30000000000E+02  0.47000000000E+01 0. -1.
         -5    1    3    3    0  501  0.87242803963E+01  0.25973227501E+02 -0.11277782794E+02  0.30000000000E+02  0.47000000000E+01 0.  1.
</event>
<event>
 5    1  0.7624361E-002  0.6000000E+02  0.7546771E-02  0.1259629E+00
         11   -1    0    0    0    0  0.00000000000E+00  0.00000000000E+00  0.30000000000E+02  0.30000000000E+02  0.00000000000E+00 0.  1.
        -11   -1    0    0    0    0 -0.00000000000E+00 -0.00000000000E+00 -0.30000000000E+02  0.30000000000E+02  0.00000000000E+00 0. -1.
         23    2    1    2    0    0  0.00000000000E+00  0.00000000000E+00  0.00000000000E+00  0.60000000000E+02  0.60000000000E+02 0.  0.
          5    1    3    3  501    0  0.12861282109E+02 -0.37047227908E+01  0.26434304446E+02  0.30000000000E+02  0.47000000000E+01 0.  1.
         -5    1    3    3    0  501 -0.12861282109E+02  0.37047227908E+01 -0.26434304446E+02  0.30000000000E+02  0.47000000000E+01 0. -1.
</event>
<event>
 5    1  0.7624361E-002  0.6000000E+02  0.7546771E-02  0.1259629E+00
         11   -1    0    0    0    0  0.00000000000E+00  0.00000000000E+00  0.30000000000E+02  0.30000000000E+02  0.00000000000E+00 0. -1.
        -11   -1    0    0    0    0 -0.00000000000E+00 -0.00000000000E+00 -0.30000000000E+02  0.30000000000E+02  0.00000000000E+00 0.  1.
         23    2    1    2    0    0  0.00000000000E+00  0.00000000000E+00  0.00000000000E+00  0.60000000000E+02  0.60000000000E+02 0.  0.
          5    1    3    3  501    0 -0.25774110278E+02  0.12544516267E+02 -0.74993567060E+01  0.30000000000E+02  0.47000000000E+01 0.  1.
         -5    1    3    3    0  501  0.25774110278E+02 -0.12544516267E+02  0.74993567060E+01  0.30000000000E+02  0.47000000000E+01 0. -1.
</event>
<event>
 5    1  0.7624361E-002  0.6000000E+02  0.7546771E-02  0.1259629E+00
         11   -1    0    0    0    0  0.00000000000E+00  0.00000000000E+00  0.30000000000E+02  0.30000000000E+02  0.00000000000E+00 0. -1.
        -11   -1    0    0    0    0 -0.00000000000E+00 -0.00000000000E+00 -0.30000000000E+02  0.30000000000E+02  0.00000000000E+00 0.  1.
         23    2    1    2    0    0  0.00000000000E+00  0.00000000000E+00  0.00000000000E+00  0.60000000000E+02  0.60000000000E+02 0.  0.
          5    1    3    3  501    0 -0.10113870496E+02 -0.26753378553E+02 -0.77379816225E+01  0.30000000000E+02  0.47000000000E+01 0.  1.
         -5    1    3    3    0  501  0.10113870496E+02  0.26753378553E+02  0.77379816225E+01  0.30000000000E+02  0.47000000000E+01 0. -1.
</event>
<event>
 5    1  0.7624361E-002  0.6000000E+02  0.7546771E-02  0.1259629E+00
         11   -1    0    0    0    0  0.00000000000E+00  0.00000000000E+00  0.30000000000E+02  0.30000000000E+02  0.00000000000E+00 0.  1.
        -11   -1    0    0    0    0 -0.00000000000E+00 -0.00000000000E+00 -0.30000000000E+02  0.30000000000E+02  0.00000000000E+00 0. -1.
         23    2    1    2    0    0  0.00000000000E+00  0.00000000000E+00  0.00000000000E+00  0.60000000000E+02  0.60000000000E+02 0.  0.
          5    1    3    3  501    0  0.12098294590E+02 -0.11548764681E+02 -0.24457459033E+02  0.30000000000E+02  0.47000000000E+01 0. -1.
         -5    1    3    3    0  501 -0.12098294590E+02  0.11548764681E+02  0.24457459033E+02  0.30000000000E+02  0.47000000000E+01 0.  1.
</event>
<event>
 5    1  0.7624361E-002  0.6000000E+02  0.7546771E-02  0.1259629E+00
         11   -1    0    0    0    0  0.00000000000E+00  0.00000000000E+00  0.30000000000E+02  0.30000000000E+02  0.00000000000E+00 0.  1.
        -11   -1    0    0    0    0 -0.00000000000E+00 -0.00000000000E+00 -0.30000000000E+02  0.30000000000E+02  0.00000000000E+00 0. -1.
         23    2    1    2    0    0  0.00000000000E+00  0.00000000000E+00  0.00000000000E+00  0.60000000000E+02  0.60000000000E+02 0.  0.
          5    1    3    3  501    0  0.10476574893E+02  0.27138302270E+02 -0.56270710338E+01  0.30000000000E+02  0.47000000000E+01 0. -1.
         -5    1    3    3    0  501 -0.10476574893E+02 -0.27138302270E+02  0.56270710338E+01  0.30000000000E+02  0.47000000000E+01 0.  1.
</event>
<event>
 5    1  0.7624361E-002  0.6000000E+02  0.7546771E-02  0.1259629E+00
         11   -1    0    0    0    0  0.00000000000E+00  0.00000000000E+00  0.30000000000E+02  0.30000000000E+02  0.00000000000E+00 0. -1.
        -11   -1    0    0    0    0 -0.00000000000E+00 -0.00000000000E+00 -0.30000000000E+02  0.30000000000E+02  0.00000000000E+00 0.  1.
         23    2    1    2    0    0  0.00000000000E+00  0.00000000000E+00  0.00000000000E+00  0.60000000000E+02  0.60000000000E+02 0.  0.
          5    1    3    3  501    0  0.28496933717E+02  0.12047708172E+01  0.80239202400E+01  0.30000000000E+02  0.47000000000E+01 0.  1.
         -5    1    3    3    0  501 -0.28496933717E+02 -0.12047708172E+01 -0.80239202400E+01  0.30000000000E+02  0.47000000000E+01 0. -1.
</event>
<event>
 5    1  0.7624361E-002  0.6000000E+02  0.7546771E-02  0.1259629E+00
         11   -1    0    0    0    0  0.00000000000E+00  0.00000000000E+00  0.30000000000E+02  0.30000000000E+02  0.00000000000E+00 0.  1.
        -11   -1    0    0    0    0 -0.00000000000E+00 -0.00000000000E+00 -0.30000000000E+02  0.30000000000E+02  0.00000000000E+00 0. -1.
         23    2    1    2    0    0  0.00000000000E+00  0.00000000000E+00  0.00000000000E+00  0.60000000000E+02  0.60000000000E+02 0.  0.
          5    1    3    3  501    0  0.15428227817E+01 -0.29524144410E+02 -0.19633121883E+01  0.30000000000E+02  0.47000000000E+01 0.  1.
         -5    1    3    3    0  501 -0.15428227817E+01  0.29524144410E+02  0.19633121883E+01  0.30000000000E+02  0.47000000000E+01 0. -1.
</event>
<event>
 5    1  0.7624361E-002  0.6000000E+02  0.7546771E-02  0.1259629E+00
         11   -1    0    0    0    0  0.00000000000E+00  0.00000000000E+00  0.30000000000E+02  0.30000000000E+02  0.00000000000E+00 0.  1.
        -11   -1    0    0    0    0 -0.00000000000E+00 -0.00000000000E+00 -0.30000000000E+02  0.30000000000E+02  0.00000000000E+00 0. -1.
         23    2    1    2    0    0  0.00000000000E+00  0.00000000000E+00  0.00000000000E+00  0.60000000000E+02  0.60000000000E+02 0.  0.
          5    1    3    3  501    0  0.11406754575E+02 -0.16783713331E+02 -0.21589416780E+02  0.30000000000E+02  0.47000000000E+01 0. -1.
         -5    1    3    3    0  501 -0.11406754575E+02  0.16783713331E+02  0.21589416780E+02  0.30000000000E+02  0.47000000000E+01 0.  1.
</event>
<event>
 5    1  0.7624361E-002  0.6000000E+02  0.7546771E-02  0.1259629E+00
         11   -1    0    0    0    0  0.00000000000E+00  0.00000000000E+00  0.30000000000E+02  0.30000000000E+02  0.00000000000E+00 0. -1.
        -11   -1    0    0    0    0 -0.00000000000E+00 -0.00000000000E+00 -0.30000000000E+02  0.30000000000E+02  0.00000000000E+00 0.  1.
         23    2    1    2    0    0  0.00000000000E+00  0.00000000000E+00  0.00000000000E+00  0.60000000000E+02  0.60000000000E+02 0.  0.
          5    1    3    3  501    0  0.46253534623E+01  0.20981501326E+02  0.20403252375E+02  0.30000000000E+02  0.47000000000E+01 0. -1.
         -5    1    3    3    0  501 -0.46253534623E+01 -0.20981501326E+02 -0.20403252375E+02  0.30000000000E+02  0.47000000000E+01 0.  1.
</event>
<event>
 5    1  0.7624361E-002  0.6000000E+02  0.7546771E-02  0.1259629E+00
         11   -1    0    0    0    0  0.00000000000E+00  0.00000000000E+00  0.30000000000E+02  0.30000000000E+02  0.00000000000E+00 0. -1.
        -11   -1    0    0    0    0 -0.00000000000E+00 -0.00000000000E+00 -0.30000000000E+02  0.30000000000E+02  0.00000000000E+00 0.  1.
         23    2    1    2    0    0  0.00000000000E+00  0.00000000000E+00  0.00000000000E+00  0.60000000000E+02  0.60000000000E+02 0.  0.
          5    1    3    3  501    0  0.18061263103E+02  0.12242568714E+02 -0.20045455505E+02  0.30000000000E+02  0.47000000000E+01 0.  1.
         -5    1    3    3    0  501 -0.18061263103E+02 -0.12242568714E+02  0.20045455505E+02  0.30000000000E+02  0.47000000000E+01 0. -1.
</event>
<event>
 5    1  0.7624361E-002  0.6000000E+02  0.7546771E-02  0.1259629E+00
         11   -1    0    0    0    0  0.00000000000E+00  0.00000000000E+00  0.30000000000E+02  0.30000000000E+02  0.00000000000E+00 0.  1.
        -11   -1    0    0    0    0 -0.00000000000E+00 -0.00000000000E+00 -0.30000000000E+02  0.30000000000E+02  0.00000000000E+00 0. -1.
         23    2    1    2    0    0  0.00000000000E+00  0.00000000000E+00  0.00000000000E+00  0.60000000000E+02  0.60000000000E+02 0.  0.
          5    1    3    3  501    0 -0.33457476046E+01 -0.46926283821E-01  0.29440002902E+02  0.30000000000E+02  0.47000000000E+01 0.  1.
         -5    1    3    3    0  501  0.33457476046E+01  0.46926283821E-01 -0.29440002902E+02  0.30000000000E+02  0.47000000000E+01 0. -1.
</event>
<event>
 5    1  0.7624361E-002  0.6000000E+02  0.7546771E-02  0.1259629E+00
         11   -1    0    0    0    0  0.00000000000E+00  0.00000000000E+00  0.30000000000E+02  0.30000000000E+02  0.00000000000E+00 0.  1.
        -11   -1    0    0    0    0 -0.00000000000E+00 -0.00000000000E+00 -0.30000000000E+02  0.30000000000E+02  0.00000000000E+00 0. -1.
         23    2    1    2    0    0  0.00000000000E+00  0.00000000000E+00  0.00000000000E+00  0.60000000000E+02  0.60000000000E+02 0.  0.
          5    1    3    3  501    0  0.37425545490E+01 -0.90530865043E+01  0.27963277887E+02  0.30000000000E+02  0.47000000000E+01 0.  1.
         -5    1    3    3    0  501 -0.37425545490E+01  0.90530865043E+01 -0.27963277887E+02  0.30000000000E+02  0.47000000000E+01 0. -1.
</event>
<event>
 5    1  0.7624361E-002  0.6000000E+02  0.7546771E-02  0.1259629E+00
         11   -1    0    0    0    0  0.00000000000E+00  0.00000000000E+00  0.30000000000E+02  0.30000000000E+02  0.00000000000E+00 0.  1.
        -11   -1    0    0    0    0 -0.00000000000E+00 -0.00000000000E+00 -0.30000000000E+02  0.30000000000E+02  0.00000000000E+00 0. -1.
         23    2    1    2    0    0  0.00000000000E+00  0.00000000000E+00  0.00000000000E+00  0.60000000000E+02  0.60000000000E+02 0.  0.
          5    1    3    3  501    0  0.66555179471E+01  0.16893961206E+02  0.23413845383E+02  0.30000000000E+02  0.47000000000E+01 0.  1.
         -5    1    3    3    0  501 -0.66555179471E+01 -0.16893961206E+02 -0.23413845383E+02  0.30000000000E+02  0.47000000000E+01 0. -1.
</event>
<event>
 5    1  0.7624361E-002  0.6000000E+02  0.7546771E-02  0.1259629E+00
         11   -1    0    0    0    0  0.00000000000E+00  0.00000000000E+00  0.30000000000E+02  0.30000000000E+02  0.00000000000E+00 0.  1.
        -11   -1    0    0    0    0 -0.00000000000E+00 -0.00000000000E+00 -0.30000000000E+02  0.30000000000E+02  0.00000000000E+00 0. -1.
         23    2    1    2    0    0  0.00000000000E+00  0.00000000000E+00  0.00000000000E+00  0.60000000000E+02  0.60000000000E+02 0.  0.
          5    1    3    3  501    0  0.51729613797E+01  0.87222137383E+01 -0.27840141129E+02  0.30000000000E+02  0.47000000000E+01 0. -1.
         -5    1    3    3    0  501 -0.51729613797E+01 -0.87222137383E+01  0.27840141129E+02  0.30000000000E+02  0.47000000000E+01 0.  1.
</event>
<event>
 5    1  0.7624361E-002  0.6000000E+02  0.7546771E-02  0.1259629E+00
         11   -1    0    0    0    0  0.00000000000E+00  0.00000000000E+00  0.30000000000E+02  0.30000000000E+02  0.00000000000E+00 0.  1.
        -11   -1    0    0    0    0 -0.00000000000E+00 -0.00000000000E+00 -0.30000000000E+02  0.30000000000E+02  0.00000000000E+00 0. -1.
         23    2    1    2    0    0  0.00000000000E+00  0.00000000000E+00  0.00000000000E+00  0.60000000000E+02  0.60000000000E+02 0.  0.
          5    1    3    3  501    0  0.69564754798E+01 -0.15417908338E+02 -0.24327053899E+02  0.30000000000E+02  0.47000000000E+01 0. -1.
         -5    1    3    3    0  501 -0.69564754798E+01  0.15417908338E+02  0.24327053899E+02  0.30000000000E+02  0.47000000000E+01 0.  1.
</event>
<event>
 5    1  0.7624361E-002  0.6000000E+02  0.7546771E-02  0.1259629E+00
         11   -1    0    0    0    0  0.00000000000E+00  0.00000000000E+00  0.30000000000E+02  0.30000000000E+02  0.00000000000E+00 0.  1.
        -11   -1    0    0    0    0 -0.00000000000E+00 -0.00000000000E+00 -0.30000000000E+02  0.30000000000E+02  0.00000000000E+00 0. -1.
         23    2    1    2    0    0  0.00000000000E+00  0.00000000000E+00  0.00000000000E+00  0.60000000000E+02  0.60000000000E+02 0.  0.
          5    1    3    3  501    0  0.15235032244E+02 -0.17839851208E+02  0.18098162929E+02  0.30000000000E+02  0.47000000000E+01 0.  1.
         -5    1    3    3    0  501 -0.15235032244E+02  0.17839851208E+02 -0.18098162929E+02  0.30000000000E+02  0.47000000000E+01 0. -1.
</event>
<event>
 5    1  0.7624361E-002  0.6000000E+02  0.7546771E-02  0.1259629E+00
         11   -1    0    0    0    0  0.00000000000E+00  0.00000000000E+00  0.30000000000E+02  0.30000000000E+02  0.00000000000E+00 0. -1.
        -11   -1    0    0    0    0 -0.00000000000E+00 -0.00000000000E+00 -0.30000000000E+02  0.30000000000E+02  0.00000000000E+00 0.  1.
         23    2    1    2    0    0  0.00000000000E+00  0.00000000000E+00  0.00000000000E+00  0.60000000000E+02  0.60000000000E+02 0.  0.
          5    1    3    3  501    0 -0.29029475555E+01  0.42994898384E+01 -0.29171857716E+02  0.30000000000E+02  0.47000000000E+01 0.  1.
         -5    1    3    3    0  501  0.29029475555E+01 -0.42994898384E+01  0.29171857716E+02  0.30000000000E+02  0.47000000000E+01 0. -1.
</event>
<event>
 5    1  0.7624361E-002  0.6000000E+02  0.7546771E-02  0.1259629E+00
         11   -1    0    0    0    0  0.00000000000E+00  0.00000000000E+00  0.30000000000E+02  0.30000000000E+02  0.00000000000E+00 0.  1.
        -11   -1    0    0    0    0 -0.00000000000E+00 -0.00000000000E+00 -0.30000000000E+02  0.30000000000E+02  0.00000000000E+00 0. -1.
         23    2    1    2    0    0  0.00000000000E+00  0.00000000000E+00  0.00000000000E+00  0.60000000000E+02  0.60000000000E+02 0.  0.
          5    1    3    3  501    0 -0.21787638801E+02 -0.10854283249E+01 -0.20050701754E+02  0.30000000000E+02  0.47000000000E+01 0. -1.
         -5    1    3    3    0  501  0.21787638801E+02  0.10854283249E+01  0.20050701754E+02  0.30000000000E+02  0.47000000000E+01 0.  1.
</event>
<event>
 5    1  0.7624361E-002  0.6000000E+02  0.7546771E-02  0.1259629E+00
         11   -1    0    0    0    0  0.00000000000E+00  0.00000000000E+00  0.30000000000E+02  0.30000000000E+02  0.00000000000E+00 0.  1.
        -11   -1    0    0    0    0 -0.00000000000E+00 -0.00000000000E+00 -0.30000000000E+02  0.30000000000E+02  0.00000000000E+00 0. -1.
         23    2    1    2    0    0  0.00000000000E+00  0.00000000000E+00  0.00000000000E+00  0.60000000000E+02  0.60000000000E+02 0.  0.
          5    1    3    3  501    0  0.97850728577E+01  0.25819542529E+02 -0.10747724074E+02  0.30000000000E+02  0.47000000000E+01 0. -1.
         -5    1    3    3    0  501 -0.97850728577E+01 -0.25819542529E+02  0.10747724074E+02  0.30000000000E+02  0.47000000000E+01 0.  1.
</event>
<event>
 5    1  0.7624361E-002  0.6000000E+02  0.7546771E-02  0.1259629E+00
         11   -1    0    0    0    0  0.00000000000E+00  0.00000000000E+00  0.30000000000E+02  0.30000000000E+02  0.00000000000E+00 0. -1.
        -11   -1    0    0    0    0 -0.00000000000E+00 -0.00000000000E+00 -0.30000000000E+02  0.30000000000E+02  0.00000000000E+00 0.  1.
         23    2    1    2    0    0  0.00000000000E+00  0.00000000000E+00  0.00000000000E+00  0.60000000000E+02  0.60000000000E+02 0.  0.
          5    1    3    3  501    0  0.15887684327E+02 -0.85153291230E+01 -0.23515540748E+02  0.30000000000E+02  0.47000000000E+01 0.  1.
         -5    1    3    3    0  501 -0.15887684327E+02  0.85153291230E+01  0.23515540748E+02  0.30000000000E+02  0.47000000000E+01 0. -1.
</event>
<event>
 5    1  0.7624361E-002  0.6000000E+02  0.7546771E-02  0.1259629E+00
         11   -1    0    0    0    0  0.00000000000E+00  0.00000000000E+00  0.30000000000E+02  0.30000000000E+02  0.00000000000E+00 0.  1.
        -11   -1    0    0    0    0 -0.00000000000E+00 -0.00000000000E+00 -0.30000000000E+02  0.30000000000E+02  0.00000000000E+00 0. -1.
         23    2    1    2    0    0  0.00000000000E+00  0.00000000000E+00  0.00000000000E+00  0.60000000000E+02  0.60000000000E+02 0.  0.
          5    1    3    3  501    0  0.38372216778E+01  0.10426685829E+02 -0.27467616431E+02  0.30000000000E+02  0.47000000000E+01 0. -1.
         -5    1    3    3    0  501 -0.38372216778E+01 -0.10426685829E+02  0.27467616431E+02  0.30000000000E+02  0.47000000000E+01 0.  1.
</event>
<event>
 5    1  0.7624361E-002  0.6000000E+02  0.7546771E-02  0.1259629E+00
         11   -1    0    0    0    0  0.00000000000E+00  0.00000000000E+00  0.30000000000E+02  0.30000000000E+02  0.00000000000E+00 0.  1.
        -11   -1    0    0    0    0 -0.00000000000E+00 -0.00000000000E+00 -0.30000000000E+02  0.30000000000E+02  0.00000000000E+00 0. -1.
         23    2    1    2    0    0  0.00000000000E+00  0.00000000000E+00  0.00000000000E+00  0.60000000000E+02  0.60000000000E+02 0.  0.
          5    1    3    3  501    0  0.14169811371E+02 -0.12388652792E+02 -0.22883350447E+02  0.30000000000E+02  0.47000000000E+01 0. -1.
         -5    1    3    3    0  501 -0.14169811371E+02  0.12388652792E+02  0.22883350447E+02  0.30000000000E+02  0.47000000000E+01 0.  1.
</event>
<event>
 5    1  0.7624361E-002  0.6000000E+02  0.7546771E-02  0.1259629E+00
         11   -1    0    0    0    0  0.00000000000E+00  0.00000000000E+00  0.30000000000E+02  0.30000000000E+02  0.00000000000E+00 0.  1.
        -11   -1    0    0    0    0 -0.00000000000E+00 -0.00000000000E+00 -0.30000000000E+02  0.30000000000E+02  0.00000000000E+00 0. -1.
         23    2    1    2    0    0  0.00000000000E+00  0.00000000000E+00  0.00000000000E+00  0.60000000000E+02  0.60000000000E+02 0.  0.
          5    1    3    3  501    0 -0.26970801683E+02  0.20314597756E+01 -0.12097893525E+02  0.30000000000E+02  0.47000000000E+01 0. -1.
         -5    1    3    3    0  501  0.26970801683E+02 -0.20314597756E+01  0.12097893525E+02  0.30000000000E+02  0.47000000000E+01 0.  1.
</event>
<event>
 5    1  0.7624361E-002  0.6000000E+02  0.7546771E-02  0.1259629E+00
         11   -1    0    0    0    0  0.00000000000E+00  0.00000000000E+00  0.30000000000E+02  0.30000000000E+02  0.00000000000E+00 0.  1.
        -11   -1    0    0    0    0 -0.00000000000E+00 -0.00000000000E+00 -0.30000000000E+02  0.30000000000E+02  0.00000000000E+00 0. -1.
         23    2    1    2    0    0  0.00000000000E+00  0.00000000000E+00  0.00000000000E+00  0.60000000000E+02  0.60000000000E+02 0.  0.
          5    1    3    3  501    0 -0.16681702744E+02  0.14456172794E+02 -0.19764864323E+02  0.30000000000E+02  0.47000000000E+01 0. -1.
         -5    1    3    3    0  501  0.16681702744E+02 -0.14456172794E+02  0.19764864323E+02  0.30000000000E+02  0.47000000000E+01 0.  1.
</event>
<event>
 5    1  0.7624361E-002  0.6000000E+02  0.7546771E-02  0.1259629E+00
         11   -1    0    0    0    0  0.00000000000E+00  0.00000000000E+00  0.30000000000E+02  0.30000000000E+02  0.00000000000E+00 0.  1.
        -11   -1    0    0    0    0 -0.00000000000E+00 -0.00000000000E+00 -0.30000000000E+02  0.30000000000E+02  0.00000000000E+00 0. -1.
         23    2    1    2    0    0  0.00000000000E+00  0.00000000000E+00  0.00000000000E+00  0.60000000000E+02  0.60000000000E+02 0.  0.
          5    1    3    3  501    0 -0.40227141496E+01 -0.31309546764E+01 -0.29187752460E+02  0.30000000000E+02  0.47000000000E+01 0. -1.
         -5    1    3    3    0  501  0.40227141496E+01  0.31309546764E+01  0.29187752460E+02  0.30000000000E+02  0.47000000000E+01 0.  1.
</event>
<event>
 5    1  0.7624361E-002  0.6000000E+02  0.7546771E-02  0.1259629E+00
         11   -1    0    0    0    0  0.00000000000E+00  0.00000000000E+00  0.30000000000E+02  0.30000000000E+02  0.00000000000E+00 0. -1.
        -11   -1    0    0    0    0 -0.00000000000E+00 -0.00000000000E+00 -0.30000000000E+02  0.30000000000E+02  0.00000000000E+00 0.  1.
         23    2    1    2    0    0  0.00000000000E+00  0.00000000000E+00  0.00000000000E+00  0.60000000000E+02  0.60000000000E+02 0.  0.
          5    1    3    3  501    0  0.10991425405E+02 -0.25088653936E+02 -0.11298584480E+02  0.30000000000E+02  0.47000000000E+01 0.  1.
         -5    1    3    3    0  501 -0.10991425405E+02  0.25088653936E+02  0.11298584480E+02  0.30000000000E+02  0.47000000000E+01 0. -1.
</event>
<event>
 5    1  0.7624361E-002  0.6000000E+02  0.7546771E-02  0.1259629E+00
         11   -1    0    0    0    0  0.00000000000E+00  0.00000000000E+00  0.30000000000E+02  0.30000000000E+02  0.00000000000E+00 0.  1.
        -11   -1    0    0    0    0 -0.00000000000E+00 -0.00000000000E+00 -0.30000000000E+02  0.30000000000E+02  0.00000000000E+00 0. -1.
         23    2    1    2    0    0  0.00000000000E+00  0.00000000000E+00  0.00000000000E+00  0.60000000000E+02  0.60000000000E+02 0.  0.
          5    1    3    3  501    0 -0.24845723877E+02 -0.28644523702E+01 -0.15886941734E+02  0.30000000000E+02  0.47000000000E+01 0. -1.
         -5    1    3    3    0  501  0.24845723877E+02  0.28644523702E+01  0.15886941734E+02  0.30000000000E+02  0.47000000000E+01 0.  1.
</event>
<event>
 5    1  0.7624361E-002  0.6000000E+02  0.7546771E-02  0.1259629E+00
         11   -1    0    0    0    0  0.00000000000E+00  0.00000000000E+00  0.30000000000E+02  0.30000000000E+02  0.00000000000E+00 0.  1.
        -11   -1    0    0    0    0 -0.00000000000E+00 -0.00000000000E+00 -0.30000000000E+02  0.30000000000E+02  0.00000000000E+00 0. -1.
         23    2    1    2    0    0  0.00000000000E+00  0.00000000000E+00  0.00000000000E+00  0.60000000000E+02  0.60000000000E+02 0.  0.
          5    1    3    3  501    0  0.25090953450E+02  0.85737441059E+01 -0.13222895560E+02  0.30000000000E+02  0.47000000000E+01 0. -1.
         -5    1    3    3    0  501 -0.25090953450E+02 -0.85737441059E+01  0.13222895560E+02  0.30000000000E+02  0.47000000000E+01 0.  1.
</event>
<event>
 5    1  0.7624361E-002  0.6000000E+02  0.7546771E-02  0.1259629E+00
         11   -1    0    0    0    0  0.00000000000E+00  0.00000000000E+00  0.30000000000E+02  0.30000000000E+02  0.00000000000E+00 0. -1.
        -11   -1    0    0    0    0 -0.00000000000E+00 -0.00000000000E+00 -0.30000000000E+02  0.30000000000E+02  0.00000000000E+00 0.  1.
         23    2    1    2    0    0  0.00000000000E+00  0.00000000000E+00  0.00000000000E+00  0.60000000000E+02  0.60000000000E+02 0.  0.
          5    1    3    3  501    0 -0.23547200854E+02  0.11108106695E+02 -0.14143878449E+02  0.30000000000E+02  0.47000000000E+01 0.  1.
         -5    1    3    3    0  501  0.23547200854E+02 -0.11108106695E+02  0.14143878449E+02  0.30000000000E+02  0.47000000000E+01 0. -1.
</event>
<event>
 5    1  0.7624361E-002  0.6000000E+02  0.7546771E-02  0.1259629E+00
         11   -1    0    0    0    0  0.00000000000E+00  0.00000000000E+00  0.30000000000E+02  0.30000000000E+02  0.00000000000E+00 0. -1.
        -11   -1    0    0    0    0 -0.00000000000E+00 -0.00000000000E+00 -0.30000000000E+02  0.30000000000E+02  0.00000000000E+00 0.  1.
         23    2    1    2    0    0  0.00000000000E+00  0.00000000000E+00  0.00000000000E+00  0.60000000000E+02  0.60000000000E+02 0.  0.
          5    1    3    3  501    0  0.20622277776E+02  0.41390847540E+01 -0.20868628051E+02  0.30000000000E+02  0.47000000000E+01 0.  1.
         -5    1    3    3    0  501 -0.20622277776E+02 -0.41390847540E+01  0.20868628051E+02  0.30000000000E+02  0.47000000000E+01 0. -1.
</event>
<event>
 5    1  0.7624361E-002  0.6000000E+02  0.7546771E-02  0.1259629E+00
         11   -1    0    0    0    0  0.00000000000E+00  0.00000000000E+00  0.30000000000E+02  0.30000000000E+02  0.00000000000E+00 0.  1.
        -11   -1    0    0    0    0 -0.00000000000E+00 -0.00000000000E+00 -0.30000000000E+02  0.30000000000E+02  0.00000000000E+00 0. -1.
         23    2    1    2    0    0  0.00000000000E+00  0.00000000000E+00  0.00000000000E+00  0.60000000000E+02  0.60000000000E+02 0.  0.
          5    1    3    3  501    0 -0.60108292859E+00 -0.20407196527E+02 -0.21473123415E+02  0.30000000000E+02  0.47000000000E+01 0. -1.
         -5    1    3    3    0  501  0.60108292859E+00  0.20407196527E+02  0.21473123415E+02  0.30000000000E+02  0.47000000000E+01 0.  1.
</event>
<event>
 5    1  0.7624361E-002  0.6000000E+02  0.7546771E-02  0.1259629E+00
         11   -1    0    0    0    0  0.00000000000E+00  0.00000000000E+00  0.30000000000E+02  0.30000000000E+02  0.00000000000E+00 0.  1.
        -11   -1    0    0    0    0 -0.00000000000E+00 -0.00000000000E+00 -0.30000000000E+02  0.30000000000E+02  0.00000000000E+00 0. -1.
         23    2    1    2    0    0  0.00000000000E+00  0.00000000000E+00  0.00000000000E+00  0.60000000000E+02  0.60000000000E+02 0.  0.
          5    1    3    3  501    0 -0.19365027470E+02 -0.10028304525E+02  0.20058385265E+02  0.30000000000E+02  0.47000000000E+01 0.  1.
         -5    1    3    3    0  501  0.19365027470E+02  0.10028304525E+02 -0.20058385265E+02  0.30000000000E+02  0.47000000000E+01 0. -1.
</event>
<event>
 5    1  0.7624361E-002  0.6000000E+02  0.7546771E-02  0.1259629E+00
         11   -1    0    0    0    0  0.00000000000E+00  0.00000000000E+00  0.30000000000E+02  0.30000000000E+02  0.00000000000E+00 0.  1.
        -11   -1    0    0    0    0 -0.00000000000E+00 -0.00000000000E+00 -0.30000000000E+02  0.30000000000E+02  0.00000000000E+00 0. -1.
         23    2    1    2    0    0  0.00000000000E+00  0.00000000000E+00  0.00000000000E+00  0.60000000000E+02  0.60000000000E+02 0.  0.
          5    1    3    3  501    0  0.88524921595E+01  0.28243676740E+02  0.13557679538E+01  0.30000000000E+02  0.47000000000E+01 0. -1.
         -5    1    3    3    0  501 -0.88524921595E+01 -0.28243676740E+02 -0.13557679538E+01  0.30000000000E+02  0.47000000000E+01 0.  1.
</event>
<event>
 5    1  0.7624361E-002  0.6000000E+02  0.7546771E-02  0.1259629E+00
         11   -1    0    0    0    0  0.00000000000E+00  0.00000000000E+00  0.30000000000E+02  0.30000000000E+02  0.00000000000E+00 0. -1.
        -11   -1    0    0    0    0 -0.00000000000E+00 -0.00000000000E+00 -0.30000000000E+02  0.30000000000E+02  0.00000000000E+00 0.  1.
         23    2    1    2    0    0  0.00000000000E+00  0.00000000000E+00  0.00000000000E+00  0.60000000000E+02  0.60000000000E+02 0.  0.
          5    1    3    3  501    0  0.87057830349E+00  0.92924042990E+01 -0.28121225360E+02  0.30000000000E+02  0.47000000000E+01 0.  1.
         -5    1    3    3    0  501 -0.87057830349E+00 -0.92924042990E+01  0.28121225360E+02  0.30000000000E+02  0.47000000000E+01 0. -1.
</event>
<event>
 5    1  0.7624361E-002  0.6000000E+02  0.7546771E-02  0.1259629E+00
         11   -1    0    0    0    0  0.00000000000E+00  0.00000000000E+00  0.30000000000E+02  0.30000000000E+02  0.00000000000E+00 0.  1.
        -11   -1    0    0    0    0 -0.00000000000E+00 -0.00000000000E+00 -0.30000000000E+02  0.30000000000E+02  0.00000000000E+00 0. -1.
         23    2    1    2    0    0  0.00000000000E+00  0.00000000000E+00  0.00000000000E+00  0.60000000000E+02  0.60000000000E+02 0.  0.
          5    1    3    3  501    0  0.12300323504E+02  0.24909706608E+02 -0.10301386237E+02  0.30000000000E+02  0.47000000000E+01 0.  1.
         -5    1    3    3    0  501 -0.12300323504E+02 -0.24909706608E+02  0.10301386237E+02  0.30000000000E+02  0.47000000000E+01 0. -1.
</event>
<event>
 5    1  0.7624361E-002  0.6000000E+02  0.7546771E-02  0.1259629E+00
         11   -1    0    0    0    0  0.00000000000E+00  0.00000000000E+00  0.30000000000E+02  0.30000000000E+02  0.00000000000E+00 0.  1.
        -11   -1    0    0    0    0 -0.00000000000E+00 -0.00000000000E+00 -0.30000000000E+02  0.30000000000E+02  0.00000000000E+00 0. -1.
         23    2    1    2    0    0  0.00000000000E+00  0.00000000000E+00  0.00000000000E+00  0.60000000000E+02  0.60000000000E+02 0.  0.
          5    1    3    3  501    0  0.21916975085E+02 -0.18977148183E+02 -0.61175199187E+01  0.30000000000E+02  0.47000000000E+01 0.  1.
         -5    1    3    3    0  501 -0.21916975085E+02  0.18977148183E+02  0.61175199187E+01  0.30000000000E+02  0.47000000000E+01 0.  1.
</event>
<event>
 5    1  0.7624361E-002  0.6000000E+02  0.7546771E-02  0.1259629E+00
         11   -1    0    0    0    0  0.00000000000E+00  0.00000000000E+00  0.30000000000E+02  0.30000000000E+02  0.00000000000E+00 0.  1.
        -11   -1    0    0    0    0 -0.00000000000E+00 -0.00000000000E+00 -0.30000000000E+02  0.30000000000E+02  0.00000000000E+00 0. -1.
         23    2    1    2    0    0  0.00000000000E+00  0.00000000000E+00  0.00000000000E+00  0.60000000000E+02  0.60000000000E+02 0.  0.
          5    1    3    3  501    0 -0.39250397550E+01 -0.22422212083E+02 -0.18967036359E+02  0.30000000000E+02  0.47000000000E+01 0. -1.
         -5    1    3    3    0  501  0.39250397550E+01  0.22422212083E+02  0.18967036359E+02  0.30000000000E+02  0.47000000000E+01 0.  1.
</event>
<event>
 5    1  0.7624361E-002  0.6000000E+02  0.7546771E-02  0.1259629E+00
         11   -1    0    0    0    0  0.00000000000E+00  0.00000000000E+00  0.30000000000E+02  0.30000000000E+02  0.00000000000E+00 0.  1.
        -11   -1    0    0    0    0 -0.00000000000E+00 -0.00000000000E+00 -0.30000000000E+02  0.30000000000E+02  0.00000000000E+00 0. -1.
         23    2    1    2    0    0  0.00000000000E+00  0.00000000000E+00  0.00000000000E+00  0.60000000000E+02  0.60000000000E+02 0.  0.
          5    1    3    3  501    0 -0.23109136951E+02  0.92432433943E+01 -0.16076076664E+02  0.30000000000E+02  0.47000000000E+01 0. -1.
         -5    1    3    3    0  501  0.23109136951E+02 -0.92432433943E+01  0.16076076664E+02  0.30000000000E+02  0.47000000000E+01 0.  1.
</event>
<event>
 5    1  0.7624361E-002  0.6000000E+02  0.7546771E-02  0.1259629E+00
         11   -1    0    0    0    0  0.00000000000E+00  0.00000000000E+00  0.30000000000E+02  0.30000000000E+02  0.00000000000E+00 0. -1.
        -11   -1    0    0    0    0 -0.00000000000E+00 -0.00000000000E+00 -0.30000000000E+02  0.30000000000E+02  0.00000000000E+00 0.  1.
         23    2    1    2    0    0  0.00000000000E+00  0.00000000000E+00  0.00000000000E+00  0.60000000000E+02  0.60000000000E+02 0.  0.
          5    1    3    3  501    0 -0.25129173695E+02  0.15481407541E+02 -0.26001249844E+01  0.30000000000E+02  0.47000000000E+01 0. -1.
         -5    1    3    3    0  501  0.25129173695E+02 -0.15481407541E+02  0.26001249844E+01  0.30000000000E+02  0.47000000000E+01 0.  1.
</event>
<event>
 5    1  0.7624361E-002  0.6000000E+02  0.7546771E-02  0.1259629E+00
         11   -1    0    0    0    0  0.00000000000E+00  0.00000000000E+00  0.30000000000E+02  0.30000000000E+02  0.00000000000E+00 0.  1.
        -11   -1    0    0    0    0 -0.00000000000E+00 -0.00000000000E+00 -0.30000000000E+02  0.30000000000E+02  0.00000000000E+00 0. -1.
         23    2    1    2    0    0  0.00000000000E+00  0.00000000000E+00  0.00000000000E+00  0.60000000000E+02  0.60000000000E+02 0.  0.
          5    1    3    3  501    0  0.26144432767E+02 -0.13690196950E+02  0.26376396147E+01  0.30000000000E+02  0.47000000000E+01 0.  1.
         -5    1    3    3    0  501 -0.26144432767E+02  0.13690196950E+02 -0.26376396147E+01  0.30000000000E+02  0.47000000000E+01 0. -1.
</event>
<event>
 5    1  0.7624361E-002  0.6000000E+02  0.7546771E-02  0.1259629E+00
         11   -1    0    0    0    0  0.00000000000E+00  0.00000000000E+00  0.30000000000E+02  0.30000000000E+02  0.00000000000E+00 0.  1.
        -11   -1    0    0    0    0 -0.00000000000E+00 -0.00000000000E+00 -0.30000000000E+02  0.30000000000E+02  0.00000000000E+00 0. -1.
         23    2    1    2    0    0  0.00000000000E+00  0.00000000000E+00  0.00000000000E+00  0.60000000000E+02  0.60000000000E+02 0.  0.
          5    1    3    3  501    0  0.24875433716E+02 -0.11294180269E+02  0.11470147754E+02  0.30000000000E+02  0.47000000000E+01 0.  1.
         -5    1    3    3    0  501 -0.24875433716E+02  0.11294180269E+02 -0.11470147754E+02  0.30000000000E+02  0.47000000000E+01 0. -1.
</event>
<event>
 5    1  0.7624361E-002  0.6000000E+02  0.7546771E-02  0.1259629E+00
         11   -1    0    0    0    0  0.00000000000E+00  0.00000000000E+00  0.30000000000E+02  0.30000000000E+02  0.00000000000E+00 0.  1.
        -11   -1    0    0    0    0 -0.00000000000E+00 -0.00000000000E+00 -0.30000000000E+02  0.30000000000E+02  0.00000000000E+00 0. -1.
         23    2    1    2    0    0  0.00000000000E+00  0.00000000000E+00  0.00000000000E+00  0.60000000000E+02  0.60000000000E+02 0.  0.
          5    1    3    3  501    0 -0.74890459172E+01 -0.69217546887E+00 -0.28659118695E+02  0.30000000000E+02  0.47000000000E+01 0. -1.
         -5    1    3    3    0  501  0.74890459172E+01  0.69217546887E+00  0.28659118695E+02  0.30000000000E+02  0.47000000000E+01 0.  1.
</event>
<event>
 5    1  0.7624361E-002  0.6000000E+02  0.7546771E-02  0.1259629E+00
         11   -1    0    0    0    0  0.00000000000E+00  0.00000000000E+00  0.30000000000E+02  0.30000000000E+02  0.00000000000E+00 0.  1.
        -11   -1    0    0    0    0 -0.00000000000E+00 -0.00000000000E+00 -0.30000000000E+02  0.30000000000E+02  0.00000000000E+00 0. -1.
         23    2    1    2    0    0  0.00000000000E+00  0.00000000000E+00  0.00000000000E+00  0.60000000000E+02  0.60000000000E+02 0.  0.
          5    1    3    3  501    0 -0.11734173295E+02 -0.90246844312E+01 -0.25666597905E+02  0.30000000000E+02  0.47000000000E+01 0. -1.
         -5    1    3    3    0  501  0.11734173295E+02  0.90246844312E+01  0.25666597905E+02  0.30000000000E+02  0.47000000000E+01 0.  1.
</event>
<event>
 5    1  0.7624361E-002  0.6000000E+02  0.7546771E-02  0.1259629E+00
         11   -1    0    0    0    0  0.00000000000E+00  0.00000000000E+00  0.30000000000E+02  0.30000000000E+02  0.00000000000E+00 0. -1.
        -11   -1    0    0    0    0 -0.00000000000E+00 -0.00000000000E+00 -0.30000000000E+02  0.30000000000E+02  0.00000000000E+00 0.  1.
         23    2    1    2    0    0  0.00000000000E+00  0.00000000000E+00  0.00000000000E+00  0.60000000000E+02  0.60000000000E+02 0.  0.
          5    1    3    3  501    0 -0.23694084331E+02 -0.76845166538E+01  0.16045204003E+02  0.30000000000E+02  0.47000000000E+01 0. -1.
         -5    1    3    3    0  501  0.23694084331E+02  0.76845166538E+01 -0.16045204003E+02  0.30000000000E+02  0.47000000000E+01 0.  1.
</event>
<event>
 5    1  0.7624361E-002  0.6000000E+02  0.7546771E-02  0.1259629E+00
         11   -1    0    0    0    0  0.00000000000E+00  0.00000000000E+00  0.30000000000E+02  0.30000000000E+02  0.00000000000E+00 0.  1.
        -11   -1    0    0    0    0 -0.00000000000E+00 -0.00000000000E+00 -0.30000000000E+02  0.30000000000E+02  0.00000000000E+00 0. -1.
         23    2    1    2    0    0  0.00000000000E+00  0.00000000000E+00  0.00000000000E+00  0.60000000000E+02  0.60000000000E+02 0.  0.
          5    1    3    3  501    0  0.56834135875E+01  0.22802939169E+02 -0.18045353288E+02  0.30000000000E+02  0.47000000000E+01 0. -1.
         -5    1    3    3    0  501 -0.56834135875E+01 -0.22802939169E+02  0.18045353288E+02  0.30000000000E+02  0.47000000000E+01 0.  1.
</event>
<event>
 5    1  0.7624361E-002  0.6000000E+02  0.7546771E-02  0.1259629E+00
         11   -1    0    0    0    0  0.00000000000E+00  0.00000000000E+00  0.30000000000E+02  0.30000000000E+02  0.00000000000E+00 0. -1.
        -11   -1    0    0    0    0 -0.00000000000E+00 -0.00000000000E+00 -0.30000000000E+02  0.30000000000E+02  0.00000000000E+00 0.  1.
         23    2    1    2    0    0  0.00000000000E+00  0.00000000000E+00  0.00000000000E+00  0.60000000000E+02  0.60000000000E+02 0.  0.
          5    1    3    3  501    0 -0.23468046358E+02 -0.51205338569E+01 -0.17347649212E+02  0.30000000000E+02  0.47000000000E+01 0.  1.
         -5    1    3    3    0  501  0.23468046358E+02  0.51205338569E+01  0.17347649212E+02  0.30000000000E+02  0.47000000000E+01 0. -1.
</event>
<event>
 5    1  0.7624361E-002  0.6000000E+02  0.7546771E-02  0.1259629E+00
         11   -1    0    0    0    0  0.00000000000E+00  0.00000000000E+00  0.30000000000E+02  0.30000000000E+02  0.00000000000E+00 0.  1.
        -11   -1    0    0    0    0 -0.00000000000E+00 -0.00000000000E+00 -0.30000000000E+02  0.30000000000E+02  0.00000000000E+00 0. -1.
         23    2    1    2    0    0  0.00000000000E+00  0.00000000000E+00  0.00000000000E+00  0.60000000000E+02  0.60000000000E+02 0.  0.
          5    1    3    3  501    0  0.13500603495E+02  0.42195511345E+00 -0.26371682903E+02  0.30000000000E+02  0.47000000000E+01 0. -1.
         -5    1    3    3    0  501 -0.13500603495E+02 -0.42195511345E+00  0.26371682903E+02  0.30000000000E+02  0.47000000000E+01 0.  1.
</event>
<event>
 5    1  0.7624361E-002  0.6000000E+02  0.7546771E-02  0.1259629E+00
         11   -1    0    0    0    0  0.00000000000E+00  0.00000000000E+00  0.30000000000E+02  0.30000000000E+02  0.00000000000E+00 0.  1.
        -11   -1    0    0    0    0 -0.00000000000E+00 -0.00000000000E+00 -0.30000000000E+02  0.30000000000E+02  0.00000000000E+00 0. -1.
         23    2    1    2    0    0  0.00000000000E+00  0.00000000000E+00  0.00000000000E+00  0.60000000000E+02  0.60000000000E+02 0.  0.
          5    1    3    3  501    0  0.13654950213E+02  0.36272999214E+01 -0.26044097795E+02  0.30000000000E+02  0.47000000000E+01 0. -1.
         -5    1    3    3    0  501 -0.13654950213E+02 -0.36272999214E+01  0.26044097795E+02  0.30000000000E+02  0.47000000000E+01 0.  1.
</event>
<event>
 5    1  0.7624361E-002  0.6000000E+02  0.7546771E-02  0.1259629E+00
         11   -1    0    0    0    0  0.00000000000E+00  0.00000000000E+00  0.30000000000E+02  0.30000000000E+02  0.00000000000E+00 0.  1.
        -11   -1    0    0    0    0 -0.00000000000E+00 -0.00000000000E+00 -0.30000000000E+02  0.30000000000E+02  0.00000000000E+00 0. -1.
         23    2    1    2    0    0  0.00000000000E+00  0.00000000000E+00  0.00000000000E+00  0.60000000000E+02  0.60000000000E+02 0.  0.
          5    1    3    3  501    0  0.47401474491E+00 -0.28088585579E+02 -0.94189527129E+01  0.30000000000E+02  0.47000000000E+01 0. -1.
         -5    1    3    3    0  501 -0.47401474491E+00  0.28088585579E+02  0.94189527129E+01  0.30000000000E+02  0.47000000000E+01 0.  1.
</event>
<event>
 5    1  0.7624361E-002  0.6000000E+02  0.7546771E-02  0.1259629E+00
         11   -1    0    0    0    0  0.00000000000E+00  0.00000000000E+00  0.30000000000E+02  0.30000000000E+02  0.00000000000E+00 0.  1.
        -11   -1    0    0    0    0 -0.00000000000E+00 -0.00000000000E+00 -0.30000000000E+02  0.30000000000E+02  0.00000000000E+00 0. -1.
         23    2    1    2    0    0  0.00000000000E+00  0.00000000000E+00  0.00000000000E+00  0.60000000000E+02  0.60000000000E+02 0.  0.
          5    1    3    3  501    0  0.19992657991E+01  0.70402367589E+01 -0.28711461172E+02  0.30000000000E+02  0.47000000000E+01 0. -1.
         -5    1    3    3    0  501 -0.19992657991E+01 -0.70402367589E+01  0.28711461172E+02  0.30000000000E+02  0.47000000000E+01 0.  1.
</event>
<event>
 5    1  0.7624361E-002  0.6000000E+02  0.7546771E-02  0.1259629E+00
         11   -1    0    0    0    0  0.00000000000E+00  0.00000000000E+00  0.30000000000E+02  0.30000000000E+02  0.00000000000E+00 0.  1.
        -11   -1    0    0    0    0 -0.00000000000E+00 -0.00000000000E+00 -0.30000000000E+02  0.30000000000E+02  0.00000000000E+00 0. -1.
         23    2    1    2    0    0  0.00000000000E+00  0.00000000000E+00  0.00000000000E+00  0.60000000000E+02  0.60000000000E+02 0.  0.
          5    1    3    3  501    0 -0.11252505739E+02 -0.23287843878E+02 -0.14455706212E+02  0.30000000000E+02  0.47000000000E+01 0. -1.
         -5    1    3    3    0  501  0.11252505739E+02  0.23287843878E+02  0.14455706212E+02  0.30000000000E+02  0.47000000000E+01 0.  1.
</event>
<event>
 5    1  0.7624361E-002  0.6000000E+02  0.7546771E-02  0.1259629E+00
         11   -1    0    0    0    0  0.00000000000E+00  0.00000000000E+00  0.30000000000E+02  0.30000000000E+02  0.00000000000E+00 0.  1.
        -11   -1    0    0    0    0 -0.00000000000E+00 -0.00000000000E+00 -0.30000000000E+02  0.30000000000E+02  0.00000000000E+00 0. -1.
         23    2    1    2    0    0  0.00000000000E+00  0.00000000000E+00  0.00000000000E+00  0.60000000000E+02  0.60000000000E+02 0.  0.
          5    1    3    3  501    0 -0.25067872897E+00  0.26669640368E+02 -0.12906488400E+02  0.30000000000E+02  0.47000000000E+01 0. -1.
         -5    1    3    3    0  501  0.25067872897E+00 -0.26669640368E+02  0.12906488400E+02  0.30000000000E+02  0.47000000000E+01 0.  1.
</event>
<event>
 5    1  0.7624361E-002  0.6000000E+02  0.7546771E-02  0.1259629E+00
         11   -1    0    0    0    0  0.00000000000E+00  0.00000000000E+00  0.30000000000E+02  0.30000000000E+02  0.00000000000E+00 0.  1.
        -11   -1    0    0    0    0 -0.00000000000E+00 -0.00000000000E+00 -0.30000000000E+02  0.30000000000E+02  0.00000000000E+00 0. -1.
         23    2    1    2    0    0  0.00000000000E+00  0.00000000000E+00  0.00000000000E+00  0.60000000000E+02  0.60000000000E+02 0.  0.
          5    1    3    3  501    0  0.16530834285E+02 -0.35278442324E+01  0.24335074130E+02  0.30000000000E+02  0.47000000000E+01 0.  1.
         -5    1    3    3    0  501 -0.16530834285E+02  0.35278442324E+01 -0.24335074130E+02  0.30000000000E+02  0.47000000000E+01 0. -1.
</event>
<event>
 5    1  0.7624361E-002  0.6000000E+02  0.7546771E-02  0.1259629E+00
         11   -1    0    0    0    0  0.00000000000E+00  0.00000000000E+00  0.30000000000E+02  0.30000000000E+02  0.00000000000E+00 0.  1.
        -11   -1    0    0    0    0 -0.00000000000E+00 -0.00000000000E+00 -0.30000000000E+02  0.30000000000E+02  0.00000000000E+00 0. -1.
         23    2    1    2    0    0  0.00000000000E+00  0.00000000000E+00  0.00000000000E+00  0.60000000000E+02  0.60000000000E+02 0.  0.
          5    1    3    3  501    0  0.45420448648E+01 -0.15829512779E+02 -0.24631409899E+02  0.30000000000E+02  0.47000000000E+01 0. -1.
         -5    1    3    3    0  501 -0.45420448648E+01  0.15829512779E+02  0.24631409899E+02  0.30000000000E+02  0.47000000000E+01 0.  1.
</event>
<event>
 5    1  0.7624361E-002  0.6000000E+02  0.7546771E-02  0.1259629E+00
         11   -1    0    0    0    0  0.00000000000E+00  0.00000000000E+00  0.30000000000E+02  0.30000000000E+02  0.00000000000E+00 0.  1.
        -11   -1    0    0    0    0 -0.00000000000E+00 -0.00000000000E+00 -0.30000000000E+02  0.30000000000E+02  0.00000000000E+00 0. -1.
         23    2    1    2    0    0  0.00000000000E+00  0.00000000000E+00  0.00000000000E+00  0.60000000000E+02  0.60000000000E+02 0.  0.
          5    1    3    3  501    0  0.22599716004E+02  0.71407946089E+01 -0.17781222930E+02  0.30000000000E+02  0.47000000000E+01 0. -1.
         -5    1    3    3    0  501 -0.22599716004E+02 -0.71407946089E+01  0.17781222930E+02  0.30000000000E+02  0.47000000000E+01 0.  1.
</event>
<event>
 5    1  0.7624361E-002  0.6000000E+02  0.7546771E-02  0.1259629E+00
         11   -1    0    0    0    0  0.00000000000E+00  0.00000000000E+00  0.30000000000E+02  0.30000000000E+02  0.00000000000E+00 0.  1.
        -11   -1    0    0    0    0 -0.00000000000E+00 -0.00000000000E+00 -0.30000000000E+02  0.30000000000E+02  0.00000000000E+00 0. -1.
         23    2    1    2    0    0  0.00000000000E+00  0.00000000000E+00  0.00000000000E+00  0.60000000000E+02  0.60000000000E+02 0.  0.
          5    1    3    3  501    0  0.17427931798E+02 -0.22988041141E+02 -0.67621858718E+01  0.30000000000E+02  0.47000000000E+01 0. -1.
         -5    1    3    3    0  501 -0.17427931798E+02  0.22988041141E+02  0.67621858718E+01  0.30000000000E+02  0.47000000000E+01 0.  1.
</event>
<event>
 5    1  0.7624361E-002  0.6000000E+02  0.7546771E-02  0.1259629E+00
         11   -1    0    0    0    0  0.00000000000E+00  0.00000000000E+00  0.30000000000E+02  0.30000000000E+02  0.00000000000E+00 0.  1.
        -11   -1    0    0    0    0 -0.00000000000E+00 -0.00000000000E+00 -0.30000000000E+02  0.30000000000E+02  0.00000000000E+00 0. -1.
         23    2    1    2    0    0  0.00000000000E+00  0.00000000000E+00  0.00000000000E+00  0.60000000000E+02  0.60000000000E+02 0.  0.
          5    1    3    3  501    0 -0.28203246946E+02 -0.26860449297E-01 -0.90821880741E+01  0.30000000000E+02  0.47000000000E+01 0. -1.
         -5    1    3    3    0  501  0.28203246946E+02  0.26860449297E-01  0.90821880741E+01  0.30000000000E+02  0.47000000000E+01 0.  1.
</event>
<event>
 5    1  0.7624361E-002  0.6000000E+02  0.7546771E-02  0.1259629E+00
         11   -1    0    0    0    0  0.00000000000E+00  0.00000000000E+00  0.30000000000E+02  0.30000000000E+02  0.00000000000E+00 0.  1.
        -11   -1    0    0    0    0 -0.00000000000E+00 -0.00000000000E+00 -0.30000000000E+02  0.30000000000E+02  0.00000000000E+00 0. -1.
         23    2    1    2    0    0  0.00000000000E+00  0.00000000000E+00  0.00000000000E+00  0.60000000000E+02  0.60000000000E+02 0.  0.
          5    1    3    3  501    0  0.12558377278E+02  0.13450840914E+02 -0.23222231565E+02  0.30000000000E+02  0.47000000000E+01 0. -1.
         -5    1    3    3    0  501 -0.12558377278E+02 -0.13450840914E+02  0.23222231565E+02  0.30000000000E+02  0.47000000000E+01 0.  1.
</event>
<event>
 5    1  0.7624361E-002  0.6000000E+02  0.7546771E-02  0.1259629E+00
         11   -1    0    0    0    0  0.00000000000E+00  0.00000000000E+00  0.30000000000E+02  0.30000000000E+02  0.00000000000E+00 0. -1.
        -11   -1    0    0    0    0 -0.00000000000E+00 -0.00000000000E+00 -0.30000000000E+02  0.30000000000E+02  0.00000000000E+00 0.  1.
         23    2    1    2    0    0  0.00000000000E+00  0.00000000000E+00  0.00000000000E+00  0.60000000000E+02  0.60000000000E+02 0.  0.
          5    1    3    3  501    0 -0.15440451380E+02  0.15489350104E+02 -0.19989559639E+02  0.30000000000E+02  0.47000000000E+01 0.  1.
         -5    1    3    3    0  501  0.15440451380E+02 -0.15489350104E+02  0.19989559639E+02  0.30000000000E+02  0.47000000000E+01 0. -1.
</event>
<event>
 5    1  0.7624361E-002  0.6000000E+02  0.7546771E-02  0.1259629E+00
         11   -1    0    0    0    0  0.00000000000E+00  0.00000000000E+00  0.30000000000E+02  0.30000000000E+02  0.00000000000E+00 0.  1.
        -11   -1    0    0    0    0 -0.00000000000E+00 -0.00000000000E+00 -0.30000000000E+02  0.30000000000E+02  0.00000000000E+00 0. -1.
         23    2    1    2    0    0  0.00000000000E+00  0.00000000000E+00  0.00000000000E+00  0.60000000000E+02  0.60000000000E+02 0.  0.
          5    1    3    3  501    0  0.12981515964E+02  0.16389809260E+02 -0.20994389624E+02  0.30000000000E+02  0.47000000000E+01 0. -1.
         -5    1    3    3    0  501 -0.12981515964E+02 -0.16389809260E+02  0.20994389624E+02  0.30000000000E+02  0.47000000000E+01 0.  1.
</event>
<event>
 5    1  0.7624361E-002  0.6000000E+02  0.7546771E-02  0.1259629E+00
         11   -1    0    0    0    0  0.00000000000E+00  0.00000000000E+00  0.30000000000E+02  0.30000000000E+02  0.00000000000E+00 0.  1.
        -11   -1    0    0    0    0 -0.00000000000E+00 -0.00000000000E+00 -0.30000000000E+02  0.30000000000E+02  0.00000000000E+00 0. -1.
         23    2    1    2    0    0  0.00000000000E+00  0.00000000000E+00  0.00000000000E+00  0.60000000000E+02  0.60000000000E+02 0.  0.
          5    1    3    3  501    0 -0.18212732119E+02  0.23302809199E+02  0.17847891154E+01  0.30000000000E+02  0.47000000000E+01 0. -1.
         -5    1    3    3    0  501  0.18212732119E+02 -0.23302809199E+02 -0.17847891154E+01  0.30000000000E+02  0.47000000000E+01 0.  1.
</event>
<event>
 5    1  0.7624361E-002  0.6000000E+02  0.7546771E-02  0.1259629E+00
         11   -1    0    0    0    0  0.00000000000E+00  0.00000000000E+00  0.30000000000E+02  0.30000000000E+02  0.00000000000E+00 0.  1.
        -11   -1    0    0    0    0 -0.00000000000E+00 -0.00000000000E+00 -0.30000000000E+02  0.30000000000E+02  0.00000000000E+00 0. -1.
         23    2    1    2    0    0  0.00000000000E+00  0.00000000000E+00  0.00000000000E+00  0.60000000000E+02  0.60000000000E+02 0.  0.
          5    1    3    3  501    0  0.27107579781E+02 -0.99681393416E+01  0.66125121145E+01  0.30000000000E+02  0.47000000000E+01 0. -1.
         -5    1    3    3    0  501 -0.27107579781E+02  0.99681393416E+01 -0.66125121145E+01  0.30000000000E+02  0.47000000000E+01 0.  1.
</event>
<event>
 5    1  0.7624361E-002  0.6000000E+02  0.7546771E-02  0.1259629E+00
         11   -1    0    0    0    0  0.00000000000E+00  0.00000000000E+00  0.30000000000E+02  0.30000000000E+02  0.00000000000E+00 0.  1.
        -11   -1    0    0    0    0 -0.00000000000E+00 -0.00000000000E+00 -0.30000000000E+02  0.30000000000E+02  0.00000000000E+00 0. -1.
         23    2    1    2    0    0  0.00000000000E+00  0.00000000000E+00  0.00000000000E+00  0.60000000000E+02  0.60000000000E+02 0.  0.
          5    1    3    3  501    0 -0.13175468292E+02 -0.19584858669E+02 -0.17909504354E+02  0.30000000000E+02  0.47000000000E+01 0. -1.
         -5    1    3    3    0  501  0.13175468292E+02  0.19584858669E+02  0.17909504354E+02  0.30000000000E+02  0.47000000000E+01 0.  1.
</event>
<event>
 5    1  0.7624361E-002  0.6000000E+02  0.7546771E-02  0.1259629E+00
         11   -1    0    0    0    0  0.00000000000E+00  0.00000000000E+00  0.30000000000E+02  0.30000000000E+02  0.00000000000E+00 0.  1.
        -11   -1    0    0    0    0 -0.00000000000E+00 -0.00000000000E+00 -0.30000000000E+02  0.30000000000E+02  0.00000000000E+00 0. -1.
         23    2    1    2    0    0  0.00000000000E+00  0.00000000000E+00  0.00000000000E+00  0.60000000000E+02  0.60000000000E+02 0.  0.
          5    1    3    3  501    0 -0.93775853489E+01  0.61584537746E+01 -0.27423426849E+02  0.30000000000E+02  0.47000000000E+01 0. -1.
         -5    1    3    3    0  501  0.93775853489E+01 -0.61584537746E+01  0.27423426849E+02  0.30000000000E+02  0.47000000000E+01 0.  1.
</event>
<event>
 5    1  0.7624361E-002  0.6000000E+02  0.7546771E-02  0.1259629E+00
         11   -1    0    0    0    0  0.00000000000E+00  0.00000000000E+00  0.30000000000E+02  0.30000000000E+02  0.00000000000E+00 0.  1.
        -11   -1    0    0    0    0 -0.00000000000E+00 -0.00000000000E+00 -0.30000000000E+02  0.30000000000E+02  0.00000000000E+00 0. -1.
         23    2    1    2    0    0  0.00000000000E+00  0.00000000000E+00  0.00000000000E+00  0.60000000000E+02  0.60000000000E+02 0.  0.
          5    1    3    3  501    0 -0.27604526190E+02  0.86206926798E+01  0.64485495704E+01  0.30000000000E+02  0.47000000000E+01 0. -1.
         -5    1    3    3    0  501  0.27604526190E+02 -0.86206926798E+01 -0.64485495704E+01  0.30000000000E+02  0.47000000000E+01 0.  1.
</event>
<event>
 5    1  0.7624361E-002  0.6000000E+02  0.7546771E-02  0.1259629E+00
         11   -1    0    0    0    0  0.00000000000E+00  0.00000000000E+00  0.30000000000E+02  0.30000000000E+02  0.00000000000E+00 0. -1.
        -11   -1    0    0    0    0 -0.00000000000E+00 -0.00000000000E+00 -0.30000000000E+02  0.30000000000E+02  0.00000000000E+00 0.  1.
         23    2    1    2    0    0  0.00000000000E+00  0.00000000000E+00  0.00000000000E+00  0.60000000000E+02  0.60000000000E+02 0.  0.
          5    1    3    3  501    0 -0.25099117428E+02  0.88469274218E+01  0.13025980943E+02  0.30000000000E+02  0.47000000000E+01 0.  1.
         -5    1    3    3    0  501  0.25099117428E+02 -0.88469274218E+01 -0.13025980943E+02  0.30000000000E+02  0.47000000000E+01 0. -1.
</event>
<event>
 5    1  0.7624361E-002  0.6000000E+02  0.7546771E-02  0.1259629E+00
         11   -1    0    0    0    0  0.00000000000E+00  0.00000000000E+00  0.30000000000E+02  0.30000000000E+02  0.00000000000E+00 0.  1.
        -11   -1    0    0    0    0 -0.00000000000E+00 -0.00000000000E+00 -0.30000000000E+02  0.30000000000E+02  0.00000000000E+00 0. -1.
         23    2    1    2    0    0  0.00000000000E+00  0.00000000000E+00  0.00000000000E+00  0.60000000000E+02  0.60000000000E+02 0.  0.
          5    1    3    3  501    0  0.17079888711E+02 -0.13151519151E+01 -0.24175561567E+02  0.30000000000E+02  0.47000000000E+01 0. -1.
         -5    1    3    3    0  501 -0.17079888711E+02  0.13151519151E+01  0.24175561567E+02  0.30000000000E+02  0.47000000000E+01 0.  1.
</event>
<event>
 5    1  0.7624361E-002  0.6000000E+02  0.7546771E-02  0.1259629E+00
         11   -1    0    0    0    0  0.00000000000E+00  0.00000000000E+00  0.30000000000E+02  0.30000000000E+02  0.00000000000E+00 0.  1.
        -11   -1    0    0    0    0 -0.00000000000E+00 -0.00000000000E+00 -0.30000000000E+02  0.30000000000E+02  0.00000000000E+00 0. -1.
         23    2    1    2    0    0  0.00000000000E+00  0.00000000000E+00  0.00000000000E+00  0.60000000000E+02  0.60000000000E+02 0.  0.
          5    1    3    3  501    0  0.21184563705E+02 -0.11415786789E+01 -0.20683835688E+02  0.30000000000E+02  0.47000000000E+01 0. -1.
         -5    1    3    3    0  501 -0.21184563705E+02  0.11415786789E+01  0.20683835688E+02  0.30000000000E+02  0.47000000000E+01 0.  1.
</event>
<event>
 5    1  0.7624361E-002  0.6000000E+02  0.7546771E-02  0.1259629E+00
         11   -1    0    0    0    0  0.00000000000E+00  0.00000000000E+00  0.30000000000E+02  0.30000000000E+02  0.00000000000E+00 0.  1.
        -11   -1    0    0    0    0 -0.00000000000E+00 -0.00000000000E+00 -0.30000000000E+02  0.30000000000E+02  0.00000000000E+00 0. -1.
         23    2    1    2    0    0  0.00000000000E+00  0.00000000000E+00  0.00000000000E+00  0.60000000000E+02  0.60000000000E+02 0.  0.
          5    1    3    3  501    0  0.19568980670E+02  0.10191566024E+02 -0.19776171962E+02  0.30000000000E+02  0.47000000000E+01 0. -1.
         -5    1    3    3    0  501 -0.19568980670E+02 -0.10191566024E+02  0.19776171962E+02  0.30000000000E+02  0.47000000000E+01 0.  1.
</event>
<event>
 5    1  0.7624361E-002  0.6000000E+02  0.7546771E-02  0.1259629E+00
         11   -1    0    0    0    0  0.00000000000E+00  0.00000000000E+00  0.30000000000E+02  0.30000000000E+02  0.00000000000E+00 0.  1.
        -11   -1    0    0    0    0 -0.00000000000E+00 -0.00000000000E+00 -0.30000000000E+02  0.30000000000E+02  0.00000000000E+00 0. -1.
         23    2    1    2    0    0  0.00000000000E+00  0.00000000000E+00  0.00000000000E+00  0.60000000000E+02  0.60000000000E+02 0.  0.
          5    1    3    3  501    0  0.38564769953E+01 -0.29108998307E+02  0.39628023854E+01  0.30000000000E+02  0.47000000000E+01 0. -1.
         -5    1    3    3    0  501 -0.38564769953E+01  0.29108998307E+02 -0.39628023854E+01  0.30000000000E+02  0.47000000000E+01 0.  1.
</event>
<event>
 5    1  0.7624361E-002  0.6000000E+02  0.7546771E-02  0.1259629E+00
         11   -1    0    0    0    0  0.00000000000E+00  0.00000000000E+00  0.30000000000E+02  0.30000000000E+02  0.00000000000E+00 0. -1.
        -11   -1    0    0    0    0 -0.00000000000E+00 -0.00000000000E+00 -0.30000000000E+02  0.30000000000E+02  0.00000000000E+00 0.  1.
         23    2    1    2    0    0  0.00000000000E+00  0.00000000000E+00  0.00000000000E+00  0.60000000000E+02  0.60000000000E+02 0.  0.
          5    1    3    3  501    0 -0.37781343855E+01 -0.51650162817E+01  0.28930231720E+02  0.30000000000E+02  0.47000000000E+01 0. -1.
         -5    1    3    3    0  501  0.37781343855E+01  0.51650162817E+01 -0.28930231720E+02  0.30000000000E+02  0.47000000000E+01 0.  1.
</event>
<event>
 5    1  0.7624361E-002  0.6000000E+02  0.7546771E-02  0.1259629E+00
         11   -1    0    0    0    0  0.00000000000E+00  0.00000000000E+00  0.30000000000E+02  0.30000000000E+02  0.00000000000E+00 0.  1.
        -11   -1    0    0    0    0 -0.00000000000E+00 -0.00000000000E+00 -0.30000000000E+02  0.30000000000E+02  0.00000000000E+00 0. -1.
         23    2    1    2    0    0  0.00000000000E+00  0.00000000000E+00  0.00000000000E+00  0.60000000000E+02  0.60000000000E+02 0.  0.
          5    1    3    3  501    0  0.34149480984E+01  0.62130937270E+01  0.28768830283E+02  0.30000000000E+02  0.47000000000E+01 0.  1.
         -5    1    3    3    0  501 -0.34149480984E+01 -0.62130937270E+01 -0.28768830283E+02  0.30000000000E+02  0.47000000000E+01 0. -1.
</event>
<event>
 5    1  0.7624361E-002  0.6000000E+02  0.7546771E-02  0.1259629E+00
         11   -1    0    0    0    0  0.00000000000E+00  0.00000000000E+00  0.30000000000E+02  0.30000000000E+02  0.00000000000E+00 0.  1.
        -11   -1    0    0    0    0 -0.00000000000E+00 -0.00000000000E+00 -0.30000000000E+02  0.30000000000E+02  0.00000000000E+00 0. -1.
         23    2    1    2    0    0  0.00000000000E+00  0.00000000000E+00  0.00000000000E+00  0.60000000000E+02  0.60000000000E+02 0.  0.
          5    1    3    3  501    0  0.14234880146E+02 -0.11481718177E+02 -0.23311978357E+02  0.30000000000E+02  0.47000000000E+01 0. -1.
         -5    1    3    3    0  501 -0.14234880146E+02  0.11481718177E+02  0.23311978357E+02  0.30000000000E+02  0.47000000000E+01 0.  1.
</event>
<event>
 5    1  0.7624361E-002  0.6000000E+02  0.7546771E-02  0.1259629E+00
         11   -1    0    0    0    0  0.00000000000E+00  0.00000000000E+00  0.30000000000E+02  0.30000000000E+02  0.00000000000E+00 0.  1.
        -11   -1    0    0    0    0 -0.00000000000E+00 -0.00000000000E+00 -0.30000000000E+02  0.30000000000E+02  0.00000000000E+00 0. -1.
         23    2    1    2    0    0  0.00000000000E+00  0.00000000000E+00  0.00000000000E+00  0.60000000000E+02  0.60000000000E+02 0.  0.
          5    1    3    3  501    0 -0.44877232215E+01 -0.20536111986E+01 -0.29215629744E+02  0.30000000000E+02  0.47000000000E+01 0. -1.
         -5    1    3    3    0  501  0.44877232215E+01  0.20536111986E+01  0.29215629744E+02  0.30000000000E+02  0.47000000000E+01 0.  1.
</event>
<event>
 5    1  0.7624361E-002  0.6000000E+02  0.7546771E-02  0.1259629E+00
         11   -1    0    0    0    0  0.00000000000E+00  0.00000000000E+00  0.30000000000E+02  0.30000000000E+02  0.00000000000E+00 0.  1.
        -11   -1    0    0    0    0 -0.00000000000E+00 -0.00000000000E+00 -0.30000000000E+02  0.30000000000E+02  0.00000000000E+00 0. -1.
         23    2    1    2    0    0  0.00000000000E+00  0.00000000000E+00  0.00000000000E+00  0.60000000000E+02  0.60000000000E+02 0.  0.
          5    1    3    3  501    0  0.24130204412E+02 -0.16458393920E+02 -0.49763947404E+01  0.30000000000E+02  0.47000000000E+01 0. -1.
         -5    1    3    3    0  501 -0.24130204412E+02  0.16458393920E+02  0.49763947404E+01  0.30000000000E+02  0.47000000000E+01 0.  1.
</event>
<event>
 5    1  0.7624361E-002  0.6000000E+02  0.7546771E-02  0.1259629E+00
         11   -1    0    0    0    0  0.00000000000E+00  0.00000000000E+00  0.30000000000E+02  0.30000000000E+02  0.00000000000E+00 0.  1.
        -11   -1    0    0    0    0 -0.00000000000E+00 -0.00000000000E+00 -0.30000000000E+02  0.30000000000E+02  0.00000000000E+00 0. -1.
         23    2    1    2    0    0  0.00000000000E+00  0.00000000000E+00  0.00000000000E+00  0.60000000000E+02  0.60000000000E+02 0.  0.
          5    1    3    3  501    0  0.39316397330E+01 -0.65259834739E+01 -0.28633262977E+02  0.30000000000E+02  0.47000000000E+01 0. -1.
         -5    1    3    3    0  501 -0.39316397330E+01  0.65259834739E+01  0.28633262977E+02  0.30000000000E+02  0.47000000000E+01 0.  1.
</event>
<event>
 5    1  0.7624361E-002  0.6000000E+02  0.7546771E-02  0.1259629E+00
         11   -1    0    0    0    0  0.00000000000E+00  0.00000000000E+00  0.30000000000E+02  0.30000000000E+02  0.00000000000E+00 0.  1.
        -11   -1    0    0    0    0 -0.00000000000E+00 -0.00000000000E+00 -0.30000000000E+02  0.30000000000E+02  0.00000000000E+00 0. -1.
         23    2    1    2    0    0  0.00000000000E+00  0.00000000000E+00  0.00000000000E+00  0.60000000000E+02  0.60000000000E+02 0.  0.
          5    1    3    3  501    0  0.28260999437E+01  0.22999159956E+02 -0.18465150972E+02  0.30000000000E+02  0.47000000000E+01 0. -1.
         -5    1    3    3    0  501 -0.28260999437E+01 -0.22999159956E+02  0.18465150972E+02  0.30000000000E+02  0.47000000000E+01 0.  1.
</event>
<event>
 5    1  0.7624361E-002  0.6000000E+02  0.7546771E-02  0.1259629E+00
         11   -1    0    0    0    0  0.00000000000E+00  0.00000000000E+00  0.30000000000E+02  0.30000000000E+02  0.00000000000E+00 0.  1.
        -11   -1    0    0    0    0 -0.00000000000E+00 -0.00000000000E+00 -0.30000000000E+02  0.30000000000E+02  0.00000000000E+00 0. -1.
         23    2    1    2    0    0  0.00000000000E+00  0.00000000000E+00  0.00000000000E+00  0.60000000000E+02  0.60000000000E+02 0.  0.
          5    1    3    3  501    0 -0.22728014790E+02  0.40394136711E+01 -0.18574996121E+02  0.30000000000E+02  0.47000000000E+01 0. -1.
         -5    1    3    3    0  501  0.22728014790E+02 -0.40394136711E+01  0.18574996121E+02  0.30000000000E+02  0.47000000000E+01 0.  1.
</event>
<event>
 5    1  0.7624361E-002  0.6000000E+02  0.7546771E-02  0.1259629E+00
         11   -1    0    0    0    0  0.00000000000E+00  0.00000000000E+00  0.30000000000E+02  0.30000000000E+02  0.00000000000E+00 0.  1.
        -11   -1    0    0    0    0 -0.00000000000E+00 -0.00000000000E+00 -0.30000000000E+02  0.30000000000E+02  0.00000000000E+00 0. -1.
         23    2    1    2    0    0  0.00000000000E+00  0.00000000000E+00  0.00000000000E+00  0.60000000000E+02  0.60000000000E+02 0.  0.
          5    1    3    3  501    0 -0.27033892502E+02  0.11516551221E+02 -0.38010135698E+01  0.30000000000E+02  0.47000000000E+01 0. -1.
         -5    1    3    3    0  501  0.27033892502E+02 -0.11516551221E+02  0.38010135698E+01  0.30000000000E+02  0.47000000000E+01 0.  1.
</event>
<event>
 5    1  0.7624361E-002  0.6000000E+02  0.7546771E-02  0.1259629E+00
         11   -1    0    0    0    0  0.00000000000E+00  0.00000000000E+00  0.30000000000E+02  0.30000000000E+02  0.00000000000E+00 0. -1.
        -11   -1    0    0    0    0 -0.00000000000E+00 -0.00000000000E+00 -0.30000000000E+02  0.30000000000E+02  0.00000000000E+00 0.  1.
         23    2    1    2    0    0  0.00000000000E+00  0.00000000000E+00  0.00000000000E+00  0.60000000000E+02  0.60000000000E+02 0.  0.
          5    1    3    3  501    0 -0.19291416697E+02  0.12963752102E+02  0.18376408061E+02  0.30000000000E+02  0.47000000000E+01 0.  1.
         -5    1    3    3    0  501  0.19291416697E+02 -0.12963752102E+02 -0.18376408061E+02  0.30000000000E+02  0.47000000000E+01 0. -1.
</event>
<event>
 5    1  0.7624361E-002  0.6000000E+02  0.7546771E-02  0.1259629E+00
         11   -1    0    0    0    0  0.00000000000E+00  0.00000000000E+00  0.30000000000E+02  0.30000000000E+02  0.00000000000E+00 0.  1.
        -11   -1    0    0    0    0 -0.00000000000E+00 -0.00000000000E+00 -0.30000000000E+02  0.30000000000E+02  0.00000000000E+00 0. -1.
         23    2    1    2    0    0  0.00000000000E+00  0.00000000000E+00  0.00000000000E+00  0.60000000000E+02  0.60000000000E+02 0.  0.
          5    1    3    3  501    0 -0.11943773076E+02  0.25486902446E+02  0.92560298418E+01  0.30000000000E+02  0.47000000000E+01 0. -1.
         -5    1    3    3    0  501  0.11943773076E+02 -0.25486902446E+02 -0.92560298418E+01  0.30000000000E+02  0.47000000000E+01 0.  1.
</event>
<event>
 5    1  0.7624361E-002  0.6000000E+02  0.7546771E-02  0.1259629E+00
         11   -1    0    0    0    0  0.00000000000E+00  0.00000000000E+00  0.30000000000E+02  0.30000000000E+02  0.00000000000E+00 0.  1.
        -11   -1    0    0    0    0 -0.00000000000E+00 -0.00000000000E+00 -0.30000000000E+02  0.30000000000E+02  0.00000000000E+00 0. -1.
         23    2    1    2    0    0  0.00000000000E+00  0.00000000000E+00  0.00000000000E+00  0.60000000000E+02  0.60000000000E+02 0.  0.
          5    1    3    3  501    0 -0.61415561871E+01 -0.82061316291E+01 -0.27800192289E+02  0.30000000000E+02  0.47000000000E+01 0. -1.
         -5    1    3    3    0  501  0.61415561871E+01  0.82061316291E+01  0.27800192289E+02  0.30000000000E+02  0.47000000000E+01 0.  1.
</event>
<event>
 5    1  0.7624361E-002  0.6000000E+02  0.7546771E-02  0.1259629E+00
         11   -1    0    0    0    0  0.00000000000E+00  0.00000000000E+00  0.30000000000E+02  0.30000000000E+02  0.00000000000E+00 0.  1.
        -11   -1    0    0    0    0 -0.00000000000E+00 -0.00000000000E+00 -0.30000000000E+02  0.30000000000E+02  0.00000000000E+00 0. -1.
         23    2    1    2    0    0  0.00000000000E+00  0.00000000000E+00  0.00000000000E+00  0.60000000000E+02  0.60000000000E+02 0.  0.
          5    1    3    3  501    0  0.10753096325E+01 -0.28870682970E+02  0.65755132143E+01  0.30000000000E+02  0.47000000000E+01 0.  1.
         -5    1    3    3    0  501 -0.10753096325E+01  0.28870682970E+02 -0.65755132143E+01  0.30000000000E+02  0.47000000000E+01 0. -1.
</event>
<event>
 5    1  0.7624361E-002  0.6000000E+02  0.7546771E-02  0.1259629E+00
         11   -1    0    0    0    0  0.00000000000E+00  0.00000000000E+00  0.30000000000E+02  0.30000000000E+02  0.00000000000E+00 0.  1.
        -11   -1    0    0    0    0 -0.00000000000E+00 -0.00000000000E+00 -0.30000000000E+02  0.30000000000E+02  0.00000000000E+00 0. -1.
         23    2    1    2    0    0  0.00000000000E+00  0.00000000000E+00  0.00000000000E+00  0.60000000000E+02  0.60000000000E+02 0.  0.
          5    1    3    3  501    0  0.17239119525E+02 -0.18837020616E+01 -0.24024454719E+02  0.30000000000E+02  0.47000000000E+01 0. -1.
         -5    1    3    3    0  501 -0.17239119525E+02  0.18837020616E+01  0.24024454719E+02  0.30000000000E+02  0.47000000000E+01 0.  1.
</event>
<event>
 5    1  0.7624361E-002  0.6000000E+02  0.7546771E-02  0.1259629E+00
         11   -1    0    0    0    0  0.00000000000E+00  0.00000000000E+00  0.30000000000E+02  0.30000000000E+02  0.00000000000E+00 0.  1.
        -11   -1    0    0    0    0 -0.00000000000E+00 -0.00000000000E+00 -0.30000000000E+02  0.30000000000E+02  0.00000000000E+00 0. -1.
         23    2    1    2    0    0  0.00000000000E+00  0.00000000000E+00  0.00000000000E+00  0.60000000000E+02  0.60000000000E+02 0.  0.
          5    1    3    3  501    0 -0.24947337887E+02  0.31346476149E+01  0.15675277245E+02  0.30000000000E+02  0.47000000000E+01 0.  1.
         -5    1    3    3    0  501  0.24947337887E+02 -0.31346476149E+01 -0.15675277245E+02  0.30000000000E+02  0.47000000000E+01 0. -1.
</event>
<event>
 5    1  0.7624361E-002  0.6000000E+02  0.7546771E-02  0.1259629E+00
         11   -1    0    0    0    0  0.00000000000E+00  0.00000000000E+00  0.30000000000E+02  0.30000000000E+02  0.00000000000E+00 0. -1.
        -11   -1    0    0    0    0 -0.00000000000E+00 -0.00000000000E+00 -0.30000000000E+02  0.30000000000E+02  0.00000000000E+00 0.  1.
         23    2    1    2    0    0  0.00000000000E+00  0.00000000000E+00  0.00000000000E+00  0.60000000000E+02  0.60000000000E+02 0.  0.
          5    1    3    3  501    0 -0.19362656716E+02 -0.20426958418E+02  0.92594219421E+01  0.30000000000E+02  0.47000000000E+01 0.  1.
         -5    1    3    3    0  501  0.19362656716E+02  0.20426958418E+02 -0.92594219421E+01  0.30000000000E+02  0.47000000000E+01 0. -1.
</event>
<event>
 5    1  0.7624361E-002  0.6000000E+02  0.7546771E-02  0.1259629E+00
         11   -1    0    0    0    0  0.00000000000E+00  0.00000000000E+00  0.30000000000E+02  0.30000000000E+02  0.00000000000E+00 0.  1.
        -11   -1    0    0    0    0 -0.00000000000E+00 -0.00000000000E+00 -0.30000000000E+02  0.30000000000E+02  0.00000000000E+00 0. -1.
         23    2    1    2    0    0  0.00000000000E+00  0.00000000000E+00  0.00000000000E+00  0.60000000000E+02  0.60000000000E+02 0.  0.
          5    1    3    3  501    0 -0.24529414615E+01  0.29068253114E+02  0.51893871595E+01  0.30000000000E+02  0.47000000000E+01 0. -1.
         -5    1    3    3    0  501  0.24529414615E+01 -0.29068253114E+02 -0.51893871595E+01  0.30000000000E+02  0.47000000000E+01 0.  1.
</event>
<event>
 5    1  0.7624361E-002  0.6000000E+02  0.7546771E-02  0.1259629E+00
         11   -1    0    0    0    0  0.00000000000E+00  0.00000000000E+00  0.30000000000E+02  0.30000000000E+02  0.00000000000E+00 0.  1.
        -11   -1    0    0    0    0 -0.00000000000E+00 -0.00000000000E+00 -0.30000000000E+02  0.30000000000E+02  0.00000000000E+00 0. -1.
         23    2    1    2    0    0  0.00000000000E+00  0.00000000000E+00  0.00000000000E+00  0.60000000000E+02  0.60000000000E+02 0.  0.
          5    1    3    3  501    0  0.68689293007E+01  0.36321174242E+01 -0.28592578290E+02  0.30000000000E+02  0.47000000000E+01 0. -1.
         -5    1    3    3    0  501 -0.68689293007E+01 -0.36321174242E+01  0.28592578290E+02  0.30000000000E+02  0.47000000000E+01 0.  1.
</event>
<event>
 5    1  0.7624361E-002  0.6000000E+02  0.7546771E-02  0.1259629E+00
         11   -1    0    0    0    0  0.00000000000E+00  0.00000000000E+00  0.30000000000E+02  0.30000000000E+02  0.00000000000E+00 0.  1.
        -11   -1    0    0    0    0 -0.00000000000E+00 -0.00000000000E+00 -0.30000000000E+02  0.30000000000E+02  0.00000000000E+00 0. -1.
         23    2    1    2    0    0  0.00000000000E+00  0.00000000000E+00  0.00000000000E+00  0.60000000000E+02  0.60000000000E+02 0.  0.
          5    1    3    3  501    0 -0.21985824710E+02 -0.15436522018E+02 -0.12499891992E+02  0.30000000000E+02  0.47000000000E+01 0. -1.
         -5    1    3    3    0  501  0.21985824710E+02  0.15436522018E+02  0.12499891992E+02  0.30000000000E+02  0.47000000000E+01 0.  1.
</event>
<event>
 5    1  0.7624361E-002  0.6000000E+02  0.7546771E-02  0.1259629E+00
         11   -1    0    0    0    0  0.00000000000E+00  0.00000000000E+00  0.30000000000E+02  0.30000000000E+02  0.00000000000E+00 0. -1.
        -11   -1    0    0    0    0 -0.00000000000E+00 -0.00000000000E+00 -0.30000000000E+02  0.30000000000E+02  0.00000000000E+00 0.  1.
         23    2    1    2    0    0  0.00000000000E+00  0.00000000000E+00  0.00000000000E+00  0.60000000000E+02  0.60000000000E+02 0.  0.
          5    1    3    3  501    0  0.14933060698E+02  0.22706113850E+02  0.11804494568E+02  0.30000000000E+02  0.47000000000E+01 0.  1.
         -5    1    3    3    0  501 -0.14933060698E+02 -0.22706113850E+02 -0.11804494568E+02  0.30000000000E+02  0.47000000000E+01 0. -1.
</event>
<event>
 5    1  0.7624361E-002  0.6000000E+02  0.7546771E-02  0.1259629E+00
         11   -1    0    0    0    0  0.00000000000E+00  0.00000000000E+00  0.30000000000E+02  0.30000000000E+02  0.00000000000E+00 0. -1.
        -11   -1    0    0    0    0 -0.00000000000E+00 -0.00000000000E+00 -0.30000000000E+02  0.30000000000E+02  0.00000000000E+00 0.  1.
         23    2    1    2    0    0  0.00000000000E+00  0.00000000000E+00  0.00000000000E+00  0.60000000000E+02  0.60000000000E+02 0.  0.
          5    1    3    3  501    0 -0.33644527546E+01  0.76404198399E+01  0.28429112584E+02  0.30000000000E+02  0.47000000000E+01 0. -1.
         -5    1    3    3    0  501  0.33644527546E+01 -0.76404198399E+01 -0.28429112584E+02  0.30000000000E+02  0.47000000000E+01 0.  1.
</event>
<event>
 5    1  0.7624361E-002  0.6000000E+02  0.7546771E-02  0.1259629E+00
         11   -1    0    0    0    0  0.00000000000E+00  0.00000000000E+00  0.30000000000E+02  0.30000000000E+02  0.00000000000E+00 0.  1.
        -11   -1    0    0    0    0 -0.00000000000E+00 -0.00000000000E+00 -0.30000000000E+02  0.30000000000E+02  0.00000000000E+00 0. -1.
         23    2    1    2    0    0  0.00000000000E+00  0.00000000000E+00  0.00000000000E+00  0.60000000000E+02  0.60000000000E+02 0.  0.
          5    1    3    3  501    0 -0.10680124254E+02 -0.15217684923E+02 -0.23070912672E+02  0.30000000000E+02  0.47000000000E+01 0. -1.
         -5    1    3    3    0  501  0.10680124254E+02  0.15217684923E+02  0.23070912672E+02  0.30000000000E+02  0.47000000000E+01 0.  1.
</event>
<event>
 5    1  0.7624361E-002  0.6000000E+02  0.7546771E-02  0.1259629E+00
         11   -1    0    0    0    0  0.00000000000E+00  0.00000000000E+00  0.30000000000E+02  0.30000000000E+02  0.00000000000E+00 0.  1.
        -11   -1    0    0    0    0 -0.00000000000E+00 -0.00000000000E+00 -0.30000000000E+02  0.30000000000E+02  0.00000000000E+00 0. -1.
         23    2    1    2    0    0  0.00000000000E+00  0.00000000000E+00  0.00000000000E+00  0.60000000000E+02  0.60000000000E+02 0.  0.
          5    1    3    3  501    0  0.15219358456E+01  0.10298282688E+02 -0.27740567495E+02  0.30000000000E+02  0.47000000000E+01 0. -1.
         -5    1    3    3    0  501 -0.15219358456E+01 -0.10298282688E+02  0.27740567495E+02  0.30000000000E+02  0.47000000000E+01 0.  1.
</event>
<event>
 5    1  0.7624361E-002  0.6000000E+02  0.7546771E-02  0.1259629E+00
         11   -1    0    0    0    0  0.00000000000E+00  0.00000000000E+00  0.30000000000E+02  0.30000000000E+02  0.00000000000E+00 0. -1.
        -11   -1    0    0    0    0 -0.00000000000E+00 -0.00000000000E+00 -0.30000000000E+02  0.30000000000E+02  0.00000000000E+00 0.  1.
         23    2    1    2    0    0  0.00000000000E+00  0.00000000000E+00  0.00000000000E+00  0.60000000000E+02  0.60000000000E+02 0.  0.
          5    1    3    3  501    0  0.26927582570E+02  0.29337457820E+01  0.12008681553E+02  0.30000000000E+02  0.47000000000E+01 0. -1.
         -5    1    3    3    0  501 -0.26927582570E+02 -0.29337457820E+01 -0.12008681553E+02  0.30000000000E+02  0.47000000000E+01 0.  1.
</event>
<event>
 5    1  0.7624361E-002  0.6000000E+02  0.7546771E-02  0.1259629E+00
         11   -1    0    0    0    0  0.00000000000E+00  0.00000000000E+00  0.30000000000E+02  0.30000000000E+02  0.00000000000E+00 0. -1.
        -11   -1    0    0    0    0 -0.00000000000E+00 -0.00000000000E+00 -0.30000000000E+02  0.30000000000E+02  0.00000000000E+00 0.  1.
         23    2    1    2    0    0  0.00000000000E+00  0.00000000000E+00  0.00000000000E+00  0.60000000000E+02  0.60000000000E+02 0.  0.
          5    1    3    3  501    0  0.16791712145E+02  0.18310471483E+02 -0.16145433947E+02  0.30000000000E+02  0.47000000000E+01 0.  1.
         -5    1    3    3    0  501 -0.16791712145E+02 -0.18310471483E+02  0.16145433947E+02  0.30000000000E+02  0.47000000000E+01 0. -1.
</event>
<event>
 5    1  0.7624361E-002  0.6000000E+02  0.7546771E-02  0.1259629E+00
         11   -1    0    0    0    0  0.00000000000E+00  0.00000000000E+00  0.30000000000E+02  0.30000000000E+02  0.00000000000E+00 0.  1.
        -11   -1    0    0    0    0 -0.00000000000E+00 -0.00000000000E+00 -0.30000000000E+02  0.30000000000E+02  0.00000000000E+00 0. -1.
         23    2    1    2    0    0  0.00000000000E+00  0.00000000000E+00  0.00000000000E+00  0.60000000000E+02  0.60000000000E+02 0.  0.
          5    1    3    3  501    0  0.10622612368E+02  0.15013650570E+01 -0.27619123980E+02  0.30000000000E+02  0.47000000000E+01 0. -1.
         -5    1    3    3    0  501 -0.10622612368E+02 -0.15013650570E+01  0.27619123980E+02  0.30000000000E+02  0.47000000000E+01 0.  1.
</event>
<event>
 5    1  0.7624361E-002  0.6000000E+02  0.7546771E-02  0.1259629E+00
         11   -1    0    0    0    0  0.00000000000E+00  0.00000000000E+00  0.30000000000E+02  0.30000000000E+02  0.00000000000E+00 0. -1.
        -11   -1    0    0    0    0 -0.00000000000E+00 -0.00000000000E+00 -0.30000000000E+02  0.30000000000E+02  0.00000000000E+00 0.  1.
         23    2    1    2    0    0  0.00000000000E+00  0.00000000000E+00  0.00000000000E+00  0.60000000000E+02  0.60000000000E+02 0.  0.
          5    1    3    3  501    0 -0.16066389538E+02  0.48973993203E+01 -0.24408945227E+02  0.30000000000E+02  0.47000000000E+01 0.  1.
         -5    1    3    3    0  501  0.16066389538E+02 -0.48973993203E+01  0.24408945227E+02  0.30000000000E+02  0.47000000000E+01 0. -1.
</event>
<event>
 5    1  0.7624361E-002  0.6000000E+02  0.7546771E-02  0.1259629E+00
         11   -1    0    0    0    0  0.00000000000E+00  0.00000000000E+00  0.30000000000E+02  0.30000000000E+02  0.00000000000E+00 0.  1.
        -11   -1    0    0    0    0 -0.00000000000E+00 -0.00000000000E+00 -0.30000000000E+02  0.30000000000E+02  0.00000000000E+00 0. -1.
         23    2    1    2    0    0  0.00000000000E+00  0.00000000000E+00  0.00000000000E+00  0.60000000000E+02  0.60000000000E+02 0.  0.
          5    1    3    3  501    0 -0.24833387402E+01 -0.63310525408E+00 -0.29518506169E+02  0.30000000000E+02  0.47000000000E+01 0. -1.
         -5    1    3    3    0  501  0.24833387402E+01  0.63310525408E+00  0.29518506169E+02  0.30000000000E+02  0.47000000000E+01 0.  1.
</event>
<event>
 5    1  0.7624361E-002  0.6000000E+02  0.7546771E-02  0.1259629E+00
         11   -1    0    0    0    0  0.00000000000E+00  0.00000000000E+00  0.30000000000E+02  0.30000000000E+02  0.00000000000E+00 0.  1.
        -11   -1    0    0    0    0 -0.00000000000E+00 -0.00000000000E+00 -0.30000000000E+02  0.30000000000E+02  0.00000000000E+00 0. -1.
         23    2    1    2    0    0  0.00000000000E+00  0.00000000000E+00  0.00000000000E+00  0.60000000000E+02  0.60000000000E+02 0.  0.
          5    1    3    3  501    0 -0.26238210046E+01  0.25781064571E+02 -0.14365314927E+02  0.30000000000E+02  0.47000000000E+01 0. -1.
         -5    1    3    3    0  501  0.26238210046E+01 -0.25781064571E+02  0.14365314927E+02  0.30000000000E+02  0.47000000000E+01 0.  1.
</event>
<event>
 5    1  0.7624361E-002  0.6000000E+02  0.7546771E-02  0.1259629E+00
         11   -1    0    0    0    0  0.00000000000E+00  0.00000000000E+00  0.30000000000E+02  0.30000000000E+02  0.00000000000E+00 0.  1.
        -11   -1    0    0    0    0 -0.00000000000E+00 -0.00000000000E+00 -0.30000000000E+02  0.30000000000E+02  0.00000000000E+00 0. -1.
         23    2    1    2    0    0  0.00000000000E+00  0.00000000000E+00  0.00000000000E+00  0.60000000000E+02  0.60000000000E+02 0.  0.
          5    1    3    3  501    0 -0.14884121853E+02  0.18511004311E+02 -0.17712019536E+02  0.30000000000E+02  0.47000000000E+01 0. -1.
         -5    1    3    3    0  501  0.14884121853E+02 -0.18511004311E+02  0.17712019536E+02  0.30000000000E+02  0.47000000000E+01 0.  1.
</event>
<event>
 5    1  0.7624361E-002  0.6000000E+02  0.7546771E-02  0.1259629E+00
         11   -1    0    0    0    0  0.00000000000E+00  0.00000000000E+00  0.30000000000E+02  0.30000000000E+02  0.00000000000E+00 0.  1.
        -11   -1    0    0    0    0 -0.00000000000E+00 -0.00000000000E+00 -0.30000000000E+02  0.30000000000E+02  0.00000000000E+00 0. -1.
         23    2    1    2    0    0  0.00000000000E+00  0.00000000000E+00  0.00000000000E+00  0.60000000000E+02  0.60000000000E+02 0.  0.
          5    1    3    3  501    0 -0.12098336788E+02 -0.26956031651E+02 -0.22164396183E+01  0.30000000000E+02  0.47000000000E+01 0. -1.
         -5    1    3    3    0  501  0.12098336788E+02  0.26956031651E+02  0.22164396183E+01  0.30000000000E+02  0.47000000000E+01 0.  1.
</event>
<event>
 5    1  0.7624361E-002  0.6000000E+02  0.7546771E-02  0.1259629E+00
         11   -1    0    0    0    0  0.00000000000E+00  0.00000000000E+00  0.30000000000E+02  0.30000000000E+02  0.00000000000E+00 0.  1.
        -11   -1    0    0    0    0 -0.00000000000E+00 -0.00000000000E+00 -0.30000000000E+02  0.30000000000E+02  0.00000000000E+00 0. -1.
         23    2    1    2    0    0  0.00000000000E+00  0.00000000000E+00  0.00000000000E+00  0.60000000000E+02  0.60000000000E+02 0.  0.
          5    1    3    3  501    0 -0.18821132618E+02  0.17445706079E+02 -0.14809534306E+02  0.30000000000E+02  0.47000000000E+01 0. -1.
         -5    1    3    3    0  501  0.18821132618E+02 -0.17445706079E+02  0.14809534306E+02  0.30000000000E+02  0.47000000000E+01 0.  1.
</event>
<event>
 5    1  0.7624361E-002  0.6000000E+02  0.7546771E-02  0.1259629E+00
         11   -1    0    0    0    0  0.00000000000E+00  0.00000000000E+00  0.30000000000E+02  0.30000000000E+02  0.00000000000E+00 0. -1.
        -11   -1    0    0    0    0 -0.00000000000E+00 -0.00000000000E+00 -0.30000000000E+02  0.30000000000E+02  0.00000000000E+00 0.  1.
         23    2    1    2    0    0  0.00000000000E+00  0.00000000000E+00  0.00000000000E+00  0.60000000000E+02  0.60000000000E+02 0.  0.
          5    1    3    3  501    0 -0.29624432563E+02 -0.55037318987E+00 -0.92009165661E-02  0.30000000000E+02  0.47000000000E+01 0.  1.
         -5    1    3    3    0  501  0.29624432563E+02  0.55037318987E+00  0.92009165661E-02  0.30000000000E+02  0.47000000000E+01 0. -1.
</event>
<event>
 5    1  0.7624361E-002  0.6000000E+02  0.7546771E-02  0.1259629E+00
         11   -1    0    0    0    0  0.00000000000E+00  0.00000000000E+00  0.30000000000E+02  0.30000000000E+02  0.00000000000E+00 0. -1.
        -11   -1    0    0    0    0 -0.00000000000E+00 -0.00000000000E+00 -0.30000000000E+02  0.30000000000E+02  0.00000000000E+00 0.  1.
         23    2    1    2    0    0  0.00000000000E+00  0.00000000000E+00  0.00000000000E+00  0.60000000000E+02  0.60000000000E+02 0.  0.
          5    1    3    3  501    0  0.77210790418E+01  0.28482879151E+02 -0.26496289711E+01  0.30000000000E+02  0.47000000000E+01 0.  1.
         -5    1    3    3    0  501 -0.77210790418E+01 -0.28482879151E+02  0.26496289711E+01  0.30000000000E+02  0.47000000000E+01 0. -1.
</event>
<event>
 5    1  0.7624361E-002  0.6000000E+02  0.7546771E-02  0.1259629E+00
         11   -1    0    0    0    0  0.00000000000E+00  0.00000000000E+00  0.30000000000E+02  0.30000000000E+02  0.00000000000E+00 0. -1.
        -11   -1    0    0    0    0 -0.00000000000E+00 -0.00000000000E+00 -0.30000000000E+02  0.30000000000E+02  0.00000000000E+00 0.  1.
         23    2    1    2    0    0  0.00000000000E+00  0.00000000000E+00  0.00000000000E+00  0.60000000000E+02  0.60000000000E+02 0.  0.
          5    1    3    3  501    0  0.18820824287E+02 -0.21207052405E+02  0.85992733080E+01  0.30000000000E+02  0.47000000000E+01 0.  1.
         -5    1    3    3    0  501 -0.18820824287E+02  0.21207052405E+02 -0.85992733080E+01  0.30000000000E+02  0.47000000000E+01 0. -1.
</event>
<event>
 5    1  0.7624361E-002  0.6000000E+02  0.7546771E-02  0.1259629E+00
         11   -1    0    0    0    0  0.00000000000E+00  0.00000000000E+00  0.30000000000E+02  0.30000000000E+02  0.00000000000E+00 0.  1.
        -11   -1    0    0    0    0 -0.00000000000E+00 -0.00000000000E+00 -0.30000000000E+02  0.30000000000E+02  0.00000000000E+00 0. -1.
         23    2    1    2    0    0  0.00000000000E+00  0.00000000000E+00  0.00000000000E+00  0.60000000000E+02  0.60000000000E+02 0.  0.
          5    1    3    3  501    0  0.14632977963E+02 -0.16243351593E+02 -0.19998487066E+02  0.30000000000E+02  0.47000000000E+01 0. -1.
         -5    1    3    3    0  501 -0.14632977963E+02  0.16243351593E+02  0.19998487066E+02  0.30000000000E+02  0.47000000000E+01 0.  1.
</event>
<event>
 5    1  0.7624361E-002  0.6000000E+02  0.7546771E-02  0.1259629E+00
         11   -1    0    0    0    0  0.00000000000E+00  0.00000000000E+00  0.30000000000E+02  0.30000000000E+02  0.00000000000E+00 0.  1.
        -11   -1    0    0    0    0 -0.00000000000E+00 -0.00000000000E+00 -0.30000000000E+02  0.30000000000E+02  0.00000000000E+00 0. -1.
         23    2    1    2    0    0  0.00000000000E+00  0.00000000000E+00  0.00000000000E+00  0.60000000000E+02  0.60000000000E+02 0.  0.
          5    1    3    3  501    0 -0.99980292059E+01  0.18826340718E+02  0.20579560422E+02  0.30000000000E+02  0.47000000000E+01 0.  1.
         -5    1    3    3    0  501  0.99980292059E+01 -0.18826340718E+02 -0.20579560422E+02  0.30000000000E+02  0.47000000000E+01 0. -1.
</event>
<event>
 5    1  0.7624361E-002  0.6000000E+02  0.7546771E-02  0.1259629E+00
         11   -1    0    0    0    0  0.00000000000E+00  0.00000000000E+00  0.30000000000E+02  0.30000000000E+02  0.00000000000E+00 0.  1.
        -11   -1    0    0    0    0 -0.00000000000E+00 -0.00000000000E+00 -0.30000000000E+02  0.30000000000E+02  0.00000000000E+00 0. -1.
         23    2    1    2    0    0  0.00000000000E+00  0.00000000000E+00  0.00000000000E+00  0.60000000000E+02  0.60000000000E+02 0.  0.
          5    1    3    3  501    0  0.27332477099E+01 -0.12465420950E+02 -0.26740468162E+02  0.30000000000E+02  0.47000000000E+01 0. -1.
         -5    1    3    3    0  501 -0.27332477099E+01  0.12465420950E+02  0.26740468162E+02  0.30000000000E+02  0.47000000000E+01 0.  1.
</event>
<event>
 5    1  0.7624361E-002  0.6000000E+02  0.7546771E-02  0.1259629E+00
         11   -1    0    0    0    0  0.00000000000E+00  0.00000000000E+00  0.30000000000E+02  0.30000000000E+02  0.00000000000E+00 0. -1.
        -11   -1    0    0    0    0 -0.00000000000E+00 -0.00000000000E+00 -0.30000000000E+02  0.30000000000E+02  0.00000000000E+00 0.  1.
         23    2    1    2    0    0  0.00000000000E+00  0.00000000000E+00  0.00000000000E+00  0.60000000000E+02  0.60000000000E+02 0.  0.
          5    1    3    3  501    0  0.13825012321E+02  0.12841578209E+02 -0.22844537715E+02  0.30000000000E+02  0.47000000000E+01 0.  1.
         -5    1    3    3    0  501 -0.13825012321E+02 -0.12841578209E+02  0.22844537715E+02  0.30000000000E+02  0.47000000000E+01 0. -1.
</event>
<event>
 5    1  0.7624361E-002  0.6000000E+02  0.7546771E-02  0.1259629E+00
         11   -1    0    0    0    0  0.00000000000E+00  0.00000000000E+00  0.30000000000E+02  0.30000000000E+02  0.00000000000E+00 0.  1.
        -11   -1    0    0    0    0 -0.00000000000E+00 -0.00000000000E+00 -0.30000000000E+02  0.30000000000E+02  0.00000000000E+00 0. -1.
         23    2    1    2    0    0  0.00000000000E+00  0.00000000000E+00  0.00000000000E+00  0.60000000000E+02  0.60000000000E+02 0.  0.
          5    1    3    3  501    0 -0.46417084553E+01  0.54159384509E+01 -0.28758166724E+02  0.30000000000E+02  0.47000000000E+01 0. -1.
         -5    1    3    3    0  501  0.46417084553E+01 -0.54159384509E+01  0.28758166724E+02  0.30000000000E+02  0.47000000000E+01 0.  1.
</event>
<event>
 5    1  0.7624361E-002  0.6000000E+02  0.7546771E-02  0.1259629E+00
         11   -1    0    0    0    0  0.00000000000E+00  0.00000000000E+00  0.30000000000E+02  0.30000000000E+02  0.00000000000E+00 0.  1.
        -11   -1    0    0    0    0 -0.00000000000E+00 -0.00000000000E+00 -0.30000000000E+02  0.30000000000E+02  0.00000000000E+00 0. -1.
         23    2    1    2    0    0  0.00000000000E+00  0.00000000000E+00  0.00000000000E+00  0.60000000000E+02  0.60000000000E+02 0.  0.
          5    1    3    3  501    0  0.27363135573E+02 -0.10953161676E+02  0.30326656422E+01  0.30000000000E+02  0.47000000000E+01 0.  1.
         -5    1    3    3    0  501 -0.27363135573E+02  0.10953161676E+02 -0.30326656422E+01  0.30000000000E+02  0.47000000000E+01 0. -1.
</event>
<event>
 5    1  0.7624361E-002  0.6000000E+02  0.7546771E-02  0.1259629E+00
         11   -1    0    0    0    0  0.00000000000E+00  0.00000000000E+00  0.30000000000E+02  0.30000000000E+02  0.00000000000E+00 0.  1.
        -11   -1    0    0    0    0 -0.00000000000E+00 -0.00000000000E+00 -0.30000000000E+02  0.30000000000E+02  0.00000000000E+00 0. -1.
         23    2    1    2    0    0  0.00000000000E+00  0.00000000000E+00  0.00000000000E+00  0.60000000000E+02  0.60000000000E+02 0.  0.
          5    1    3    3  501    0  0.36219157720E+01 -0.15541528547E+02 -0.24965027870E+02  0.30000000000E+02  0.47000000000E+01 0. -1.
         -5    1    3    3    0  501 -0.36219157720E+01  0.15541528547E+02  0.24965027870E+02  0.30000000000E+02  0.47000000000E+01 0.  1.
</event>
<event>
 5    1  0.7624361E-002  0.6000000E+02  0.7546771E-02  0.1259629E+00
         11   -1    0    0    0    0  0.00000000000E+00  0.00000000000E+00  0.30000000000E+02  0.30000000000E+02  0.00000000000E+00 0. -1.
        -11   -1    0    0    0    0 -0.00000000000E+00 -0.00000000000E+00 -0.30000000000E+02  0.30000000000E+02  0.00000000000E+00 0.  1.
         23    2    1    2    0    0  0.00000000000E+00  0.00000000000E+00  0.00000000000E+00  0.60000000000E+02  0.60000000000E+02 0.  0.
          5    1    3    3  501    0 -0.13458327937E+02 -0.22041456661E+02 -0.14524379415E+02  0.30000000000E+02  0.47000000000E+01 0.  1.
         -5    1    3    3    0  501  0.13458327937E+02  0.22041456661E+02  0.14524379415E+02  0.30000000000E+02  0.47000000000E+01 0. -1.
</event>
<event>
 5    1  0.7624361E-002  0.6000000E+02  0.7546771E-02  0.1259629E+00
         11   -1    0    0    0    0  0.00000000000E+00  0.00000000000E+00  0.30000000000E+02  0.30000000000E+02  0.00000000000E+00 0. -1.
        -11   -1    0    0    0    0 -0.00000000000E+00 -0.00000000000E+00 -0.30000000000E+02  0.30000000000E+02  0.00000000000E+00 0.  1.
         23    2    1    2    0    0  0.00000000000E+00  0.00000000000E+00  0.00000000000E+00  0.60000000000E+02  0.60000000000E+02 0.  0.
          5    1    3    3  501    0 -0.59500616188E+01 -0.23795838405E+01 -0.28928262089E+02  0.30000000000E+02  0.47000000000E+01 0.  1.
         -5    1    3    3    0  501  0.59500616188E+01  0.23795838405E+01  0.28928262089E+02  0.30000000000E+02  0.47000000000E+01 0. -1.
</event>
<event>
 5    1  0.7624361E-002  0.6000000E+02  0.7546771E-02  0.1259629E+00
         11   -1    0    0    0    0  0.00000000000E+00  0.00000000000E+00  0.30000000000E+02  0.30000000000E+02  0.00000000000E+00 0.  1.
        -11   -1    0    0    0    0 -0.00000000000E+00 -0.00000000000E+00 -0.30000000000E+02  0.30000000000E+02  0.00000000000E+00 0. -1.
         23    2    1    2    0    0  0.00000000000E+00  0.00000000000E+00  0.00000000000E+00  0.60000000000E+02  0.60000000000E+02 0.  0.
          5    1    3    3  501    0  0.26218252578E+02  0.13504732401E+02 -0.28522683169E+01  0.30000000000E+02  0.47000000000E+01 0. -1.
         -5    1    3    3    0  501 -0.26218252578E+02 -0.13504732401E+02  0.28522683169E+01  0.30000000000E+02  0.47000000000E+01 0.  1.
</event>
<event>
 5    1  0.7624361E-002  0.6000000E+02  0.7546771E-02  0.1259629E+00
         11   -1    0    0    0    0  0.00000000000E+00  0.00000000000E+00  0.30000000000E+02  0.30000000000E+02  0.00000000000E+00 0.  1.
        -11   -1    0    0    0    0 -0.00000000000E+00 -0.00000000000E+00 -0.30000000000E+02  0.30000000000E+02  0.00000000000E+00 0. -1.
         23    2    1    2    0    0  0.00000000000E+00  0.00000000000E+00  0.00000000000E+00  0.60000000000E+02  0.60000000000E+02 0.  0.
          5    1    3    3  501    0 -0.23445253599E+02 -0.17841040274E+02  0.31507722275E+01  0.30000000000E+02  0.47000000000E+01 0. -1.
         -5    1    3    3    0  501  0.23445253599E+02  0.17841040274E+02 -0.31507722275E+01  0.30000000000E+02  0.47000000000E+01 0.  1.
</event>
<event>
 5    1  0.7624361E-002  0.6000000E+02  0.7546771E-02  0.1259629E+00
         11   -1    0    0    0    0  0.00000000000E+00  0.00000000000E+00  0.30000000000E+02  0.30000000000E+02  0.00000000000E+00 0.  1.
        -11   -1    0    0    0    0 -0.00000000000E+00 -0.00000000000E+00 -0.30000000000E+02  0.30000000000E+02  0.00000000000E+00 0. -1.
         23    2    1    2    0    0  0.00000000000E+00  0.00000000000E+00  0.00000000000E+00  0.60000000000E+02  0.60000000000E+02 0.  0.
          5    1    3    3  501    0 -0.12631636678E+02  0.26687703038E+02 -0.24735119570E+01  0.30000000000E+02  0.47000000000E+01 0. -1.
         -5    1    3    3    0  501  0.12631636678E+02 -0.26687703038E+02  0.24735119570E+01  0.30000000000E+02  0.47000000000E+01 0.  1.
</event>
<event>
 5    1  0.7624361E-002  0.6000000E+02  0.7546771E-02  0.1259629E+00
         11   -1    0    0    0    0  0.00000000000E+00  0.00000000000E+00  0.30000000000E+02  0.30000000000E+02  0.00000000000E+00 0.  1.
        -11   -1    0    0    0    0 -0.00000000000E+00 -0.00000000000E+00 -0.30000000000E+02  0.30000000000E+02  0.00000000000E+00 0. -1.
         23    2    1    2    0    0  0.00000000000E+00  0.00000000000E+00  0.00000000000E+00  0.60000000000E+02  0.60000000000E+02 0.  0.
          5    1    3    3  501    0  0.12081022159E+02 -0.94785789447E+01 -0.25339996937E+02  0.30000000000E+02  0.47000000000E+01 0. -1.
         -5    1    3    3    0  501 -0.12081022159E+02  0.94785789447E+01  0.25339996937E+02  0.30000000000E+02  0.47000000000E+01 0.  1.
</event>
<event>
 5    1  0.7624361E-002  0.6000000E+02  0.7546771E-02  0.1259629E+00
         11   -1    0    0    0    0  0.00000000000E+00  0.00000000000E+00  0.30000000000E+02  0.30000000000E+02  0.00000000000E+00 0. -1.
        -11   -1    0    0    0    0 -0.00000000000E+00 -0.00000000000E+00 -0.30000000000E+02  0.30000000000E+02  0.00000000000E+00 0.  1.
         23    2    1    2    0    0  0.00000000000E+00  0.00000000000E+00  0.00000000000E+00  0.60000000000E+02  0.60000000000E+02 0.  0.
          5    1    3    3  501    0  0.60378210943E+01  0.25205955478E+02 -0.14356689203E+02  0.30000000000E+02  0.47000000000E+01 0.  1.
         -5    1    3    3    0  501 -0.60378210943E+01 -0.25205955478E+02  0.14356689203E+02  0.30000000000E+02  0.47000000000E+01 0. -1.
</event>
<event>
 5    1  0.7624361E-002  0.6000000E+02  0.7546771E-02  0.1259629E+00
         11   -1    0    0    0    0  0.00000000000E+00  0.00000000000E+00  0.30000000000E+02  0.30000000000E+02  0.00000000000E+00 0.  1.
        -11   -1    0    0    0    0 -0.00000000000E+00 -0.00000000000E+00 -0.30000000000E+02  0.30000000000E+02  0.00000000000E+00 0. -1.
         23    2    1    2    0    0  0.00000000000E+00  0.00000000000E+00  0.00000000000E+00  0.60000000000E+02  0.60000000000E+02 0.  0.
          5    1    3    3  501    0  0.18636295925E+02  0.17401122705E+01 -0.22968902531E+02  0.30000000000E+02  0.47000000000E+01 0. -1.
         -5    1    3    3    0  501 -0.18636295925E+02 -0.17401122705E+01  0.22968902531E+02  0.30000000000E+02  0.47000000000E+01 0.  1.
</event>
<event>
 5    1  0.7624361E-002  0.6000000E+02  0.7546771E-02  0.1259629E+00
         11   -1    0    0    0    0  0.00000000000E+00  0.00000000000E+00  0.30000000000E+02  0.30000000000E+02  0.00000000000E+00 0.  1.
        -11   -1    0    0    0    0 -0.00000000000E+00 -0.00000000000E+00 -0.30000000000E+02  0.30000000000E+02  0.00000000000E+00 0. -1.
         23    2    1    2    0    0  0.00000000000E+00  0.00000000000E+00  0.00000000000E+00  0.60000000000E+02  0.60000000000E+02 0.  0.
          5    1    3    3  501    0 -0.27197245889E+02 -0.10432214577E+02 -0.54211359577E+01  0.30000000000E+02  0.47000000000E+01 0. -1.
         -5    1    3    3    0  501  0.27197245889E+02  0.10432214577E+02  0.54211359577E+01  0.30000000000E+02  0.47000000000E+01 0.  1.
</event>
<event>
 5    1  0.7624361E-002  0.6000000E+02  0.7546771E-02  0.1259629E+00
         11   -1    0    0    0    0  0.00000000000E+00  0.00000000000E+00  0.30000000000E+02  0.30000000000E+02  0.00000000000E+00 0.  1.
        -11   -1    0    0    0    0 -0.00000000000E+00 -0.00000000000E+00 -0.30000000000E+02  0.30000000000E+02  0.00000000000E+00 0. -1.
         23    2    1    2    0    0  0.00000000000E+00  0.00000000000E+00  0.00000000000E+00  0.60000000000E+02  0.60000000000E+02 0.  0.
          5    1    3    3  501    0 -0.29061132218E+02 -0.57689171875E+01 -0.28317610277E+00  0.30000000000E+02  0.47000000000E+01 0. -1.
         -5    1    3    3    0  501  0.29061132218E+02  0.57689171875E+01  0.28317610277E+00  0.30000000000E+02  0.47000000000E+01 0.  1.
</event>
<event>
 5    1  0.7624361E-002  0.6000000E+02  0.7546771E-02  0.1259629E+00
         11   -1    0    0    0    0  0.00000000000E+00  0.00000000000E+00  0.30000000000E+02  0.30000000000E+02  0.00000000000E+00 0. -1.
        -11   -1    0    0    0    0 -0.00000000000E+00 -0.00000000000E+00 -0.30000000000E+02  0.30000000000E+02  0.00000000000E+00 0.  1.
         23    2    1    2    0    0  0.00000000000E+00  0.00000000000E+00  0.00000000000E+00  0.60000000000E+02  0.60000000000E+02 0.  0.
          5    1    3    3  501    0 -0.19492417764E+02  0.20862110821E+02 -0.79200998624E+01  0.30000000000E+02  0.47000000000E+01 0.  1.
         -5    1    3    3    0  501  0.19492417764E+02 -0.20862110821E+02  0.79200998624E+01  0.30000000000E+02  0.47000000000E+01 0. -1.
</event>
<event>
 5    1  0.7624361E-002  0.6000000E+02  0.7546771E-02  0.1259629E+00
         11   -1    0    0    0    0  0.00000000000E+00  0.00000000000E+00  0.30000000000E+02  0.30000000000E+02  0.00000000000E+00 0.  1.
        -11   -1    0    0    0    0 -0.00000000000E+00 -0.00000000000E+00 -0.30000000000E+02  0.30000000000E+02  0.00000000000E+00 0. -1.
         23    2    1    2    0    0  0.00000000000E+00  0.00000000000E+00  0.00000000000E+00  0.60000000000E+02  0.60000000000E+02 0.  0.
          5    1    3    3  501    0 -0.11442552408E+02  0.26785340427E+02 -0.54335561666E+01  0.30000000000E+02  0.47000000000E+01 0. -1.
         -5    1    3    3    0  501  0.11442552408E+02 -0.26785340427E+02  0.54335561666E+01  0.30000000000E+02  0.47000000000E+01 0.  1.
</event>
<event>
 5    1  0.7624361E-002  0.6000000E+02  0.7546771E-02  0.1259629E+00
         11   -1    0    0    0    0  0.00000000000E+00  0.00000000000E+00  0.30000000000E+02  0.30000000000E+02  0.00000000000E+00 0.  1.
        -11   -1    0    0    0    0 -0.00000000000E+00 -0.00000000000E+00 -0.30000000000E+02  0.30000000000E+02  0.00000000000E+00 0. -1.
         23    2    1    2    0    0  0.00000000000E+00  0.00000000000E+00  0.00000000000E+00  0.60000000000E+02  0.60000000000E+02 0.  0.
          5    1    3    3  501    0  0.65657004541E+01  0.14197042671E+02 -0.25164370784E+02  0.30000000000E+02  0.47000000000E+01 0. -1.
         -5    1    3    3    0  501 -0.65657004541E+01 -0.14197042671E+02  0.25164370784E+02  0.30000000000E+02  0.47000000000E+01 0.  1.
</event>
<event>
 5    1  0.7624361E-002  0.6000000E+02  0.7546771E-02  0.1259629E+00
         11   -1    0    0    0    0  0.00000000000E+00  0.00000000000E+00  0.30000000000E+02  0.30000000000E+02  0.00000000000E+00 0. -1.
        -11   -1    0    0    0    0 -0.00000000000E+00 -0.00000000000E+00 -0.30000000000E+02  0.30000000000E+02  0.00000000000E+00 0.  1.
         23    2    1    2    0    0  0.00000000000E+00  0.00000000000E+00  0.00000000000E+00  0.60000000000E+02  0.60000000000E+02 0.  0.
          5    1    3    3  501    0 -0.22538687419E+02  0.65495624127E-01  0.19233129744E+02  0.30000000000E+02  0.47000000000E+01 0. -1.
         -5    1    3    3    0  501  0.22538687419E+02 -0.65495624127E-01 -0.19233129744E+02  0.30000000000E+02  0.47000000000E+01 0.  1.
</event>
<event>
 5    1  0.7624361E-002  0.6000000E+02  0.7546771E-02  0.1259629E+00
         11   -1    0    0    0    0  0.00000000000E+00  0.00000000000E+00  0.30000000000E+02  0.30000000000E+02  0.00000000000E+00 0.  1.
        -11   -1    0    0    0    0 -0.00000000000E+00 -0.00000000000E+00 -0.30000000000E+02  0.30000000000E+02  0.00000000000E+00 0. -1.
         23    2    1    2    0    0  0.00000000000E+00  0.00000000000E+00  0.00000000000E+00  0.60000000000E+02  0.60000000000E+02 0.  0.
          5    1    3    3  501    0 -0.54245930794E+01 -0.17587344426E+02  0.23220015201E+02  0.30000000000E+02  0.47000000000E+01 0.  1.
         -5    1    3    3    0  501  0.54245930794E+01  0.17587344426E+02 -0.23220015201E+02  0.30000000000E+02  0.47000000000E+01 0. -1.
</event>
<event>
 5    1  0.7624361E-002  0.6000000E+02  0.7546771E-02  0.1259629E+00
         11   -1    0    0    0    0  0.00000000000E+00  0.00000000000E+00  0.30000000000E+02  0.30000000000E+02  0.00000000000E+00 0.  1.
        -11   -1    0    0    0    0 -0.00000000000E+00 -0.00000000000E+00 -0.30000000000E+02  0.30000000000E+02  0.00000000000E+00 0. -1.
         23    2    1    2    0    0  0.00000000000E+00  0.00000000000E+00  0.00000000000E+00  0.60000000000E+02  0.60000000000E+02 0.  0.
          5    1    3    3  501    0 -0.19561928407E+02 -0.12065392132E+02 -0.18699392229E+02  0.30000000000E+02  0.47000000000E+01 0. -1.
         -5    1    3    3    0  501  0.19561928407E+02  0.12065392132E+02  0.18699392229E+02  0.30000000000E+02  0.47000000000E+01 0.  1.
</event>
<event>
 5    1  0.7624361E-002  0.6000000E+02  0.7546771E-02  0.1259629E+00
         11   -1    0    0    0    0  0.00000000000E+00  0.00000000000E+00  0.30000000000E+02  0.30000000000E+02  0.00000000000E+00 0. -1.
        -11   -1    0    0    0    0 -0.00000000000E+00 -0.00000000000E+00 -0.30000000000E+02  0.30000000000E+02  0.00000000000E+00 0.  1.
         23    2    1    2    0    0  0.00000000000E+00  0.00000000000E+00  0.00000000000E+00  0.60000000000E+02  0.60000000000E+02 0.  0.
          5    1    3    3  501    0  0.34122723372E+01  0.17147096958E+02 -0.23921610803E+02  0.30000000000E+02  0.47000000000E+01 0.  1.
         -5    1    3    3    0  501 -0.34122723372E+01 -0.17147096958E+02  0.23921610803E+02  0.30000000000E+02  0.47000000000E+01 0. -1.
</event>
<event>
 5    1  0.7624361E-002  0.6000000E+02  0.7546771E-02  0.1259629E+00
         11   -1    0    0    0    0  0.00000000000E+00  0.00000000000E+00  0.30000000000E+02  0.30000000000E+02  0.00000000000E+00 0.  1.
        -11   -1    0    0    0    0 -0.00000000000E+00 -0.00000000000E+00 -0.30000000000E+02  0.30000000000E+02  0.00000000000E+00 0. -1.
         23    2    1    2    0    0  0.00000000000E+00  0.00000000000E+00  0.00000000000E+00  0.60000000000E+02  0.60000000000E+02 0.  0.
          5    1    3    3  501    0  0.13729308258E+02  0.10014524248E+02 -0.24271905546E+02  0.30000000000E+02  0.47000000000E+01 0. -1.
         -5    1    3    3    0  501 -0.13729308258E+02 -0.10014524248E+02  0.24271905546E+02  0.30000000000E+02  0.47000000000E+01 0.  1.
</event>
<event>
 5    1  0.7624361E-002  0.6000000E+02  0.7546771E-02  0.1259629E+00
         11   -1    0    0    0    0  0.00000000000E+00  0.00000000000E+00  0.30000000000E+02  0.30000000000E+02  0.00000000000E+00 0.  1.
        -11   -1    0    0    0    0 -0.00000000000E+00 -0.00000000000E+00 -0.30000000000E+02  0.30000000000E+02  0.00000000000E+00 0. -1.
         23    2    1    2    0    0  0.00000000000E+00  0.00000000000E+00  0.00000000000E+00  0.60000000000E+02  0.60000000000E+02 0.  0.
          5    1    3    3  501    0 -0.13117559711E+02  0.28542070495E+01 -0.26413881376E+02  0.30000000000E+02  0.47000000000E+01 0. -1.
         -5    1    3    3    0  501  0.13117559711E+02 -0.28542070495E+01  0.26413881376E+02  0.30000000000E+02  0.47000000000E+01 0.  1.
</event>
<event>
 5    1  0.7624361E-002  0.6000000E+02  0.7546771E-02  0.1259629E+00
         11   -1    0    0    0    0  0.00000000000E+00  0.00000000000E+00  0.30000000000E+02  0.30000000000E+02  0.00000000000E+00 0.  1.
        -11   -1    0    0    0    0 -0.00000000000E+00 -0.00000000000E+00 -0.30000000000E+02  0.30000000000E+02  0.00000000000E+00 0. -1.
         23    2    1    2    0    0  0.00000000000E+00  0.00000000000E+00  0.00000000000E+00  0.60000000000E+02  0.60000000000E+02 0.  0.
          5    1    3    3  501    0 -0.27911538380E+02  0.97374480002E+01 -0.20095103084E+01  0.30000000000E+02  0.47000000000E+01 0. -1.
         -5    1    3    3    0  501  0.27911538380E+02 -0.97374480002E+01  0.20095103084E+01  0.30000000000E+02  0.47000000000E+01 0.  1.
</event>
<event>
 5    1  0.7624361E-002  0.6000000E+02  0.7546771E-02  0.1259629E+00
         11   -1    0    0    0    0  0.00000000000E+00  0.00000000000E+00  0.30000000000E+02  0.30000000000E+02  0.00000000000E+00 0.  1.
        -11   -1    0    0    0    0 -0.00000000000E+00 -0.00000000000E+00 -0.30000000000E+02  0.30000000000E+02  0.00000000000E+00 0. -1.
         23    2    1    2    0    0  0.00000000000E+00  0.00000000000E+00  0.00000000000E+00  0.60000000000E+02  0.60000000000E+02 0.  0.
          5    1    3    3  501    0  0.31426003422E+01  0.23130662083E+02 -0.18248466640E+02  0.30000000000E+02  0.47000000000E+01 0. -1.
         -5    1    3    3    0  501 -0.31426003422E+01 -0.23130662083E+02  0.18248466640E+02  0.30000000000E+02  0.47000000000E+01 0.  1.
</event>
<event>
 5    1  0.7624361E-002  0.6000000E+02  0.7546771E-02  0.1259629E+00
         11   -1    0    0    0    0  0.00000000000E+00  0.00000000000E+00  0.30000000000E+02  0.30000000000E+02  0.00000000000E+00 0.  1.
        -11   -1    0    0    0    0 -0.00000000000E+00 -0.00000000000E+00 -0.30000000000E+02  0.30000000000E+02  0.00000000000E+00 0. -1.
         23    2    1    2    0    0  0.00000000000E+00  0.00000000000E+00  0.00000000000E+00  0.60000000000E+02  0.60000000000E+02 0.  0.
          5    1    3    3  501    0  0.16147766093E+02 -0.24772197514E+02 -0.18702621595E+01  0.30000000000E+02  0.47000000000E+01 0. -1.
         -5    1    3    3    0  501 -0.16147766093E+02  0.24772197514E+02  0.18702621595E+01  0.30000000000E+02  0.47000000000E+01 0.  1.
</event>
<event>
 5    1  0.7624361E-002  0.6000000E+02  0.7546771E-02  0.1259629E+00
         11   -1    0    0    0    0  0.00000000000E+00  0.00000000000E+00  0.30000000000E+02  0.30000000000E+02  0.00000000000E+00 0. -1.
        -11   -1    0    0    0    0 -0.00000000000E+00 -0.00000000000E+00 -0.30000000000E+02  0.30000000000E+02  0.00000000000E+00 0.  1.
         23    2    1    2    0    0  0.00000000000E+00  0.00000000000E+00  0.00000000000E+00  0.60000000000E+02  0.60000000000E+02 0.  0.
          5    1    3    3  501    0 -0.28463497510E+02  0.82100837468E+01  0.57778400512E+00  0.30000000000E+02  0.47000000000E+01 0.  1.
         -5    1    3    3    0  501  0.28463497510E+02 -0.82100837468E+01 -0.57778400512E+00  0.30000000000E+02  0.47000000000E+01 0. -1.
</event>
<event>
 5    1  0.7624361E-002  0.6000000E+02  0.7546771E-02  0.1259629E+00
         11   -1    0    0    0    0  0.00000000000E+00  0.00000000000E+00  0.30000000000E+02  0.30000000000E+02  0.00000000000E+00 0.  1.
        -11   -1    0    0    0    0 -0.00000000000E+00 -0.00000000000E+00 -0.30000000000E+02  0.30000000000E+02  0.00000000000E+00 0. -1.
         23    2    1    2    0    0  0.00000000000E+00  0.00000000000E+00  0.00000000000E+00  0.60000000000E+02  0.60000000000E+02 0.  0.
          5    1    3    3  501    0  0.53723934328E+01  0.21941813517E+01 -0.29055687171E+02  0.30000000000E+02  0.47000000000E+01 0. -1.
         -5    1    3    3    0  501 -0.53723934328E+01 -0.21941813517E+01  0.29055687171E+02  0.30000000000E+02  0.47000000000E+01 0.  1.
</event>
<event>
 5    1  0.7624361E-002  0.6000000E+02  0.7546771E-02  0.1259629E+00
         11   -1    0    0    0    0  0.00000000000E+00  0.00000000000E+00  0.30000000000E+02  0.30000000000E+02  0.00000000000E+00 0.  1.
        -11   -1    0    0    0    0 -0.00000000000E+00 -0.00000000000E+00 -0.30000000000E+02  0.30000000000E+02  0.00000000000E+00 0. -1.
         23    2    1    2    0    0  0.00000000000E+00  0.00000000000E+00  0.00000000000E+00  0.60000000000E+02  0.60000000000E+02 0.  0.
          5    1    3    3  501    0 -0.19281768481E+02  0.21430512531E+02 -0.68451834823E+01  0.30000000000E+02  0.47000000000E+01 0. -1.
         -5    1    3    3    0  501  0.19281768481E+02 -0.21430512531E+02  0.68451834823E+01  0.30000000000E+02  0.47000000000E+01 0.  1.
</event>
<event>
 5    1  0.7624361E-002  0.6000000E+02  0.7546771E-02  0.1259629E+00
         11   -1    0    0    0    0  0.00000000000E+00  0.00000000000E+00  0.30000000000E+02  0.30000000000E+02  0.00000000000E+00 0. -1.
        -11   -1    0    0    0    0 -0.00000000000E+00 -0.00000000000E+00 -0.30000000000E+02  0.30000000000E+02  0.00000000000E+00 0.  1.
         23    2    1    2    0    0  0.00000000000E+00  0.00000000000E+00  0.00000000000E+00  0.60000000000E+02  0.60000000000E+02 0.  0.
          5    1    3    3  501    0  0.63402734449E+01 -0.28316869348E+02  0.59888098148E+01  0.30000000000E+02  0.47000000000E+01 0.  1.
         -5    1    3    3    0  501 -0.63402734449E+01  0.28316869348E+02 -0.59888098148E+01  0.30000000000E+02  0.47000000000E+01 0. -1.
</event>
<event>
 5    1  0.7624361E-002  0.6000000E+02  0.7546771E-02  0.1259629E+00
         11   -1    0    0    0    0  0.00000000000E+00  0.00000000000E+00  0.30000000000E+02  0.30000000000E+02  0.00000000000E+00 0.  1.
        -11   -1    0    0    0    0 -0.00000000000E+00 -0.00000000000E+00 -0.30000000000E+02  0.30000000000E+02  0.00000000000E+00 0. -1.
         23    2    1    2    0    0  0.00000000000E+00  0.00000000000E+00  0.00000000000E+00  0.60000000000E+02  0.60000000000E+02 0.  0.
          5    1    3    3  501    0  0.18969902773E+01  0.18067607990E+02 -0.23406686425E+02  0.30000000000E+02  0.47000000000E+01 0. -1.
         -5    1    3    3    0  501 -0.18969902773E+01 -0.18067607990E+02  0.23406686425E+02  0.30000000000E+02  0.47000000000E+01 0.  1.
</event>
<event>
 5    1  0.7624361E-002  0.6000000E+02  0.7546771E-02  0.1259629E+00
         11   -1    0    0    0    0  0.00000000000E+00  0.00000000000E+00  0.30000000000E+02  0.30000000000E+02  0.00000000000E+00 0.  1.
        -11   -1    0    0    0    0 -0.00000000000E+00 -0.00000000000E+00 -0.30000000000E+02  0.30000000000E+02  0.00000000000E+00 0. -1.
         23    2    1    2    0    0  0.00000000000E+00  0.00000000000E+00  0.00000000000E+00  0.60000000000E+02  0.60000000000E+02 0.  0.
          5    1    3    3  501    0  0.72681224957E+01  0.27847690404E+02 -0.70420547110E+01  0.30000000000E+02  0.47000000000E+01 0. -1.
         -5    1    3    3    0  501 -0.72681224957E+01 -0.27847690404E+02  0.70420547110E+01  0.30000000000E+02  0.47000000000E+01 0.  1.
</event>
<event>
 5    1  0.7624361E-002  0.6000000E+02  0.7546771E-02  0.1259629E+00
         11   -1    0    0    0    0  0.00000000000E+00  0.00000000000E+00  0.30000000000E+02  0.30000000000E+02  0.00000000000E+00 0.  1.
        -11   -1    0    0    0    0 -0.00000000000E+00 -0.00000000000E+00 -0.30000000000E+02  0.30000000000E+02  0.00000000000E+00 0. -1.
         23    2    1    2    0    0  0.00000000000E+00  0.00000000000E+00  0.00000000000E+00  0.60000000000E+02  0.60000000000E+02 0.  0.
          5    1    3    3  501    0 -0.15995702052E+02 -0.19136957476E+02 -0.15994510759E+02  0.30000000000E+02  0.47000000000E+01 0. -1.
         -5    1    3    3    0  501  0.15995702052E+02  0.19136957476E+02  0.15994510759E+02  0.30000000000E+02  0.47000000000E+01 0.  1.
</event>
<event>
 5    1  0.7624361E-002  0.6000000E+02  0.7546771E-02  0.1259629E+00
         11   -1    0    0    0    0  0.00000000000E+00  0.00000000000E+00  0.30000000000E+02  0.30000000000E+02  0.00000000000E+00 0.  1.
        -11   -1    0    0    0    0 -0.00000000000E+00 -0.00000000000E+00 -0.30000000000E+02  0.30000000000E+02  0.00000000000E+00 0. -1.
         23    2    1    2    0    0  0.00000000000E+00  0.00000000000E+00  0.00000000000E+00  0.60000000000E+02  0.60000000000E+02 0.  0.
          5    1    3    3  501    0 -0.25559376405E+01 -0.24807529251E+02 -0.15998864811E+02  0.30000000000E+02  0.47000000000E+01 0. -1.
         -5    1    3    3    0  501  0.25559376405E+01  0.24807529251E+02  0.15998864811E+02  0.30000000000E+02  0.47000000000E+01 0.  1.
</event>
<event>
 5    1  0.7624361E-002  0.6000000E+02  0.7546771E-02  0.1259629E+00
         11   -1    0    0    0    0  0.00000000000E+00  0.00000000000E+00  0.30000000000E+02  0.30000000000E+02  0.00000000000E+00 0. -1.
        -11   -1    0    0    0    0 -0.00000000000E+00 -0.00000000000E+00 -0.30000000000E+02  0.30000000000E+02  0.00000000000E+00 0.  1.
         23    2    1    2    0    0  0.00000000000E+00  0.00000000000E+00  0.00000000000E+00  0.60000000000E+02  0.60000000000E+02 0.  0.
          5    1    3    3  501    0 -0.16427429543E+02 -0.18296671891E+02 -0.16531223679E+02  0.30000000000E+02  0.47000000000E+01 0.  1.
         -5    1    3    3    0  501  0.16427429543E+02  0.18296671891E+02  0.16531223679E+02  0.30000000000E+02  0.47000000000E+01 0. -1.
</event>
<event>
 5    1  0.7624361E-002  0.6000000E+02  0.7546771E-02  0.1259629E+00
         11   -1    0    0    0    0  0.00000000000E+00  0.00000000000E+00  0.30000000000E+02  0.30000000000E+02  0.00000000000E+00 0. -1.
        -11   -1    0    0    0    0 -0.00000000000E+00 -0.00000000000E+00 -0.30000000000E+02  0.30000000000E+02  0.00000000000E+00 0.  1.
         23    2    1    2    0    0  0.00000000000E+00  0.00000000000E+00  0.00000000000E+00  0.60000000000E+02  0.60000000000E+02 0.  0.
          5    1    3    3  501    0 -0.18654134033E+02  0.29819023868E+01 -0.22826334389E+02  0.30000000000E+02  0.47000000000E+01 0.  1.
         -5    1    3    3    0  501  0.18654134033E+02 -0.29819023868E+01  0.22826334389E+02  0.30000000000E+02  0.47000000000E+01 0. -1.
</event>
<event>
 5    1  0.7624361E-002  0.6000000E+02  0.7546771E-02  0.1259629E+00
         11   -1    0    0    0    0  0.00000000000E+00  0.00000000000E+00  0.30000000000E+02  0.30000000000E+02  0.00000000000E+00 0.  1.
        -11   -1    0    0    0    0 -0.00000000000E+00 -0.00000000000E+00 -0.30000000000E+02  0.30000000000E+02  0.00000000000E+00 0. -1.
         23    2    1    2    0    0  0.00000000000E+00  0.00000000000E+00  0.00000000000E+00  0.60000000000E+02  0.60000000000E+02 0.  0.
          5    1    3    3  501    0 -0.10300809350E+02 -0.20880096378E+02 -0.18325525967E+02  0.30000000000E+02  0.47000000000E+01 0. -1.
         -5    1    3    3    0  501  0.10300809350E+02  0.20880096378E+02  0.18325525967E+02  0.30000000000E+02  0.47000000000E+01 0.  1.
</event>
<event>
 5    1  0.7624361E-002  0.6000000E+02  0.7546771E-02  0.1259629E+00
         11   -1    0    0    0    0  0.00000000000E+00  0.00000000000E+00  0.30000000000E+02  0.30000000000E+02  0.00000000000E+00 0.  1.
        -11   -1    0    0    0    0 -0.00000000000E+00 -0.00000000000E+00 -0.30000000000E+02  0.30000000000E+02  0.00000000000E+00 0. -1.
         23    2    1    2    0    0  0.00000000000E+00  0.00000000000E+00  0.00000000000E+00  0.60000000000E+02  0.60000000000E+02 0.  0.
          5    1    3    3  501    0  0.11658505805E+02 -0.44015067725E+01 -0.26881517452E+02  0.30000000000E+02  0.47000000000E+01 0. -1.
         -5    1    3    3    0  501 -0.11658505805E+02  0.44015067725E+01  0.26881517452E+02  0.30000000000E+02  0.47000000000E+01 0.  1.
</event>
<event>
 5    1  0.7624361E-002  0.6000000E+02  0.7546771E-02  0.1259629E+00
         11   -1    0    0    0    0  0.00000000000E+00  0.00000000000E+00  0.30000000000E+02  0.30000000000E+02  0.00000000000E+00 0. -1.
        -11   -1    0    0    0    0 -0.00000000000E+00 -0.00000000000E+00 -0.30000000000E+02  0.30000000000E+02  0.00000000000E+00 0.  1.
         23    2    1    2    0    0  0.00000000000E+00  0.00000000000E+00  0.00000000000E+00  0.60000000000E+02  0.60000000000E+02 0.  0.
          5    1    3    3  501    0  0.24333494868E+02 -0.78810259363E+01 -0.14955950579E+02  0.30000000000E+02  0.47000000000E+01 0. -1.
         -5    1    3    3    0  501 -0.24333494868E+02  0.78810259363E+01  0.14955950579E+02  0.30000000000E+02  0.47000000000E+01 0.  1.
</event>
<event>
 5    1  0.7624361E-002  0.6000000E+02  0.7546771E-02  0.1259629E+00
         11   -1    0    0    0    0  0.00000000000E+00  0.00000000000E+00  0.30000000000E+02  0.30000000000E+02  0.00000000000E+00 0.  1.
        -11   -1    0    0    0    0 -0.00000000000E+00 -0.00000000000E+00 -0.30000000000E+02  0.30000000000E+02  0.00000000000E+00 0. -1.
         23    2    1    2    0    0  0.00000000000E+00  0.00000000000E+00  0.00000000000E+00  0.60000000000E+02  0.60000000000E+02 0.  0.
          5    1    3    3  501    0  0.21294036682E+02  0.19900515831E+02  0.53332421174E+01  0.30000000000E+02  0.47000000000E+01 0. -1.
         -5    1    3    3    0  501 -0.21294036682E+02 -0.19900515831E+02 -0.53332421174E+01  0.30000000000E+02  0.47000000000E+01 0.  1.
</event>
<event>
 5    1  0.7624361E-002  0.6000000E+02  0.7546771E-02  0.1259629E+00
         11   -1    0    0    0    0  0.00000000000E+00  0.00000000000E+00  0.30000000000E+02  0.30000000000E+02  0.00000000000E+00 0.  1.
        -11   -1    0    0    0    0 -0.00000000000E+00 -0.00000000000E+00 -0.30000000000E+02  0.30000000000E+02  0.00000000000E+00 0. -1.
         23    2    1    2    0    0  0.00000000000E+00  0.00000000000E+00  0.00000000000E+00  0.60000000000E+02  0.60000000000E+02 0.  0.
          5    1    3    3  501    0  0.10265066598E+02  0.25488105371E+02 -0.11085796873E+02  0.30000000000E+02  0.47000000000E+01 0. -1.
         -5    1    3    3    0  501 -0.10265066598E+02 -0.25488105371E+02  0.11085796873E+02  0.30000000000E+02  0.47000000000E+01 0.  1.
</event>
<event>
 5    1  0.7624361E-002  0.6000000E+02  0.7546771E-02  0.1259629E+00
         11   -1    0    0    0    0  0.00000000000E+00  0.00000000000E+00  0.30000000000E+02  0.30000000000E+02  0.00000000000E+00 0.  1.
        -11   -1    0    0    0    0 -0.00000000000E+00 -0.00000000000E+00 -0.30000000000E+02  0.30000000000E+02  0.00000000000E+00 0. -1.
         23    2    1    2    0    0  0.00000000000E+00  0.00000000000E+00  0.00000000000E+00  0.60000000000E+02  0.60000000000E+02 0.  0.
          5    1    3    3  501    0  0.61287779854E+01 -0.57307262085E+01 -0.28416665137E+02  0.30000000000E+02  0.47000000000E+01 0. -1.
         -5    1    3    3    0  501 -0.61287779854E+01  0.57307262085E+01  0.28416665137E+02  0.30000000000E+02  0.47000000000E+01 0.  1.
</event>
<event>
 5    1  0.7624361E-002  0.6000000E+02  0.7546771E-02  0.1259629E+00
         11   -1    0    0    0    0  0.00000000000E+00  0.00000000000E+00  0.30000000000E+02  0.30000000000E+02  0.00000000000E+00 0.  1.
        -11   -1    0    0    0    0 -0.00000000000E+00 -0.00000000000E+00 -0.30000000000E+02  0.30000000000E+02  0.00000000000E+00 0. -1.
         23    2    1    2    0    0  0.00000000000E+00  0.00000000000E+00  0.00000000000E+00  0.60000000000E+02  0.60000000000E+02 0.  0.
          5    1    3    3  501    0 -0.12133521275E+02 -0.18473529431E+02  0.19733635545E+02  0.30000000000E+02  0.47000000000E+01 0.  1.
         -5    1    3    3    0  501  0.12133521275E+02  0.18473529431E+02 -0.19733635545E+02  0.30000000000E+02  0.47000000000E+01 0. -1.
</event>
<event>
 5    1  0.7624361E-002  0.6000000E+02  0.7546771E-02  0.1259629E+00
         11   -1    0    0    0    0  0.00000000000E+00  0.00000000000E+00  0.30000000000E+02  0.30000000000E+02  0.00000000000E+00 0.  1.
        -11   -1    0    0    0    0 -0.00000000000E+00 -0.00000000000E+00 -0.30000000000E+02  0.30000000000E+02  0.00000000000E+00 0. -1.
         23    2    1    2    0    0  0.00000000000E+00  0.00000000000E+00  0.00000000000E+00  0.60000000000E+02  0.60000000000E+02 0.  0.
          5    1    3    3  501    0  0.13056977014E+02  0.16464083526E+02 -0.20889215037E+02  0.30000000000E+02  0.47000000000E+01 0. -1.
         -5    1    3    3    0  501 -0.13056977014E+02 -0.16464083526E+02  0.20889215037E+02  0.30000000000E+02  0.47000000000E+01 0.  1.
</event>
<event>
 5    1  0.7624361E-002  0.6000000E+02  0.7546771E-02  0.1259629E+00
         11   -1    0    0    0    0  0.00000000000E+00  0.00000000000E+00  0.30000000000E+02  0.30000000000E+02  0.00000000000E+00 0.  1.
        -11   -1    0    0    0    0 -0.00000000000E+00 -0.00000000000E+00 -0.30000000000E+02  0.30000000000E+02  0.00000000000E+00 0. -1.
         23    2    1    2    0    0  0.00000000000E+00  0.00000000000E+00  0.00000000000E+00  0.60000000000E+02  0.60000000000E+02 0.  0.
          5    1    3    3  501    0  0.10163607420E+02  0.15164956566E+02 -0.23337420092E+02  0.30000000000E+02  0.47000000000E+01 0. -1.
         -5    1    3    3    0  501 -0.10163607420E+02 -0.15164956566E+02  0.23337420092E+02  0.30000000000E+02  0.47000000000E+01 0.  1.
</event>
<event>
 5    1  0.7624361E-002  0.6000000E+02  0.7546771E-02  0.1259629E+00
         11   -1    0    0    0    0  0.00000000000E+00  0.00000000000E+00  0.30000000000E+02  0.30000000000E+02  0.00000000000E+00 0. -1.
        -11   -1    0    0    0    0 -0.00000000000E+00 -0.00000000000E+00 -0.30000000000E+02  0.30000000000E+02  0.00000000000E+00 0.  1.
         23    2    1    2    0    0  0.00000000000E+00  0.00000000000E+00  0.00000000000E+00  0.60000000000E+02  0.60000000000E+02 0.  0.
          5    1    3    3  501    0 -0.20175839849E+02 -0.11910743414E+02 -0.18137796936E+02  0.30000000000E+02  0.47000000000E+01 0.  1.
         -5    1    3    3    0  501  0.20175839849E+02  0.11910743414E+02  0.18137796936E+02  0.30000000000E+02  0.47000000000E+01 0. -1.
</event>
<event>
 5    1  0.7624361E-002  0.6000000E+02  0.7546771E-02  0.1259629E+00
         11   -1    0    0    0    0  0.00000000000E+00  0.00000000000E+00  0.30000000000E+02  0.30000000000E+02  0.00000000000E+00 0.  1.
        -11   -1    0    0    0    0 -0.00000000000E+00 -0.00000000000E+00 -0.30000000000E+02  0.30000000000E+02  0.00000000000E+00 0. -1.
         23    2    1    2    0    0  0.00000000000E+00  0.00000000000E+00  0.00000000000E+00  0.60000000000E+02  0.60000000000E+02 0.  0.
          5    1    3    3  501    0 -0.12090805825E+02 -0.25676254294E+02  0.85118963755E+01  0.30000000000E+02  0.47000000000E+01 0. -1.
         -5    1    3    3    0  501  0.12090805825E+02  0.25676254294E+02 -0.85118963755E+01  0.30000000000E+02  0.47000000000E+01 0.  1.
</event>
<event>
 5    1  0.7624361E-002  0.6000000E+02  0.7546771E-02  0.1259629E+00
         11   -1    0    0    0    0  0.00000000000E+00  0.00000000000E+00  0.30000000000E+02  0.30000000000E+02  0.00000000000E+00 0. -1.
        -11   -1    0    0    0    0 -0.00000000000E+00 -0.00000000000E+00 -0.30000000000E+02  0.30000000000E+02  0.00000000000E+00 0.  1.
         23    2    1    2    0    0  0.00000000000E+00  0.00000000000E+00  0.00000000000E+00  0.60000000000E+02  0.60000000000E+02 0.  0.
          5    1    3    3  501    0 -0.49077439251E+01  0.14447605527E+02 -0.25398636658E+02  0.30000000000E+02  0.47000000000E+01 0.  1.
         -5    1    3    3    0  501  0.49077439251E+01 -0.14447605527E+02  0.25398636658E+02  0.30000000000E+02  0.47000000000E+01 0. -1.
</event>
<event>
 5    1  0.7624361E-002  0.6000000E+02  0.7546771E-02  0.1259629E+00
         11   -1    0    0    0    0  0.00000000000E+00  0.00000000000E+00  0.30000000000E+02  0.30000000000E+02  0.00000000000E+00 0. -1.
        -11   -1    0    0    0    0 -0.00000000000E+00 -0.00000000000E+00 -0.30000000000E+02  0.30000000000E+02  0.00000000000E+00 0.  1.
         23    2    1    2    0    0  0.00000000000E+00  0.00000000000E+00  0.00000000000E+00  0.60000000000E+02  0.60000000000E+02 0.  0.
          5    1    3    3  501    0  0.12242562704E+01  0.33771228355E+01 -0.29410988388E+02  0.30000000000E+02  0.47000000000E+01 0.  1.
         -5    1    3    3    0  501 -0.12242562704E+01 -0.33771228355E+01  0.29410988388E+02  0.30000000000E+02  0.47000000000E+01 0. -1.
</event>
<event>
 5    1  0.7624361E-002  0.6000000E+02  0.7546771E-02  0.1259629E+00
         11   -1    0    0    0    0  0.00000000000E+00  0.00000000000E+00  0.30000000000E+02  0.30000000000E+02  0.00000000000E+00 0.  1.
        -11   -1    0    0    0    0 -0.00000000000E+00 -0.00000000000E+00 -0.30000000000E+02  0.30000000000E+02  0.00000000000E+00 0. -1.
         23    2    1    2    0    0  0.00000000000E+00  0.00000000000E+00  0.00000000000E+00  0.60000000000E+02  0.60000000000E+02 0.  0.
          5    1    3    3  501    0  0.19221344853E+02 -0.19933582164E+02  0.10540503032E+02  0.30000000000E+02  0.47000000000E+01 0. -1.
         -5    1    3    3    0  501 -0.19221344853E+02  0.19933582164E+02 -0.10540503032E+02  0.30000000000E+02  0.47000000000E+01 0.  1.
</event>
<event>
 5    1  0.7624361E-002  0.6000000E+02  0.7546771E-02  0.1259629E+00
         11   -1    0    0    0    0  0.00000000000E+00  0.00000000000E+00  0.30000000000E+02  0.30000000000E+02  0.00000000000E+00 0. -1.
        -11   -1    0    0    0    0 -0.00000000000E+00 -0.00000000000E+00 -0.30000000000E+02  0.30000000000E+02  0.00000000000E+00 0.  1.
         23    2    1    2    0    0  0.00000000000E+00  0.00000000000E+00  0.00000000000E+00  0.60000000000E+02  0.60000000000E+02 0.  0.
          5    1    3    3  501    0  0.72563043121E+01  0.18369216504E+02 -0.22086827132E+02  0.30000000000E+02  0.47000000000E+01 0.  1.
         -5    1    3    3    0  501 -0.72563043121E+01 -0.18369216504E+02  0.22086827132E+02  0.30000000000E+02  0.47000000000E+01 0. -1.
</event>
<event>
 5    1  0.7624361E-002  0.6000000E+02  0.7546771E-02  0.1259629E+00
         11   -1    0    0    0    0  0.00000000000E+00  0.00000000000E+00  0.30000000000E+02  0.30000000000E+02  0.00000000000E+00 0.  1.
        -11   -1    0    0    0    0 -0.00000000000E+00 -0.00000000000E+00 -0.30000000000E+02  0.30000000000E+02  0.00000000000E+00 0. -1.
         23    2    1    2    0    0  0.00000000000E+00  0.00000000000E+00  0.00000000000E+00  0.60000000000E+02  0.60000000000E+02 0.  0.
          5    1    3    3  501    0 -0.21311504457E+02  0.20184253560E+02 -0.40405056634E+01  0.30000000000E+02  0.47000000000E+01 0. -1.
         -5    1    3    3    0  501  0.21311504457E+02 -0.20184253560E+02  0.40405056634E+01  0.30000000000E+02  0.47000000000E+01 0.  1.
</event>
<event>
 5    1  0.7624361E-002  0.6000000E+02  0.7546771E-02  0.1259629E+00
         11   -1    0    0    0    0  0.00000000000E+00  0.00000000000E+00  0.30000000000E+02  0.30000000000E+02  0.00000000000E+00 0.  1.
        -11   -1    0    0    0    0 -0.00000000000E+00 -0.00000000000E+00 -0.30000000000E+02  0.30000000000E+02  0.00000000000E+00 0. -1.
         23    2    1    2    0    0  0.00000000000E+00  0.00000000000E+00  0.00000000000E+00  0.60000000000E+02  0.60000000000E+02 0.  0.
          5    1    3    3  501    0 -0.26767882246E+02  0.18173878074E+01 -0.12573288417E+02  0.30000000000E+02  0.47000000000E+01 0. -1.
         -5    1    3    3    0  501  0.26767882246E+02 -0.18173878074E+01  0.12573288417E+02  0.30000000000E+02  0.47000000000E+01 0.  1.
</event>
<event>
 5    1  0.7624361E-002  0.6000000E+02  0.7546771E-02  0.1259629E+00
         11   -1    0    0    0    0  0.00000000000E+00  0.00000000000E+00  0.30000000000E+02  0.30000000000E+02  0.00000000000E+00 0. -1.
        -11   -1    0    0    0    0 -0.00000000000E+00 -0.00000000000E+00 -0.30000000000E+02  0.30000000000E+02  0.00000000000E+00 0.  1.
         23    2    1    2    0    0  0.00000000000E+00  0.00000000000E+00  0.00000000000E+00  0.60000000000E+02  0.60000000000E+02 0.  0.
          5    1    3    3  501    0  0.11413389937E+02  0.27341316303E+02 -0.31137272133E+00  0.30000000000E+02  0.47000000000E+01 0.  1.
         -5    1    3    3    0  501 -0.11413389937E+02 -0.27341316303E+02  0.31137272133E+00  0.30000000000E+02  0.47000000000E+01 0. -1.
</event>
<event>
 5    1  0.7624361E-002  0.6000000E+02  0.7546771E-02  0.1259629E+00
         11   -1    0    0    0    0  0.00000000000E+00  0.00000000000E+00  0.30000000000E+02  0.30000000000E+02  0.00000000000E+00 0.  1.
        -11   -1    0    0    0    0 -0.00000000000E+00 -0.00000000000E+00 -0.30000000000E+02  0.30000000000E+02  0.00000000000E+00 0. -1.
         23    2    1    2    0    0  0.00000000000E+00  0.00000000000E+00  0.00000000000E+00  0.60000000000E+02  0.60000000000E+02 0.  0.
          5    1    3    3  501    0 -0.37237558376E+01  0.26035213827E+02 -0.13645925525E+02  0.30000000000E+02  0.47000000000E+01 0. -1.
         -5    1    3    3    0  501  0.37237558376E+01 -0.26035213827E+02  0.13645925525E+02  0.30000000000E+02  0.47000000000E+01 0.  1.
</event>
<event>
 5    1  0.7624361E-002  0.6000000E+02  0.7546771E-02  0.1259629E+00
         11   -1    0    0    0    0  0.00000000000E+00  0.00000000000E+00  0.30000000000E+02  0.30000000000E+02  0.00000000000E+00 0.  1.
        -11   -1    0    0    0    0 -0.00000000000E+00 -0.00000000000E+00 -0.30000000000E+02  0.30000000000E+02  0.00000000000E+00 0. -1.
         23    2    1    2    0    0  0.00000000000E+00  0.00000000000E+00  0.00000000000E+00  0.60000000000E+02  0.60000000000E+02 0.  0.
          5    1    3    3  501    0  0.97488643740E+01 -0.23966112317E+02 -0.14439359537E+02  0.30000000000E+02  0.47000000000E+01 0. -1.
         -5    1    3    3    0  501 -0.97488643740E+01  0.23966112317E+02  0.14439359537E+02  0.30000000000E+02  0.47000000000E+01 0.  1.
</event>
<event>
 5    1  0.7624361E-002  0.6000000E+02  0.7546771E-02  0.1259629E+00
         11   -1    0    0    0    0  0.00000000000E+00  0.00000000000E+00  0.30000000000E+02  0.30000000000E+02  0.00000000000E+00 0.  1.
        -11   -1    0    0    0    0 -0.00000000000E+00 -0.00000000000E+00 -0.30000000000E+02  0.30000000000E+02  0.00000000000E+00 0. -1.
         23    2    1    2    0    0  0.00000000000E+00  0.00000000000E+00  0.00000000000E+00  0.60000000000E+02  0.60000000000E+02 0.  0.
          5    1    3    3  501    0 -0.25593683594E+02 -0.13876114972E+02  0.55069767911E+01  0.30000000000E+02  0.47000000000E+01 0.  1.
         -5    1    3    3    0  501  0.25593683594E+02  0.13876114972E+02 -0.55069767911E+01  0.30000000000E+02  0.47000000000E+01 0. -1.
</event>
<event>
 5    1  0.7624361E-002  0.6000000E+02  0.7546771E-02  0.1259629E+00
         11   -1    0    0    0    0  0.00000000000E+00  0.00000000000E+00  0.30000000000E+02  0.30000000000E+02  0.00000000000E+00 0.  1.
        -11   -1    0    0    0    0 -0.00000000000E+00 -0.00000000000E+00 -0.30000000000E+02  0.30000000000E+02  0.00000000000E+00 0. -1.
         23    2    1    2    0    0  0.00000000000E+00  0.00000000000E+00  0.00000000000E+00  0.60000000000E+02  0.60000000000E+02 0.  0.
          5    1    3    3  501    0 -0.21878099610E+02  0.19970490851E+02  0.66200649513E+00  0.30000000000E+02  0.47000000000E+01 0. -1.
         -5    1    3    3    0  501  0.21878099610E+02 -0.19970490851E+02 -0.66200649513E+00  0.30000000000E+02  0.47000000000E+01 0.  1.
</event>
<event>
 5    1  0.7624361E-002  0.6000000E+02  0.7546771E-02  0.1259629E+00
         11   -1    0    0    0    0  0.00000000000E+00  0.00000000000E+00  0.30000000000E+02  0.30000000000E+02  0.00000000000E+00 0.  1.
        -11   -1    0    0    0    0 -0.00000000000E+00 -0.00000000000E+00 -0.30000000000E+02  0.30000000000E+02  0.00000000000E+00 0. -1.
         23    2    1    2    0    0  0.00000000000E+00  0.00000000000E+00  0.00000000000E+00  0.60000000000E+02  0.60000000000E+02 0.  0.
          5    1    3    3  501    0 -0.18246430065E+02  0.84935350332E+01 -0.21744830478E+02  0.30000000000E+02  0.47000000000E+01 0. -1.
         -5    1    3    3    0  501  0.18246430065E+02 -0.84935350332E+01  0.21744830478E+02  0.30000000000E+02  0.47000000000E+01 0.  1.
</event>
<event>
 5    1  0.7624361E-002  0.6000000E+02  0.7546771E-02  0.1259629E+00
         11   -1    0    0    0    0  0.00000000000E+00  0.00000000000E+00  0.30000000000E+02  0.30000000000E+02  0.00000000000E+00 0.  1.
        -11   -1    0    0    0    0 -0.00000000000E+00 -0.00000000000E+00 -0.30000000000E+02  0.30000000000E+02  0.00000000000E+00 0. -1.
         23    2    1    2    0    0  0.00000000000E+00  0.00000000000E+00  0.00000000000E+00  0.60000000000E+02  0.60000000000E+02 0.  0.
          5    1    3    3  501    0 -0.26234558994E+02 -0.10726618490E+02 -0.86369884893E+01  0.30000000000E+02  0.47000000000E+01 0. -1.
         -5    1    3    3    0  501  0.26234558994E+02  0.10726618490E+02  0.86369884893E+01  0.30000000000E+02  0.47000000000E+01 0.  1.
</event>
<event>
 5    1  0.7624361E-002  0.6000000E+02  0.7546771E-02  0.1259629E+00
         11   -1    0    0    0    0  0.00000000000E+00  0.00000000000E+00  0.30000000000E+02  0.30000000000E+02  0.00000000000E+00 0.  1.
        -11   -1    0    0    0    0 -0.00000000000E+00 -0.00000000000E+00 -0.30000000000E+02  0.30000000000E+02  0.00000000000E+00 0. -1.
         23    2    1    2    0    0  0.00000000000E+00  0.00000000000E+00  0.00000000000E+00  0.60000000000E+02  0.60000000000E+02 0.  0.
          5    1    3    3  501    0 -0.33577851114E+01 -0.28558079933E+02  0.71464221605E+01  0.30000000000E+02  0.47000000000E+01 0. -1.
         -5    1    3    3    0  501  0.33577851114E+01  0.28558079933E+02 -0.71464221605E+01  0.30000000000E+02  0.47000000000E+01 0.  1.
</event>
<event>
 5    1  0.7624361E-002  0.6000000E+02  0.7546771E-02  0.1259629E+00
         11   -1    0    0    0    0  0.00000000000E+00  0.00000000000E+00  0.30000000000E+02  0.30000000000E+02  0.00000000000E+00 0.  1.
        -11   -1    0    0    0    0 -0.00000000000E+00 -0.00000000000E+00 -0.30000000000E+02  0.30000000000E+02  0.00000000000E+00 0. -1.
         23    2    1    2    0    0  0.00000000000E+00  0.00000000000E+00  0.00000000000E+00  0.60000000000E+02  0.60000000000E+02 0.  0.
          5    1    3    3  501    0 -0.10254876094E+02 -0.24353323048E+02 -0.13403849180E+02  0.30000000000E+02  0.47000000000E+01 0. -1.
         -5    1    3    3    0  501  0.10254876094E+02  0.24353323048E+02  0.13403849180E+02  0.30000000000E+02  0.47000000000E+01 0.  1.
</event>
<event>
 5    1  0.7624361E-002  0.6000000E+02  0.7546771E-02  0.1259629E+00
         11   -1    0    0    0    0  0.00000000000E+00  0.00000000000E+00  0.30000000000E+02  0.30000000000E+02  0.00000000000E+00 0. -1.
        -11   -1    0    0    0    0 -0.00000000000E+00 -0.00000000000E+00 -0.30000000000E+02  0.30000000000E+02  0.00000000000E+00 0.  1.
         23    2    1    2    0    0  0.00000000000E+00  0.00000000000E+00  0.00000000000E+00  0.60000000000E+02  0.60000000000E+02 0.  0.
          5    1    3    3  501    0  0.67155243554E+01  0.32770704766E+01 -0.28671807437E+02  0.30000000000E+02  0.47000000000E+01 0.  1.
         -5    1    3    3    0  501 -0.67155243554E+01 -0.32770704766E+01  0.28671807437E+02  0.30000000000E+02  0.47000000000E+01 0. -1.
</event>
<event>
 5    1  0.7624361E-002  0.6000000E+02  0.7546771E-02  0.1259629E+00
         11   -1    0    0    0    0  0.00000000000E+00  0.00000000000E+00  0.30000000000E+02  0.30000000000E+02  0.00000000000E+00 0.  1.
        -11   -1    0    0    0    0 -0.00000000000E+00 -0.00000000000E+00 -0.30000000000E+02  0.30000000000E+02  0.00000000000E+00 0. -1.
         23    2    1    2    0    0  0.00000000000E+00  0.00000000000E+00  0.00000000000E+00  0.60000000000E+02  0.60000000000E+02 0.  0.
          5    1    3    3  501    0 -0.14855786971E+02 -0.63787849994E+01 -0.24829955606E+02  0.30000000000E+02  0.47000000000E+01 0. -1.
         -5    1    3    3    0  501  0.14855786971E+02  0.63787849994E+01  0.24829955606E+02  0.30000000000E+02  0.47000000000E+01 0.  1.
</event>
<event>
 5    1  0.7624361E-002  0.6000000E+02  0.7546771E-02  0.1259629E+00
         11   -1    0    0    0    0  0.00000000000E+00  0.00000000000E+00  0.30000000000E+02  0.30000000000E+02  0.00000000000E+00 0.  1.
        -11   -1    0    0    0    0 -0.00000000000E+00 -0.00000000000E+00 -0.30000000000E+02  0.30000000000E+02  0.00000000000E+00 0. -1.
         23    2    1    2    0    0  0.00000000000E+00  0.00000000000E+00  0.00000000000E+00  0.60000000000E+02  0.60000000000E+02 0.  0.
          5    1    3    3  501    0  0.24875423407E+02 -0.19501720343E+01 -0.15978740231E+02  0.30000000000E+02  0.47000000000E+01 0. -1.
         -5    1    3    3    0  501 -0.24875423407E+02  0.19501720343E+01  0.15978740231E+02  0.30000000000E+02  0.47000000000E+01 0.  1.
</event>
<event>
 5    1  0.7624361E-002  0.6000000E+02  0.7546771E-02  0.1259629E+00
         11   -1    0    0    0    0  0.00000000000E+00  0.00000000000E+00  0.30000000000E+02  0.30000000000E+02  0.00000000000E+00 0.  1.
        -11   -1    0    0    0    0 -0.00000000000E+00 -0.00000000000E+00 -0.30000000000E+02  0.30000000000E+02  0.00000000000E+00 0. -1.
         23    2    1    2    0    0  0.00000000000E+00  0.00000000000E+00  0.00000000000E+00  0.60000000000E+02  0.60000000000E+02 0.  0.
          5    1    3    3  501    0 -0.42126194610E+01 -0.25702490034E+02  0.14126069634E+02  0.30000000000E+02  0.47000000000E+01 0.  1.
         -5    1    3    3    0  501  0.42126194610E+01  0.25702490034E+02 -0.14126069634E+02  0.30000000000E+02  0.47000000000E+01 0. -1.
</event>
<event>
 5    1  0.7624361E-002  0.6000000E+02  0.7546771E-02  0.1259629E+00
         11   -1    0    0    0    0  0.00000000000E+00  0.00000000000E+00  0.30000000000E+02  0.30000000000E+02  0.00000000000E+00 0.  1.
        -11   -1    0    0    0    0 -0.00000000000E+00 -0.00000000000E+00 -0.30000000000E+02  0.30000000000E+02  0.00000000000E+00 0. -1.
         23    2    1    2    0    0  0.00000000000E+00  0.00000000000E+00  0.00000000000E+00  0.60000000000E+02  0.60000000000E+02 0.  0.
          5    1    3    3  501    0  0.16510915847E+01  0.18652728480E+02  0.22962134414E+02  0.30000000000E+02  0.47000000000E+01 0.  1.
         -5    1    3    3    0  501 -0.16510915847E+01 -0.18652728480E+02 -0.22962134414E+02  0.30000000000E+02  0.47000000000E+01 0. -1.
</event>
<event>
 5    1  0.7624361E-002  0.6000000E+02  0.7546771E-02  0.1259629E+00
         11   -1    0    0    0    0  0.00000000000E+00  0.00000000000E+00  0.30000000000E+02  0.30000000000E+02  0.00000000000E+00 0. -1.
        -11   -1    0    0    0    0 -0.00000000000E+00 -0.00000000000E+00 -0.30000000000E+02  0.30000000000E+02  0.00000000000E+00 0.  1.
         23    2    1    2    0    0  0.00000000000E+00  0.00000000000E+00  0.00000000000E+00  0.60000000000E+02  0.60000000000E+02 0.  0.
          5    1    3    3  501    0 -0.24446105657E+00 -0.17588682773E+02 -0.23842996395E+02  0.30000000000E+02  0.47000000000E+01 0.  1.
         -5    1    3    3    0  501  0.24446105657E+00  0.17588682773E+02  0.23842996395E+02  0.30000000000E+02  0.47000000000E+01 0. -1.
</event>
<event>
 5    1  0.7624361E-002  0.6000000E+02  0.7546771E-02  0.1259629E+00
         11   -1    0    0    0    0  0.00000000000E+00  0.00000000000E+00  0.30000000000E+02  0.30000000000E+02  0.00000000000E+00 0.  1.
        -11   -1    0    0    0    0 -0.00000000000E+00 -0.00000000000E+00 -0.30000000000E+02  0.30000000000E+02  0.00000000000E+00 0. -1.
         23    2    1    2    0    0  0.00000000000E+00  0.00000000000E+00  0.00000000000E+00  0.60000000000E+02  0.60000000000E+02 0.  0.
          5    1    3    3  501    0 -0.10686036748E+02 -0.15749447948E+02 -0.22708445740E+02  0.30000000000E+02  0.47000000000E+01 0. -1.
         -5    1    3    3    0  501  0.10686036748E+02  0.15749447948E+02  0.22708445740E+02  0.30000000000E+02  0.47000000000E+01 0.  1.
</event>
<event>
 5    1  0.7624361E-002  0.6000000E+02  0.7546771E-02  0.1259629E+00
         11   -1    0    0    0    0  0.00000000000E+00  0.00000000000E+00  0.30000000000E+02  0.30000000000E+02  0.00000000000E+00 0.  1.
        -11   -1    0    0    0    0 -0.00000000000E+00 -0.00000000000E+00 -0.30000000000E+02  0.30000000000E+02  0.00000000000E+00 0. -1.
         23    2    1    2    0    0  0.00000000000E+00  0.00000000000E+00  0.00000000000E+00  0.60000000000E+02  0.60000000000E+02 0.  0.
          5    1    3    3  501    0 -0.20783528111E+02  0.16259471067E+02 -0.13475331532E+02  0.30000000000E+02  0.47000000000E+01 0. -1.
         -5    1    3    3    0  501  0.20783528111E+02 -0.16259471067E+02  0.13475331532E+02  0.30000000000E+02  0.47000000000E+01 0.  1.
</event>
<event>
 5    1  0.7624361E-002  0.6000000E+02  0.7546771E-02  0.1259629E+00
         11   -1    0    0    0    0  0.00000000000E+00  0.00000000000E+00  0.30000000000E+02  0.30000000000E+02  0.00000000000E+00 0. -1.
        -11   -1    0    0    0    0 -0.00000000000E+00 -0.00000000000E+00 -0.30000000000E+02  0.30000000000E+02  0.00000000000E+00 0.  1.
         23    2    1    2    0    0  0.00000000000E+00  0.00000000000E+00  0.00000000000E+00  0.60000000000E+02  0.60000000000E+02 0.  0.
          5    1    3    3  501    0 -0.10392288624E+00  0.21891280121E+02 -0.19966748726E+02  0.30000000000E+02  0.47000000000E+01 0.  1.
         -5    1    3    3    0  501  0.10392288624E+00 -0.21891280121E+02  0.19966748726E+02  0.30000000000E+02  0.47000000000E+01 0. -1.
</event>
<event>
 5    1  0.7624361E-002  0.6000000E+02  0.7546771E-02  0.1259629E+00
         11   -1    0    0    0    0  0.00000000000E+00  0.00000000000E+00  0.30000000000E+02  0.30000000000E+02  0.00000000000E+00 0. -1.
        -11   -1    0    0    0    0 -0.00000000000E+00 -0.00000000000E+00 -0.30000000000E+02  0.30000000000E+02  0.00000000000E+00 0.  1.
         23    2    1    2    0    0  0.00000000000E+00  0.00000000000E+00  0.00000000000E+00  0.60000000000E+02  0.60000000000E+02 0.  0.
          5    1    3    3  501    0  0.46652194716E+01  0.11914427435E+02 -0.26724373635E+02  0.30000000000E+02  0.47000000000E+01 0.  1.
         -5    1    3    3    0  501 -0.46652194716E+01 -0.11914427435E+02  0.26724373635E+02  0.30000000000E+02  0.47000000000E+01 0. -1.
</event>
<event>
 5    1  0.7624361E-002  0.6000000E+02  0.7546771E-02  0.1259629E+00
         11   -1    0    0    0    0  0.00000000000E+00  0.00000000000E+00  0.30000000000E+02  0.30000000000E+02  0.00000000000E+00 0. -1.
        -11   -1    0    0    0    0 -0.00000000000E+00 -0.00000000000E+00 -0.30000000000E+02  0.30000000000E+02  0.00000000000E+00 0.  1.
         23    2    1    2    0    0  0.00000000000E+00  0.00000000000E+00  0.00000000000E+00  0.60000000000E+02  0.60000000000E+02 0.  0.
          5    1    3    3  501    0  0.25868183692E+02  0.12909157363E+02  0.64885074296E+01  0.30000000000E+02  0.47000000000E+01 0.  1.
         -5    1    3    3    0  501 -0.25868183692E+02 -0.12909157363E+02 -0.64885074296E+01  0.30000000000E+02  0.47000000000E+01 0. -1.
</event>
<event>
 5    1  0.7624361E-002  0.6000000E+02  0.7546771E-02  0.1259629E+00
         11   -1    0    0    0    0  0.00000000000E+00  0.00000000000E+00  0.30000000000E+02  0.30000000000E+02  0.00000000000E+00 0.  1.
        -11   -1    0    0    0    0 -0.00000000000E+00 -0.00000000000E+00 -0.30000000000E+02  0.30000000000E+02  0.00000000000E+00 0. -1.
         23    2    1    2    0    0  0.00000000000E+00  0.00000000000E+00  0.00000000000E+00  0.60000000000E+02  0.60000000000E+02 0.  0.
          5    1    3    3  501    0 -0.77728280121E+01  0.10873969830E+02 -0.26443334223E+02  0.30000000000E+02  0.47000000000E+01 0. -1.
         -5    1    3    3    0  501  0.77728280121E+01 -0.10873969830E+02  0.26443334223E+02  0.30000000000E+02  0.47000000000E+01 0.  1.
</event>
<event>
 5    1  0.7624361E-002  0.6000000E+02  0.7546771E-02  0.1259629E+00
         11   -1    0    0    0    0  0.00000000000E+00  0.00000000000E+00  0.30000000000E+02  0.30000000000E+02  0.00000000000E+00 0.  1.
        -11   -1    0    0    0    0 -0.00000000000E+00 -0.00000000000E+00 -0.30000000000E+02  0.30000000000E+02  0.00000000000E+00 0. -1.
         23    2    1    2    0    0  0.00000000000E+00  0.00000000000E+00  0.00000000000E+00  0.60000000000E+02  0.60000000000E+02 0.  0.
          5    1    3    3  501    0 -0.81523621000E-01  0.19531026513E+01 -0.29564991864E+02  0.30000000000E+02  0.47000000000E+01 0. -1.
         -5    1    3    3    0  501  0.81523621000E-01 -0.19531026513E+01  0.29564991864E+02  0.30000000000E+02  0.47000000000E+01 0.  1.
</event>
<event>
 5    1  0.7624361E-002  0.6000000E+02  0.7546771E-02  0.1259629E+00
         11   -1    0    0    0    0  0.00000000000E+00  0.00000000000E+00  0.30000000000E+02  0.30000000000E+02  0.00000000000E+00 0.  1.
        -11   -1    0    0    0    0 -0.00000000000E+00 -0.00000000000E+00 -0.30000000000E+02  0.30000000000E+02  0.00000000000E+00 0. -1.
         23    2    1    2    0    0  0.00000000000E+00  0.00000000000E+00  0.00000000000E+00  0.60000000000E+02  0.60000000000E+02 0.  0.
          5    1    3    3  501    0  0.25626209680E+01  0.83918239142E+01 -0.28300534715E+02  0.30000000000E+02  0.47000000000E+01 0. -1.
         -5    1    3    3    0  501 -0.25626209680E+01 -0.83918239142E+01  0.28300534715E+02  0.30000000000E+02  0.47000000000E+01 0.  1.
</event>
<event>
 5    1  0.7624361E-002  0.6000000E+02  0.7546771E-02  0.1259629E+00
         11   -1    0    0    0    0  0.00000000000E+00  0.00000000000E+00  0.30000000000E+02  0.30000000000E+02  0.00000000000E+00 0.  1.
        -11   -1    0    0    0    0 -0.00000000000E+00 -0.00000000000E+00 -0.30000000000E+02  0.30000000000E+02  0.00000000000E+00 0. -1.
         23    2    1    2    0    0  0.00000000000E+00  0.00000000000E+00  0.00000000000E+00  0.60000000000E+02  0.60000000000E+02 0.  0.
          5    1    3    3  501    0 -0.19235686326E+02 -0.52846706442E+01 -0.21908231963E+02  0.30000000000E+02  0.47000000000E+01 0. -1.
         -5    1    3    3    0  501  0.19235686326E+02  0.52846706442E+01  0.21908231963E+02  0.30000000000E+02  0.47000000000E+01 0.  1.
</event>
<event>
 5    1  0.7624361E-002  0.6000000E+02  0.7546771E-02  0.1259629E+00
         11   -1    0    0    0    0  0.00000000000E+00  0.00000000000E+00  0.30000000000E+02  0.30000000000E+02  0.00000000000E+00 0.  1.
        -11   -1    0    0    0    0 -0.00000000000E+00 -0.00000000000E+00 -0.30000000000E+02  0.30000000000E+02  0.00000000000E+00 0. -1.
         23    2    1    2    0    0  0.00000000000E+00  0.00000000000E+00  0.00000000000E+00  0.60000000000E+02  0.60000000000E+02 0.  0.
          5    1    3    3  501    0  0.92531729434E+01 -0.10468071190E+02 -0.26128686841E+02  0.30000000000E+02  0.47000000000E+01 0. -1.
         -5    1    3    3    0  501 -0.92531729434E+01  0.10468071190E+02  0.26128686841E+02  0.30000000000E+02  0.47000000000E+01 0.  1.
</event>
<event>
 5    1  0.7624361E-002  0.6000000E+02  0.7546771E-02  0.1259629E+00
         11   -1    0    0    0    0  0.00000000000E+00  0.00000000000E+00  0.30000000000E+02  0.30000000000E+02  0.00000000000E+00 0.  1.
        -11   -1    0    0    0    0 -0.00000000000E+00 -0.00000000000E+00 -0.30000000000E+02  0.30000000000E+02  0.00000000000E+00 0. -1.
         23    2    1    2    0    0  0.00000000000E+00  0.00000000000E+00  0.00000000000E+00  0.60000000000E+02  0.60000000000E+02 0.  0.
          5    1    3    3  501    0  0.17003910920E+02 -0.18613192648E+02  0.15566826038E+02  0.30000000000E+02  0.47000000000E+01 0.  1.
         -5    1    3    3    0  501 -0.17003910920E+02  0.18613192648E+02 -0.15566826038E+02  0.30000000000E+02  0.47000000000E+01 0. -1.
</event>
<event>
 5    1  0.7624361E-002  0.6000000E+02  0.7546771E-02  0.1259629E+00
         11   -1    0    0    0    0  0.00000000000E+00  0.00000000000E+00  0.30000000000E+02  0.30000000000E+02  0.00000000000E+00 0.  1.
        -11   -1    0    0    0    0 -0.00000000000E+00 -0.00000000000E+00 -0.30000000000E+02  0.30000000000E+02  0.00000000000E+00 0. -1.
         23    2    1    2    0    0  0.00000000000E+00  0.00000000000E+00  0.00000000000E+00  0.60000000000E+02  0.60000000000E+02 0.  0.
          5    1    3    3  501    0  0.84780221290E+01 -0.12085142299E+02 -0.25690124102E+02  0.30000000000E+02  0.47000000000E+01 0. -1.
         -5    1    3    3    0  501 -0.84780221290E+01  0.12085142299E+02  0.25690124102E+02  0.30000000000E+02  0.47000000000E+01 0.  1.
</event>
<event>
 5    1  0.7624361E-002  0.6000000E+02  0.7546771E-02  0.1259629E+00
         11   -1    0    0    0    0  0.00000000000E+00  0.00000000000E+00  0.30000000000E+02  0.30000000000E+02  0.00000000000E+00 0. -1.
        -11   -1    0    0    0    0 -0.00000000000E+00 -0.00000000000E+00 -0.30000000000E+02  0.30000000000E+02  0.00000000000E+00 0.  1.
         23    2    1    2    0    0  0.00000000000E+00  0.00000000000E+00  0.00000000000E+00  0.60000000000E+02  0.60000000000E+02 0.  0.
          5    1    3    3  501    0 -0.21250965599E+02 -0.11691411503E+02  0.17018147906E+02  0.30000000000E+02  0.47000000000E+01 0. -1.
         -5    1    3    3    0  501  0.21250965599E+02  0.11691411503E+02 -0.17018147906E+02  0.30000000000E+02  0.47000000000E+01 0.  1.
</event>
<event>
 5    1  0.7624361E-002  0.6000000E+02  0.7546771E-02  0.1259629E+00
         11   -1    0    0    0    0  0.00000000000E+00  0.00000000000E+00  0.30000000000E+02  0.30000000000E+02  0.00000000000E+00 0.  1.
        -11   -1    0    0    0    0 -0.00000000000E+00 -0.00000000000E+00 -0.30000000000E+02  0.30000000000E+02  0.00000000000E+00 0. -1.
         23    2    1    2    0    0  0.00000000000E+00  0.00000000000E+00  0.00000000000E+00  0.60000000000E+02  0.60000000000E+02 0.  0.
          5    1    3    3  501    0  0.28934305347E+02 -0.44600860781E+01 -0.45632889736E+01  0.30000000000E+02  0.47000000000E+01 0. -1.
         -5    1    3    3    0  501 -0.28934305347E+02  0.44600860781E+01  0.45632889736E+01  0.30000000000E+02  0.47000000000E+01 0.  1.
</event>
<event>
 5    1  0.7624361E-002  0.6000000E+02  0.7546771E-02  0.1259629E+00
         11   -1    0    0    0    0  0.00000000000E+00  0.00000000000E+00  0.30000000000E+02  0.30000000000E+02  0.00000000000E+00 0.  1.
        -11   -1    0    0    0    0 -0.00000000000E+00 -0.00000000000E+00 -0.30000000000E+02  0.30000000000E+02  0.00000000000E+00 0. -1.
         23    2    1    2    0    0  0.00000000000E+00  0.00000000000E+00  0.00000000000E+00  0.60000000000E+02  0.60000000000E+02 0.  0.
          5    1    3    3  501    0  0.11292720229E+02 -0.22371171161E+02 -0.15808705536E+02  0.30000000000E+02  0.47000000000E+01 0. -1.
         -5    1    3    3    0  501 -0.11292720229E+02  0.22371171161E+02  0.15808705536E+02  0.30000000000E+02  0.47000000000E+01 0.  1.
</event>
<event>
 5    1  0.7624361E-002  0.6000000E+02  0.7546771E-02  0.1259629E+00
         11   -1    0    0    0    0  0.00000000000E+00  0.00000000000E+00  0.30000000000E+02  0.30000000000E+02  0.00000000000E+00 0.  1.
        -11   -1    0    0    0    0 -0.00000000000E+00 -0.00000000000E+00 -0.30000000000E+02  0.30000000000E+02  0.00000000000E+00 0. -1.
         23    2    1    2    0    0  0.00000000000E+00  0.00000000000E+00  0.00000000000E+00  0.60000000000E+02  0.60000000000E+02 0.  0.
          5    1    3    3  501    0 -0.61202791604E+01  0.21178701826E+02 -0.19796837423E+02  0.30000000000E+02  0.47000000000E+01 0. -1.
         -5    1    3    3    0  501  0.61202791604E+01 -0.21178701826E+02  0.19796837423E+02  0.30000000000E+02  0.47000000000E+01 0.  1.
</event>
<event>
 5    1  0.7624361E-002  0.6000000E+02  0.7546771E-02  0.1259629E+00
         11   -1    0    0    0    0  0.00000000000E+00  0.00000000000E+00  0.30000000000E+02  0.30000000000E+02  0.00000000000E+00 0. -1.
        -11   -1    0    0    0    0 -0.00000000000E+00 -0.00000000000E+00 -0.30000000000E+02  0.30000000000E+02  0.00000000000E+00 0.  1.
         23    2    1    2    0    0  0.00000000000E+00  0.00000000000E+00  0.00000000000E+00  0.60000000000E+02  0.60000000000E+02 0.  0.
          5    1    3    3  501    0 -0.26332494639E+01 -0.11460644477E+02 -0.27196132545E+02  0.30000000000E+02  0.47000000000E+01 0.  1.
         -5    1    3    3    0  501  0.26332494639E+01  0.11460644477E+02  0.27196132545E+02  0.30000000000E+02  0.47000000000E+01 0. -1.
</event>
<event>
 5    1  0.7624361E-002  0.6000000E+02  0.7546771E-02  0.1259629E+00
         11   -1    0    0    0    0  0.00000000000E+00  0.00000000000E+00  0.30000000000E+02  0.30000000000E+02  0.00000000000E+00 0. -1.
        -11   -1    0    0    0    0 -0.00000000000E+00 -0.00000000000E+00 -0.30000000000E+02  0.30000000000E+02  0.00000000000E+00 0.  1.
         23    2    1    2    0    0  0.00000000000E+00  0.00000000000E+00  0.00000000000E+00  0.60000000000E+02  0.60000000000E+02 0.  0.
          5    1    3    3  501    0 -0.13331561069E+02  0.60402811641E+01 -0.25762268590E+02  0.30000000000E+02  0.47000000000E+01 0.  1.
         -5    1    3    3    0  501  0.13331561069E+02 -0.60402811641E+01  0.25762268590E+02  0.30000000000E+02  0.47000000000E+01 0. -1.
</event>
<event>
 5    1  0.7624361E-002  0.6000000E+02  0.7546771E-02  0.1259629E+00
         11   -1    0    0    0    0  0.00000000000E+00  0.00000000000E+00  0.30000000000E+02  0.30000000000E+02  0.00000000000E+00 0. -1.
        -11   -1    0    0    0    0 -0.00000000000E+00 -0.00000000000E+00 -0.30000000000E+02  0.30000000000E+02  0.00000000000E+00 0.  1.
         23    2    1    2    0    0  0.00000000000E+00  0.00000000000E+00  0.00000000000E+00  0.60000000000E+02  0.60000000000E+02 0.  0.
          5    1    3    3  501    0 -0.19820081741E+02  0.17944626805E+02 -0.12769680052E+02  0.30000000000E+02  0.47000000000E+01 0.  1.
         -5    1    3    3    0  501  0.19820081741E+02 -0.17944626805E+02  0.12769680052E+02  0.30000000000E+02  0.47000000000E+01 0. -1.
</event>
<event>
 5    1  0.7624361E-002  0.6000000E+02  0.7546771E-02  0.1259629E+00
         11   -1    0    0    0    0  0.00000000000E+00  0.00000000000E+00  0.30000000000E+02  0.30000000000E+02  0.00000000000E+00 0.  1.
        -11   -1    0    0    0    0 -0.00000000000E+00 -0.00000000000E+00 -0.30000000000E+02  0.30000000000E+02  0.00000000000E+00 0. -1.
         23    2    1    2    0    0  0.00000000000E+00  0.00000000000E+00  0.00000000000E+00  0.60000000000E+02  0.60000000000E+02 0.  0.
          5    1    3    3  501    0  0.25561687808E+01 -0.12418172988E+02 -0.26779936161E+02  0.30000000000E+02  0.47000000000E+01 0. -1.
         -5    1    3    3    0  501 -0.25561687808E+01  0.12418172988E+02  0.26779936161E+02  0.30000000000E+02  0.47000000000E+01 0.  1.
</event>
<event>
 5    1  0.7624361E-002  0.6000000E+02  0.7546771E-02  0.1259629E+00
         11   -1    0    0    0    0  0.00000000000E+00  0.00000000000E+00  0.30000000000E+02  0.30000000000E+02  0.00000000000E+00 0.  1.
        -11   -1    0    0    0    0 -0.00000000000E+00 -0.00000000000E+00 -0.30000000000E+02  0.30000000000E+02  0.00000000000E+00 0. -1.
         23    2    1    2    0    0  0.00000000000E+00  0.00000000000E+00  0.00000000000E+00  0.60000000000E+02  0.60000000000E+02 0.  0.
          5    1    3    3  501    0 -0.20204624943E+02  0.21285671045E+02  0.40747195114E+01  0.30000000000E+02  0.47000000000E+01 0. -1.
         -5    1    3    3    0  501  0.20204624943E+02 -0.21285671045E+02 -0.40747195114E+01  0.30000000000E+02  0.47000000000E+01 0.  1.
</event>
<event>
 5    1  0.7624361E-002  0.6000000E+02  0.7546771E-02  0.1259629E+00
         11   -1    0    0    0    0  0.00000000000E+00  0.00000000000E+00  0.30000000000E+02  0.30000000000E+02  0.00000000000E+00 0.  1.
        -11   -1    0    0    0    0 -0.00000000000E+00 -0.00000000000E+00 -0.30000000000E+02  0.30000000000E+02  0.00000000000E+00 0. -1.
         23    2    1    2    0    0  0.00000000000E+00  0.00000000000E+00  0.00000000000E+00  0.60000000000E+02  0.60000000000E+02 0.  0.
          5    1    3    3  501    0 -0.33857690069E+01  0.20160785381E+02 -0.21447361167E+02  0.30000000000E+02  0.47000000000E+01 0. -1.
         -5    1    3    3    0  501  0.33857690069E+01 -0.20160785381E+02  0.21447361167E+02  0.30000000000E+02  0.47000000000E+01 0.  1.
</event>
<event>
 5    1  0.7624361E-002  0.6000000E+02  0.7546771E-02  0.1259629E+00
         11   -1    0    0    0    0  0.00000000000E+00  0.00000000000E+00  0.30000000000E+02  0.30000000000E+02  0.00000000000E+00 0.  1.
        -11   -1    0    0    0    0 -0.00000000000E+00 -0.00000000000E+00 -0.30000000000E+02  0.30000000000E+02  0.00000000000E+00 0. -1.
         23    2    1    2    0    0  0.00000000000E+00  0.00000000000E+00  0.00000000000E+00  0.60000000000E+02  0.60000000000E+02 0.  0.
          5    1    3    3  501    0  0.28977121738E+02  0.48838644971E+01 -0.37926617749E+01  0.30000000000E+02  0.47000000000E+01 0. -1.
         -5    1    3    3    0  501 -0.28977121738E+02 -0.48838644971E+01  0.37926617749E+01  0.30000000000E+02  0.47000000000E+01 0.  1.
</event>
<event>
 5    1  0.7624361E-002  0.6000000E+02  0.7546771E-02  0.1259629E+00
         11   -1    0    0    0    0  0.00000000000E+00  0.00000000000E+00  0.30000000000E+02  0.30000000000E+02  0.00000000000E+00 0.  1.
        -11   -1    0    0    0    0 -0.00000000000E+00 -0.00000000000E+00 -0.30000000000E+02  0.30000000000E+02  0.00000000000E+00 0. -1.
         23    2    1    2    0    0  0.00000000000E+00  0.00000000000E+00  0.00000000000E+00  0.60000000000E+02  0.60000000000E+02 0.  0.
          5    1    3    3  501    0 -0.26487936187E+02 -0.82253356385E+01  0.10423199615E+02  0.30000000000E+02  0.47000000000E+01 0. -1.
         -5    1    3    3    0  501  0.26487936187E+02  0.82253356385E+01 -0.10423199615E+02  0.30000000000E+02  0.47000000000E+01 0.  1.
</event>
<event>
 5    1  0.7624361E-002  0.6000000E+02  0.7546771E-02  0.1259629E+00
         11   -1    0    0    0    0  0.00000000000E+00  0.00000000000E+00  0.30000000000E+02  0.30000000000E+02  0.00000000000E+00 0.  1.
        -11   -1    0    0    0    0 -0.00000000000E+00 -0.00000000000E+00 -0.30000000000E+02  0.30000000000E+02  0.00000000000E+00 0. -1.
         23    2    1    2    0    0  0.00000000000E+00  0.00000000000E+00  0.00000000000E+00  0.60000000000E+02  0.60000000000E+02 0.  0.
          5    1    3    3  501    0 -0.10173312653E+02  0.67775422473E+01 -0.26990343287E+02  0.30000000000E+02  0.47000000000E+01 0. -1.
         -5    1    3    3    0  501  0.10173312653E+02 -0.67775422473E+01  0.26990343287E+02  0.30000000000E+02  0.47000000000E+01 0.  1.
</event>
<event>
 5    1  0.7624361E-002  0.6000000E+02  0.7546771E-02  0.1259629E+00
         11   -1    0    0    0    0  0.00000000000E+00  0.00000000000E+00  0.30000000000E+02  0.30000000000E+02  0.00000000000E+00 0.  1.
        -11   -1    0    0    0    0 -0.00000000000E+00 -0.00000000000E+00 -0.30000000000E+02  0.30000000000E+02  0.00000000000E+00 0. -1.
         23    2    1    2    0    0  0.00000000000E+00  0.00000000000E+00  0.00000000000E+00  0.60000000000E+02  0.60000000000E+02 0.  0.
          5    1    3    3  501    0 -0.86323659490E+01  0.23932114492E+02 -0.15187039016E+02  0.30000000000E+02  0.47000000000E+01 0. -1.
         -5    1    3    3    0  501  0.86323659490E+01 -0.23932114492E+02  0.15187039016E+02  0.30000000000E+02  0.47000000000E+01 0.  1.
</event>
<event>
 5    1  0.7624361E-002  0.6000000E+02  0.7546771E-02  0.1259629E+00
         11   -1    0    0    0    0  0.00000000000E+00  0.00000000000E+00  0.30000000000E+02  0.30000000000E+02  0.00000000000E+00 0.  1.
        -11   -1    0    0    0    0 -0.00000000000E+00 -0.00000000000E+00 -0.30000000000E+02  0.30000000000E+02  0.00000000000E+00 0. -1.
         23    2    1    2    0    0  0.00000000000E+00  0.00000000000E+00  0.00000000000E+00  0.60000000000E+02  0.60000000000E+02 0.  0.
          5    1    3    3  501    0  0.77617587103E-01 -0.25693337548E+02 -0.14756570779E+02  0.30000000000E+02  0.47000000000E+01 0. -1.
         -5    1    3    3    0  501 -0.77617587103E-01  0.25693337548E+02  0.14756570779E+02  0.30000000000E+02  0.47000000000E+01 0.  1.
</event>
<event>
 5    1  0.7624361E-002  0.6000000E+02  0.7546771E-02  0.1259629E+00
         11   -1    0    0    0    0  0.00000000000E+00  0.00000000000E+00  0.30000000000E+02  0.30000000000E+02  0.00000000000E+00 0.  1.
        -11   -1    0    0    0    0 -0.00000000000E+00 -0.00000000000E+00 -0.30000000000E+02  0.30000000000E+02  0.00000000000E+00 0. -1.
         23    2    1    2    0    0  0.00000000000E+00  0.00000000000E+00  0.00000000000E+00  0.60000000000E+02  0.60000000000E+02 0.  0.
          5    1    3    3  501    0  0.18170538760E+02  0.17423920314E+02  0.15625252703E+02  0.30000000000E+02  0.47000000000E+01 0.  1.
         -5    1    3    3    0  501 -0.18170538760E+02 -0.17423920314E+02 -0.15625252703E+02  0.30000000000E+02  0.47000000000E+01 0. -1.
</event>
<event>
 5    1  0.7624361E-002  0.6000000E+02  0.7546771E-02  0.1259629E+00
         11   -1    0    0    0    0  0.00000000000E+00  0.00000000000E+00  0.30000000000E+02  0.30000000000E+02  0.00000000000E+00 0. -1.
        -11   -1    0    0    0    0 -0.00000000000E+00 -0.00000000000E+00 -0.30000000000E+02  0.30000000000E+02  0.00000000000E+00 0.  1.
         23    2    1    2    0    0  0.00000000000E+00  0.00000000000E+00  0.00000000000E+00  0.60000000000E+02  0.60000000000E+02 0.  0.
          5    1    3    3  501    0 -0.29323033917E+02  0.28009059013E+01 -0.31975941026E+01  0.30000000000E+02  0.47000000000E+01 0.  1.
         -5    1    3    3    0  501  0.29323033917E+02 -0.28009059013E+01  0.31975941026E+01  0.30000000000E+02  0.47000000000E+01 0. -1.
</event>
<event>
 5    1  0.7624361E-002  0.6000000E+02  0.7546771E-02  0.1259629E+00
         11   -1    0    0    0    0  0.00000000000E+00  0.00000000000E+00  0.30000000000E+02  0.30000000000E+02  0.00000000000E+00 0.  1.
        -11   -1    0    0    0    0 -0.00000000000E+00 -0.00000000000E+00 -0.30000000000E+02  0.30000000000E+02  0.00000000000E+00 0. -1.
         23    2    1    2    0    0  0.00000000000E+00  0.00000000000E+00  0.00000000000E+00  0.60000000000E+02  0.60000000000E+02 0.  0.
          5    1    3    3  501    0  0.22120895350E+02 -0.18406728193E+02 -0.70546683916E+01  0.30000000000E+02  0.47000000000E+01 0. -1.
         -5    1    3    3    0  501 -0.22120895350E+02  0.18406728193E+02  0.70546683916E+01  0.30000000000E+02  0.47000000000E+01 0.  1.
</event>
<event>
 5    1  0.7624361E-002  0.6000000E+02  0.7546771E-02  0.1259629E+00
         11   -1    0    0    0    0  0.00000000000E+00  0.00000000000E+00  0.30000000000E+02  0.30000000000E+02  0.00000000000E+00 0.  1.
        -11   -1    0    0    0    0 -0.00000000000E+00 -0.00000000000E+00 -0.30000000000E+02  0.30000000000E+02  0.00000000000E+00 0. -1.
         23    2    1    2    0    0  0.00000000000E+00  0.00000000000E+00  0.00000000000E+00  0.60000000000E+02  0.60000000000E+02 0.  0.
          5    1    3    3  501    0 -0.18167419858E+02  0.79555616818E+00  0.23392775511E+02  0.30000000000E+02  0.47000000000E+01 0.  1.
         -5    1    3    3    0  501  0.18167419858E+02 -0.79555616818E+00 -0.23392775511E+02  0.30000000000E+02  0.47000000000E+01 0. -1.
</event>
<event>
 5    1  0.7624361E-002  0.6000000E+02  0.7546771E-02  0.1259629E+00
         11   -1    0    0    0    0  0.00000000000E+00  0.00000000000E+00  0.30000000000E+02  0.30000000000E+02  0.00000000000E+00 0.  1.
        -11   -1    0    0    0    0 -0.00000000000E+00 -0.00000000000E+00 -0.30000000000E+02  0.30000000000E+02  0.00000000000E+00 0. -1.
         23    2    1    2    0    0  0.00000000000E+00  0.00000000000E+00  0.00000000000E+00  0.60000000000E+02  0.60000000000E+02 0.  0.
          5    1    3    3  501    0  0.16621863066E+02  0.15159409447E+02 -0.19282530265E+02  0.30000000000E+02  0.47000000000E+01 0. -1.
         -5    1    3    3    0  501 -0.16621863066E+02 -0.15159409447E+02  0.19282530265E+02  0.30000000000E+02  0.47000000000E+01 0.  1.
</event>
<event>
 5    1  0.7624361E-002  0.6000000E+02  0.7546771E-02  0.1259629E+00
         11   -1    0    0    0    0  0.00000000000E+00  0.00000000000E+00  0.30000000000E+02  0.30000000000E+02  0.00000000000E+00 0.  1.
        -11   -1    0    0    0    0 -0.00000000000E+00 -0.00000000000E+00 -0.30000000000E+02  0.30000000000E+02  0.00000000000E+00 0. -1.
         23    2    1    2    0    0  0.00000000000E+00  0.00000000000E+00  0.00000000000E+00  0.60000000000E+02  0.60000000000E+02 0.  0.
          5    1    3    3  501    0 -0.27346660201E+01 -0.16888294529E+02 -0.24191261019E+02  0.30000000000E+02  0.47000000000E+01 0. -1.
         -5    1    3    3    0  501  0.27346660201E+01  0.16888294529E+02  0.24191261019E+02  0.30000000000E+02  0.47000000000E+01 0.  1.
</event>
<event>
 5    1  0.7624361E-002  0.6000000E+02  0.7546771E-02  0.1259629E+00
         11   -1    0    0    0    0  0.00000000000E+00  0.00000000000E+00  0.30000000000E+02  0.30000000000E+02  0.00000000000E+00 0. -1.
        -11   -1    0    0    0    0 -0.00000000000E+00 -0.00000000000E+00 -0.30000000000E+02  0.30000000000E+02  0.00000000000E+00 0.  1.
         23    2    1    2    0    0  0.00000000000E+00  0.00000000000E+00  0.00000000000E+00  0.60000000000E+02  0.60000000000E+02 0.  0.
          5    1    3    3  501    0  0.17380213749E+02  0.10781105165E+02 -0.21438422084E+02  0.30000000000E+02  0.47000000000E+01 0.  1.
         -5    1    3    3    0  501 -0.17380213749E+02 -0.10781105165E+02  0.21438422084E+02  0.30000000000E+02  0.47000000000E+01 0. -1.
</event>
<event>
 5    1  0.7624361E-002  0.6000000E+02  0.7546771E-02  0.1259629E+00
         11   -1    0    0    0    0  0.00000000000E+00  0.00000000000E+00  0.30000000000E+02  0.30000000000E+02  0.00000000000E+00 0.  1.
        -11   -1    0    0    0    0 -0.00000000000E+00 -0.00000000000E+00 -0.30000000000E+02  0.30000000000E+02  0.00000000000E+00 0. -1.
         23    2    1    2    0    0  0.00000000000E+00  0.00000000000E+00  0.00000000000E+00  0.60000000000E+02  0.60000000000E+02 0.  0.
          5    1    3    3  501    0 -0.13932513409E+02 -0.99059459609E+01  0.24200564140E+02  0.30000000000E+02  0.47000000000E+01 0.  1.
         -5    1    3    3    0  501  0.13932513409E+02  0.99059459609E+01 -0.24200564140E+02  0.30000000000E+02  0.47000000000E+01 0. -1.
</event>
<event>
 5    1  0.7624361E-002  0.6000000E+02  0.7546771E-02  0.1259629E+00
         11   -1    0    0    0    0  0.00000000000E+00  0.00000000000E+00  0.30000000000E+02  0.30000000000E+02  0.00000000000E+00 0. -1.
        -11   -1    0    0    0    0 -0.00000000000E+00 -0.00000000000E+00 -0.30000000000E+02  0.30000000000E+02  0.00000000000E+00 0.  1.
         23    2    1    2    0    0  0.00000000000E+00  0.00000000000E+00  0.00000000000E+00  0.60000000000E+02  0.60000000000E+02 0.  0.
          5    1    3    3  501    0  0.61948979766E+01 -0.23280530096E+02 -0.17249642243E+02  0.30000000000E+02  0.47000000000E+01 0.  1.
         -5    1    3    3    0  501 -0.61948979766E+01  0.23280530096E+02  0.17249642243E+02  0.30000000000E+02  0.47000000000E+01 0. -1.
</event>
<event>
 5    1  0.7624361E-002  0.6000000E+02  0.7546771E-02  0.1259629E+00
         11   -1    0    0    0    0  0.00000000000E+00  0.00000000000E+00  0.30000000000E+02  0.30000000000E+02  0.00000000000E+00 0.  1.
        -11   -1    0    0    0    0 -0.00000000000E+00 -0.00000000000E+00 -0.30000000000E+02  0.30000000000E+02  0.00000000000E+00 0. -1.
         23    2    1    2    0    0  0.00000000000E+00  0.00000000000E+00  0.00000000000E+00  0.60000000000E+02  0.60000000000E+02 0.  0.
          5    1    3    3  501    0 -0.81924563715E+01 -0.18801668975E+02 -0.21384361163E+02  0.30000000000E+02  0.47000000000E+01 0. -1.
         -5    1    3    3    0  501  0.81924563715E+01  0.18801668975E+02  0.21384361163E+02  0.30000000000E+02  0.47000000000E+01 0.  1.
</event>
<event>
 5    1  0.7624361E-002  0.6000000E+02  0.7546771E-02  0.1259629E+00
         11   -1    0    0    0    0  0.00000000000E+00  0.00000000000E+00  0.30000000000E+02  0.30000000000E+02  0.00000000000E+00 0. -1.
        -11   -1    0    0    0    0 -0.00000000000E+00 -0.00000000000E+00 -0.30000000000E+02  0.30000000000E+02  0.00000000000E+00 0.  1.
         23    2    1    2    0    0  0.00000000000E+00  0.00000000000E+00  0.00000000000E+00  0.60000000000E+02  0.60000000000E+02 0.  0.
          5    1    3    3  501    0 -0.15707811392E+02 -0.35056616852E+01 -0.24877399330E+02  0.30000000000E+02  0.47000000000E+01 0.  1.
         -5    1    3    3    0  501  0.15707811392E+02  0.35056616852E+01  0.24877399330E+02  0.30000000000E+02  0.47000000000E+01 0. -1.
</event>
<event>
 5    1  0.7624361E-002  0.6000000E+02  0.7546771E-02  0.1259629E+00
         11   -1    0    0    0    0  0.00000000000E+00  0.00000000000E+00  0.30000000000E+02  0.30000000000E+02  0.00000000000E+00 0.  1.
        -11   -1    0    0    0    0 -0.00000000000E+00 -0.00000000000E+00 -0.30000000000E+02  0.30000000000E+02  0.00000000000E+00 0. -1.
         23    2    1    2    0    0  0.00000000000E+00  0.00000000000E+00  0.00000000000E+00  0.60000000000E+02  0.60000000000E+02 0.  0.
          5    1    3    3  501    0  0.12565102773E+02 -0.21813820833E+02 -0.15626433150E+02  0.30000000000E+02  0.47000000000E+01 0. -1.
         -5    1    3    3    0  501 -0.12565102773E+02  0.21813820833E+02  0.15626433150E+02  0.30000000000E+02  0.47000000000E+01 0.  1.
</event>
<event>
 5    1  0.7624361E-002  0.6000000E+02  0.7546771E-02  0.1259629E+00
         11   -1    0    0    0    0  0.00000000000E+00  0.00000000000E+00  0.30000000000E+02  0.30000000000E+02  0.00000000000E+00 0.  1.
        -11   -1    0    0    0    0 -0.00000000000E+00 -0.00000000000E+00 -0.30000000000E+02  0.30000000000E+02  0.00000000000E+00 0. -1.
         23    2    1    2    0    0  0.00000000000E+00  0.00000000000E+00  0.00000000000E+00  0.60000000000E+02  0.60000000000E+02 0.  0.
          5    1    3    3  501    0  0.19392851535E+02  0.37774573714E+01  0.22080718402E+02  0.30000000000E+02  0.47000000000E+01 0.  1.
         -5    1    3    3    0  501 -0.19392851535E+02 -0.37774573714E+01 -0.22080718402E+02  0.30000000000E+02  0.47000000000E+01 0. -1.
</event>
<event>
 5    1  0.7624361E-002  0.6000000E+02  0.7546771E-02  0.1259629E+00
         11   -1    0    0    0    0  0.00000000000E+00  0.00000000000E+00  0.30000000000E+02  0.30000000000E+02  0.00000000000E+00 0.  1.
        -11   -1    0    0    0    0 -0.00000000000E+00 -0.00000000000E+00 -0.30000000000E+02  0.30000000000E+02  0.00000000000E+00 0. -1.
         23    2    1    2    0    0  0.00000000000E+00  0.00000000000E+00  0.00000000000E+00  0.60000000000E+02  0.60000000000E+02 0.  0.
          5    1    3    3  501    0 -0.16115596879E+02  0.21079920046E+02  0.13184631511E+02  0.30000000000E+02  0.47000000000E+01 0. -1.
         -5    1    3    3    0  501  0.16115596879E+02 -0.21079920046E+02 -0.13184631511E+02  0.30000000000E+02  0.47000000000E+01 0.  1.
</event>
<event>
 5    1  0.7624361E-002  0.6000000E+02  0.7546771E-02  0.1259629E+00
         11   -1    0    0    0    0  0.00000000000E+00  0.00000000000E+00  0.30000000000E+02  0.30000000000E+02  0.00000000000E+00 0. -1.
        -11   -1    0    0    0    0 -0.00000000000E+00 -0.00000000000E+00 -0.30000000000E+02  0.30000000000E+02  0.00000000000E+00 0.  1.
         23    2    1    2    0    0  0.00000000000E+00  0.00000000000E+00  0.00000000000E+00  0.60000000000E+02  0.60000000000E+02 0.  0.
          5    1    3    3  501    0 -0.20405017418E+02  0.20039595360E+02  0.77433766521E+01  0.30000000000E+02  0.47000000000E+01 0.  1.
         -5    1    3    3    0  501  0.20405017418E+02 -0.20039595360E+02 -0.77433766521E+01  0.30000000000E+02  0.47000000000E+01 0. -1.
</event>
<event>
 5    1  0.7624361E-002  0.6000000E+02  0.7546771E-02  0.1259629E+00
         11   -1    0    0    0    0  0.00000000000E+00  0.00000000000E+00  0.30000000000E+02  0.30000000000E+02  0.00000000000E+00 0.  1.
        -11   -1    0    0    0    0 -0.00000000000E+00 -0.00000000000E+00 -0.30000000000E+02  0.30000000000E+02  0.00000000000E+00 0. -1.
         23    2    1    2    0    0  0.00000000000E+00  0.00000000000E+00  0.00000000000E+00  0.60000000000E+02  0.60000000000E+02 0.  0.
          5    1    3    3  501    0 -0.94626289586E+01  0.36161460785E+01 -0.27844068322E+02  0.30000000000E+02  0.47000000000E+01 0. -1.
         -5    1    3    3    0  501  0.94626289586E+01 -0.36161460785E+01  0.27844068322E+02  0.30000000000E+02  0.47000000000E+01 0.  1.
</event>
<event>
 5    1  0.7624361E-002  0.6000000E+02  0.7546771E-02  0.1259629E+00
         11   -1    0    0    0    0  0.00000000000E+00  0.00000000000E+00  0.30000000000E+02  0.30000000000E+02  0.00000000000E+00 0.  1.
        -11   -1    0    0    0    0 -0.00000000000E+00 -0.00000000000E+00 -0.30000000000E+02  0.30000000000E+02  0.00000000000E+00 0. -1.
         23    2    1    2    0    0  0.00000000000E+00  0.00000000000E+00  0.00000000000E+00  0.60000000000E+02  0.60000000000E+02 0.  0.
          5    1    3    3  501    0 -0.10005048589E+02 -0.82787808694E+01 -0.26632138293E+02  0.30000000000E+02  0.47000000000E+01 0. -1.
         -5    1    3    3    0  501  0.10005048589E+02  0.82787808694E+01  0.26632138293E+02  0.30000000000E+02  0.47000000000E+01 0.  1.
</event>
<event>
 5    1  0.7624361E-002  0.6000000E+02  0.7546771E-02  0.1259629E+00
         11   -1    0    0    0    0  0.00000000000E+00  0.00000000000E+00  0.30000000000E+02  0.30000000000E+02  0.00000000000E+00 0.  1.
        -11   -1    0    0    0    0 -0.00000000000E+00 -0.00000000000E+00 -0.30000000000E+02  0.30000000000E+02  0.00000000000E+00 0. -1.
         23    2    1    2    0    0  0.00000000000E+00  0.00000000000E+00  0.00000000000E+00  0.60000000000E+02  0.60000000000E+02 0.  0.
          5    1    3    3  501    0  0.48344703073E+01  0.87784970970E+01 -0.27883254573E+02  0.30000000000E+02  0.47000000000E+01 0. -1.
         -5    1    3    3    0  501 -0.48344703073E+01 -0.87784970970E+01  0.27883254573E+02  0.30000000000E+02  0.47000000000E+01 0.  1.
</event>
<event>
 5    1  0.7624361E-002  0.6000000E+02  0.7546771E-02  0.1259629E+00
         11   -1    0    0    0    0  0.00000000000E+00  0.00000000000E+00  0.30000000000E+02  0.30000000000E+02  0.00000000000E+00 0.  1.
        -11   -1    0    0    0    0 -0.00000000000E+00 -0.00000000000E+00 -0.30000000000E+02  0.30000000000E+02  0.00000000000E+00 0. -1.
         23    2    1    2    0    0  0.00000000000E+00  0.00000000000E+00  0.00000000000E+00  0.60000000000E+02  0.60000000000E+02 0.  0.
          5    1    3    3  501    0 -0.48180973765E+01  0.20901403693E+02 -0.20440823401E+02  0.30000000000E+02  0.47000000000E+01 0. -1.
         -5    1    3    3    0  501  0.48180973765E+01 -0.20901403693E+02  0.20440823401E+02  0.30000000000E+02  0.47000000000E+01 0.  1.
</event>
<event>
 5    1  0.7624361E-002  0.6000000E+02  0.7546771E-02  0.1259629E+00
         11   -1    0    0    0    0  0.00000000000E+00  0.00000000000E+00  0.30000000000E+02  0.30000000000E+02  0.00000000000E+00 0.  1.
        -11   -1    0    0    0    0 -0.00000000000E+00 -0.00000000000E+00 -0.30000000000E+02  0.30000000000E+02  0.00000000000E+00 0. -1.
         23    2    1    2    0    0  0.00000000000E+00  0.00000000000E+00  0.00000000000E+00  0.60000000000E+02  0.60000000000E+02 0.  0.
          5    1    3    3  501    0 -0.50308564123E+01 -0.22912890085E+02 -0.18099722420E+02  0.30000000000E+02  0.47000000000E+01 0. -1.
         -5    1    3    3    0  501  0.50308564123E+01  0.22912890085E+02  0.18099722420E+02  0.30000000000E+02  0.47000000000E+01 0.  1.
</event>
<event>
 5    1  0.7624361E-002  0.6000000E+02  0.7546771E-02  0.1259629E+00
         11   -1    0    0    0    0  0.00000000000E+00  0.00000000000E+00  0.30000000000E+02  0.30000000000E+02  0.00000000000E+00 0.  1.
        -11   -1    0    0    0    0 -0.00000000000E+00 -0.00000000000E+00 -0.30000000000E+02  0.30000000000E+02  0.00000000000E+00 0. -1.
         23    2    1    2    0    0  0.00000000000E+00  0.00000000000E+00  0.00000000000E+00  0.60000000000E+02  0.60000000000E+02 0.  0.
          5    1    3    3  501    0  0.56608745728E+01  0.21998249234E+01  0.29000435676E+02  0.30000000000E+02  0.47000000000E+01 0.  1.
         -5    1    3    3    0  501 -0.56608745728E+01 -0.21998249234E+01 -0.29000435676E+02  0.30000000000E+02  0.47000000000E+01 0. -1.
</event>
<event>
 5    1  0.7624361E-002  0.6000000E+02  0.7546771E-02  0.1259629E+00
         11   -1    0    0    0    0  0.00000000000E+00  0.00000000000E+00  0.30000000000E+02  0.30000000000E+02  0.00000000000E+00 0. -1.
        -11   -1    0    0    0    0 -0.00000000000E+00 -0.00000000000E+00 -0.30000000000E+02  0.30000000000E+02  0.00000000000E+00 0.  1.
         23    2    1    2    0    0  0.00000000000E+00  0.00000000000E+00  0.00000000000E+00  0.60000000000E+02  0.60000000000E+02 0.  0.
          5    1    3    3  501    0 -0.20446290456E+02 -0.10087360873E+02 -0.18923645452E+02  0.30000000000E+02  0.47000000000E+01 0.  1.
         -5    1    3    3    0  501  0.20446290456E+02  0.10087360873E+02  0.18923645452E+02  0.30000000000E+02  0.47000000000E+01 0. -1.
</event>
<event>
 5    1  0.7624361E-002  0.6000000E+02  0.7546771E-02  0.1259629E+00
         11   -1    0    0    0    0  0.00000000000E+00  0.00000000000E+00  0.30000000000E+02  0.30000000000E+02  0.00000000000E+00 0.  1.
        -11   -1    0    0    0    0 -0.00000000000E+00 -0.00000000000E+00 -0.30000000000E+02  0.30000000000E+02  0.00000000000E+00 0. -1.
         23    2    1    2    0    0  0.00000000000E+00  0.00000000000E+00  0.00000000000E+00  0.60000000000E+02  0.60000000000E+02 0.  0.
          5    1    3    3  501    0 -0.21904693156E+01  0.16064074714E+02  0.24800349751E+02  0.30000000000E+02  0.47000000000E+01 0.  1.
         -5    1    3    3    0  501  0.21904693156E+01 -0.16064074714E+02 -0.24800349751E+02  0.30000000000E+02  0.47000000000E+01 0. -1.
</event>
<event>
 5    1  0.7624361E-002  0.6000000E+02  0.7546771E-02  0.1259629E+00
         11   -1    0    0    0    0  0.00000000000E+00  0.00000000000E+00  0.30000000000E+02  0.30000000000E+02  0.00000000000E+00 0.  1.
        -11   -1    0    0    0    0 -0.00000000000E+00 -0.00000000000E+00 -0.30000000000E+02  0.30000000000E+02  0.00000000000E+00 0. -1.
         23    2    1    2    0    0  0.00000000000E+00  0.00000000000E+00  0.00000000000E+00  0.60000000000E+02  0.60000000000E+02 0.  0.
          5    1    3    3  501    0 -0.93495616207E+00 -0.15000033101E+02 -0.25534973349E+02  0.30000000000E+02  0.47000000000E+01 0. -1.
         -5    1    3    3    0  501  0.93495616207E+00  0.15000033101E+02  0.25534973349E+02  0.30000000000E+02  0.47000000000E+01 0.  1.
</event>
<event>
 5    1  0.7624361E-002  0.6000000E+02  0.7546771E-02  0.1259629E+00
         11   -1    0    0    0    0  0.00000000000E+00  0.00000000000E+00  0.30000000000E+02  0.30000000000E+02  0.00000000000E+00 0.  1.
        -11   -1    0    0    0    0 -0.00000000000E+00 -0.00000000000E+00 -0.30000000000E+02  0.30000000000E+02  0.00000000000E+00 0. -1.
         23    2    1    2    0    0  0.00000000000E+00  0.00000000000E+00  0.00000000000E+00  0.60000000000E+02  0.60000000000E+02 0.  0.
          5    1    3    3  501    0 -0.21449733473E+02  0.10104760863E+02 -0.17768307231E+02  0.30000000000E+02  0.47000000000E+01 0. -1.
         -5    1    3    3    0  501  0.21449733473E+02 -0.10104760863E+02  0.17768307231E+02  0.30000000000E+02  0.47000000000E+01 0.  1.
</event>
<event>
 5    1  0.7624361E-002  0.6000000E+02  0.7546771E-02  0.1259629E+00
         11   -1    0    0    0    0  0.00000000000E+00  0.00000000000E+00  0.30000000000E+02  0.30000000000E+02  0.00000000000E+00 0.  1.
        -11   -1    0    0    0    0 -0.00000000000E+00 -0.00000000000E+00 -0.30000000000E+02  0.30000000000E+02  0.00000000000E+00 0. -1.
         23    2    1    2    0    0  0.00000000000E+00  0.00000000000E+00  0.00000000000E+00  0.60000000000E+02  0.60000000000E+02 0.  0.
          5    1    3    3  501    0  0.57252289129E+01 -0.18899846571E+02 -0.22089082224E+02  0.30000000000E+02  0.47000000000E+01 0. -1.
         -5    1    3    3    0  501 -0.57252289129E+01  0.18899846571E+02  0.22089082224E+02  0.30000000000E+02  0.47000000000E+01 0.  1.
</event>
<event>
 5    1  0.7624361E-002  0.6000000E+02  0.7546771E-02  0.1259629E+00
         11   -1    0    0    0    0  0.00000000000E+00  0.00000000000E+00  0.30000000000E+02  0.30000000000E+02  0.00000000000E+00 0. -1.
        -11   -1    0    0    0    0 -0.00000000000E+00 -0.00000000000E+00 -0.30000000000E+02  0.30000000000E+02  0.00000000000E+00 0.  1.
         23    2    1    2    0    0  0.00000000000E+00  0.00000000000E+00  0.00000000000E+00  0.60000000000E+02  0.60000000000E+02 0.  0.
          5    1    3    3  501    0 -0.23844828004E+01 -0.11734372429E+02 -0.27102190787E+02  0.30000000000E+02  0.47000000000E+01 0.  1.
         -5    1    3    3    0  501  0.23844828004E+01  0.11734372429E+02  0.27102190787E+02  0.30000000000E+02  0.47000000000E+01 0. -1.
</event>
<event>
 5    1  0.7624361E-002  0.6000000E+02  0.7546771E-02  0.1259629E+00
         11   -1    0    0    0    0  0.00000000000E+00  0.00000000000E+00  0.30000000000E+02  0.30000000000E+02  0.00000000000E+00 0.  1.
        -11   -1    0    0    0    0 -0.00000000000E+00 -0.00000000000E+00 -0.30000000000E+02  0.30000000000E+02  0.00000000000E+00 0. -1.
         23    2    1    2    0    0  0.00000000000E+00  0.00000000000E+00  0.00000000000E+00  0.60000000000E+02  0.60000000000E+02 0.  0.
          5    1    3    3  501    0  0.21426074967E+01  0.69127696117E+01 -0.28732087453E+02  0.30000000000E+02  0.47000000000E+01 0. -1.
         -5    1    3    3    0  501 -0.21426074967E+01 -0.69127696117E+01  0.28732087453E+02  0.30000000000E+02  0.47000000000E+01 0.  1.
</event>
<event>
 5    1  0.7624361E-002  0.6000000E+02  0.7546771E-02  0.1259629E+00
         11   -1    0    0    0    0  0.00000000000E+00  0.00000000000E+00  0.30000000000E+02  0.30000000000E+02  0.00000000000E+00 0. -1.
        -11   -1    0    0    0    0 -0.00000000000E+00 -0.00000000000E+00 -0.30000000000E+02  0.30000000000E+02  0.00000000000E+00 0.  1.
         23    2    1    2    0    0  0.00000000000E+00  0.00000000000E+00  0.00000000000E+00  0.60000000000E+02  0.60000000000E+02 0.  0.
          5    1    3    3  501    0  0.22688832489E+02  0.92618146644E+00 -0.19033367232E+02  0.30000000000E+02  0.47000000000E+01 0.  1.
         -5    1    3    3    0  501 -0.22688832489E+02 -0.92618146644E+00  0.19033367232E+02  0.30000000000E+02  0.47000000000E+01 0. -1.
</event>
<event>
 5    1  0.7624361E-002  0.6000000E+02  0.7546771E-02  0.1259629E+00
         11   -1    0    0    0    0  0.00000000000E+00  0.00000000000E+00  0.30000000000E+02  0.30000000000E+02  0.00000000000E+00 0.  1.
        -11   -1    0    0    0    0 -0.00000000000E+00 -0.00000000000E+00 -0.30000000000E+02  0.30000000000E+02  0.00000000000E+00 0. -1.
         23    2    1    2    0    0  0.00000000000E+00  0.00000000000E+00  0.00000000000E+00  0.60000000000E+02  0.60000000000E+02 0.  0.
          5    1    3    3  501    0 -0.78647802092E+00 -0.17277642837E+02 -0.24057732859E+02  0.30000000000E+02  0.47000000000E+01 0. -1.
         -5    1    3    3    0  501  0.78647802092E+00  0.17277642837E+02  0.24057732859E+02  0.30000000000E+02  0.47000000000E+01 0.  1.
</event>
<event>
 5    1  0.7624361E-002  0.6000000E+02  0.7546771E-02  0.1259629E+00
         11   -1    0    0    0    0  0.00000000000E+00  0.00000000000E+00  0.30000000000E+02  0.30000000000E+02  0.00000000000E+00 0. -1.
        -11   -1    0    0    0    0 -0.00000000000E+00 -0.00000000000E+00 -0.30000000000E+02  0.30000000000E+02  0.00000000000E+00 0.  1.
         23    2    1    2    0    0  0.00000000000E+00  0.00000000000E+00  0.00000000000E+00  0.60000000000E+02  0.60000000000E+02 0.  0.
          5    1    3    3  501    0 -0.59891339166E+01  0.21583990788E+02 -0.19395144150E+02  0.30000000000E+02  0.47000000000E+01 0.  1.
         -5    1    3    3    0  501  0.59891339166E+01 -0.21583990788E+02  0.19395144150E+02  0.30000000000E+02  0.47000000000E+01 0. -1.
</event>
<event>
 5    1  0.7624361E-002  0.6000000E+02  0.7546771E-02  0.1259629E+00
         11   -1    0    0    0    0  0.00000000000E+00  0.00000000000E+00  0.30000000000E+02  0.30000000000E+02  0.00000000000E+00 0.  1.
        -11   -1    0    0    0    0 -0.00000000000E+00 -0.00000000000E+00 -0.30000000000E+02  0.30000000000E+02  0.00000000000E+00 0. -1.
         23    2    1    2    0    0  0.00000000000E+00  0.00000000000E+00  0.00000000000E+00  0.60000000000E+02  0.60000000000E+02 0.  0.
          5    1    3    3  501    0  0.15804373901E+02  0.12270991403E+02 -0.21853021200E+02  0.30000000000E+02  0.47000000000E+01 0. -1.
         -5    1    3    3    0  501 -0.15804373901E+02 -0.12270991403E+02  0.21853021200E+02  0.30000000000E+02  0.47000000000E+01 0.  1.
</event>
<event>
 5    1  0.7624361E-002  0.6000000E+02  0.7546771E-02  0.1259629E+00
         11   -1    0    0    0    0  0.00000000000E+00  0.00000000000E+00  0.30000000000E+02  0.30000000000E+02  0.00000000000E+00 0. -1.
        -11   -1    0    0    0    0 -0.00000000000E+00 -0.00000000000E+00 -0.30000000000E+02  0.30000000000E+02  0.00000000000E+00 0.  1.
         23    2    1    2    0    0  0.00000000000E+00  0.00000000000E+00  0.00000000000E+00  0.60000000000E+02  0.60000000000E+02 0.  0.
          5    1    3    3  501    0 -0.25147289496E+02  0.58306576829E+01 -0.14543976829E+02  0.30000000000E+02  0.47000000000E+01 0.  1.
         -5    1    3    3    0  501  0.25147289496E+02 -0.58306576829E+01  0.14543976829E+02  0.30000000000E+02  0.47000000000E+01 0. -1.
</event>
<event>
 5    1  0.7624361E-002  0.6000000E+02  0.7546771E-02  0.1259629E+00
         11   -1    0    0    0    0  0.00000000000E+00  0.00000000000E+00  0.30000000000E+02  0.30000000000E+02  0.00000000000E+00 0.  1.
        -11   -1    0    0    0    0 -0.00000000000E+00 -0.00000000000E+00 -0.30000000000E+02  0.30000000000E+02  0.00000000000E+00 0. -1.
         23    2    1    2    0    0  0.00000000000E+00  0.00000000000E+00  0.00000000000E+00  0.60000000000E+02  0.60000000000E+02 0.  0.
          5    1    3    3  501    0 -0.23952167144E+02  0.16610253372E+02  0.53200725591E+01  0.30000000000E+02  0.47000000000E+01 0. -1.
         -5    1    3    3    0  501  0.23952167144E+02 -0.16610253372E+02 -0.53200725591E+01  0.30000000000E+02  0.47000000000E+01 0.  1.
</event>
<event>
 5    1  0.7624361E-002  0.6000000E+02  0.7546771E-02  0.1259629E+00
         11   -1    0    0    0    0  0.00000000000E+00  0.00000000000E+00  0.30000000000E+02  0.30000000000E+02  0.00000000000E+00 0.  1.
        -11   -1    0    0    0    0 -0.00000000000E+00 -0.00000000000E+00 -0.30000000000E+02  0.30000000000E+02  0.00000000000E+00 0. -1.
         23    2    1    2    0    0  0.00000000000E+00  0.00000000000E+00  0.00000000000E+00  0.60000000000E+02  0.60000000000E+02 0.  0.
          5    1    3    3  501    0 -0.11081755195E+02  0.88372846496E+01 -0.26019360135E+02  0.30000000000E+02  0.47000000000E+01 0. -1.
         -5    1    3    3    0  501  0.11081755195E+02 -0.88372846496E+01  0.26019360135E+02  0.30000000000E+02  0.47000000000E+01 0.  1.
</event>
<event>
 5    1  0.7624361E-002  0.6000000E+02  0.7546771E-02  0.1259629E+00
         11   -1    0    0    0    0  0.00000000000E+00  0.00000000000E+00  0.30000000000E+02  0.30000000000E+02  0.00000000000E+00 0. -1.
        -11   -1    0    0    0    0 -0.00000000000E+00 -0.00000000000E+00 -0.30000000000E+02  0.30000000000E+02  0.00000000000E+00 0.  1.
         23    2    1    2    0    0  0.00000000000E+00  0.00000000000E+00  0.00000000000E+00  0.60000000000E+02  0.60000000000E+02 0.  0.
          5    1    3    3  501    0  0.22990675141E+02 -0.10754883626E+02  0.15286312006E+02  0.30000000000E+02  0.47000000000E+01 0. -1.
         -5    1    3    3    0  501 -0.22990675141E+02  0.10754883626E+02 -0.15286312006E+02  0.30000000000E+02  0.47000000000E+01 0.  1.
</event>
<event>
 5    1  0.7624361E-002  0.6000000E+02  0.7546771E-02  0.1259629E+00
         11   -1    0    0    0    0  0.00000000000E+00  0.00000000000E+00  0.30000000000E+02  0.30000000000E+02  0.00000000000E+00 0. -1.
        -11   -1    0    0    0    0 -0.00000000000E+00 -0.00000000000E+00 -0.30000000000E+02  0.30000000000E+02  0.00000000000E+00 0.  1.
         23    2    1    2    0    0  0.00000000000E+00  0.00000000000E+00  0.00000000000E+00  0.60000000000E+02  0.60000000000E+02 0.  0.
          5    1    3    3  501    0  0.12027158733E+02 -0.23496441272E+02 -0.13460115169E+02  0.30000000000E+02  0.47000000000E+01 0.  1.
         -5    1    3    3    0  501 -0.12027158733E+02  0.23496441272E+02  0.13460115169E+02  0.30000000000E+02  0.47000000000E+01 0. -1.
</event>
<event>
 5    1  0.7624361E-002  0.6000000E+02  0.7546771E-02  0.1259629E+00
         11   -1    0    0    0    0  0.00000000000E+00  0.00000000000E+00  0.30000000000E+02  0.30000000000E+02  0.00000000000E+00 0.  1.
        -11   -1    0    0    0    0 -0.00000000000E+00 -0.00000000000E+00 -0.30000000000E+02  0.30000000000E+02  0.00000000000E+00 0. -1.
         23    2    1    2    0    0  0.00000000000E+00  0.00000000000E+00  0.00000000000E+00  0.60000000000E+02  0.60000000000E+02 0.  0.
          5    1    3    3  501    0 -0.51485362003E+01  0.72245851178E+01 -0.28270266091E+02  0.30000000000E+02  0.47000000000E+01 0. -1.
         -5    1    3    3    0  501  0.51485362003E+01 -0.72245851178E+01  0.28270266091E+02  0.30000000000E+02  0.47000000000E+01 0.  1.
</event>
<event>
 5    1  0.7624361E-002  0.6000000E+02  0.7546771E-02  0.1259629E+00
         11   -1    0    0    0    0  0.00000000000E+00  0.00000000000E+00  0.30000000000E+02  0.30000000000E+02  0.00000000000E+00 0.  1.
        -11   -1    0    0    0    0 -0.00000000000E+00 -0.00000000000E+00 -0.30000000000E+02  0.30000000000E+02  0.00000000000E+00 0. -1.
         23    2    1    2    0    0  0.00000000000E+00  0.00000000000E+00  0.00000000000E+00  0.60000000000E+02  0.60000000000E+02 0.  0.
          5    1    3    3  501    0  0.31789465279E+01 -0.50307821487E+01 -0.29025773546E+02  0.30000000000E+02  0.47000000000E+01 0. -1.
         -5    1    3    3    0  501 -0.31789465279E+01  0.50307821487E+01  0.29025773546E+02  0.30000000000E+02  0.47000000000E+01 0.  1.
</event>
<event>
 5    1  0.7624361E-002  0.6000000E+02  0.7546771E-02  0.1259629E+00
         11   -1    0    0    0    0  0.00000000000E+00  0.00000000000E+00  0.30000000000E+02  0.30000000000E+02  0.00000000000E+00 0.  1.
        -11   -1    0    0    0    0 -0.00000000000E+00 -0.00000000000E+00 -0.30000000000E+02  0.30000000000E+02  0.00000000000E+00 0. -1.
         23    2    1    2    0    0  0.00000000000E+00  0.00000000000E+00  0.00000000000E+00  0.60000000000E+02  0.60000000000E+02 0.  0.
          5    1    3    3  501    0  0.21122743359E+02 -0.20649850289E+02 -0.23072485894E+01  0.30000000000E+02  0.47000000000E+01 0. -1.
         -5    1    3    3    0  501 -0.21122743359E+02  0.20649850289E+02  0.23072485894E+01  0.30000000000E+02  0.47000000000E+01 0.  1.
</event>
<event>
 5    1  0.7624361E-002  0.6000000E+02  0.7546771E-02  0.1259629E+00
         11   -1    0    0    0    0  0.00000000000E+00  0.00000000000E+00  0.30000000000E+02  0.30000000000E+02  0.00000000000E+00 0.  1.
        -11   -1    0    0    0    0 -0.00000000000E+00 -0.00000000000E+00 -0.30000000000E+02  0.30000000000E+02  0.00000000000E+00 0. -1.
         23    2    1    2    0    0  0.00000000000E+00  0.00000000000E+00  0.00000000000E+00  0.60000000000E+02  0.60000000000E+02 0.  0.
          5    1    3    3  501    0  0.18233837995E+02  0.22063036817E+02 -0.76589528264E+01  0.30000000000E+02  0.47000000000E+01 0. -1.
         -5    1    3    3    0  501 -0.18233837995E+02 -0.22063036817E+02  0.76589528264E+01  0.30000000000E+02  0.47000000000E+01 0.  1.
</event>
<event>
 5    1  0.7624361E-002  0.6000000E+02  0.7546771E-02  0.1259629E+00
         11   -1    0    0    0    0  0.00000000000E+00  0.00000000000E+00  0.30000000000E+02  0.30000000000E+02  0.00000000000E+00 0.  1.
        -11   -1    0    0    0    0 -0.00000000000E+00 -0.00000000000E+00 -0.30000000000E+02  0.30000000000E+02  0.00000000000E+00 0. -1.
         23    2    1    2    0    0  0.00000000000E+00  0.00000000000E+00  0.00000000000E+00  0.60000000000E+02  0.60000000000E+02 0.  0.
          5    1    3    3  501    0  0.50927162611E+01 -0.11540022319E+02 -0.26810485374E+02  0.30000000000E+02  0.47000000000E+01 0. -1.
         -5    1    3    3    0  501 -0.50927162611E+01  0.11540022319E+02  0.26810485374E+02  0.30000000000E+02  0.47000000000E+01 0.  1.
</event>
<event>
 5    1  0.7624361E-002  0.6000000E+02  0.7546771E-02  0.1259629E+00
         11   -1    0    0    0    0  0.00000000000E+00  0.00000000000E+00  0.30000000000E+02  0.30000000000E+02  0.00000000000E+00 0.  1.
        -11   -1    0    0    0    0 -0.00000000000E+00 -0.00000000000E+00 -0.30000000000E+02  0.30000000000E+02  0.00000000000E+00 0. -1.
         23    2    1    2    0    0  0.00000000000E+00  0.00000000000E+00  0.00000000000E+00  0.60000000000E+02  0.60000000000E+02 0.  0.
          5    1    3    3  501    0 -0.15155513013E+02 -0.23848374328E+02 -0.89149014160E+01  0.30000000000E+02  0.47000000000E+01 0. -1.
         -5    1    3    3    0  501  0.15155513013E+02  0.23848374328E+02  0.89149014160E+01  0.30000000000E+02  0.47000000000E+01 0.  1.
</event>
<event>
 5    1  0.7624361E-002  0.6000000E+02  0.7546771E-02  0.1259629E+00
         11   -1    0    0    0    0  0.00000000000E+00  0.00000000000E+00  0.30000000000E+02  0.30000000000E+02  0.00000000000E+00 0.  1.
        -11   -1    0    0    0    0 -0.00000000000E+00 -0.00000000000E+00 -0.30000000000E+02  0.30000000000E+02  0.00000000000E+00 0. -1.
         23    2    1    2    0    0  0.00000000000E+00  0.00000000000E+00  0.00000000000E+00  0.60000000000E+02  0.60000000000E+02 0.  0.
          5    1    3    3  501    0  0.12202518625E+02 -0.81833417538E+01 -0.25730166283E+02  0.30000000000E+02  0.47000000000E+01 0. -1.
         -5    1    3    3    0  501 -0.12202518625E+02  0.81833417538E+01  0.25730166283E+02  0.30000000000E+02  0.47000000000E+01 0.  1.
</event>
<event>
 5    1  0.7624361E-002  0.6000000E+02  0.7546771E-02  0.1259629E+00
         11   -1    0    0    0    0  0.00000000000E+00  0.00000000000E+00  0.30000000000E+02  0.30000000000E+02  0.00000000000E+00 0.  1.
        -11   -1    0    0    0    0 -0.00000000000E+00 -0.00000000000E+00 -0.30000000000E+02  0.30000000000E+02  0.00000000000E+00 0. -1.
         23    2    1    2    0    0  0.00000000000E+00  0.00000000000E+00  0.00000000000E+00  0.60000000000E+02  0.60000000000E+02 0.  0.
          5    1    3    3  501    0  0.23859002498E+02  0.78011982129E+01 -0.15741642425E+02  0.30000000000E+02  0.47000000000E+01 0. -1.
         -5    1    3    3    0  501 -0.23859002498E+02 -0.78011982129E+01  0.15741642425E+02  0.30000000000E+02  0.47000000000E+01 0.  1.
</event>
<event>
 5    1  0.7624361E-002  0.6000000E+02  0.7546771E-02  0.1259629E+00
         11   -1    0    0    0    0  0.00000000000E+00  0.00000000000E+00  0.30000000000E+02  0.30000000000E+02  0.00000000000E+00 0.  1.
        -11   -1    0    0    0    0 -0.00000000000E+00 -0.00000000000E+00 -0.30000000000E+02  0.30000000000E+02  0.00000000000E+00 0. -1.
         23    2    1    2    0    0  0.00000000000E+00  0.00000000000E+00  0.00000000000E+00  0.60000000000E+02  0.60000000000E+02 0.  0.
          5    1    3    3  501    0 -0.16998930969E+02 -0.15932882868E+02 -0.18305452451E+02  0.30000000000E+02  0.47000000000E+01 0. -1.
         -5    1    3    3    0  501  0.16998930969E+02  0.15932882868E+02  0.18305452451E+02  0.30000000000E+02  0.47000000000E+01 0.  1.
</event>
<event>
 5    1  0.7624361E-002  0.6000000E+02  0.7546771E-02  0.1259629E+00
         11   -1    0    0    0    0  0.00000000000E+00  0.00000000000E+00  0.30000000000E+02  0.30000000000E+02  0.00000000000E+00 0.  1.
        -11   -1    0    0    0    0 -0.00000000000E+00 -0.00000000000E+00 -0.30000000000E+02  0.30000000000E+02  0.00000000000E+00 0. -1.
         23    2    1    2    0    0  0.00000000000E+00  0.00000000000E+00  0.00000000000E+00  0.60000000000E+02  0.60000000000E+02 0.  0.
          5    1    3    3  501    0  0.29450894731E+02  0.23896301010E+00  0.32400148477E+01  0.30000000000E+02  0.47000000000E+01 0. -1.
         -5    1    3    3    0  501 -0.29450894731E+02 -0.23896301010E+00 -0.32400148477E+01  0.30000000000E+02  0.47000000000E+01 0.  1.
</event>
<event>
 5    1  0.7624361E-002  0.6000000E+02  0.7546771E-02  0.1259629E+00
         11   -1    0    0    0    0  0.00000000000E+00  0.00000000000E+00  0.30000000000E+02  0.30000000000E+02  0.00000000000E+00 0.  1.
        -11   -1    0    0    0    0 -0.00000000000E+00 -0.00000000000E+00 -0.30000000000E+02  0.30000000000E+02  0.00000000000E+00 0. -1.
         23    2    1    2    0    0  0.00000000000E+00  0.00000000000E+00  0.00000000000E+00  0.60000000000E+02  0.60000000000E+02 0.  0.
          5    1    3    3  501    0  0.64395346306E+01  0.11601174178E+02 -0.26492548980E+02  0.30000000000E+02  0.47000000000E+01 0. -1.
         -5    1    3    3    0  501 -0.64395346306E+01 -0.11601174178E+02  0.26492548980E+02  0.30000000000E+02  0.47000000000E+01 0.  1.
</event>
<event>
 5    1  0.7624361E-002  0.6000000E+02  0.7546771E-02  0.1259629E+00
         11   -1    0    0    0    0  0.00000000000E+00  0.00000000000E+00  0.30000000000E+02  0.30000000000E+02  0.00000000000E+00 0.  1.
        -11   -1    0    0    0    0 -0.00000000000E+00 -0.00000000000E+00 -0.30000000000E+02  0.30000000000E+02  0.00000000000E+00 0. -1.
         23    2    1    2    0    0  0.00000000000E+00  0.00000000000E+00  0.00000000000E+00  0.60000000000E+02  0.60000000000E+02 0.  0.
          5    1    3    3  501    0  0.12799876883E+02  0.66314703999E+01 -0.25886227074E+02  0.30000000000E+02  0.47000000000E+01 0. -1.
         -5    1    3    3    0  501 -0.12799876883E+02 -0.66314703999E+01  0.25886227074E+02  0.30000000000E+02  0.47000000000E+01 0.  1.
</event>
<event>
 5    1  0.7624361E-002  0.6000000E+02  0.7546771E-02  0.1259629E+00
         11   -1    0    0    0    0  0.00000000000E+00  0.00000000000E+00  0.30000000000E+02  0.30000000000E+02  0.00000000000E+00 0.  1.
        -11   -1    0    0    0    0 -0.00000000000E+00 -0.00000000000E+00 -0.30000000000E+02  0.30000000000E+02  0.00000000000E+00 0. -1.
         23    2    1    2    0    0  0.00000000000E+00  0.00000000000E+00  0.00000000000E+00  0.60000000000E+02  0.60000000000E+02 0.  0.
          5    1    3    3  501    0 -0.51354819524E+01 -0.37804285190E+01 -0.28935189395E+02  0.30000000000E+02  0.47000000000E+01 0. -1.
         -5    1    3    3    0  501  0.51354819524E+01  0.37804285190E+01  0.28935189395E+02  0.30000000000E+02  0.47000000000E+01 0.  1.
</event>
<event>
 5    1  0.7624361E-002  0.6000000E+02  0.7546771E-02  0.1259629E+00
         11   -1    0    0    0    0  0.00000000000E+00  0.00000000000E+00  0.30000000000E+02  0.30000000000E+02  0.00000000000E+00 0.  1.
        -11   -1    0    0    0    0 -0.00000000000E+00 -0.00000000000E+00 -0.30000000000E+02  0.30000000000E+02  0.00000000000E+00 0. -1.
         23    2    1    2    0    0  0.00000000000E+00  0.00000000000E+00  0.00000000000E+00  0.60000000000E+02  0.60000000000E+02 0.  0.
          5    1    3    3  501    0  0.12842741080E+02 -0.80863135771E+01  0.25447701945E+02  0.30000000000E+02  0.47000000000E+01 0.  1.
         -5    1    3    3    0  501 -0.12842741080E+02  0.80863135771E+01 -0.25447701945E+02  0.30000000000E+02  0.47000000000E+01 0. -1.
</event>
<event>
 5    1  0.7624361E-002  0.6000000E+02  0.7546771E-02  0.1259629E+00
         11   -1    0    0    0    0  0.00000000000E+00  0.00000000000E+00  0.30000000000E+02  0.30000000000E+02  0.00000000000E+00 0. -1.
        -11   -1    0    0    0    0 -0.00000000000E+00 -0.00000000000E+00 -0.30000000000E+02  0.30000000000E+02  0.00000000000E+00 0.  1.
         23    2    1    2    0    0  0.00000000000E+00  0.00000000000E+00  0.00000000000E+00  0.60000000000E+02  0.60000000000E+02 0.  0.
          5    1    3    3  501    0  0.59054457503E+01 -0.14438758690E+02 -0.25190433858E+02  0.30000000000E+02  0.47000000000E+01 0.  1.
         -5    1    3    3    0  501 -0.59054457503E+01  0.14438758690E+02  0.25190433858E+02  0.30000000000E+02  0.47000000000E+01 0. -1.
</event>
<event>
 5    1  0.7624361E-002  0.6000000E+02  0.7546771E-02  0.1259629E+00
         11   -1    0    0    0    0  0.00000000000E+00  0.00000000000E+00  0.30000000000E+02  0.30000000000E+02  0.00000000000E+00 0.  1.
        -11   -1    0    0    0    0 -0.00000000000E+00 -0.00000000000E+00 -0.30000000000E+02  0.30000000000E+02  0.00000000000E+00 0. -1.
         23    2    1    2    0    0  0.00000000000E+00  0.00000000000E+00  0.00000000000E+00  0.60000000000E+02  0.60000000000E+02 0.  0.
          5    1    3    3  501    0 -0.98457609611E+01  0.57239973309E+01 -0.27353369914E+02  0.30000000000E+02  0.47000000000E+01 0. -1.
         -5    1    3    3    0  501  0.98457609611E+01 -0.57239973309E+01  0.27353369914E+02  0.30000000000E+02  0.47000000000E+01 0.  1.
</event>
<event>
 5    1  0.7624361E-002  0.6000000E+02  0.7546771E-02  0.1259629E+00
         11   -1    0    0    0    0  0.00000000000E+00  0.00000000000E+00  0.30000000000E+02  0.30000000000E+02  0.00000000000E+00 0.  1.
        -11   -1    0    0    0    0 -0.00000000000E+00 -0.00000000000E+00 -0.30000000000E+02  0.30000000000E+02  0.00000000000E+00 0. -1.
         23    2    1    2    0    0  0.00000000000E+00  0.00000000000E+00  0.00000000000E+00  0.60000000000E+02  0.60000000000E+02 0.  0.
          5    1    3    3  501    0  0.12141962428E+02 -0.22176671878E+02 -0.15449206220E+02  0.30000000000E+02  0.47000000000E+01 0. -1.
         -5    1    3    3    0  501 -0.12141962428E+02  0.22176671878E+02  0.15449206220E+02  0.30000000000E+02  0.47000000000E+01 0.  1.
</event>
<event>
 5    1  0.7624361E-002  0.6000000E+02  0.7546771E-02  0.1259629E+00
         11   -1    0    0    0    0  0.00000000000E+00  0.00000000000E+00  0.30000000000E+02  0.30000000000E+02  0.00000000000E+00 0.  1.
        -11   -1    0    0    0    0 -0.00000000000E+00 -0.00000000000E+00 -0.30000000000E+02  0.30000000000E+02  0.00000000000E+00 0. -1.
         23    2    1    2    0    0  0.00000000000E+00  0.00000000000E+00  0.00000000000E+00  0.60000000000E+02  0.60000000000E+02 0.  0.
          5    1    3    3  501    0 -0.96152464796E+00  0.18783869090E+02 -0.22894360274E+02  0.30000000000E+02  0.47000000000E+01 0. -1.
         -5    1    3    3    0  501  0.96152464796E+00 -0.18783869090E+02  0.22894360274E+02  0.30000000000E+02  0.47000000000E+01 0.  1.
</event>
<event>
 5    1  0.7624361E-002  0.6000000E+02  0.7546771E-02  0.1259629E+00
         11   -1    0    0    0    0  0.00000000000E+00  0.00000000000E+00  0.30000000000E+02  0.30000000000E+02  0.00000000000E+00 0.  1.
        -11   -1    0    0    0    0 -0.00000000000E+00 -0.00000000000E+00 -0.30000000000E+02  0.30000000000E+02  0.00000000000E+00 0. -1.
         23    2    1    2    0    0  0.00000000000E+00  0.00000000000E+00  0.00000000000E+00  0.60000000000E+02  0.60000000000E+02 0.  0.
          5    1    3    3  501    0  0.17066673210E+02  0.23637519718E+02 -0.52826439512E+01  0.30000000000E+02  0.47000000000E+01 0. -1.
         -5    1    3    3    0  501 -0.17066673210E+02 -0.23637519718E+02  0.52826439512E+01  0.30000000000E+02  0.47000000000E+01 0.  1.
</event>
<event>
 5    1  0.7624361E-002  0.6000000E+02  0.7546771E-02  0.1259629E+00
         11   -1    0    0    0    0  0.00000000000E+00  0.00000000000E+00  0.30000000000E+02  0.30000000000E+02  0.00000000000E+00 0. -1.
        -11   -1    0    0    0    0 -0.00000000000E+00 -0.00000000000E+00 -0.30000000000E+02  0.30000000000E+02  0.00000000000E+00 0.  1.
         23    2    1    2    0    0  0.00000000000E+00  0.00000000000E+00  0.00000000000E+00  0.60000000000E+02  0.60000000000E+02 0.  0.
          5    1    3    3  501    0 -0.22767029308E+02  0.44360751281E+00  0.18957204142E+02  0.30000000000E+02  0.47000000000E+01 0. -1.
         -5    1    3    3    0  501  0.22767029308E+02 -0.44360751281E+00 -0.18957204142E+02  0.30000000000E+02  0.47000000000E+01 0.  1.
</event>
<event>
 5    1  0.7624361E-002  0.6000000E+02  0.7546771E-02  0.1259629E+00
         11   -1    0    0    0    0  0.00000000000E+00  0.00000000000E+00  0.30000000000E+02  0.30000000000E+02  0.00000000000E+00 0.  1.
        -11   -1    0    0    0    0 -0.00000000000E+00 -0.00000000000E+00 -0.30000000000E+02  0.30000000000E+02  0.00000000000E+00 0. -1.
         23    2    1    2    0    0  0.00000000000E+00  0.00000000000E+00  0.00000000000E+00  0.60000000000E+02  0.60000000000E+02 0.  0.
          5    1    3    3  501    0  0.13354738195E+02 -0.93093018815E+01 -0.24756774148E+02  0.30000000000E+02  0.47000000000E+01 0. -1.
         -5    1    3    3    0  501 -0.13354738195E+02  0.93093018815E+01  0.24756774148E+02  0.30000000000E+02  0.47000000000E+01 0.  1.
</event>
<event>
 5    1  0.7624361E-002  0.6000000E+02  0.7546771E-02  0.1259629E+00
         11   -1    0    0    0    0  0.00000000000E+00  0.00000000000E+00  0.30000000000E+02  0.30000000000E+02  0.00000000000E+00 0.  1.
        -11   -1    0    0    0    0 -0.00000000000E+00 -0.00000000000E+00 -0.30000000000E+02  0.30000000000E+02  0.00000000000E+00 0. -1.
         23    2    1    2    0    0  0.00000000000E+00  0.00000000000E+00  0.00000000000E+00  0.60000000000E+02  0.60000000000E+02 0.  0.
          5    1    3    3  501    0  0.14432237541E+02 -0.25405179270E+02  0.49190838386E+01  0.30000000000E+02  0.47000000000E+01 0. -1.
         -5    1    3    3    0  501 -0.14432237541E+02  0.25405179270E+02 -0.49190838386E+01  0.30000000000E+02  0.47000000000E+01 0.  1.
</event>
<event>
 5    1  0.7624361E-002  0.6000000E+02  0.7546771E-02  0.1259629E+00
         11   -1    0    0    0    0  0.00000000000E+00  0.00000000000E+00  0.30000000000E+02  0.30000000000E+02  0.00000000000E+00 0.  1.
        -11   -1    0    0    0    0 -0.00000000000E+00 -0.00000000000E+00 -0.30000000000E+02  0.30000000000E+02  0.00000000000E+00 0. -1.
         23    2    1    2    0    0  0.00000000000E+00  0.00000000000E+00  0.00000000000E+00  0.60000000000E+02  0.60000000000E+02 0.  0.
          5    1    3    3  501    0  0.23039895893E+02  0.17115022752E+02  0.73586135554E+01  0.30000000000E+02  0.47000000000E+01 0. -1.
         -5    1    3    3    0  501 -0.23039895893E+02 -0.17115022752E+02 -0.73586135554E+01  0.30000000000E+02  0.47000000000E+01 0.  1.
</event>
<event>
 5    1  0.7624361E-002  0.6000000E+02  0.7546771E-02  0.1259629E+00
         11   -1    0    0    0    0  0.00000000000E+00  0.00000000000E+00  0.30000000000E+02  0.30000000000E+02  0.00000000000E+00 0. -1.
        -11   -1    0    0    0    0 -0.00000000000E+00 -0.00000000000E+00 -0.30000000000E+02  0.30000000000E+02  0.00000000000E+00 0.  1.
         23    2    1    2    0    0  0.00000000000E+00  0.00000000000E+00  0.00000000000E+00  0.60000000000E+02  0.60000000000E+02 0.  0.
          5    1    3    3  501    0  0.27234353694E+02 -0.85899738705E+01 -0.79001473267E+01  0.30000000000E+02  0.47000000000E+01 0. -1.
         -5    1    3    3    0  501 -0.27234353694E+02  0.85899738705E+01  0.79001473267E+01  0.30000000000E+02  0.47000000000E+01 0.  1.
</event>
<event>
 5    1  0.7624361E-002  0.6000000E+02  0.7546771E-02  0.1259629E+00
         11   -1    0    0    0    0  0.00000000000E+00  0.00000000000E+00  0.30000000000E+02  0.30000000000E+02  0.00000000000E+00 0.  1.
        -11   -1    0    0    0    0 -0.00000000000E+00 -0.00000000000E+00 -0.30000000000E+02  0.30000000000E+02  0.00000000000E+00 0. -1.
         23    2    1    2    0    0  0.00000000000E+00  0.00000000000E+00  0.00000000000E+00  0.60000000000E+02  0.60000000000E+02 0.  0.
          5    1    3    3  501    0 -0.80146809926E+01  0.27346722039E+02 -0.81136725531E+01  0.30000000000E+02  0.47000000000E+01 0. -1.
         -5    1    3    3    0  501  0.80146809926E+01 -0.27346722039E+02  0.81136725531E+01  0.30000000000E+02  0.47000000000E+01 0.  1.
</event>
<event>
 5    1  0.7624361E-002  0.6000000E+02  0.7546771E-02  0.1259629E+00
         11   -1    0    0    0    0  0.00000000000E+00  0.00000000000E+00  0.30000000000E+02  0.30000000000E+02  0.00000000000E+00 0.  1.
        -11   -1    0    0    0    0 -0.00000000000E+00 -0.00000000000E+00 -0.30000000000E+02  0.30000000000E+02  0.00000000000E+00 0. -1.
         23    2    1    2    0    0  0.00000000000E+00  0.00000000000E+00  0.00000000000E+00  0.60000000000E+02  0.60000000000E+02 0.  0.
          5    1    3    3  501    0  0.23002573021E+02 -0.62191530769E+01 -0.17610047399E+02  0.30000000000E+02  0.47000000000E+01 0. -1.
         -5    1    3    3    0  501 -0.23002573021E+02  0.62191530769E+01  0.17610047399E+02  0.30000000000E+02  0.47000000000E+01 0.  1.
</event>
<event>
 5    1  0.7624361E-002  0.6000000E+02  0.7546771E-02  0.1259629E+00
         11   -1    0    0    0    0  0.00000000000E+00  0.00000000000E+00  0.30000000000E+02  0.30000000000E+02  0.00000000000E+00 0.  1.
        -11   -1    0    0    0    0 -0.00000000000E+00 -0.00000000000E+00 -0.30000000000E+02  0.30000000000E+02  0.00000000000E+00 0. -1.
         23    2    1    2    0    0  0.00000000000E+00  0.00000000000E+00  0.00000000000E+00  0.60000000000E+02  0.60000000000E+02 0.  0.
          5    1    3    3  501    0  0.15700563232E+00  0.22324909581E+02  0.19480342949E+02  0.30000000000E+02  0.47000000000E+01 0.  1.
         -5    1    3    3    0  501 -0.15700563232E+00 -0.22324909581E+02 -0.19480342949E+02  0.30000000000E+02  0.47000000000E+01 0. -1.
</event>
<event>
 5    1  0.7624361E-002  0.6000000E+02  0.7546771E-02  0.1259629E+00
         11   -1    0    0    0    0  0.00000000000E+00  0.00000000000E+00  0.30000000000E+02  0.30000000000E+02  0.00000000000E+00 0. -1.
        -11   -1    0    0    0    0 -0.00000000000E+00 -0.00000000000E+00 -0.30000000000E+02  0.30000000000E+02  0.00000000000E+00 0.  1.
         23    2    1    2    0    0  0.00000000000E+00  0.00000000000E+00  0.00000000000E+00  0.60000000000E+02  0.60000000000E+02 0.  0.
          5    1    3    3  501    0 -0.88050745783E+01  0.21753181087E+02  0.18088111407E+02  0.30000000000E+02  0.47000000000E+01 0.  1.
         -5    1    3    3    0  501  0.88050745783E+01 -0.21753181087E+02 -0.18088111407E+02  0.30000000000E+02  0.47000000000E+01 0. -1.
</event>
<event>
 5    1  0.7624361E-002  0.6000000E+02  0.7546771E-02  0.1259629E+00
         11   -1    0    0    0    0  0.00000000000E+00  0.00000000000E+00  0.30000000000E+02  0.30000000000E+02  0.00000000000E+00 0.  1.
        -11   -1    0    0    0    0 -0.00000000000E+00 -0.00000000000E+00 -0.30000000000E+02  0.30000000000E+02  0.00000000000E+00 0. -1.
         23    2    1    2    0    0  0.00000000000E+00  0.00000000000E+00  0.00000000000E+00  0.60000000000E+02  0.60000000000E+02 0.  0.
          5    1    3    3  501    0  0.13628150304E+02 -0.17910453658E+02 -0.19271719411E+02  0.30000000000E+02  0.47000000000E+01 0. -1.
         -5    1    3    3    0  501 -0.13628150304E+02  0.17910453658E+02  0.19271719411E+02  0.30000000000E+02  0.47000000000E+01 0.  1.
</event>
<event>
 5    1  0.7624361E-002  0.6000000E+02  0.7546771E-02  0.1259629E+00
         11   -1    0    0    0    0  0.00000000000E+00  0.00000000000E+00  0.30000000000E+02  0.30000000000E+02  0.00000000000E+00 0. -1.
        -11   -1    0    0    0    0 -0.00000000000E+00 -0.00000000000E+00 -0.30000000000E+02  0.30000000000E+02  0.00000000000E+00 0.  1.
         23    2    1    2    0    0  0.00000000000E+00  0.00000000000E+00  0.00000000000E+00  0.60000000000E+02  0.60000000000E+02 0.  0.
          5    1    3    3  501    0 -0.83144530920E+01 -0.11520235070E+02 -0.26001231773E+02  0.30000000000E+02  0.47000000000E+01 0.  1.
         -5    1    3    3    0  501  0.83144530920E+01  0.11520235070E+02  0.26001231773E+02  0.30000000000E+02  0.47000000000E+01 0. -1.
</event>
<event>
 5    1  0.7624361E-002  0.6000000E+02  0.7546771E-02  0.1259629E+00
         11   -1    0    0    0    0  0.00000000000E+00  0.00000000000E+00  0.30000000000E+02  0.30000000000E+02  0.00000000000E+00 0.  1.
        -11   -1    0    0    0    0 -0.00000000000E+00 -0.00000000000E+00 -0.30000000000E+02  0.30000000000E+02  0.00000000000E+00 0. -1.
         23    2    1    2    0    0  0.00000000000E+00  0.00000000000E+00  0.00000000000E+00  0.60000000000E+02  0.60000000000E+02 0.  0.
          5    1    3    3  501    0  0.24523958631E+02  0.67254386321E+01 -0.15207035486E+02  0.30000000000E+02  0.47000000000E+01 0. -1.
         -5    1    3    3    0  501 -0.24523958631E+02 -0.67254386321E+01  0.15207035486E+02  0.30000000000E+02  0.47000000000E+01 0.  1.
</event>
<event>
 5    1  0.7624361E-002  0.6000000E+02  0.7546771E-02  0.1259629E+00
         11   -1    0    0    0    0  0.00000000000E+00  0.00000000000E+00  0.30000000000E+02  0.30000000000E+02  0.00000000000E+00 0. -1.
        -11   -1    0    0    0    0 -0.00000000000E+00 -0.00000000000E+00 -0.30000000000E+02  0.30000000000E+02  0.00000000000E+00 0.  1.
         23    2    1    2    0    0  0.00000000000E+00  0.00000000000E+00  0.00000000000E+00  0.60000000000E+02  0.60000000000E+02 0.  0.
          5    1    3    3  501    0  0.24358717078E+02 -0.11593296612E+02 -0.12253912681E+02  0.30000000000E+02  0.47000000000E+01 0.  1.
         -5    1    3    3    0  501 -0.24358717078E+02  0.11593296612E+02  0.12253912681E+02  0.30000000000E+02  0.47000000000E+01 0. -1.
</event>
<event>
 5    1  0.7624361E-002  0.6000000E+02  0.7546771E-02  0.1259629E+00
         11   -1    0    0    0    0  0.00000000000E+00  0.00000000000E+00  0.30000000000E+02  0.30000000000E+02  0.00000000000E+00 0.  1.
        -11   -1    0    0    0    0 -0.00000000000E+00 -0.00000000000E+00 -0.30000000000E+02  0.30000000000E+02  0.00000000000E+00 0. -1.
         23    2    1    2    0    0  0.00000000000E+00  0.00000000000E+00  0.00000000000E+00  0.60000000000E+02  0.60000000000E+02 0.  0.
          5    1    3    3  501    0 -0.16151842447E+02  0.17137458893E+02 -0.17981531866E+02  0.30000000000E+02  0.47000000000E+01 0. -1.
         -5    1    3    3    0  501  0.16151842447E+02 -0.17137458893E+02  0.17981531866E+02  0.30000000000E+02  0.47000000000E+01 0.  1.
</event>
<event>
 5    1  0.7624361E-002  0.6000000E+02  0.7546771E-02  0.1259629E+00
         11   -1    0    0    0    0  0.00000000000E+00  0.00000000000E+00  0.30000000000E+02  0.30000000000E+02  0.00000000000E+00 0. -1.
        -11   -1    0    0    0    0 -0.00000000000E+00 -0.00000000000E+00 -0.30000000000E+02  0.30000000000E+02  0.00000000000E+00 0.  1.
         23    2    1    2    0    0  0.00000000000E+00  0.00000000000E+00  0.00000000000E+00  0.60000000000E+02  0.60000000000E+02 0.  0.
          5    1    3    3  501    0  0.38753095480E+00  0.28779354028E+02 -0.70362348933E+01  0.30000000000E+02  0.47000000000E+01 0.  1.
         -5    1    3    3    0  501 -0.38753095480E+00 -0.28779354028E+02  0.70362348933E+01  0.30000000000E+02  0.47000000000E+01 0. -1.
</event>
<event>
 5    1  0.7624361E-002  0.6000000E+02  0.7546771E-02  0.1259629E+00
         11   -1    0    0    0    0  0.00000000000E+00  0.00000000000E+00  0.30000000000E+02  0.30000000000E+02  0.00000000000E+00 0.  1.
        -11   -1    0    0    0    0 -0.00000000000E+00 -0.00000000000E+00 -0.30000000000E+02  0.30000000000E+02  0.00000000000E+00 0. -1.
         23    2    1    2    0    0  0.00000000000E+00  0.00000000000E+00  0.00000000000E+00  0.60000000000E+02  0.60000000000E+02 0.  0.
          5    1    3    3  501    0 -0.17341171859E+02  0.71640306106E+01 -0.22931864816E+02  0.30000000000E+02  0.47000000000E+01 0. -1.
         -5    1    3    3    0  501  0.17341171859E+02 -0.71640306106E+01  0.22931864816E+02  0.30000000000E+02  0.47000000000E+01 0.  1.
</event>
<event>
 5    1  0.7624361E-002  0.6000000E+02  0.7546771E-02  0.1259629E+00
         11   -1    0    0    0    0  0.00000000000E+00  0.00000000000E+00  0.30000000000E+02  0.30000000000E+02  0.00000000000E+00 0.  1.
        -11   -1    0    0    0    0 -0.00000000000E+00 -0.00000000000E+00 -0.30000000000E+02  0.30000000000E+02  0.00000000000E+00 0. -1.
         23    2    1    2    0    0  0.00000000000E+00  0.00000000000E+00  0.00000000000E+00  0.60000000000E+02  0.60000000000E+02 0.  0.
          5    1    3    3  501    0 -0.27477354605E+01  0.99937893164E+01 -0.27757595806E+02  0.30000000000E+02  0.47000000000E+01 0. -1.
         -5    1    3    3    0  501  0.27477354605E+01 -0.99937893164E+01  0.27757595806E+02  0.30000000000E+02  0.47000000000E+01 0.  1.
</event>
<event>
 5    1  0.7624361E-002  0.6000000E+02  0.7546771E-02  0.1259629E+00
         11   -1    0    0    0    0  0.00000000000E+00  0.00000000000E+00  0.30000000000E+02  0.30000000000E+02  0.00000000000E+00 0. -1.
        -11   -1    0    0    0    0 -0.00000000000E+00 -0.00000000000E+00 -0.30000000000E+02  0.30000000000E+02  0.00000000000E+00 0.  1.
         23    2    1    2    0    0  0.00000000000E+00  0.00000000000E+00  0.00000000000E+00  0.60000000000E+02  0.60000000000E+02 0.  0.
          5    1    3    3  501    0 -0.23154874555E+02  0.10684230144E+02 -0.15086716361E+02  0.30000000000E+02  0.47000000000E+01 0.  1.
         -5    1    3    3    0  501  0.23154874555E+02 -0.10684230144E+02  0.15086716361E+02  0.30000000000E+02  0.47000000000E+01 0. -1.
</event>
<event>
 5    1  0.7624361E-002  0.6000000E+02  0.7546771E-02  0.1259629E+00
         11   -1    0    0    0    0  0.00000000000E+00  0.00000000000E+00  0.30000000000E+02  0.30000000000E+02  0.00000000000E+00 0.  1.
        -11   -1    0    0    0    0 -0.00000000000E+00 -0.00000000000E+00 -0.30000000000E+02  0.30000000000E+02  0.00000000000E+00 0. -1.
         23    2    1    2    0    0  0.00000000000E+00  0.00000000000E+00  0.00000000000E+00  0.60000000000E+02  0.60000000000E+02 0.  0.
          5    1    3    3  501    0 -0.17145231830E+01 -0.26187240416E+02 -0.13754957275E+02  0.30000000000E+02  0.47000000000E+01 0. -1.
         -5    1    3    3    0  501  0.17145231830E+01  0.26187240416E+02  0.13754957275E+02  0.30000000000E+02  0.47000000000E+01 0.  1.
</event>
<event>
 5    1  0.7624361E-002  0.6000000E+02  0.7546771E-02  0.1259629E+00
         11   -1    0    0    0    0  0.00000000000E+00  0.00000000000E+00  0.30000000000E+02  0.30000000000E+02  0.00000000000E+00 0.  1.
        -11   -1    0    0    0    0 -0.00000000000E+00 -0.00000000000E+00 -0.30000000000E+02  0.30000000000E+02  0.00000000000E+00 0. -1.
         23    2    1    2    0    0  0.00000000000E+00  0.00000000000E+00  0.00000000000E+00  0.60000000000E+02  0.60000000000E+02 0.  0.
          5    1    3    3  501    0 -0.96467936279E+01 -0.21621152884E+02 -0.17815025138E+02  0.30000000000E+02  0.47000000000E+01 0. -1.
         -5    1    3    3    0  501  0.96467936279E+01  0.21621152884E+02  0.17815025138E+02  0.30000000000E+02  0.47000000000E+01 0.  1.
</event>
<event>
 5    1  0.7624361E-002  0.6000000E+02  0.7546771E-02  0.1259629E+00
         11   -1    0    0    0    0  0.00000000000E+00  0.00000000000E+00  0.30000000000E+02  0.30000000000E+02  0.00000000000E+00 0. -1.
        -11   -1    0    0    0    0 -0.00000000000E+00 -0.00000000000E+00 -0.30000000000E+02  0.30000000000E+02  0.00000000000E+00 0.  1.
         23    2    1    2    0    0  0.00000000000E+00  0.00000000000E+00  0.00000000000E+00  0.60000000000E+02  0.60000000000E+02 0.  0.
          5    1    3    3  501    0  0.16629412897E+02  0.16541802957E+02 -0.18103628963E+02  0.30000000000E+02  0.47000000000E+01 0.  1.
         -5    1    3    3    0  501 -0.16629412897E+02 -0.16541802957E+02  0.18103628963E+02  0.30000000000E+02  0.47000000000E+01 0. -1.
</event>
<event>
 5    1  0.7624361E-002  0.6000000E+02  0.7546771E-02  0.1259629E+00
         11   -1    0    0    0    0  0.00000000000E+00  0.00000000000E+00  0.30000000000E+02  0.30000000000E+02  0.00000000000E+00 0. -1.
        -11   -1    0    0    0    0 -0.00000000000E+00 -0.00000000000E+00 -0.30000000000E+02  0.30000000000E+02  0.00000000000E+00 0.  1.
         23    2    1    2    0    0  0.00000000000E+00  0.00000000000E+00  0.00000000000E+00  0.60000000000E+02  0.60000000000E+02 0.  0.
          5    1    3    3  501    0  0.19404473498E+02 -0.91631533985E+01 -0.20430688389E+02  0.30000000000E+02  0.47000000000E+01 0.  1.
         -5    1    3    3    0  501 -0.19404473498E+02  0.91631533985E+01  0.20430688389E+02  0.30000000000E+02  0.47000000000E+01 0. -1.
</event>
<event>
 5    1  0.7624361E-002  0.6000000E+02  0.7546771E-02  0.1259629E+00
         11   -1    0    0    0    0  0.00000000000E+00  0.00000000000E+00  0.30000000000E+02  0.30000000000E+02  0.00000000000E+00 0. -1.
        -11   -1    0    0    0    0 -0.00000000000E+00 -0.00000000000E+00 -0.30000000000E+02  0.30000000000E+02  0.00000000000E+00 0.  1.
         23    2    1    2    0    0  0.00000000000E+00  0.00000000000E+00  0.00000000000E+00  0.60000000000E+02  0.60000000000E+02 0.  0.
          5    1    3    3  501    0  0.21314325146E+02  0.20143754579E+02 -0.42235879331E+01  0.30000000000E+02  0.47000000000E+01 0.  1.
         -5    1    3    3    0  501 -0.21314325146E+02 -0.20143754579E+02  0.42235879331E+01  0.30000000000E+02  0.47000000000E+01 0. -1.
</event>
<event>
 5    1  0.7624361E-002  0.6000000E+02  0.7546771E-02  0.1259629E+00
         11   -1    0    0    0    0  0.00000000000E+00  0.00000000000E+00  0.30000000000E+02  0.30000000000E+02  0.00000000000E+00 0.  1.
        -11   -1    0    0    0    0 -0.00000000000E+00 -0.00000000000E+00 -0.30000000000E+02  0.30000000000E+02  0.00000000000E+00 0. -1.
         23    2    1    2    0    0  0.00000000000E+00  0.00000000000E+00  0.00000000000E+00  0.60000000000E+02  0.60000000000E+02 0.  0.
          5    1    3    3  501    0  0.14011335583E+02  0.96977703257E+00 -0.26089308302E+02  0.30000000000E+02  0.47000000000E+01 0. -1.
         -5    1    3    3    0  501 -0.14011335583E+02 -0.96977703257E+00  0.26089308302E+02  0.30000000000E+02  0.47000000000E+01 0.  1.
</event>
<event>
 5    1  0.7624361E-002  0.6000000E+02  0.7546771E-02  0.1259629E+00
         11   -1    0    0    0    0  0.00000000000E+00  0.00000000000E+00  0.30000000000E+02  0.30000000000E+02  0.00000000000E+00 0.  1.
        -11   -1    0    0    0    0 -0.00000000000E+00 -0.00000000000E+00 -0.30000000000E+02  0.30000000000E+02  0.00000000000E+00 0. -1.
         23    2    1    2    0    0  0.00000000000E+00  0.00000000000E+00  0.00000000000E+00  0.60000000000E+02  0.60000000000E+02 0.  0.
          5    1    3    3  501    0  0.22472248711E+02  0.87691075150E+01  0.17204964146E+02  0.30000000000E+02  0.47000000000E+01 0. -1.
         -5    1    3    3    0  501 -0.22472248711E+02 -0.87691075150E+01 -0.17204964146E+02  0.30000000000E+02  0.47000000000E+01 0.  1.
</event>
<event>
 5    1  0.7624361E-002  0.6000000E+02  0.7546771E-02  0.1259629E+00
         11   -1    0    0    0    0  0.00000000000E+00  0.00000000000E+00  0.30000000000E+02  0.30000000000E+02  0.00000000000E+00 0.  1.
        -11   -1    0    0    0    0 -0.00000000000E+00 -0.00000000000E+00 -0.30000000000E+02  0.30000000000E+02  0.00000000000E+00 0. -1.
         23    2    1    2    0    0  0.00000000000E+00  0.00000000000E+00  0.00000000000E+00  0.60000000000E+02  0.60000000000E+02 0.  0.
          5    1    3    3  501    0  0.74583549839E+01  0.27007575098E+02  0.96371068403E+01  0.30000000000E+02  0.47000000000E+01 0. -1.
         -5    1    3    3    0  501 -0.74583549839E+01 -0.27007575098E+02 -0.96371068403E+01  0.30000000000E+02  0.47000000000E+01 0.  1.
</event>
<event>
 5    1  0.7624361E-002  0.6000000E+02  0.7546771E-02  0.1259629E+00
         11   -1    0    0    0    0  0.00000000000E+00  0.00000000000E+00  0.30000000000E+02  0.30000000000E+02  0.00000000000E+00 0.  1.
        -11   -1    0    0    0    0 -0.00000000000E+00 -0.00000000000E+00 -0.30000000000E+02  0.30000000000E+02  0.00000000000E+00 0. -1.
         23    2    1    2    0    0  0.00000000000E+00  0.00000000000E+00  0.00000000000E+00  0.60000000000E+02  0.60000000000E+02 0.  0.
          5    1    3    3  501    0  0.16896621217E+02 -0.81320834712E+01 -0.22940867679E+02  0.30000000000E+02  0.47000000000E+01 0. -1.
         -5    1    3    3    0  501 -0.16896621217E+02  0.81320834712E+01  0.22940867679E+02  0.30000000000E+02  0.47000000000E+01 0.  1.
</event>
<event>
 5    1  0.7624361E-002  0.6000000E+02  0.7546771E-02  0.1259629E+00
         11   -1    0    0    0    0  0.00000000000E+00  0.00000000000E+00  0.30000000000E+02  0.30000000000E+02  0.00000000000E+00 0. -1.
        -11   -1    0    0    0    0 -0.00000000000E+00 -0.00000000000E+00 -0.30000000000E+02  0.30000000000E+02  0.00000000000E+00 0.  1.
         23    2    1    2    0    0  0.00000000000E+00  0.00000000000E+00  0.00000000000E+00  0.60000000000E+02  0.60000000000E+02 0.  0.
          5    1    3    3  501    0 -0.34904291003E+01 -0.28120401667E+02 -0.86585168933E+01  0.30000000000E+02  0.47000000000E+01 0.  1.
         -5    1    3    3    0  501  0.34904291003E+01  0.28120401667E+02  0.86585168933E+01  0.30000000000E+02  0.47000000000E+01 0. -1.
</event>
<event>
 5    1  0.7624361E-002  0.6000000E+02  0.7546771E-02  0.1259629E+00
         11   -1    0    0    0    0  0.00000000000E+00  0.00000000000E+00  0.30000000000E+02  0.30000000000E+02  0.00000000000E+00 0.  1.
        -11   -1    0    0    0    0 -0.00000000000E+00 -0.00000000000E+00 -0.30000000000E+02  0.30000000000E+02  0.00000000000E+00 0. -1.
         23    2    1    2    0    0  0.00000000000E+00  0.00000000000E+00  0.00000000000E+00  0.60000000000E+02  0.60000000000E+02 0.  0.
          5    1    3    3  501    0  0.10660747062E+02  0.26019174581E+02 -0.93413610468E+01  0.30000000000E+02  0.47000000000E+01 0. -1.
         -5    1    3    3    0  501 -0.10660747062E+02 -0.26019174581E+02  0.93413610468E+01  0.30000000000E+02  0.47000000000E+01 0.  1.
</event>
<event>
 5    1  0.7624361E-002  0.6000000E+02  0.7546771E-02  0.1259629E+00
         11   -1    0    0    0    0  0.00000000000E+00  0.00000000000E+00  0.30000000000E+02  0.30000000000E+02  0.00000000000E+00 0. -1.
        -11   -1    0    0    0    0 -0.00000000000E+00 -0.00000000000E+00 -0.30000000000E+02  0.30000000000E+02  0.00000000000E+00 0.  1.
         23    2    1    2    0    0  0.00000000000E+00  0.00000000000E+00  0.00000000000E+00  0.60000000000E+02  0.60000000000E+02 0.  0.
          5    1    3    3  501    0  0.20630925613E+02 -0.57491073612E+01 -0.20474927910E+02  0.30000000000E+02  0.47000000000E+01 0.  1.
         -5    1    3    3    0  501 -0.20630925613E+02  0.57491073612E+01  0.20474927910E+02  0.30000000000E+02  0.47000000000E+01 0. -1.
</event>
<event>
 5    1  0.7624361E-002  0.6000000E+02  0.7546771E-02  0.1259629E+00
         11   -1    0    0    0    0  0.00000000000E+00  0.00000000000E+00  0.30000000000E+02  0.30000000000E+02  0.00000000000E+00 0.  1.
        -11   -1    0    0    0    0 -0.00000000000E+00 -0.00000000000E+00 -0.30000000000E+02  0.30000000000E+02  0.00000000000E+00 0. -1.
         23    2    1    2    0    0  0.00000000000E+00  0.00000000000E+00  0.00000000000E+00  0.60000000000E+02  0.60000000000E+02 0.  0.
          5    1    3    3  501    0  0.86559580228E+00 -0.29214825776E+02  0.48636096447E+01  0.30000000000E+02  0.47000000000E+01 0. -1.
         -5    1    3    3    0  501 -0.86559580228E+00  0.29214825776E+02 -0.48636096447E+01  0.30000000000E+02  0.47000000000E+01 0.  1.
</event>
<event>
 5    1  0.7624361E-002  0.6000000E+02  0.7546771E-02  0.1259629E+00
         11   -1    0    0    0    0  0.00000000000E+00  0.00000000000E+00  0.30000000000E+02  0.30000000000E+02  0.00000000000E+00 0.  1.
        -11   -1    0    0    0    0 -0.00000000000E+00 -0.00000000000E+00 -0.30000000000E+02  0.30000000000E+02  0.00000000000E+00 0. -1.
         23    2    1    2    0    0  0.00000000000E+00  0.00000000000E+00  0.00000000000E+00  0.60000000000E+02  0.60000000000E+02 0.  0.
          5    1    3    3  501    0 -0.13042932662E+02 -0.14627257698E+02 -0.22222404006E+02  0.30000000000E+02  0.47000000000E+01 0. -1.
         -5    1    3    3    0  501  0.13042932662E+02  0.14627257698E+02  0.22222404006E+02  0.30000000000E+02  0.47000000000E+01 0.  1.
</event>
<event>
 5    1  0.7624361E-002  0.6000000E+02  0.7546771E-02  0.1259629E+00
         11   -1    0    0    0    0  0.00000000000E+00  0.00000000000E+00  0.30000000000E+02  0.30000000000E+02  0.00000000000E+00 0.  1.
        -11   -1    0    0    0    0 -0.00000000000E+00 -0.00000000000E+00 -0.30000000000E+02  0.30000000000E+02  0.00000000000E+00 0. -1.
         23    2    1    2    0    0  0.00000000000E+00  0.00000000000E+00  0.00000000000E+00  0.60000000000E+02  0.60000000000E+02 0.  0.
          5    1    3    3  501    0 -0.24961623704E+02  0.92796666787E+00 -0.15936317640E+02  0.30000000000E+02  0.47000000000E+01 0. -1.
         -5    1    3    3    0  501  0.24961623704E+02 -0.92796666787E+00  0.15936317640E+02  0.30000000000E+02  0.47000000000E+01 0.  1.
</event>
<event>
 5    1  0.7624361E-002  0.6000000E+02  0.7546771E-02  0.1259629E+00
         11   -1    0    0    0    0  0.00000000000E+00  0.00000000000E+00  0.30000000000E+02  0.30000000000E+02  0.00000000000E+00 0.  1.
        -11   -1    0    0    0    0 -0.00000000000E+00 -0.00000000000E+00 -0.30000000000E+02  0.30000000000E+02  0.00000000000E+00 0. -1.
         23    2    1    2    0    0  0.00000000000E+00  0.00000000000E+00  0.00000000000E+00  0.60000000000E+02  0.60000000000E+02 0.  0.
          5    1    3    3  501    0  0.28724441675E+02 -0.50811931611E+01 -0.51959528965E+01  0.30000000000E+02  0.47000000000E+01 0. -1.
         -5    1    3    3    0  501 -0.28724441675E+02  0.50811931611E+01  0.51959528965E+01  0.30000000000E+02  0.47000000000E+01 0.  1.
</event>
<event>
 5    1  0.7624361E-002  0.6000000E+02  0.7546771E-02  0.1259629E+00
         11   -1    0    0    0    0  0.00000000000E+00  0.00000000000E+00  0.30000000000E+02  0.30000000000E+02  0.00000000000E+00 0. -1.
        -11   -1    0    0    0    0 -0.00000000000E+00 -0.00000000000E+00 -0.30000000000E+02  0.30000000000E+02  0.00000000000E+00 0.  1.
         23    2    1    2    0    0  0.00000000000E+00  0.00000000000E+00  0.00000000000E+00  0.60000000000E+02  0.60000000000E+02 0.  0.
          5    1    3    3  501    0 -0.55735022106E+01  0.28973056776E+02 -0.27217740791E+01  0.30000000000E+02  0.47000000000E+01 0.  1.
         -5    1    3    3    0  501  0.55735022106E+01 -0.28973056776E+02  0.27217740791E+01  0.30000000000E+02  0.47000000000E+01 0. -1.
</event>
<event>
 5    1  0.7624361E-002  0.6000000E+02  0.7546771E-02  0.1259629E+00
         11   -1    0    0    0    0  0.00000000000E+00  0.00000000000E+00  0.30000000000E+02  0.30000000000E+02  0.00000000000E+00 0.  1.
        -11   -1    0    0    0    0 -0.00000000000E+00 -0.00000000000E+00 -0.30000000000E+02  0.30000000000E+02  0.00000000000E+00 0. -1.
         23    2    1    2    0    0  0.00000000000E+00  0.00000000000E+00  0.00000000000E+00  0.60000000000E+02  0.60000000000E+02 0.  0.
          5    1    3    3  501    0  0.25236426333E+02 -0.14361770165E+01  0.15458660405E+02  0.30000000000E+02  0.47000000000E+01 0. -1.
         -5    1    3    3    0  501 -0.25236426333E+02  0.14361770165E+01 -0.15458660405E+02  0.30000000000E+02  0.47000000000E+01 0.  1.
</event>
<event>
 5    1  0.7624361E-002  0.6000000E+02  0.7546771E-02  0.1259629E+00
         11   -1    0    0    0    0  0.00000000000E+00  0.00000000000E+00  0.30000000000E+02  0.30000000000E+02  0.00000000000E+00 0.  1.
        -11   -1    0    0    0    0 -0.00000000000E+00 -0.00000000000E+00 -0.30000000000E+02  0.30000000000E+02  0.00000000000E+00 0. -1.
         23    2    1    2    0    0  0.00000000000E+00  0.00000000000E+00  0.00000000000E+00  0.60000000000E+02  0.60000000000E+02 0.  0.
          5    1    3    3  501    0  0.60297123112E+01  0.28239234855E+01 -0.28871751343E+02  0.30000000000E+02  0.47000000000E+01 0. -1.
         -5    1    3    3    0  501 -0.60297123112E+01 -0.28239234855E+01  0.28871751343E+02  0.30000000000E+02  0.47000000000E+01 0.  1.
</event>
<event>
 5    1  0.7624361E-002  0.6000000E+02  0.7546771E-02  0.1259629E+00
         11   -1    0    0    0    0  0.00000000000E+00  0.00000000000E+00  0.30000000000E+02  0.30000000000E+02  0.00000000000E+00 0.  1.
        -11   -1    0    0    0    0 -0.00000000000E+00 -0.00000000000E+00 -0.30000000000E+02  0.30000000000E+02  0.00000000000E+00 0. -1.
         23    2    1    2    0    0  0.00000000000E+00  0.00000000000E+00  0.00000000000E+00  0.60000000000E+02  0.60000000000E+02 0.  0.
          5    1    3    3  501    0  0.51999481169E+01 -0.24139542189E+02  0.16375379156E+02  0.30000000000E+02  0.47000000000E+01 0.  1.
         -5    1    3    3    0  501 -0.51999481169E+01  0.24139542189E+02 -0.16375379156E+02  0.30000000000E+02  0.47000000000E+01 0. -1.
</event>
<event>
 5    1  0.7624361E-002  0.6000000E+02  0.7546771E-02  0.1259629E+00
         11   -1    0    0    0    0  0.00000000000E+00  0.00000000000E+00  0.30000000000E+02  0.30000000000E+02  0.00000000000E+00 0.  1.
        -11   -1    0    0    0    0 -0.00000000000E+00 -0.00000000000E+00 -0.30000000000E+02  0.30000000000E+02  0.00000000000E+00 0. -1.
         23    2    1    2    0    0  0.00000000000E+00  0.00000000000E+00  0.00000000000E+00  0.60000000000E+02  0.60000000000E+02 0.  0.
          5    1    3    3  501    0 -0.12295322840E+00 -0.29628084198E+02  0.26741216275E+00  0.30000000000E+02  0.47000000000E+01 0. -1.
         -5    1    3    3    0  501  0.12295322840E+00  0.29628084198E+02 -0.26741216275E+00  0.30000000000E+02  0.47000000000E+01 0.  1.
</event>
<event>
 5    1  0.7624361E-002  0.6000000E+02  0.7546771E-02  0.1259629E+00
         11   -1    0    0    0    0  0.00000000000E+00  0.00000000000E+00  0.30000000000E+02  0.30000000000E+02  0.00000000000E+00 0. -1.
        -11   -1    0    0    0    0 -0.00000000000E+00 -0.00000000000E+00 -0.30000000000E+02  0.30000000000E+02  0.00000000000E+00 0.  1.
         23    2    1    2    0    0  0.00000000000E+00  0.00000000000E+00  0.00000000000E+00  0.60000000000E+02  0.60000000000E+02 0.  0.
          5    1    3    3  501    0 -0.61150239190E+01  0.16224780749E+02 -0.24026505616E+02  0.30000000000E+02  0.47000000000E+01 0.  1.
         -5    1    3    3    0  501  0.61150239190E+01 -0.16224780749E+02  0.24026505616E+02  0.30000000000E+02  0.47000000000E+01 0. -1.
</event>
<event>
 5    1  0.7624361E-002  0.6000000E+02  0.7546771E-02  0.1259629E+00
         11   -1    0    0    0    0  0.00000000000E+00  0.00000000000E+00  0.30000000000E+02  0.30000000000E+02  0.00000000000E+00 0. -1.
        -11   -1    0    0    0    0 -0.00000000000E+00 -0.00000000000E+00 -0.30000000000E+02  0.30000000000E+02  0.00000000000E+00 0.  1.
         23    2    1    2    0    0  0.00000000000E+00  0.00000000000E+00  0.00000000000E+00  0.60000000000E+02  0.60000000000E+02 0.  0.
          5    1    3    3  501    0 -0.15828775903E+02 -0.43254474230E+01 -0.24670840237E+02  0.30000000000E+02  0.47000000000E+01 0.  1.
         -5    1    3    3    0  501  0.15828775903E+02  0.43254474230E+01  0.24670840237E+02  0.30000000000E+02  0.47000000000E+01 0. -1.
</event>
<event>
 5    1  0.7624361E-002  0.6000000E+02  0.7546771E-02  0.1259629E+00
         11   -1    0    0    0    0  0.00000000000E+00  0.00000000000E+00  0.30000000000E+02  0.30000000000E+02  0.00000000000E+00 0.  1.
        -11   -1    0    0    0    0 -0.00000000000E+00 -0.00000000000E+00 -0.30000000000E+02  0.30000000000E+02  0.00000000000E+00 0. -1.
         23    2    1    2    0    0  0.00000000000E+00  0.00000000000E+00  0.00000000000E+00  0.60000000000E+02  0.60000000000E+02 0.  0.
          5    1    3    3  501    0 -0.11178357400E+02  0.27431317303E+02 -0.69076542318E+00  0.30000000000E+02  0.47000000000E+01 0.  1.
         -5    1    3    3    0  501  0.11178357400E+02 -0.27431317303E+02  0.69076542318E+00  0.30000000000E+02  0.47000000000E+01 0. -1.
</event>
<event>
 5    1  0.7624361E-002  0.6000000E+02  0.7546771E-02  0.1259629E+00
         11   -1    0    0    0    0  0.00000000000E+00  0.00000000000E+00  0.30000000000E+02  0.30000000000E+02  0.00000000000E+00 0.  1.
        -11   -1    0    0    0    0 -0.00000000000E+00 -0.00000000000E+00 -0.30000000000E+02  0.30000000000E+02  0.00000000000E+00 0. -1.
         23    2    1    2    0    0  0.00000000000E+00  0.00000000000E+00  0.00000000000E+00  0.60000000000E+02  0.60000000000E+02 0.  0.
          5    1    3    3  501    0 -0.27574188828E+02 -0.96347472640E+01 -0.49745105925E+01  0.30000000000E+02  0.47000000000E+01 0. -1.
         -5    1    3    3    0  501  0.27574188828E+02  0.96347472640E+01  0.49745105925E+01  0.30000000000E+02  0.47000000000E+01 0.  1.
</event>
<event>
 5    1  0.7624361E-002  0.6000000E+02  0.7546771E-02  0.1259629E+00
         11   -1    0    0    0    0  0.00000000000E+00  0.00000000000E+00  0.30000000000E+02  0.30000000000E+02  0.00000000000E+00 0.  1.
        -11   -1    0    0    0    0 -0.00000000000E+00 -0.00000000000E+00 -0.30000000000E+02  0.30000000000E+02  0.00000000000E+00 0. -1.
         23    2    1    2    0    0  0.00000000000E+00  0.00000000000E+00  0.00000000000E+00  0.60000000000E+02  0.60000000000E+02 0.  0.
          5    1    3    3  501    0  0.25390553795E+02 -0.10070312481E+02  0.11481227483E+02  0.30000000000E+02  0.47000000000E+01 0. -1.
         -5    1    3    3    0  501 -0.25390553795E+02  0.10070312481E+02 -0.11481227483E+02  0.30000000000E+02  0.47000000000E+01 0.  1.
</event>
<event>
 5    1  0.7624361E-002  0.6000000E+02  0.7546771E-02  0.1259629E+00
         11   -1    0    0    0    0  0.00000000000E+00  0.00000000000E+00  0.30000000000E+02  0.30000000000E+02  0.00000000000E+00 0.  1.
        -11   -1    0    0    0    0 -0.00000000000E+00 -0.00000000000E+00 -0.30000000000E+02  0.30000000000E+02  0.00000000000E+00 0. -1.
         23    2    1    2    0    0  0.00000000000E+00  0.00000000000E+00  0.00000000000E+00  0.60000000000E+02  0.60000000000E+02 0.  0.
          5    1    3    3  501    0 -0.22128864763E+02  0.16144128605E+02 -0.11295594535E+02  0.30000000000E+02  0.47000000000E+01 0. -1.
         -5    1    3    3    0  501  0.22128864763E+02 -0.16144128605E+02  0.11295594535E+02  0.30000000000E+02  0.47000000000E+01 0.  1.
</event>
<event>
 5    1  0.7624361E-002  0.6000000E+02  0.7546771E-02  0.1259629E+00
         11   -1    0    0    0    0  0.00000000000E+00  0.00000000000E+00  0.30000000000E+02  0.30000000000E+02  0.00000000000E+00 0.  1.
        -11   -1    0    0    0    0 -0.00000000000E+00 -0.00000000000E+00 -0.30000000000E+02  0.30000000000E+02  0.00000000000E+00 0. -1.
         23    2    1    2    0    0  0.00000000000E+00  0.00000000000E+00  0.00000000000E+00  0.60000000000E+02  0.60000000000E+02 0.  0.
          5    1    3    3  501    0  0.16380505274E+02 -0.20833280761E+02 -0.13250036216E+02  0.30000000000E+02  0.47000000000E+01 0. -1.
         -5    1    3    3    0  501 -0.16380505274E+02  0.20833280761E+02  0.13250036216E+02  0.30000000000E+02  0.47000000000E+01 0.  1.
</event>
<event>
 5    1  0.7624361E-002  0.6000000E+02  0.7546771E-02  0.1259629E+00
         11   -1    0    0    0    0  0.00000000000E+00  0.00000000000E+00  0.30000000000E+02  0.30000000000E+02  0.00000000000E+00 0.  1.
        -11   -1    0    0    0    0 -0.00000000000E+00 -0.00000000000E+00 -0.30000000000E+02  0.30000000000E+02  0.00000000000E+00 0. -1.
         23    2    1    2    0    0  0.00000000000E+00  0.00000000000E+00  0.00000000000E+00  0.60000000000E+02  0.60000000000E+02 0.  0.
          5    1    3    3  501    0  0.29371959314E+02 -0.19755210229E+01  0.33608514927E+01  0.30000000000E+02  0.47000000000E+01 0. -1.
         -5    1    3    3    0  501 -0.29371959314E+02  0.19755210229E+01 -0.33608514927E+01  0.30000000000E+02  0.47000000000E+01 0.  1.
</event>
<event>
 5    1  0.7624361E-002  0.6000000E+02  0.7546771E-02  0.1259629E+00
         11   -1    0    0    0    0  0.00000000000E+00  0.00000000000E+00  0.30000000000E+02  0.30000000000E+02  0.00000000000E+00 0.  1.
        -11   -1    0    0    0    0 -0.00000000000E+00 -0.00000000000E+00 -0.30000000000E+02  0.30000000000E+02  0.00000000000E+00 0. -1.
         23    2    1    2    0    0  0.00000000000E+00  0.00000000000E+00  0.00000000000E+00  0.60000000000E+02  0.60000000000E+02 0.  0.
          5    1    3    3  501    0 -0.12303133357E+02  0.18128996426E+02 -0.19946989702E+02  0.30000000000E+02  0.47000000000E+01 0. -1.
         -5    1    3    3    0  501  0.12303133357E+02 -0.18128996426E+02  0.19946989702E+02  0.30000000000E+02  0.47000000000E+01 0.  1.
</event>
<event>
 5    1  0.7624361E-002  0.6000000E+02  0.7546771E-02  0.1259629E+00
         11   -1    0    0    0    0  0.00000000000E+00  0.00000000000E+00  0.30000000000E+02  0.30000000000E+02  0.00000000000E+00 0.  1.
        -11   -1    0    0    0    0 -0.00000000000E+00 -0.00000000000E+00 -0.30000000000E+02  0.30000000000E+02  0.00000000000E+00 0. -1.
         23    2    1    2    0    0  0.00000000000E+00  0.00000000000E+00  0.00000000000E+00  0.60000000000E+02  0.60000000000E+02 0.  0.
          5    1    3    3  501    0 -0.15899465599E+02 -0.15519272468E+02 -0.19602784897E+02  0.30000000000E+02  0.47000000000E+01 0. -1.
         -5    1    3    3    0  501  0.15899465599E+02  0.15519272468E+02  0.19602784897E+02  0.30000000000E+02  0.47000000000E+01 0.  1.
</event>
<event>
 5    1  0.7624361E-002  0.6000000E+02  0.7546771E-02  0.1259629E+00
         11   -1    0    0    0    0  0.00000000000E+00  0.00000000000E+00  0.30000000000E+02  0.30000000000E+02  0.00000000000E+00 0.  1.
        -11   -1    0    0    0    0 -0.00000000000E+00 -0.00000000000E+00 -0.30000000000E+02  0.30000000000E+02  0.00000000000E+00 0. -1.
         23    2    1    2    0    0  0.00000000000E+00  0.00000000000E+00  0.00000000000E+00  0.60000000000E+02  0.60000000000E+02 0.  0.
          5    1    3    3  501    0  0.10228473233E+02  0.27806753989E+02  0.26975534867E+00  0.30000000000E+02  0.47000000000E+01 0.  1.
         -5    1    3    3    0  501 -0.10228473233E+02 -0.27806753989E+02 -0.26975534867E+00  0.30000000000E+02  0.47000000000E+01 0. -1.
</event>
<event>
 5    1  0.7624361E-002  0.6000000E+02  0.7546771E-02  0.1259629E+00
         11   -1    0    0    0    0  0.00000000000E+00  0.00000000000E+00  0.30000000000E+02  0.30000000000E+02  0.00000000000E+00 0. -1.
        -11   -1    0    0    0    0 -0.00000000000E+00 -0.00000000000E+00 -0.30000000000E+02  0.30000000000E+02  0.00000000000E+00 0.  1.
         23    2    1    2    0    0  0.00000000000E+00  0.00000000000E+00  0.00000000000E+00  0.60000000000E+02  0.60000000000E+02 0.  0.
          5    1    3    3  501    0  0.62037873182E+01 -0.12229619613E+01 -0.28946975437E+02  0.30000000000E+02  0.47000000000E+01 0.  1.
         -5    1    3    3    0  501 -0.62037873182E+01  0.12229619613E+01  0.28946975437E+02  0.30000000000E+02  0.47000000000E+01 0. -1.
</event>
<event>
 5    1  0.7624361E-002  0.6000000E+02  0.7546771E-02  0.1259629E+00
         11   -1    0    0    0    0  0.00000000000E+00  0.00000000000E+00  0.30000000000E+02  0.30000000000E+02  0.00000000000E+00 0.  1.
        -11   -1    0    0    0    0 -0.00000000000E+00 -0.00000000000E+00 -0.30000000000E+02  0.30000000000E+02  0.00000000000E+00 0. -1.
         23    2    1    2    0    0  0.00000000000E+00  0.00000000000E+00  0.00000000000E+00  0.60000000000E+02  0.60000000000E+02 0.  0.
          5    1    3    3  501    0 -0.12653651621E+01 -0.27638360663E+02  0.10603295282E+02  0.30000000000E+02  0.47000000000E+01 0.  1.
         -5    1    3    3    0  501  0.12653651621E+01  0.27638360663E+02 -0.10603295282E+02  0.30000000000E+02  0.47000000000E+01 0. -1.
</event>
<event>
 5    1  0.7624361E-002  0.6000000E+02  0.7546771E-02  0.1259629E+00
         11   -1    0    0    0    0  0.00000000000E+00  0.00000000000E+00  0.30000000000E+02  0.30000000000E+02  0.00000000000E+00 0. -1.
        -11   -1    0    0    0    0 -0.00000000000E+00 -0.00000000000E+00 -0.30000000000E+02  0.30000000000E+02  0.00000000000E+00 0.  1.
         23    2    1    2    0    0  0.00000000000E+00  0.00000000000E+00  0.00000000000E+00  0.60000000000E+02  0.60000000000E+02 0.  0.
          5    1    3    3  501    0 -0.13338817532E+02 -0.19542006782E+02  0.17835243699E+02  0.30000000000E+02  0.47000000000E+01 0. -1.
         -5    1    3    3    0  501  0.13338817532E+02  0.19542006782E+02 -0.17835243699E+02  0.30000000000E+02  0.47000000000E+01 0.  1.
</event>
<event>
 5    1  0.7624361E-002  0.6000000E+02  0.7546771E-02  0.1259629E+00
         11   -1    0    0    0    0  0.00000000000E+00  0.00000000000E+00  0.30000000000E+02  0.30000000000E+02  0.00000000000E+00 0.  1.
        -11   -1    0    0    0    0 -0.00000000000E+00 -0.00000000000E+00 -0.30000000000E+02  0.30000000000E+02  0.00000000000E+00 0. -1.
         23    2    1    2    0    0  0.00000000000E+00  0.00000000000E+00  0.00000000000E+00  0.60000000000E+02  0.60000000000E+02 0.  0.
          5    1    3    3  501    0  0.64368561743E+01  0.24289893226E+02 -0.15699616864E+02  0.30000000000E+02  0.47000000000E+01 0. -1.
         -5    1    3    3    0  501 -0.64368561743E+01 -0.24289893226E+02  0.15699616864E+02  0.30000000000E+02  0.47000000000E+01 0.  1.
</event>
<event>
 5    1  0.7624361E-002  0.6000000E+02  0.7546771E-02  0.1259629E+00
         11   -1    0    0    0    0  0.00000000000E+00  0.00000000000E+00  0.30000000000E+02  0.30000000000E+02  0.00000000000E+00 0.  1.
        -11   -1    0    0    0    0 -0.00000000000E+00 -0.00000000000E+00 -0.30000000000E+02  0.30000000000E+02  0.00000000000E+00 0. -1.
         23    2    1    2    0    0  0.00000000000E+00  0.00000000000E+00  0.00000000000E+00  0.60000000000E+02  0.60000000000E+02 0.  0.
          5    1    3    3  501    0  0.19770395309E+02  0.88644583247E+01 -0.20210463823E+02  0.30000000000E+02  0.47000000000E+01 0. -1.
         -5    1    3    3    0  501 -0.19770395309E+02 -0.88644583247E+01  0.20210463823E+02  0.30000000000E+02  0.47000000000E+01 0.  1.
</event>
<event>
 5    1  0.7624361E-002  0.6000000E+02  0.7546771E-02  0.1259629E+00
         11   -1    0    0    0    0  0.00000000000E+00  0.00000000000E+00  0.30000000000E+02  0.30000000000E+02  0.00000000000E+00 0. -1.
        -11   -1    0    0    0    0 -0.00000000000E+00 -0.00000000000E+00 -0.30000000000E+02  0.30000000000E+02  0.00000000000E+00 0.  1.
         23    2    1    2    0    0  0.00000000000E+00  0.00000000000E+00  0.00000000000E+00  0.60000000000E+02  0.60000000000E+02 0.  0.
          5    1    3    3  501    0 -0.18466156564E+02  0.54054235495E+01 -0.22532031821E+02  0.30000000000E+02  0.47000000000E+01 0.  1.
         -5    1    3    3    0  501  0.18466156564E+02 -0.54054235495E+01  0.22532031821E+02  0.30000000000E+02  0.47000000000E+01 0. -1.
</event>
<event>
 5    1  0.7624361E-002  0.6000000E+02  0.7546771E-02  0.1259629E+00
         11   -1    0    0    0    0  0.00000000000E+00  0.00000000000E+00  0.30000000000E+02  0.30000000000E+02  0.00000000000E+00 0. -1.
        -11   -1    0    0    0    0 -0.00000000000E+00 -0.00000000000E+00 -0.30000000000E+02  0.30000000000E+02  0.00000000000E+00 0.  1.
         23    2    1    2    0    0  0.00000000000E+00  0.00000000000E+00  0.00000000000E+00  0.60000000000E+02  0.60000000000E+02 0.  0.
          5    1    3    3  501    0  0.26299644548E+02 -0.13211905095E+02  0.34182247486E+01  0.30000000000E+02  0.47000000000E+01 0.  1.
         -5    1    3    3    0  501 -0.26299644548E+02  0.13211905095E+02 -0.34182247486E+01  0.30000000000E+02  0.47000000000E+01 0. -1.
</event>
<event>
 5    1  0.7624361E-002  0.6000000E+02  0.7546771E-02  0.1259629E+00
         11   -1    0    0    0    0  0.00000000000E+00  0.00000000000E+00  0.30000000000E+02  0.30000000000E+02  0.00000000000E+00 0.  1.
        -11   -1    0    0    0    0 -0.00000000000E+00 -0.00000000000E+00 -0.30000000000E+02  0.30000000000E+02  0.00000000000E+00 0. -1.
         23    2    1    2    0    0  0.00000000000E+00  0.00000000000E+00  0.00000000000E+00  0.60000000000E+02  0.60000000000E+02 0.  0.
          5    1    3    3  501    0  0.15624946543E+02 -0.37113796096E+01 -0.24899733069E+02  0.30000000000E+02  0.47000000000E+01 0. -1.
         -5    1    3    3    0  501 -0.15624946543E+02  0.37113796096E+01  0.24899733069E+02  0.30000000000E+02  0.47000000000E+01 0.  1.
</event>
<event>
 5    1  0.7624361E-002  0.6000000E+02  0.7546771E-02  0.1259629E+00
         11   -1    0    0    0    0  0.00000000000E+00  0.00000000000E+00  0.30000000000E+02  0.30000000000E+02  0.00000000000E+00 0.  1.
        -11   -1    0    0    0    0 -0.00000000000E+00 -0.00000000000E+00 -0.30000000000E+02  0.30000000000E+02  0.00000000000E+00 0. -1.
         23    2    1    2    0    0  0.00000000000E+00  0.00000000000E+00  0.00000000000E+00  0.60000000000E+02  0.60000000000E+02 0.  0.
          5    1    3    3  501    0 -0.18902431753E+02  0.12075226529E+02 -0.19359674018E+02  0.30000000000E+02  0.47000000000E+01 0. -1.
         -5    1    3    3    0  501  0.18902431753E+02 -0.12075226529E+02  0.19359674018E+02  0.30000000000E+02  0.47000000000E+01 0.  1.
</event>
<event>
 5    1  0.7624361E-002  0.6000000E+02  0.7546771E-02  0.1259629E+00
         11   -1    0    0    0    0  0.00000000000E+00  0.00000000000E+00  0.30000000000E+02  0.30000000000E+02  0.00000000000E+00 0.  1.
        -11   -1    0    0    0    0 -0.00000000000E+00 -0.00000000000E+00 -0.30000000000E+02  0.30000000000E+02  0.00000000000E+00 0. -1.
         23    2    1    2    0    0  0.00000000000E+00  0.00000000000E+00  0.00000000000E+00  0.60000000000E+02  0.60000000000E+02 0.  0.
          5    1    3    3  501    0  0.73436107408E+01  0.36812461418E+01 -0.28468048899E+02  0.30000000000E+02  0.47000000000E+01 0. -1.
         -5    1    3    3    0  501 -0.73436107408E+01 -0.36812461418E+01  0.28468048899E+02  0.30000000000E+02  0.47000000000E+01 0.  1.
</event>
<event>
 5    1  0.7624361E-002  0.6000000E+02  0.7546771E-02  0.1259629E+00
         11   -1    0    0    0    0  0.00000000000E+00  0.00000000000E+00  0.30000000000E+02  0.30000000000E+02  0.00000000000E+00 0.  1.
        -11   -1    0    0    0    0 -0.00000000000E+00 -0.00000000000E+00 -0.30000000000E+02  0.30000000000E+02  0.00000000000E+00 0. -1.
         23    2    1    2    0    0  0.00000000000E+00  0.00000000000E+00  0.00000000000E+00  0.60000000000E+02  0.60000000000E+02 0.  0.
          5    1    3    3  501    0 -0.28040047311E+02  0.25514898425E+01 -0.92279817073E+01  0.30000000000E+02  0.47000000000E+01 0. -1.
         -5    1    3    3    0  501  0.28040047311E+02 -0.25514898425E+01  0.92279817073E+01  0.30000000000E+02  0.47000000000E+01 0.  1.
</event>
<event>
 5    1  0.7624361E-002  0.6000000E+02  0.7546771E-02  0.1259629E+00
         11   -1    0    0    0    0  0.00000000000E+00  0.00000000000E+00  0.30000000000E+02  0.30000000000E+02  0.00000000000E+00 0.  1.
        -11   -1    0    0    0    0 -0.00000000000E+00 -0.00000000000E+00 -0.30000000000E+02  0.30000000000E+02  0.00000000000E+00 0. -1.
         23    2    1    2    0    0  0.00000000000E+00  0.00000000000E+00  0.00000000000E+00  0.60000000000E+02  0.60000000000E+02 0.  0.
          5    1    3    3  501    0  0.26027079778E+02 -0.54566358400E+01 -0.13066225299E+02  0.30000000000E+02  0.47000000000E+01 0. -1.
         -5    1    3    3    0  501 -0.26027079778E+02  0.54566358400E+01  0.13066225299E+02  0.30000000000E+02  0.47000000000E+01 0.  1.
</event>
<event>
 5    1  0.7624361E-002  0.6000000E+02  0.7546771E-02  0.1259629E+00
         11   -1    0    0    0    0  0.00000000000E+00  0.00000000000E+00  0.30000000000E+02  0.30000000000E+02  0.00000000000E+00 0.  1.
        -11   -1    0    0    0    0 -0.00000000000E+00 -0.00000000000E+00 -0.30000000000E+02  0.30000000000E+02  0.00000000000E+00 0. -1.
         23    2    1    2    0    0  0.00000000000E+00  0.00000000000E+00  0.00000000000E+00  0.60000000000E+02  0.60000000000E+02 0.  0.
          5    1    3    3  501    0 -0.21588644782E+02  0.91609312129E+01 -0.18108499545E+02  0.30000000000E+02  0.47000000000E+01 0. -1.
         -5    1    3    3    0  501  0.21588644782E+02 -0.91609312129E+01  0.18108499545E+02  0.30000000000E+02  0.47000000000E+01 0.  1.
</event>
<event>
 5    1  0.7624361E-002  0.6000000E+02  0.7546771E-02  0.1259629E+00
         11   -1    0    0    0    0  0.00000000000E+00  0.00000000000E+00  0.30000000000E+02  0.30000000000E+02  0.00000000000E+00 0.  1.
        -11   -1    0    0    0    0 -0.00000000000E+00 -0.00000000000E+00 -0.30000000000E+02  0.30000000000E+02  0.00000000000E+00 0. -1.
         23    2    1    2    0    0  0.00000000000E+00  0.00000000000E+00  0.00000000000E+00  0.60000000000E+02  0.60000000000E+02 0.  0.
          5    1    3    3  501    0  0.52429521455E+01 -0.10076035957E+02 -0.27365945118E+02  0.30000000000E+02  0.47000000000E+01 0. -1.
         -5    1    3    3    0  501 -0.52429521455E+01  0.10076035957E+02  0.27365945118E+02  0.30000000000E+02  0.47000000000E+01 0.  1.
</event>
<event>
 5    1  0.7624361E-002  0.6000000E+02  0.7546771E-02  0.1259629E+00
         11   -1    0    0    0    0  0.00000000000E+00  0.00000000000E+00  0.30000000000E+02  0.30000000000E+02  0.00000000000E+00 0.  1.
        -11   -1    0    0    0    0 -0.00000000000E+00 -0.00000000000E+00 -0.30000000000E+02  0.30000000000E+02  0.00000000000E+00 0. -1.
         23    2    1    2    0    0  0.00000000000E+00  0.00000000000E+00  0.00000000000E+00  0.60000000000E+02  0.60000000000E+02 0.  0.
          5    1    3    3  501    0 -0.25338402272E+02  0.30963494627E+00  0.15355113041E+02  0.30000000000E+02  0.47000000000E+01 0.  1.
         -5    1    3    3    0  501  0.25338402272E+02 -0.30963494627E+00 -0.15355113041E+02  0.30000000000E+02  0.47000000000E+01 0. -1.
</event>
<event>
 5    1  0.7624361E-002  0.6000000E+02  0.7546771E-02  0.1259629E+00
         11   -1    0    0    0    0  0.00000000000E+00  0.00000000000E+00  0.30000000000E+02  0.30000000000E+02  0.00000000000E+00 0. -1.
        -11   -1    0    0    0    0 -0.00000000000E+00 -0.00000000000E+00 -0.30000000000E+02  0.30000000000E+02  0.00000000000E+00 0.  1.
         23    2    1    2    0    0  0.00000000000E+00  0.00000000000E+00  0.00000000000E+00  0.60000000000E+02  0.60000000000E+02 0.  0.
          5    1    3    3  501    0 -0.51081315652E+01 -0.27248449622E+02 -0.10456528348E+02  0.30000000000E+02  0.47000000000E+01 0.  1.
         -5    1    3    3    0  501  0.51081315652E+01  0.27248449622E+02  0.10456528348E+02  0.30000000000E+02  0.47000000000E+01 0. -1.
</event>
<event>
 5    1  0.7624361E-002  0.6000000E+02  0.7546771E-02  0.1259629E+00
         11   -1    0    0    0    0  0.00000000000E+00  0.00000000000E+00  0.30000000000E+02  0.30000000000E+02  0.00000000000E+00 0.  1.
        -11   -1    0    0    0    0 -0.00000000000E+00 -0.00000000000E+00 -0.30000000000E+02  0.30000000000E+02  0.00000000000E+00 0. -1.
         23    2    1    2    0    0  0.00000000000E+00  0.00000000000E+00  0.00000000000E+00  0.60000000000E+02  0.60000000000E+02 0.  0.
          5    1    3    3  501    0  0.26224410835E+02  0.12681227820E+02  0.54200311205E+01  0.30000000000E+02  0.47000000000E+01 0. -1.
         -5    1    3    3    0  501 -0.26224410835E+02 -0.12681227820E+02 -0.54200311205E+01  0.30000000000E+02  0.47000000000E+01 0.  1.
</event>
<event>
 5    1  0.7624361E-002  0.6000000E+02  0.7546771E-02  0.1259629E+00
         11   -1    0    0    0    0  0.00000000000E+00  0.00000000000E+00  0.30000000000E+02  0.30000000000E+02  0.00000000000E+00 0. -1.
        -11   -1    0    0    0    0 -0.00000000000E+00 -0.00000000000E+00 -0.30000000000E+02  0.30000000000E+02  0.00000000000E+00 0.  1.
         23    2    1    2    0    0  0.00000000000E+00  0.00000000000E+00  0.00000000000E+00  0.60000000000E+02  0.60000000000E+02 0.  0.
          5    1    3    3  501    0 -0.30711358648E+00 -0.43797262276E+01  0.29302451765E+02  0.30000000000E+02  0.47000000000E+01 0. -1.
         -5    1    3    3    0  501  0.30711358648E+00  0.43797262276E+01 -0.29302451765E+02  0.30000000000E+02  0.47000000000E+01 0.  1.
</event>
<event>
 5    1  0.7624361E-002  0.6000000E+02  0.7546771E-02  0.1259629E+00
         11   -1    0    0    0    0  0.00000000000E+00  0.00000000000E+00  0.30000000000E+02  0.30000000000E+02  0.00000000000E+00 0.  1.
        -11   -1    0    0    0    0 -0.00000000000E+00 -0.00000000000E+00 -0.30000000000E+02  0.30000000000E+02  0.00000000000E+00 0. -1.
         23    2    1    2    0    0  0.00000000000E+00  0.00000000000E+00  0.00000000000E+00  0.60000000000E+02  0.60000000000E+02 0.  0.
          5    1    3    3  501    0 -0.46843178629E+01 -0.16121874235E+01  0.29212463400E+02  0.30000000000E+02  0.47000000000E+01 0.  1.
         -5    1    3    3    0  501  0.46843178629E+01  0.16121874235E+01 -0.29212463400E+02  0.30000000000E+02  0.47000000000E+01 0. -1.
</event>
<event>
 5    1  0.7624361E-002  0.6000000E+02  0.7546771E-02  0.1259629E+00
         11   -1    0    0    0    0  0.00000000000E+00  0.00000000000E+00  0.30000000000E+02  0.30000000000E+02  0.00000000000E+00 0. -1.
        -11   -1    0    0    0    0 -0.00000000000E+00 -0.00000000000E+00 -0.30000000000E+02  0.30000000000E+02  0.00000000000E+00 0.  1.
         23    2    1    2    0    0  0.00000000000E+00  0.00000000000E+00  0.00000000000E+00  0.60000000000E+02  0.60000000000E+02 0.  0.
          5    1    3    3  501    0 -0.28291851544E+02  0.72165684188E+01 -0.50400671111E+01  0.30000000000E+02  0.47000000000E+01 0.  1.
         -5    1    3    3    0  501  0.28291851544E+02 -0.72165684188E+01  0.50400671111E+01  0.30000000000E+02  0.47000000000E+01 0. -1.
</event>
<event>
 5    1  0.7624361E-002  0.6000000E+02  0.7546771E-02  0.1259629E+00
         11   -1    0    0    0    0  0.00000000000E+00  0.00000000000E+00  0.30000000000E+02  0.30000000000E+02  0.00000000000E+00 0.  1.
        -11   -1    0    0    0    0 -0.00000000000E+00 -0.00000000000E+00 -0.30000000000E+02  0.30000000000E+02  0.00000000000E+00 0. -1.
         23    2    1    2    0    0  0.00000000000E+00  0.00000000000E+00  0.00000000000E+00  0.60000000000E+02  0.60000000000E+02 0.  0.
          5    1    3    3  501    0 -0.16891469929E+02 -0.43711596049E+01 -0.23947467660E+02  0.30000000000E+02  0.47000000000E+01 0. -1.
         -5    1    3    3    0  501  0.16891469929E+02  0.43711596049E+01  0.23947467660E+02  0.30000000000E+02  0.47000000000E+01 0.  1.
</event>
<event>
 5    1  0.7624361E-002  0.6000000E+02  0.7546771E-02  0.1259629E+00
         11   -1    0    0    0    0  0.00000000000E+00  0.00000000000E+00  0.30000000000E+02  0.30000000000E+02  0.00000000000E+00 0.  1.
        -11   -1    0    0    0    0 -0.00000000000E+00 -0.00000000000E+00 -0.30000000000E+02  0.30000000000E+02  0.00000000000E+00 0. -1.
         23    2    1    2    0    0  0.00000000000E+00  0.00000000000E+00  0.00000000000E+00  0.60000000000E+02  0.60000000000E+02 0.  0.
          5    1    3    3  501    0  0.25533013447E+02 -0.15032143982E+02 -0.99356013207E-01  0.30000000000E+02  0.47000000000E+01 0. -1.
         -5    1    3    3    0  501 -0.25533013447E+02  0.15032143982E+02  0.99356013207E-01  0.30000000000E+02  0.47000000000E+01 0.  1.
</event>
<event>
 5    1  0.7624361E-002  0.6000000E+02  0.7546771E-02  0.1259629E+00
         11   -1    0    0    0    0  0.00000000000E+00  0.00000000000E+00  0.30000000000E+02  0.30000000000E+02  0.00000000000E+00 0.  1.
        -11   -1    0    0    0    0 -0.00000000000E+00 -0.00000000000E+00 -0.30000000000E+02  0.30000000000E+02  0.00000000000E+00 0. -1.
         23    2    1    2    0    0  0.00000000000E+00  0.00000000000E+00  0.00000000000E+00  0.60000000000E+02  0.60000000000E+02 0.  0.
          5    1    3    3  501    0  0.44157471348E+01  0.74244302354E+01 -0.28342353694E+02  0.30000000000E+02  0.47000000000E+01 0. -1.
         -5    1    3    3    0  501 -0.44157471348E+01 -0.74244302354E+01  0.28342353694E+02  0.30000000000E+02  0.47000000000E+01 0.  1.
</event>
<event>
 5    1  0.7624361E-002  0.6000000E+02  0.7546771E-02  0.1259629E+00
         11   -1    0    0    0    0  0.00000000000E+00  0.00000000000E+00  0.30000000000E+02  0.30000000000E+02  0.00000000000E+00 0.  1.
        -11   -1    0    0    0    0 -0.00000000000E+00 -0.00000000000E+00 -0.30000000000E+02  0.30000000000E+02  0.00000000000E+00 0. -1.
         23    2    1    2    0    0  0.00000000000E+00  0.00000000000E+00  0.00000000000E+00  0.60000000000E+02  0.60000000000E+02 0.  0.
          5    1    3    3  501    0 -0.53693002499E+01  0.62759515855E+01 -0.28455105808E+02  0.30000000000E+02  0.47000000000E+01 0. -1.
         -5    1    3    3    0  501  0.53693002499E+01 -0.62759515855E+01  0.28455105808E+02  0.30000000000E+02  0.47000000000E+01 0.  1.
</event>
<event>
 5    1  0.7624361E-002  0.6000000E+02  0.7546771E-02  0.1259629E+00
         11   -1    0    0    0    0  0.00000000000E+00  0.00000000000E+00  0.30000000000E+02  0.30000000000E+02  0.00000000000E+00 0.  1.
        -11   -1    0    0    0    0 -0.00000000000E+00 -0.00000000000E+00 -0.30000000000E+02  0.30000000000E+02  0.00000000000E+00 0. -1.
         23    2    1    2    0    0  0.00000000000E+00  0.00000000000E+00  0.00000000000E+00  0.60000000000E+02  0.60000000000E+02 0.  0.
          5    1    3    3  501    0 -0.18605839799E+02 -0.11330316432E+02 -0.20083741059E+02  0.30000000000E+02  0.47000000000E+01 0. -1.
         -5    1    3    3    0  501  0.18605839799E+02  0.11330316432E+02  0.20083741059E+02  0.30000000000E+02  0.47000000000E+01 0.  1.
</event>
<event>
 5    1  0.7624361E-002  0.6000000E+02  0.7546771E-02  0.1259629E+00
         11   -1    0    0    0    0  0.00000000000E+00  0.00000000000E+00  0.30000000000E+02  0.30000000000E+02  0.00000000000E+00 0.  1.
        -11   -1    0    0    0    0 -0.00000000000E+00 -0.00000000000E+00 -0.30000000000E+02  0.30000000000E+02  0.00000000000E+00 0. -1.
         23    2    1    2    0    0  0.00000000000E+00  0.00000000000E+00  0.00000000000E+00  0.60000000000E+02  0.60000000000E+02 0.  0.
          5    1    3    3  501    0  0.26828462272E+02 -0.10999350401E+02  0.60957282484E+01  0.30000000000E+02  0.47000000000E+01 0. -1.
         -5    1    3    3    0  501 -0.26828462272E+02  0.10999350401E+02 -0.60957282484E+01  0.30000000000E+02  0.47000000000E+01 0.  1.
</event>
<event>
 5    1  0.7624361E-002  0.6000000E+02  0.7546771E-02  0.1259629E+00
         11   -1    0    0    0    0  0.00000000000E+00  0.00000000000E+00  0.30000000000E+02  0.30000000000E+02  0.00000000000E+00 0. -1.
        -11   -1    0    0    0    0 -0.00000000000E+00 -0.00000000000E+00 -0.30000000000E+02  0.30000000000E+02  0.00000000000E+00 0.  1.
         23    2    1    2    0    0  0.00000000000E+00  0.00000000000E+00  0.00000000000E+00  0.60000000000E+02  0.60000000000E+02 0.  0.
          5    1    3    3  501    0 -0.69608632750E+01  0.23091484454E+02 -0.17211616083E+02  0.30000000000E+02  0.47000000000E+01 0.  1.
         -5    1    3    3    0  501  0.69608632750E+01 -0.23091484454E+02  0.17211616083E+02  0.30000000000E+02  0.47000000000E+01 0. -1.
</event>
<event>
 5    1  0.7624361E-002  0.6000000E+02  0.7546771E-02  0.1259629E+00
         11   -1    0    0    0    0  0.00000000000E+00  0.00000000000E+00  0.30000000000E+02  0.30000000000E+02  0.00000000000E+00 0.  1.
        -11   -1    0    0    0    0 -0.00000000000E+00 -0.00000000000E+00 -0.30000000000E+02  0.30000000000E+02  0.00000000000E+00 0. -1.
         23    2    1    2    0    0  0.00000000000E+00  0.00000000000E+00  0.00000000000E+00  0.60000000000E+02  0.60000000000E+02 0.  0.
          5    1    3    3  501    0 -0.21724545976E+01  0.20795036341E+02 -0.20994211217E+02  0.30000000000E+02  0.47000000000E+01 0. -1.
         -5    1    3    3    0  501  0.21724545976E+01 -0.20795036341E+02  0.20994211217E+02  0.30000000000E+02  0.47000000000E+01 0.  1.
</event>
<event>
 5    1  0.7624361E-002  0.6000000E+02  0.7546771E-02  0.1259629E+00
         11   -1    0    0    0    0  0.00000000000E+00  0.00000000000E+00  0.30000000000E+02  0.30000000000E+02  0.00000000000E+00 0.  1.
        -11   -1    0    0    0    0 -0.00000000000E+00 -0.00000000000E+00 -0.30000000000E+02  0.30000000000E+02  0.00000000000E+00 0. -1.
         23    2    1    2    0    0  0.00000000000E+00  0.00000000000E+00  0.00000000000E+00  0.60000000000E+02  0.60000000000E+02 0.  0.
          5    1    3    3  501    0 -0.18024313302E+02 -0.23318734842E+02 -0.30447882287E+01  0.30000000000E+02  0.47000000000E+01 0. -1.
         -5    1    3    3    0  501  0.18024313302E+02  0.23318734842E+02  0.30447882287E+01  0.30000000000E+02  0.47000000000E+01 0.  1.
</event>
<event>
 5    1  0.7624361E-002  0.6000000E+02  0.7546771E-02  0.1259629E+00
         11   -1    0    0    0    0  0.00000000000E+00  0.00000000000E+00  0.30000000000E+02  0.30000000000E+02  0.00000000000E+00 0.  1.
        -11   -1    0    0    0    0 -0.00000000000E+00 -0.00000000000E+00 -0.30000000000E+02  0.30000000000E+02  0.00000000000E+00 0. -1.
         23    2    1    2    0    0  0.00000000000E+00  0.00000000000E+00  0.00000000000E+00  0.60000000000E+02  0.60000000000E+02 0.  0.
          5    1    3    3  501    0  0.29545069082E+02 -0.16847057383E+01 -0.14699182097E+01  0.30000000000E+02  0.47000000000E+01 0. -1.
         -5    1    3    3    0  501 -0.29545069082E+02  0.16847057383E+01  0.14699182097E+01  0.30000000000E+02  0.47000000000E+01 0.  1.
</event>
<event>
 5    1  0.7624361E-002  0.6000000E+02  0.7546771E-02  0.1259629E+00
         11   -1    0    0    0    0  0.00000000000E+00  0.00000000000E+00  0.30000000000E+02  0.30000000000E+02  0.00000000000E+00 0.  1.
        -11   -1    0    0    0    0 -0.00000000000E+00 -0.00000000000E+00 -0.30000000000E+02  0.30000000000E+02  0.00000000000E+00 0. -1.
         23    2    1    2    0    0  0.00000000000E+00  0.00000000000E+00  0.00000000000E+00  0.60000000000E+02  0.60000000000E+02 0.  0.
          5    1    3    3  501    0 -0.31511942406E+01 -0.80410598329E+01 -0.28342923837E+02  0.30000000000E+02  0.47000000000E+01 0. -1.
         -5    1    3    3    0  501  0.31511942406E+01  0.80410598329E+01  0.28342923837E+02  0.30000000000E+02  0.47000000000E+01 0.  1.
</event>
<event>
 5    1  0.7624361E-002  0.6000000E+02  0.7546771E-02  0.1259629E+00
         11   -1    0    0    0    0  0.00000000000E+00  0.00000000000E+00  0.30000000000E+02  0.30000000000E+02  0.00000000000E+00 0.  1.
        -11   -1    0    0    0    0 -0.00000000000E+00 -0.00000000000E+00 -0.30000000000E+02  0.30000000000E+02  0.00000000000E+00 0. -1.
         23    2    1    2    0    0  0.00000000000E+00  0.00000000000E+00  0.00000000000E+00  0.60000000000E+02  0.60000000000E+02 0.  0.
          5    1    3    3  501    0 -0.24750921252E+02 -0.84225037042E+01  0.13941424911E+02  0.30000000000E+02  0.47000000000E+01 0.  1.
         -5    1    3    3    0  501  0.24750921252E+02  0.84225037042E+01 -0.13941424911E+02  0.30000000000E+02  0.47000000000E+01 0. -1.
</event>
<event>
 5    1  0.7624361E-002  0.6000000E+02  0.7546771E-02  0.1259629E+00
         11   -1    0    0    0    0  0.00000000000E+00  0.00000000000E+00  0.30000000000E+02  0.30000000000E+02  0.00000000000E+00 0. -1.
        -11   -1    0    0    0    0 -0.00000000000E+00 -0.00000000000E+00 -0.30000000000E+02  0.30000000000E+02  0.00000000000E+00 0.  1.
         23    2    1    2    0    0  0.00000000000E+00  0.00000000000E+00  0.00000000000E+00  0.60000000000E+02  0.60000000000E+02 0.  0.
          5    1    3    3  501    0 -0.10841792624E+02  0.16833865276E+02 -0.21840020892E+02  0.30000000000E+02  0.47000000000E+01 0.  1.
         -5    1    3    3    0  501  0.10841792624E+02 -0.16833865276E+02  0.21840020892E+02  0.30000000000E+02  0.47000000000E+01 0. -1.
</event>
<event>
 5    1  0.7624361E-002  0.6000000E+02  0.7546771E-02  0.1259629E+00
         11   -1    0    0    0    0  0.00000000000E+00  0.00000000000E+00  0.30000000000E+02  0.30000000000E+02  0.00000000000E+00 0.  1.
        -11   -1    0    0    0    0 -0.00000000000E+00 -0.00000000000E+00 -0.30000000000E+02  0.30000000000E+02  0.00000000000E+00 0. -1.
         23    2    1    2    0    0  0.00000000000E+00  0.00000000000E+00  0.00000000000E+00  0.60000000000E+02  0.60000000000E+02 0.  0.
          5    1    3    3  501    0  0.71789191556E+01 -0.52310948348E+01 -0.28266743120E+02  0.30000000000E+02  0.47000000000E+01 0. -1.
         -5    1    3    3    0  501 -0.71789191556E+01  0.52310948348E+01  0.28266743120E+02  0.30000000000E+02  0.47000000000E+01 0.  1.
</event>
<event>
 5    1  0.7624361E-002  0.6000000E+02  0.7546771E-02  0.1259629E+00
         11   -1    0    0    0    0  0.00000000000E+00  0.00000000000E+00  0.30000000000E+02  0.30000000000E+02  0.00000000000E+00 0.  1.
        -11   -1    0    0    0    0 -0.00000000000E+00 -0.00000000000E+00 -0.30000000000E+02  0.30000000000E+02  0.00000000000E+00 0. -1.
         23    2    1    2    0    0  0.00000000000E+00  0.00000000000E+00  0.00000000000E+00  0.60000000000E+02  0.60000000000E+02 0.  0.
          5    1    3    3  501    0  0.14840871822E+02 -0.25060095736E+02  0.54451928577E+01  0.30000000000E+02  0.47000000000E+01 0. -1.
         -5    1    3    3    0  501 -0.14840871822E+02  0.25060095736E+02 -0.54451928577E+01  0.30000000000E+02  0.47000000000E+01 0.  1.
</event>
<event>
 5    1  0.7624361E-002  0.6000000E+02  0.7546771E-02  0.1259629E+00
         11   -1    0    0    0    0  0.00000000000E+00  0.00000000000E+00  0.30000000000E+02  0.30000000000E+02  0.00000000000E+00 0.  1.
        -11   -1    0    0    0    0 -0.00000000000E+00 -0.00000000000E+00 -0.30000000000E+02  0.30000000000E+02  0.00000000000E+00 0. -1.
         23    2    1    2    0    0  0.00000000000E+00  0.00000000000E+00  0.00000000000E+00  0.60000000000E+02  0.60000000000E+02 0.  0.
          5    1    3    3  501    0  0.68031747852E+01 -0.18513365442E+02 -0.22110678706E+02  0.30000000000E+02  0.47000000000E+01 0. -1.
         -5    1    3    3    0  501 -0.68031747852E+01  0.18513365442E+02  0.22110678706E+02  0.30000000000E+02  0.47000000000E+01 0.  1.
</event>
<event>
 5    1  0.7624361E-002  0.6000000E+02  0.7546771E-02  0.1259629E+00
         11   -1    0    0    0    0  0.00000000000E+00  0.00000000000E+00  0.30000000000E+02  0.30000000000E+02  0.00000000000E+00 0.  1.
        -11   -1    0    0    0    0 -0.00000000000E+00 -0.00000000000E+00 -0.30000000000E+02  0.30000000000E+02  0.00000000000E+00 0. -1.
         23    2    1    2    0    0  0.00000000000E+00  0.00000000000E+00  0.00000000000E+00  0.60000000000E+02  0.60000000000E+02 0.  0.
          5    1    3    3  501    0 -0.42534732993E+01  0.23050945445E+02 -0.18123793173E+02  0.30000000000E+02  0.47000000000E+01 0. -1.
         -5    1    3    3    0  501  0.42534732993E+01 -0.23050945445E+02  0.18123793173E+02  0.30000000000E+02  0.47000000000E+01 0.  1.
</event>
<event>
 5    1  0.7624361E-002  0.6000000E+02  0.7546771E-02  0.1259629E+00
         11   -1    0    0    0    0  0.00000000000E+00  0.00000000000E+00  0.30000000000E+02  0.30000000000E+02  0.00000000000E+00 0.  1.
        -11   -1    0    0    0    0 -0.00000000000E+00 -0.00000000000E+00 -0.30000000000E+02  0.30000000000E+02  0.00000000000E+00 0. -1.
         23    2    1    2    0    0  0.00000000000E+00  0.00000000000E+00  0.00000000000E+00  0.60000000000E+02  0.60000000000E+02 0.  0.
          5    1    3    3  501    0 -0.19425619806E+01 -0.25151544536E+02 -0.15541436884E+02  0.30000000000E+02  0.47000000000E+01 0. -1.
         -5    1    3    3    0  501  0.19425619806E+01  0.25151544536E+02  0.15541436884E+02  0.30000000000E+02  0.47000000000E+01 0.  1.
</event>
<event>
 5    1  0.7624361E-002  0.6000000E+02  0.7546771E-02  0.1259629E+00
         11   -1    0    0    0    0  0.00000000000E+00  0.00000000000E+00  0.30000000000E+02  0.30000000000E+02  0.00000000000E+00 0.  1.
        -11   -1    0    0    0    0 -0.00000000000E+00 -0.00000000000E+00 -0.30000000000E+02  0.30000000000E+02  0.00000000000E+00 0. -1.
         23    2    1    2    0    0  0.00000000000E+00  0.00000000000E+00  0.00000000000E+00  0.60000000000E+02  0.60000000000E+02 0.  0.
          5    1    3    3  501    0 -0.19197270935E+02 -0.11322342869E+02 -0.19523814704E+02  0.30000000000E+02  0.47000000000E+01 0. -1.
         -5    1    3    3    0  501  0.19197270935E+02  0.11322342869E+02  0.19523814704E+02  0.30000000000E+02  0.47000000000E+01 0.  1.
</event>
<event>
 5    1  0.7624361E-002  0.6000000E+02  0.7546771E-02  0.1259629E+00
         11   -1    0    0    0    0  0.00000000000E+00  0.00000000000E+00  0.30000000000E+02  0.30000000000E+02  0.00000000000E+00 0.  1.
        -11   -1    0    0    0    0 -0.00000000000E+00 -0.00000000000E+00 -0.30000000000E+02  0.30000000000E+02  0.00000000000E+00 0. -1.
         23    2    1    2    0    0  0.00000000000E+00  0.00000000000E+00  0.00000000000E+00  0.60000000000E+02  0.60000000000E+02 0.  0.
          5    1    3    3  501    0  0.24215839638E+02  0.13485222793E+02 -0.10471479211E+02  0.30000000000E+02  0.47000000000E+01 0. -1.
         -5    1    3    3    0  501 -0.24215839638E+02 -0.13485222793E+02  0.10471479211E+02  0.30000000000E+02  0.47000000000E+01 0.  1.
</event>
<event>
 5    1  0.7624361E-002  0.6000000E+02  0.7546771E-02  0.1259629E+00
         11   -1    0    0    0    0  0.00000000000E+00  0.00000000000E+00  0.30000000000E+02  0.30000000000E+02  0.00000000000E+00 0.  1.
        -11   -1    0    0    0    0 -0.00000000000E+00 -0.00000000000E+00 -0.30000000000E+02  0.30000000000E+02  0.00000000000E+00 0. -1.
         23    2    1    2    0    0  0.00000000000E+00  0.00000000000E+00  0.00000000000E+00  0.60000000000E+02  0.60000000000E+02 0.  0.
          5    1    3    3  501    0 -0.46365277156E+01  0.18337086603E+02 -0.22807101211E+02  0.30000000000E+02  0.47000000000E+01 0. -1.
         -5    1    3    3    0  501  0.46365277156E+01 -0.18337086603E+02  0.22807101211E+02  0.30000000000E+02  0.47000000000E+01 0.  1.
</event>
<event>
 5    1  0.7624361E-002  0.6000000E+02  0.7546771E-02  0.1259629E+00
         11   -1    0    0    0    0  0.00000000000E+00  0.00000000000E+00  0.30000000000E+02  0.30000000000E+02  0.00000000000E+00 0.  1.
        -11   -1    0    0    0    0 -0.00000000000E+00 -0.00000000000E+00 -0.30000000000E+02  0.30000000000E+02  0.00000000000E+00 0. -1.
         23    2    1    2    0    0  0.00000000000E+00  0.00000000000E+00  0.00000000000E+00  0.60000000000E+02  0.60000000000E+02 0.  0.
          5    1    3    3  501    0  0.15228853474E+02 -0.23185771092E+02 -0.10412110291E+02  0.30000000000E+02  0.47000000000E+01 0. -1.
         -5    1    3    3    0  501 -0.15228853474E+02  0.23185771092E+02  0.10412110291E+02  0.30000000000E+02  0.47000000000E+01 0.  1.
</event>
<event>
 5    1  0.7624361E-002  0.6000000E+02  0.7546771E-02  0.1259629E+00
         11   -1    0    0    0    0  0.00000000000E+00  0.00000000000E+00  0.30000000000E+02  0.30000000000E+02  0.00000000000E+00 0.  1.
        -11   -1    0    0    0    0 -0.00000000000E+00 -0.00000000000E+00 -0.30000000000E+02  0.30000000000E+02  0.00000000000E+00 0. -1.
         23    2    1    2    0    0  0.00000000000E+00  0.00000000000E+00  0.00000000000E+00  0.60000000000E+02  0.60000000000E+02 0.  0.
          5    1    3    3  501    0  0.50635918484E+01  0.75919271258E+01  0.28189229860E+02  0.30000000000E+02  0.47000000000E+01 0.  1.
         -5    1    3    3    0  501 -0.50635918484E+01 -0.75919271258E+01 -0.28189229860E+02  0.30000000000E+02  0.47000000000E+01 0. -1.
</event>
<event>
 5    1  0.7624361E-002  0.6000000E+02  0.7546771E-02  0.1259629E+00
         11   -1    0    0    0    0  0.00000000000E+00  0.00000000000E+00  0.30000000000E+02  0.30000000000E+02  0.00000000000E+00 0.  1.
        -11   -1    0    0    0    0 -0.00000000000E+00 -0.00000000000E+00 -0.30000000000E+02  0.30000000000E+02  0.00000000000E+00 0. -1.
         23    2    1    2    0    0  0.00000000000E+00  0.00000000000E+00  0.00000000000E+00  0.60000000000E+02  0.60000000000E+02 0.  0.
          5    1    3    3  501    0  0.21559791097E+02 -0.14820066478E+02 -0.13908667709E+02  0.30000000000E+02  0.47000000000E+01 0. -1.
         -5    1    3    3    0  501 -0.21559791097E+02  0.14820066478E+02  0.13908667709E+02  0.30000000000E+02  0.47000000000E+01 0.  1.
</event>
<event>
 5    1  0.7624361E-002  0.6000000E+02  0.7546771E-02  0.1259629E+00
         11   -1    0    0    0    0  0.00000000000E+00  0.00000000000E+00  0.30000000000E+02  0.30000000000E+02  0.00000000000E+00 0.  1.
        -11   -1    0    0    0    0 -0.00000000000E+00 -0.00000000000E+00 -0.30000000000E+02  0.30000000000E+02  0.00000000000E+00 0. -1.
         23    2    1    2    0    0  0.00000000000E+00  0.00000000000E+00  0.00000000000E+00  0.60000000000E+02  0.60000000000E+02 0.  0.
          5    1    3    3  501    0 -0.28270682433E+02  0.57120112474E+01 -0.67861212986E+01  0.30000000000E+02  0.47000000000E+01 0. -1.
         -5    1    3    3    0  501  0.28270682433E+02 -0.57120112474E+01  0.67861212986E+01  0.30000000000E+02  0.47000000000E+01 0.  1.
</event>
<event>
 5    1  0.7624361E-002  0.6000000E+02  0.7546771E-02  0.1259629E+00
         11   -1    0    0    0    0  0.00000000000E+00  0.00000000000E+00  0.30000000000E+02  0.30000000000E+02  0.00000000000E+00 0.  1.
        -11   -1    0    0    0    0 -0.00000000000E+00 -0.00000000000E+00 -0.30000000000E+02  0.30000000000E+02  0.00000000000E+00 0. -1.
         23    2    1    2    0    0  0.00000000000E+00  0.00000000000E+00  0.00000000000E+00  0.60000000000E+02  0.60000000000E+02 0.  0.
          5    1    3    3  501    0  0.26946700969E+02 -0.19058748615E+01  0.12171809557E+02  0.30000000000E+02  0.47000000000E+01 0.  1.
         -5    1    3    3    0  501 -0.26946700969E+02  0.19058748615E+01 -0.12171809557E+02  0.30000000000E+02  0.47000000000E+01 0. -1.
</event>
<event>
 5    1  0.7624361E-002  0.6000000E+02  0.7546771E-02  0.1259629E+00
         11   -1    0    0    0    0  0.00000000000E+00  0.00000000000E+00  0.30000000000E+02  0.30000000000E+02  0.00000000000E+00 0.  1.
        -11   -1    0    0    0    0 -0.00000000000E+00 -0.00000000000E+00 -0.30000000000E+02  0.30000000000E+02  0.00000000000E+00 0. -1.
         23    2    1    2    0    0  0.00000000000E+00  0.00000000000E+00  0.00000000000E+00  0.60000000000E+02  0.60000000000E+02 0.  0.
          5    1    3    3  501    0 -0.56589725353E+01 -0.12746237271E+02  0.26142292655E+02  0.30000000000E+02  0.47000000000E+01 0.  1.
         -5    1    3    3    0  501  0.56589725353E+01  0.12746237271E+02 -0.26142292655E+02  0.30000000000E+02  0.47000000000E+01 0. -1.
</event>
<event>
 5    1  0.7624361E-002  0.6000000E+02  0.7546771E-02  0.1259629E+00
         11   -1    0    0    0    0  0.00000000000E+00  0.00000000000E+00  0.30000000000E+02  0.30000000000E+02  0.00000000000E+00 0.  1.
        -11   -1    0    0    0    0 -0.00000000000E+00 -0.00000000000E+00 -0.30000000000E+02  0.30000000000E+02  0.00000000000E+00 0. -1.
         23    2    1    2    0    0  0.00000000000E+00  0.00000000000E+00  0.00000000000E+00  0.60000000000E+02  0.60000000000E+02 0.  0.
          5    1    3    3  501    0  0.37875160267E+01  0.19434918790E+02 -0.22041974820E+02  0.30000000000E+02  0.47000000000E+01 0. -1.
         -5    1    3    3    0  501 -0.37875160267E+01 -0.19434918790E+02  0.22041974820E+02  0.30000000000E+02  0.47000000000E+01 0.  1.
</event>
<event>
 5    1  0.7624361E-002  0.6000000E+02  0.7546771E-02  0.1259629E+00
         11   -1    0    0    0    0  0.00000000000E+00  0.00000000000E+00  0.30000000000E+02  0.30000000000E+02  0.00000000000E+00 0.  1.
        -11   -1    0    0    0    0 -0.00000000000E+00 -0.00000000000E+00 -0.30000000000E+02  0.30000000000E+02  0.00000000000E+00 0. -1.
         23    2    1    2    0    0  0.00000000000E+00  0.00000000000E+00  0.00000000000E+00  0.60000000000E+02  0.60000000000E+02 0.  0.
          5    1    3    3  501    0 -0.59021107934E-01  0.25026401644E+02 -0.15861454449E+02  0.30000000000E+02  0.47000000000E+01 0. -1.
         -5    1    3    3    0  501  0.59021107934E-01 -0.25026401644E+02  0.15861454449E+02  0.30000000000E+02  0.47000000000E+01 0.  1.
</event>
<event>
 5    1  0.7624361E-002  0.6000000E+02  0.7546771E-02  0.1259629E+00
         11   -1    0    0    0    0  0.00000000000E+00  0.00000000000E+00  0.30000000000E+02  0.30000000000E+02  0.00000000000E+00 0. -1.
        -11   -1    0    0    0    0 -0.00000000000E+00 -0.00000000000E+00 -0.30000000000E+02  0.30000000000E+02  0.00000000000E+00 0.  1.
         23    2    1    2    0    0  0.00000000000E+00  0.00000000000E+00  0.00000000000E+00  0.60000000000E+02  0.60000000000E+02 0.  0.
          5    1    3    3  501    0 -0.29949824210E+01 -0.12712184103E+02 -0.26595872906E+02  0.30000000000E+02  0.47000000000E+01 0.  1.
         -5    1    3    3    0  501  0.29949824210E+01  0.12712184103E+02  0.26595872906E+02  0.30000000000E+02  0.47000000000E+01 0. -1.
</event>
<event>
 5    1  0.7624361E-002  0.6000000E+02  0.7546771E-02  0.1259629E+00
         11   -1    0    0    0    0  0.00000000000E+00  0.00000000000E+00  0.30000000000E+02  0.30000000000E+02  0.00000000000E+00 0. -1.
        -11   -1    0    0    0    0 -0.00000000000E+00 -0.00000000000E+00 -0.30000000000E+02  0.30000000000E+02  0.00000000000E+00 0.  1.
         23    2    1    2    0    0  0.00000000000E+00  0.00000000000E+00  0.00000000000E+00  0.60000000000E+02  0.60000000000E+02 0.  0.
          5    1    3    3  501    0 -0.21288414594E+02  0.78299010291E+00 -0.20593696379E+02  0.30000000000E+02  0.47000000000E+01 0.  1.
         -5    1    3    3    0  501  0.21288414594E+02 -0.78299010291E+00  0.20593696379E+02  0.30000000000E+02  0.47000000000E+01 0. -1.
</event>
<event>
 5    1  0.7624361E-002  0.6000000E+02  0.7546771E-02  0.1259629E+00
         11   -1    0    0    0    0  0.00000000000E+00  0.00000000000E+00  0.30000000000E+02  0.30000000000E+02  0.00000000000E+00 0.  1.
        -11   -1    0    0    0    0 -0.00000000000E+00 -0.00000000000E+00 -0.30000000000E+02  0.30000000000E+02  0.00000000000E+00 0. -1.
         23    2    1    2    0    0  0.00000000000E+00  0.00000000000E+00  0.00000000000E+00  0.60000000000E+02  0.60000000000E+02 0.  0.
          5    1    3    3  501    0 -0.10503165358E+02  0.10750851125E+02 -0.25534539697E+02  0.30000000000E+02  0.47000000000E+01 0. -1.
         -5    1    3    3    0  501  0.10503165358E+02 -0.10750851125E+02  0.25534539697E+02  0.30000000000E+02  0.47000000000E+01 0.  1.
</event>
<event>
 5    1  0.7624361E-002  0.6000000E+02  0.7546771E-02  0.1259629E+00
         11   -1    0    0    0    0  0.00000000000E+00  0.00000000000E+00  0.30000000000E+02  0.30000000000E+02  0.00000000000E+00 0. -1.
        -11   -1    0    0    0    0 -0.00000000000E+00 -0.00000000000E+00 -0.30000000000E+02  0.30000000000E+02  0.00000000000E+00 0.  1.
         23    2    1    2    0    0  0.00000000000E+00  0.00000000000E+00  0.00000000000E+00  0.60000000000E+02  0.60000000000E+02 0.  0.
          5    1    3    3  501    0  0.16799314646E+02  0.23358940421E+02 -0.70748095254E+01  0.30000000000E+02  0.47000000000E+01 0. -1.
         -5    1    3    3    0  501 -0.16799314646E+02 -0.23358940421E+02  0.70748095254E+01  0.30000000000E+02  0.47000000000E+01 0.  1.
</event>
<event>
 5    1  0.7624361E-002  0.6000000E+02  0.7546771E-02  0.1259629E+00
         11   -1    0    0    0    0  0.00000000000E+00  0.00000000000E+00  0.30000000000E+02  0.30000000000E+02  0.00000000000E+00 0.  1.
        -11   -1    0    0    0    0 -0.00000000000E+00 -0.00000000000E+00 -0.30000000000E+02  0.30000000000E+02  0.00000000000E+00 0. -1.
         23    2    1    2    0    0  0.00000000000E+00  0.00000000000E+00  0.00000000000E+00  0.60000000000E+02  0.60000000000E+02 0.  0.
          5    1    3    3  501    0 -0.92806276920E+00 -0.26324566197E+02 -0.13567089372E+02  0.30000000000E+02  0.47000000000E+01 0. -1.
         -5    1    3    3    0  501  0.92806276920E+00  0.26324566197E+02  0.13567089372E+02  0.30000000000E+02  0.47000000000E+01 0.  1.
</event>
<event>
 5    1  0.7624361E-002  0.6000000E+02  0.7546771E-02  0.1259629E+00
         11   -1    0    0    0    0  0.00000000000E+00  0.00000000000E+00  0.30000000000E+02  0.30000000000E+02  0.00000000000E+00 0.  1.
        -11   -1    0    0    0    0 -0.00000000000E+00 -0.00000000000E+00 -0.30000000000E+02  0.30000000000E+02  0.00000000000E+00 0. -1.
         23    2    1    2    0    0  0.00000000000E+00  0.00000000000E+00  0.00000000000E+00  0.60000000000E+02  0.60000000000E+02 0.  0.
          5    1    3    3  501    0 -0.92755103485E+01 -0.22146988912E+02 -0.17360466293E+02  0.30000000000E+02  0.47000000000E+01 0. -1.
         -5    1    3    3    0  501  0.92755103485E+01  0.22146988912E+02  0.17360466293E+02  0.30000000000E+02  0.47000000000E+01 0.  1.
</event>
<event>
 5    1  0.7624361E-002  0.6000000E+02  0.7546771E-02  0.1259629E+00
         11   -1    0    0    0    0  0.00000000000E+00  0.00000000000E+00  0.30000000000E+02  0.30000000000E+02  0.00000000000E+00 0.  1.
        -11   -1    0    0    0    0 -0.00000000000E+00 -0.00000000000E+00 -0.30000000000E+02  0.30000000000E+02  0.00000000000E+00 0. -1.
         23    2    1    2    0    0  0.00000000000E+00  0.00000000000E+00  0.00000000000E+00  0.60000000000E+02  0.60000000000E+02 0.  0.
          5    1    3    3  501    0 -0.15628037626E+02 -0.22877187663E+02 -0.10502796037E+02  0.30000000000E+02  0.47000000000E+01 0. -1.
         -5    1    3    3    0  501  0.15628037626E+02  0.22877187663E+02  0.10502796037E+02  0.30000000000E+02  0.47000000000E+01 0.  1.
</event>
<event>
 5    1  0.7624361E-002  0.6000000E+02  0.7546771E-02  0.1259629E+00
         11   -1    0    0    0    0  0.00000000000E+00  0.00000000000E+00  0.30000000000E+02  0.30000000000E+02  0.00000000000E+00 0.  1.
        -11   -1    0    0    0    0 -0.00000000000E+00 -0.00000000000E+00 -0.30000000000E+02  0.30000000000E+02  0.00000000000E+00 0. -1.
         23    2    1    2    0    0  0.00000000000E+00  0.00000000000E+00  0.00000000000E+00  0.60000000000E+02  0.60000000000E+02 0.  0.
          5    1    3    3  501    0  0.25399064086E+01 -0.29035981494E+02 -0.53264109977E+01  0.30000000000E+02  0.47000000000E+01 0. -1.
         -5    1    3    3    0  501 -0.25399064086E+01  0.29035981494E+02  0.53264109977E+01  0.30000000000E+02  0.47000000000E+01 0.  1.
</event>
<event>
 5    1  0.7624361E-002  0.6000000E+02  0.7546771E-02  0.1259629E+00
         11   -1    0    0    0    0  0.00000000000E+00  0.00000000000E+00  0.30000000000E+02  0.30000000000E+02  0.00000000000E+00 0.  1.
        -11   -1    0    0    0    0 -0.00000000000E+00 -0.00000000000E+00 -0.30000000000E+02  0.30000000000E+02  0.00000000000E+00 0. -1.
         23    2    1    2    0    0  0.00000000000E+00  0.00000000000E+00  0.00000000000E+00  0.60000000000E+02  0.60000000000E+02 0.  0.
          5    1    3    3  501    0  0.26548942722E+02  0.82375397314E+01 -0.10257025860E+02  0.30000000000E+02  0.47000000000E+01 0. -1.
         -5    1    3    3    0  501 -0.26548942722E+02 -0.82375397314E+01  0.10257025860E+02  0.30000000000E+02  0.47000000000E+01 0.  1.
</event>
<event>
 5    1  0.7624361E-002  0.6000000E+02  0.7546771E-02  0.1259629E+00
         11   -1    0    0    0    0  0.00000000000E+00  0.00000000000E+00  0.30000000000E+02  0.30000000000E+02  0.00000000000E+00 0.  1.
        -11   -1    0    0    0    0 -0.00000000000E+00 -0.00000000000E+00 -0.30000000000E+02  0.30000000000E+02  0.00000000000E+00 0. -1.
         23    2    1    2    0    0  0.00000000000E+00  0.00000000000E+00  0.00000000000E+00  0.60000000000E+02  0.60000000000E+02 0.  0.
          5    1    3    3  501    0  0.11279144567E+02 -0.18981320446E+02 -0.19758551869E+02  0.30000000000E+02  0.47000000000E+01 0. -1.
         -5    1    3    3    0  501 -0.11279144567E+02  0.18981320446E+02  0.19758551869E+02  0.30000000000E+02  0.47000000000E+01 0.  1.
</event>
<event>
 5    1  0.7624361E-002  0.6000000E+02  0.7546771E-02  0.1259629E+00
         11   -1    0    0    0    0  0.00000000000E+00  0.00000000000E+00  0.30000000000E+02  0.30000000000E+02  0.00000000000E+00 0.  1.
        -11   -1    0    0    0    0 -0.00000000000E+00 -0.00000000000E+00 -0.30000000000E+02  0.30000000000E+02  0.00000000000E+00 0. -1.
         23    2    1    2    0    0  0.00000000000E+00  0.00000000000E+00  0.00000000000E+00  0.60000000000E+02  0.60000000000E+02 0.  0.
          5    1    3    3  501    0  0.27710330487E+01  0.16934157283E+02 -0.24155034526E+02  0.30000000000E+02  0.47000000000E+01 0. -1.
         -5    1    3    3    0  501 -0.27710330487E+01 -0.16934157283E+02  0.24155034526E+02  0.30000000000E+02  0.47000000000E+01 0.  1.
</event>
<event>
 5    1  0.7624361E-002  0.6000000E+02  0.7546771E-02  0.1259629E+00
         11   -1    0    0    0    0  0.00000000000E+00  0.00000000000E+00  0.30000000000E+02  0.30000000000E+02  0.00000000000E+00 0. -1.
        -11   -1    0    0    0    0 -0.00000000000E+00 -0.00000000000E+00 -0.30000000000E+02  0.30000000000E+02  0.00000000000E+00 0.  1.
         23    2    1    2    0    0  0.00000000000E+00  0.00000000000E+00  0.00000000000E+00  0.60000000000E+02  0.60000000000E+02 0.  0.
          5    1    3    3  501    0  0.22301257898E+02  0.15890857521E+02  0.11315676888E+02  0.30000000000E+02  0.47000000000E+01 0.  1.
         -5    1    3    3    0  501 -0.22301257898E+02 -0.15890857521E+02 -0.11315676888E+02  0.30000000000E+02  0.47000000000E+01 0. -1.
</event>
<event>
 5    1  0.7624361E-002  0.6000000E+02  0.7546771E-02  0.1259629E+00
         11   -1    0    0    0    0  0.00000000000E+00  0.00000000000E+00  0.30000000000E+02  0.30000000000E+02  0.00000000000E+00 0.  1.
        -11   -1    0    0    0    0 -0.00000000000E+00 -0.00000000000E+00 -0.30000000000E+02  0.30000000000E+02  0.00000000000E+00 0. -1.
         23    2    1    2    0    0  0.00000000000E+00  0.00000000000E+00  0.00000000000E+00  0.60000000000E+02  0.60000000000E+02 0.  0.
          5    1    3    3  501    0  0.27208800736E+02 -0.10505256009E+02  0.52183099487E+01  0.30000000000E+02  0.47000000000E+01 0. -1.
         -5    1    3    3    0  501 -0.27208800736E+02  0.10505256009E+02 -0.52183099487E+01  0.30000000000E+02  0.47000000000E+01 0.  1.
</event>
<event>
 5    1  0.7624361E-002  0.6000000E+02  0.7546771E-02  0.1259629E+00
         11   -1    0    0    0    0  0.00000000000E+00  0.00000000000E+00  0.30000000000E+02  0.30000000000E+02  0.00000000000E+00 0.  1.
        -11   -1    0    0    0    0 -0.00000000000E+00 -0.00000000000E+00 -0.30000000000E+02  0.30000000000E+02  0.00000000000E+00 0. -1.
         23    2    1    2    0    0  0.00000000000E+00  0.00000000000E+00  0.00000000000E+00  0.60000000000E+02  0.60000000000E+02 0.  0.
          5    1    3    3  501    0 -0.70611152391E+01  0.12541290306E+02 -0.25899163868E+02  0.30000000000E+02  0.47000000000E+01 0. -1.
         -5    1    3    3    0  501  0.70611152391E+01 -0.12541290306E+02  0.25899163868E+02  0.30000000000E+02  0.47000000000E+01 0.  1.
</event>
<event>
 5    1  0.7624361E-002  0.6000000E+02  0.7546771E-02  0.1259629E+00
         11   -1    0    0    0    0  0.00000000000E+00  0.00000000000E+00  0.30000000000E+02  0.30000000000E+02  0.00000000000E+00 0.  1.
        -11   -1    0    0    0    0 -0.00000000000E+00 -0.00000000000E+00 -0.30000000000E+02  0.30000000000E+02  0.00000000000E+00 0. -1.
         23    2    1    2    0    0  0.00000000000E+00  0.00000000000E+00  0.00000000000E+00  0.60000000000E+02  0.60000000000E+02 0.  0.
          5    1    3    3  501    0  0.95099114358E+01 -0.13084821227E+02 -0.24824565211E+02  0.30000000000E+02  0.47000000000E+01 0. -1.
         -5    1    3    3    0  501 -0.95099114358E+01  0.13084821227E+02  0.24824565211E+02  0.30000000000E+02  0.47000000000E+01 0.  1.
</event>
<event>
 5    1  0.7624361E-002  0.6000000E+02  0.7546771E-02  0.1259629E+00
         11   -1    0    0    0    0  0.00000000000E+00  0.00000000000E+00  0.30000000000E+02  0.30000000000E+02  0.00000000000E+00 0.  1.
        -11   -1    0    0    0    0 -0.00000000000E+00 -0.00000000000E+00 -0.30000000000E+02  0.30000000000E+02  0.00000000000E+00 0. -1.
         23    2    1    2    0    0  0.00000000000E+00  0.00000000000E+00  0.00000000000E+00  0.60000000000E+02  0.60000000000E+02 0.  0.
          5    1    3    3  501    0 -0.13801609061E+02 -0.25004267655E+02  0.78874702139E+01  0.30000000000E+02  0.47000000000E+01 0. -1.
         -5    1    3    3    0  501  0.13801609061E+02  0.25004267655E+02 -0.78874702139E+01  0.30000000000E+02  0.47000000000E+01 0.  1.
</event>
<event>
 5    1  0.7624361E-002  0.6000000E+02  0.7546771E-02  0.1259629E+00
         11   -1    0    0    0    0  0.00000000000E+00  0.00000000000E+00  0.30000000000E+02  0.30000000000E+02  0.00000000000E+00 0.  1.
        -11   -1    0    0    0    0 -0.00000000000E+00 -0.00000000000E+00 -0.30000000000E+02  0.30000000000E+02  0.00000000000E+00 0. -1.
         23    2    1    2    0    0  0.00000000000E+00  0.00000000000E+00  0.00000000000E+00  0.60000000000E+02  0.60000000000E+02 0.  0.
          5    1    3    3  501    0  0.26884535463E+02 -0.51705363822E+01 -0.11331253527E+02  0.30000000000E+02  0.47000000000E+01 0. -1.
         -5    1    3    3    0  501 -0.26884535463E+02  0.51705363822E+01  0.11331253527E+02  0.30000000000E+02  0.47000000000E+01 0.  1.
</event>
<event>
 5    1  0.7624361E-002  0.6000000E+02  0.7546771E-02  0.1259629E+00
         11   -1    0    0    0    0  0.00000000000E+00  0.00000000000E+00  0.30000000000E+02  0.30000000000E+02  0.00000000000E+00 0.  1.
        -11   -1    0    0    0    0 -0.00000000000E+00 -0.00000000000E+00 -0.30000000000E+02  0.30000000000E+02  0.00000000000E+00 0. -1.
         23    2    1    2    0    0  0.00000000000E+00  0.00000000000E+00  0.00000000000E+00  0.60000000000E+02  0.60000000000E+02 0.  0.
          5    1    3    3  501    0  0.19676058492E+02  0.41624447042E+01 -0.21758602352E+02  0.30000000000E+02  0.47000000000E+01 0. -1.
         -5    1    3    3    0  501 -0.19676058492E+02 -0.41624447042E+01  0.21758602352E+02  0.30000000000E+02  0.47000000000E+01 0.  1.
</event>
<event>
 5    1  0.7624361E-002  0.6000000E+02  0.7546771E-02  0.1259629E+00
         11   -1    0    0    0    0  0.00000000000E+00  0.00000000000E+00  0.30000000000E+02  0.30000000000E+02  0.00000000000E+00 0. -1.
        -11   -1    0    0    0    0 -0.00000000000E+00 -0.00000000000E+00 -0.30000000000E+02  0.30000000000E+02  0.00000000000E+00 0.  1.
         23    2    1    2    0    0  0.00000000000E+00  0.00000000000E+00  0.00000000000E+00  0.60000000000E+02  0.60000000000E+02 0.  0.
          5    1    3    3  501    0  0.18906683670E+02  0.22630321222E+02  0.28837257153E+01  0.30000000000E+02  0.47000000000E+01 0.  1.
         -5    1    3    3    0  501 -0.18906683670E+02 -0.22630321222E+02 -0.28837257153E+01  0.30000000000E+02  0.47000000000E+01 0. -1.
</event>
<event>
 5    1  0.7624361E-002  0.6000000E+02  0.7546771E-02  0.1259629E+00
         11   -1    0    0    0    0  0.00000000000E+00  0.00000000000E+00  0.30000000000E+02  0.30000000000E+02  0.00000000000E+00 0.  1.
        -11   -1    0    0    0    0 -0.00000000000E+00 -0.00000000000E+00 -0.30000000000E+02  0.30000000000E+02  0.00000000000E+00 0. -1.
         23    2    1    2    0    0  0.00000000000E+00  0.00000000000E+00  0.00000000000E+00  0.60000000000E+02  0.60000000000E+02 0.  0.
          5    1    3    3  501    0  0.84279751015E+01  0.22916957448E+02 -0.16783691400E+02  0.30000000000E+02  0.47000000000E+01 0. -1.
         -5    1    3    3    0  501 -0.84279751015E+01 -0.22916957448E+02  0.16783691400E+02  0.30000000000E+02  0.47000000000E+01 0.  1.
</event>
<event>
 5    1  0.7624361E-002  0.6000000E+02  0.7546771E-02  0.1259629E+00
         11   -1    0    0    0    0  0.00000000000E+00  0.00000000000E+00  0.30000000000E+02  0.30000000000E+02  0.00000000000E+00 0.  1.
        -11   -1    0    0    0    0 -0.00000000000E+00 -0.00000000000E+00 -0.30000000000E+02  0.30000000000E+02  0.00000000000E+00 0. -1.
         23    2    1    2    0    0  0.00000000000E+00  0.00000000000E+00  0.00000000000E+00  0.60000000000E+02  0.60000000000E+02 0.  0.
          5    1    3    3  501    0  0.42800358182E+01  0.21547563534E+02 -0.19881996860E+02  0.30000000000E+02  0.47000000000E+01 0. -1.
         -5    1    3    3    0  501 -0.42800358182E+01 -0.21547563534E+02  0.19881996860E+02  0.30000000000E+02  0.47000000000E+01 0.  1.
</event>
<event>
 5    1  0.7624361E-002  0.6000000E+02  0.7546771E-02  0.1259629E+00
         11   -1    0    0    0    0  0.00000000000E+00  0.00000000000E+00  0.30000000000E+02  0.30000000000E+02  0.00000000000E+00 0.  1.
        -11   -1    0    0    0    0 -0.00000000000E+00 -0.00000000000E+00 -0.30000000000E+02  0.30000000000E+02  0.00000000000E+00 0. -1.
         23    2    1    2    0    0  0.00000000000E+00  0.00000000000E+00  0.00000000000E+00  0.60000000000E+02  0.60000000000E+02 0.  0.
          5    1    3    3  501    0 -0.14550967428E+01  0.20513855357E+02 -0.21330129673E+02  0.30000000000E+02  0.47000000000E+01 0. -1.
         -5    1    3    3    0  501  0.14550967428E+01 -0.20513855357E+02  0.21330129673E+02  0.30000000000E+02  0.47000000000E+01 0.  1.
</event>
<event>
 5    1  0.7624361E-002  0.6000000E+02  0.7546771E-02  0.1259629E+00
         11   -1    0    0    0    0  0.00000000000E+00  0.00000000000E+00  0.30000000000E+02  0.30000000000E+02  0.00000000000E+00 0. -1.
        -11   -1    0    0    0    0 -0.00000000000E+00 -0.00000000000E+00 -0.30000000000E+02  0.30000000000E+02  0.00000000000E+00 0.  1.
         23    2    1    2    0    0  0.00000000000E+00  0.00000000000E+00  0.00000000000E+00  0.60000000000E+02  0.60000000000E+02 0.  0.
          5    1    3    3  501    0  0.23621010126E+02  0.17771403683E+02  0.20334925093E+01  0.30000000000E+02  0.47000000000E+01 0.  1.
         -5    1    3    3    0  501 -0.23621010126E+02 -0.17771403683E+02 -0.20334925093E+01  0.30000000000E+02  0.47000000000E+01 0. -1.
</event>
<event>
 5    1  0.7624361E-002  0.6000000E+02  0.7546771E-02  0.1259629E+00
         11   -1    0    0    0    0  0.00000000000E+00  0.00000000000E+00  0.30000000000E+02  0.30000000000E+02  0.00000000000E+00 0.  1.
        -11   -1    0    0    0    0 -0.00000000000E+00 -0.00000000000E+00 -0.30000000000E+02  0.30000000000E+02  0.00000000000E+00 0. -1.
         23    2    1    2    0    0  0.00000000000E+00  0.00000000000E+00  0.00000000000E+00  0.60000000000E+02  0.60000000000E+02 0.  0.
          5    1    3    3  501    0 -0.14360250190E+02 -0.11482529950E+02 -0.23234558753E+02  0.30000000000E+02  0.47000000000E+01 0. -1.
         -5    1    3    3    0  501  0.14360250190E+02  0.11482529950E+02  0.23234558753E+02  0.30000000000E+02  0.47000000000E+01 0.  1.
</event>
<event>
 5    1  0.7624361E-002  0.6000000E+02  0.7546771E-02  0.1259629E+00
         11   -1    0    0    0    0  0.00000000000E+00  0.00000000000E+00  0.30000000000E+02  0.30000000000E+02  0.00000000000E+00 0.  1.
        -11   -1    0    0    0    0 -0.00000000000E+00 -0.00000000000E+00 -0.30000000000E+02  0.30000000000E+02  0.00000000000E+00 0. -1.
         23    2    1    2    0    0  0.00000000000E+00  0.00000000000E+00  0.00000000000E+00  0.60000000000E+02  0.60000000000E+02 0.  0.
          5    1    3    3  501    0 -0.10358864713E+01  0.29611263008E+02  0.10021117862E+00  0.30000000000E+02  0.47000000000E+01 0.  1.
         -5    1    3    3    0  501  0.10358864713E+01 -0.29611263008E+02 -0.10021117862E+00  0.30000000000E+02  0.47000000000E+01 0. -1.
</event>
<event>
 5    1  0.7624361E-002  0.6000000E+02  0.7546771E-02  0.1259629E+00
         11   -1    0    0    0    0  0.00000000000E+00  0.00000000000E+00  0.30000000000E+02  0.30000000000E+02  0.00000000000E+00 0.  1.
        -11   -1    0    0    0    0 -0.00000000000E+00 -0.00000000000E+00 -0.30000000000E+02  0.30000000000E+02  0.00000000000E+00 0. -1.
         23    2    1    2    0    0  0.00000000000E+00  0.00000000000E+00  0.00000000000E+00  0.60000000000E+02  0.60000000000E+02 0.  0.
          5    1    3    3  501    0  0.63810226872E+01  0.35220648788E+01 -0.28719115732E+02  0.30000000000E+02  0.47000000000E+01 0. -1.
         -5    1    3    3    0  501 -0.63810226872E+01 -0.35220648788E+01  0.28719115732E+02  0.30000000000E+02  0.47000000000E+01 0.  1.
</event>
<event>
 5    1  0.7624361E-002  0.6000000E+02  0.7546771E-02  0.1259629E+00
         11   -1    0    0    0    0  0.00000000000E+00  0.00000000000E+00  0.30000000000E+02  0.30000000000E+02  0.00000000000E+00 0.  1.
        -11   -1    0    0    0    0 -0.00000000000E+00 -0.00000000000E+00 -0.30000000000E+02  0.30000000000E+02  0.00000000000E+00 0. -1.
         23    2    1    2    0    0  0.00000000000E+00  0.00000000000E+00  0.00000000000E+00  0.60000000000E+02  0.60000000000E+02 0.  0.
          5    1    3    3  501    0 -0.11171966593E+02 -0.16783838386E+02 -0.21711746394E+02  0.30000000000E+02  0.47000000000E+01 0. -1.
         -5    1    3    3    0  501  0.11171966593E+02  0.16783838386E+02  0.21711746394E+02  0.30000000000E+02  0.47000000000E+01 0.  1.
</event>
<event>
 5    1  0.7624361E-002  0.6000000E+02  0.7546771E-02  0.1259629E+00
         11   -1    0    0    0    0  0.00000000000E+00  0.00000000000E+00  0.30000000000E+02  0.30000000000E+02  0.00000000000E+00 0.  1.
        -11   -1    0    0    0    0 -0.00000000000E+00 -0.00000000000E+00 -0.30000000000E+02  0.30000000000E+02  0.00000000000E+00 0. -1.
         23    2    1    2    0    0  0.00000000000E+00  0.00000000000E+00  0.00000000000E+00  0.60000000000E+02  0.60000000000E+02 0.  0.
          5    1    3    3  501    0 -0.25978090121E+02 -0.65300615241E+01  0.12665193649E+02  0.30000000000E+02  0.47000000000E+01 0. -1.
         -5    1    3    3    0  501  0.25978090121E+02  0.65300615241E+01 -0.12665193649E+02  0.30000000000E+02  0.47000000000E+01 0.  1.
</event>
<event>
 5    1  0.7624361E-002  0.6000000E+02  0.7546771E-02  0.1259629E+00
         11   -1    0    0    0    0  0.00000000000E+00  0.00000000000E+00  0.30000000000E+02  0.30000000000E+02  0.00000000000E+00 0.  1.
        -11   -1    0    0    0    0 -0.00000000000E+00 -0.00000000000E+00 -0.30000000000E+02  0.30000000000E+02  0.00000000000E+00 0. -1.
         23    2    1    2    0    0  0.00000000000E+00  0.00000000000E+00  0.00000000000E+00  0.60000000000E+02  0.60000000000E+02 0.  0.
          5    1    3    3  501    0 -0.13708249792E+02  0.13584058037E+02 -0.22482598936E+02  0.30000000000E+02  0.47000000000E+01 0. -1.
         -5    1    3    3    0  501  0.13708249792E+02 -0.13584058037E+02  0.22482598936E+02  0.30000000000E+02  0.47000000000E+01 0.  1.
</event>
<event>
 5    1  0.7624361E-002  0.6000000E+02  0.7546771E-02  0.1259629E+00
         11   -1    0    0    0    0  0.00000000000E+00  0.00000000000E+00  0.30000000000E+02  0.30000000000E+02  0.00000000000E+00 0.  1.
        -11   -1    0    0    0    0 -0.00000000000E+00 -0.00000000000E+00 -0.30000000000E+02  0.30000000000E+02  0.00000000000E+00 0. -1.
         23    2    1    2    0    0  0.00000000000E+00  0.00000000000E+00  0.00000000000E+00  0.60000000000E+02  0.60000000000E+02 0.  0.
          5    1    3    3  501    0 -0.15974262345E+02 -0.81547532311E+01 -0.23584591204E+02  0.30000000000E+02  0.47000000000E+01 0. -1.
         -5    1    3    3    0  501  0.15974262345E+02  0.81547532311E+01  0.23584591204E+02  0.30000000000E+02  0.47000000000E+01 0.  1.
</event>
<event>
 5    1  0.7624361E-002  0.6000000E+02  0.7546771E-02  0.1259629E+00
         11   -1    0    0    0    0  0.00000000000E+00  0.00000000000E+00  0.30000000000E+02  0.30000000000E+02  0.00000000000E+00 0.  1.
        -11   -1    0    0    0    0 -0.00000000000E+00 -0.00000000000E+00 -0.30000000000E+02  0.30000000000E+02  0.00000000000E+00 0. -1.
         23    2    1    2    0    0  0.00000000000E+00  0.00000000000E+00  0.00000000000E+00  0.60000000000E+02  0.60000000000E+02 0.  0.
          5    1    3    3  501    0  0.21400059296E+02 -0.19376407279E+02 -0.66710046521E+01  0.30000000000E+02  0.47000000000E+01 0. -1.
         -5    1    3    3    0  501 -0.21400059296E+02  0.19376407279E+02  0.66710046521E+01  0.30000000000E+02  0.47000000000E+01 0.  1.
</event>
<event>
 5    1  0.7624361E-002  0.6000000E+02  0.7546771E-02  0.1259629E+00
         11   -1    0    0    0    0  0.00000000000E+00  0.00000000000E+00  0.30000000000E+02  0.30000000000E+02  0.00000000000E+00 0.  1.
        -11   -1    0    0    0    0 -0.00000000000E+00 -0.00000000000E+00 -0.30000000000E+02  0.30000000000E+02  0.00000000000E+00 0. -1.
         23    2    1    2    0    0  0.00000000000E+00  0.00000000000E+00  0.00000000000E+00  0.60000000000E+02  0.60000000000E+02 0.  0.
          5    1    3    3  501    0 -0.15210653461E+01  0.60306437235E+01 -0.28969426927E+02  0.30000000000E+02  0.47000000000E+01 0. -1.
         -5    1    3    3    0  501  0.15210653461E+01 -0.60306437235E+01  0.28969426927E+02  0.30000000000E+02  0.47000000000E+01 0.  1.
</event>
<event>
 5    1  0.7624361E-002  0.6000000E+02  0.7546771E-02  0.1259629E+00
         11   -1    0    0    0    0  0.00000000000E+00  0.00000000000E+00  0.30000000000E+02  0.30000000000E+02  0.00000000000E+00 0. -1.
        -11   -1    0    0    0    0 -0.00000000000E+00 -0.00000000000E+00 -0.30000000000E+02  0.30000000000E+02  0.00000000000E+00 0.  1.
         23    2    1    2    0    0  0.00000000000E+00  0.00000000000E+00  0.00000000000E+00  0.60000000000E+02  0.60000000000E+02 0.  0.
          5    1    3    3  501    0  0.16874112329E+02 -0.11808571424E+01 -0.24326526869E+02  0.30000000000E+02  0.47000000000E+01 0.  1.
         -5    1    3    3    0  501 -0.16874112329E+02  0.11808571424E+01  0.24326526869E+02  0.30000000000E+02  0.47000000000E+01 0. -1.
</event>
<event>
 5    1  0.7624361E-002  0.6000000E+02  0.7546771E-02  0.1259629E+00
         11   -1    0    0    0    0  0.00000000000E+00  0.00000000000E+00  0.30000000000E+02  0.30000000000E+02  0.00000000000E+00 0.  1.
        -11   -1    0    0    0    0 -0.00000000000E+00 -0.00000000000E+00 -0.30000000000E+02  0.30000000000E+02  0.00000000000E+00 0. -1.
         23    2    1    2    0    0  0.00000000000E+00  0.00000000000E+00  0.00000000000E+00  0.60000000000E+02  0.60000000000E+02 0.  0.
          5    1    3    3  501    0 -0.31140018192E+01 -0.28679987938E+02 -0.67580533122E+01  0.30000000000E+02  0.47000000000E+01 0. -1.
         -5    1    3    3    0  501  0.31140018192E+01  0.28679987938E+02  0.67580533122E+01  0.30000000000E+02  0.47000000000E+01 0.  1.
</event>
<event>
 5    1  0.7624361E-002  0.6000000E+02  0.7546771E-02  0.1259629E+00
         11   -1    0    0    0    0  0.00000000000E+00  0.00000000000E+00  0.30000000000E+02  0.30000000000E+02  0.00000000000E+00 0.  1.
        -11   -1    0    0    0    0 -0.00000000000E+00 -0.00000000000E+00 -0.30000000000E+02  0.30000000000E+02  0.00000000000E+00 0. -1.
         23    2    1    2    0    0  0.00000000000E+00  0.00000000000E+00  0.00000000000E+00  0.60000000000E+02  0.60000000000E+02 0.  0.
          5    1    3    3  501    0  0.17278245852E+02  0.15380852375E+02 -0.18514902120E+02  0.30000000000E+02  0.47000000000E+01 0. -1.
         -5    1    3    3    0  501 -0.17278245852E+02 -0.15380852375E+02  0.18514902120E+02  0.30000000000E+02  0.47000000000E+01 0.  1.
</event>
<event>
 5    1  0.7624361E-002  0.6000000E+02  0.7546771E-02  0.1259629E+00
         11   -1    0    0    0    0  0.00000000000E+00  0.00000000000E+00  0.30000000000E+02  0.30000000000E+02  0.00000000000E+00 0.  1.
        -11   -1    0    0    0    0 -0.00000000000E+00 -0.00000000000E+00 -0.30000000000E+02  0.30000000000E+02  0.00000000000E+00 0. -1.
         23    2    1    2    0    0  0.00000000000E+00  0.00000000000E+00  0.00000000000E+00  0.60000000000E+02  0.60000000000E+02 0.  0.
          5    1    3    3  501    0 -0.24011213323E+02 -0.16857279168E+02 -0.41477432222E+01  0.30000000000E+02  0.47000000000E+01 0. -1.
         -5    1    3    3    0  501  0.24011213323E+02  0.16857279168E+02  0.41477432222E+01  0.30000000000E+02  0.47000000000E+01 0.  1.
</event>
<event>
 5    1  0.7624361E-002  0.6000000E+02  0.7546771E-02  0.1259629E+00
         11   -1    0    0    0    0  0.00000000000E+00  0.00000000000E+00  0.30000000000E+02  0.30000000000E+02  0.00000000000E+00 0.  1.
        -11   -1    0    0    0    0 -0.00000000000E+00 -0.00000000000E+00 -0.30000000000E+02  0.30000000000E+02  0.00000000000E+00 0. -1.
         23    2    1    2    0    0  0.00000000000E+00  0.00000000000E+00  0.00000000000E+00  0.60000000000E+02  0.60000000000E+02 0.  0.
          5    1    3    3  501    0 -0.28562405377E+02 -0.55391055969E+01 -0.56051144751E+01  0.30000000000E+02  0.47000000000E+01 0. -1.
         -5    1    3    3    0  501  0.28562405377E+02  0.55391055969E+01  0.56051144751E+01  0.30000000000E+02  0.47000000000E+01 0.  1.
</event>
<event>
 5    1  0.7624361E-002  0.6000000E+02  0.7546771E-02  0.1259629E+00
         11   -1    0    0    0    0  0.00000000000E+00  0.00000000000E+00  0.30000000000E+02  0.30000000000E+02  0.00000000000E+00 0.  1.
        -11   -1    0    0    0    0 -0.00000000000E+00 -0.00000000000E+00 -0.30000000000E+02  0.30000000000E+02  0.00000000000E+00 0. -1.
         23    2    1    2    0    0  0.00000000000E+00  0.00000000000E+00  0.00000000000E+00  0.60000000000E+02  0.60000000000E+02 0.  0.
          5    1    3    3  501    0  0.18729767569E+01  0.29499617770E+02  0.20431616428E+01  0.30000000000E+02  0.47000000000E+01 0. -1.
         -5    1    3    3    0  501 -0.18729767569E+01 -0.29499617770E+02 -0.20431616428E+01  0.30000000000E+02  0.47000000000E+01 0.  1.
</event>
<event>
 5    1  0.7624361E-002  0.6000000E+02  0.7546771E-02  0.1259629E+00
         11   -1    0    0    0    0  0.00000000000E+00  0.00000000000E+00  0.30000000000E+02  0.30000000000E+02  0.00000000000E+00 0.  1.
        -11   -1    0    0    0    0 -0.00000000000E+00 -0.00000000000E+00 -0.30000000000E+02  0.30000000000E+02  0.00000000000E+00 0. -1.
         23    2    1    2    0    0  0.00000000000E+00  0.00000000000E+00  0.00000000000E+00  0.60000000000E+02  0.60000000000E+02 0.  0.
          5    1    3    3  501    0 -0.30316052636E+01  0.40761801459E+00  0.29471226935E+02  0.30000000000E+02  0.47000000000E+01 0.  1.
         -5    1    3    3    0  501  0.30316052636E+01 -0.40761801459E+00 -0.29471226935E+02  0.30000000000E+02  0.47000000000E+01 0. -1.
</event>
<event>
 5    1  0.7624361E-002  0.6000000E+02  0.7546771E-02  0.1259629E+00
         11   -1    0    0    0    0  0.00000000000E+00  0.00000000000E+00  0.30000000000E+02  0.30000000000E+02  0.00000000000E+00 0. -1.
        -11   -1    0    0    0    0 -0.00000000000E+00 -0.00000000000E+00 -0.30000000000E+02  0.30000000000E+02  0.00000000000E+00 0.  1.
         23    2    1    2    0    0  0.00000000000E+00  0.00000000000E+00  0.00000000000E+00  0.60000000000E+02  0.60000000000E+02 0.  0.
          5    1    3    3  501    0 -0.18359730846E+02 -0.18936858405E+02 -0.13499099118E+02  0.30000000000E+02  0.47000000000E+01 0.  1.
         -5    1    3    3    0  501  0.18359730846E+02  0.18936858405E+02  0.13499099118E+02  0.30000000000E+02  0.47000000000E+01 0. -1.
</event>
<event>
 5    1  0.7624361E-002  0.6000000E+02  0.7546771E-02  0.1259629E+00
         11   -1    0    0    0    0  0.00000000000E+00  0.00000000000E+00  0.30000000000E+02  0.30000000000E+02  0.00000000000E+00 0. -1.
        -11   -1    0    0    0    0 -0.00000000000E+00 -0.00000000000E+00 -0.30000000000E+02  0.30000000000E+02  0.00000000000E+00 0.  1.
         23    2    1    2    0    0  0.00000000000E+00  0.00000000000E+00  0.00000000000E+00  0.60000000000E+02  0.60000000000E+02 0.  0.
          5    1    3    3  501    0  0.28838288704E+02 -0.26975352724E+01  0.62439096777E+01  0.30000000000E+02  0.47000000000E+01 0.  1.
         -5    1    3    3    0  501 -0.28838288704E+02  0.26975352724E+01 -0.62439096777E+01  0.30000000000E+02  0.47000000000E+01 0. -1.
</event>
<event>
 5    1  0.7624361E-002  0.6000000E+02  0.7546771E-02  0.1259629E+00
         11   -1    0    0    0    0  0.00000000000E+00  0.00000000000E+00  0.30000000000E+02  0.30000000000E+02  0.00000000000E+00 0.  1.
        -11   -1    0    0    0    0 -0.00000000000E+00 -0.00000000000E+00 -0.30000000000E+02  0.30000000000E+02  0.00000000000E+00 0. -1.
         23    2    1    2    0    0  0.00000000000E+00  0.00000000000E+00  0.00000000000E+00  0.60000000000E+02  0.60000000000E+02 0.  0.
          5    1    3    3  501    0 -0.67904338337E+01  0.10015015388E+02 -0.27046246969E+02  0.30000000000E+02  0.47000000000E+01 0. -1.
         -5    1    3    3    0  501  0.67904338337E+01 -0.10015015388E+02  0.27046246969E+02  0.30000000000E+02  0.47000000000E+01 0.  1.
</event>
<event>
 5    1  0.7624361E-002  0.6000000E+02  0.7546771E-02  0.1259629E+00
         11   -1    0    0    0    0  0.00000000000E+00  0.00000000000E+00  0.30000000000E+02  0.30000000000E+02  0.00000000000E+00 0.  1.
        -11   -1    0    0    0    0 -0.00000000000E+00 -0.00000000000E+00 -0.30000000000E+02  0.30000000000E+02  0.00000000000E+00 0. -1.
         23    2    1    2    0    0  0.00000000000E+00  0.00000000000E+00  0.00000000000E+00  0.60000000000E+02  0.60000000000E+02 0.  0.
          5    1    3    3  501    0 -0.14914521953E+02 -0.25534434310E+02  0.18600267179E+01  0.30000000000E+02  0.47000000000E+01 0. -1.
         -5    1    3    3    0  501  0.14914521953E+02  0.25534434310E+02 -0.18600267179E+01  0.30000000000E+02  0.47000000000E+01 0.  1.
</event>
<event>
 5    1  0.7624361E-002  0.6000000E+02  0.7546771E-02  0.1259629E+00
         11   -1    0    0    0    0  0.00000000000E+00  0.00000000000E+00  0.30000000000E+02  0.30000000000E+02  0.00000000000E+00 0.  1.
        -11   -1    0    0    0    0 -0.00000000000E+00 -0.00000000000E+00 -0.30000000000E+02  0.30000000000E+02  0.00000000000E+00 0. -1.
         23    2    1    2    0    0  0.00000000000E+00  0.00000000000E+00  0.00000000000E+00  0.60000000000E+02  0.60000000000E+02 0.  0.
          5    1    3    3  501    0  0.13714113512E+02 -0.75989107345E+01 -0.25141393085E+02  0.30000000000E+02  0.47000000000E+01 0. -1.
         -5    1    3    3    0  501 -0.13714113512E+02  0.75989107345E+01  0.25141393085E+02  0.30000000000E+02  0.47000000000E+01 0.  1.
</event>
<event>
 5    1  0.7624361E-002  0.6000000E+02  0.7546771E-02  0.1259629E+00
         11   -1    0    0    0    0  0.00000000000E+00  0.00000000000E+00  0.30000000000E+02  0.30000000000E+02  0.00000000000E+00 0.  1.
        -11   -1    0    0    0    0 -0.00000000000E+00 -0.00000000000E+00 -0.30000000000E+02  0.30000000000E+02  0.00000000000E+00 0. -1.
         23    2    1    2    0    0  0.00000000000E+00  0.00000000000E+00  0.00000000000E+00  0.60000000000E+02  0.60000000000E+02 0.  0.
          5    1    3    3  501    0 -0.27591840945E+02  0.73143542067E+01 -0.79435845689E+01  0.30000000000E+02  0.47000000000E+01 0. -1.
         -5    1    3    3    0  501  0.27591840945E+02 -0.73143542067E+01  0.79435845689E+01  0.30000000000E+02  0.47000000000E+01 0.  1.
</event>
<event>
 5    1  0.7624361E-002  0.6000000E+02  0.7546771E-02  0.1259629E+00
         11   -1    0    0    0    0  0.00000000000E+00  0.00000000000E+00  0.30000000000E+02  0.30000000000E+02  0.00000000000E+00 0. -1.
        -11   -1    0    0    0    0 -0.00000000000E+00 -0.00000000000E+00 -0.30000000000E+02  0.30000000000E+02  0.00000000000E+00 0.  1.
         23    2    1    2    0    0  0.00000000000E+00  0.00000000000E+00  0.00000000000E+00  0.60000000000E+02  0.60000000000E+02 0.  0.
          5    1    3    3  501    0  0.23230136659E+02 -0.17815119914E+02 -0.45708044425E+01  0.30000000000E+02  0.47000000000E+01 0.  1.
         -5    1    3    3    0  501 -0.23230136659E+02  0.17815119914E+02  0.45708044425E+01  0.30000000000E+02  0.47000000000E+01 0. -1.
</event>
<event>
 5    1  0.7624361E-002  0.6000000E+02  0.7546771E-02  0.1259629E+00
         11   -1    0    0    0    0  0.00000000000E+00  0.00000000000E+00  0.30000000000E+02  0.30000000000E+02  0.00000000000E+00 0.  1.
        -11   -1    0    0    0    0 -0.00000000000E+00 -0.00000000000E+00 -0.30000000000E+02  0.30000000000E+02  0.00000000000E+00 0. -1.
         23    2    1    2    0    0  0.00000000000E+00  0.00000000000E+00  0.00000000000E+00  0.60000000000E+02  0.60000000000E+02 0.  0.
          5    1    3    3  501    0 -0.72060134275E+01 -0.19319471728E+02 -0.21277720334E+02  0.30000000000E+02  0.47000000000E+01 0. -1.
         -5    1    3    3    0  501  0.72060134275E+01  0.19319471728E+02  0.21277720334E+02  0.30000000000E+02  0.47000000000E+01 0.  1.
</event>
<event>
 5    1  0.7624361E-002  0.6000000E+02  0.7546771E-02  0.1259629E+00
         11   -1    0    0    0    0  0.00000000000E+00  0.00000000000E+00  0.30000000000E+02  0.30000000000E+02  0.00000000000E+00 0.  1.
        -11   -1    0    0    0    0 -0.00000000000E+00 -0.00000000000E+00 -0.30000000000E+02  0.30000000000E+02  0.00000000000E+00 0. -1.
         23    2    1    2    0    0  0.00000000000E+00  0.00000000000E+00  0.00000000000E+00  0.60000000000E+02  0.60000000000E+02 0.  0.
          5    1    3    3  501    0  0.95210895986E+00 -0.29559884725E+02 -0.17935170897E+01  0.30000000000E+02  0.47000000000E+01 0. -1.
         -5    1    3    3    0  501 -0.95210895986E+00  0.29559884725E+02  0.17935170897E+01  0.30000000000E+02  0.47000000000E+01 0.  1.
</event>
<event>
 5    1  0.7624361E-002  0.6000000E+02  0.7546771E-02  0.1259629E+00
         11   -1    0    0    0    0  0.00000000000E+00  0.00000000000E+00  0.30000000000E+02  0.30000000000E+02  0.00000000000E+00 0.  1.
        -11   -1    0    0    0    0 -0.00000000000E+00 -0.00000000000E+00 -0.30000000000E+02  0.30000000000E+02  0.00000000000E+00 0. -1.
         23    2    1    2    0    0  0.00000000000E+00  0.00000000000E+00  0.00000000000E+00  0.60000000000E+02  0.60000000000E+02 0.  0.
          5    1    3    3  501    0 -0.42563929189E+01 -0.68559230814E+01 -0.28509462254E+02  0.30000000000E+02  0.47000000000E+01 0. -1.
         -5    1    3    3    0  501  0.42563929189E+01  0.68559230814E+01  0.28509462254E+02  0.30000000000E+02  0.47000000000E+01 0.  1.
</event>
<event>
 5    1  0.7624361E-002  0.6000000E+02  0.7546771E-02  0.1259629E+00
         11   -1    0    0    0    0  0.00000000000E+00  0.00000000000E+00  0.30000000000E+02  0.30000000000E+02  0.00000000000E+00 0.  1.
        -11   -1    0    0    0    0 -0.00000000000E+00 -0.00000000000E+00 -0.30000000000E+02  0.30000000000E+02  0.00000000000E+00 0. -1.
         23    2    1    2    0    0  0.00000000000E+00  0.00000000000E+00  0.00000000000E+00  0.60000000000E+02  0.60000000000E+02 0.  0.
          5    1    3    3  501    0 -0.16661956351E+02 -0.22786203086E+02 -0.90043411465E+01  0.30000000000E+02  0.47000000000E+01 0.  1.
         -5    1    3    3    0  501  0.16661956351E+02  0.22786203086E+02  0.90043411465E+01  0.30000000000E+02  0.47000000000E+01 0. -1.
</event>
<event>
 5    1  0.7624361E-002  0.6000000E+02  0.7546771E-02  0.1259629E+00
         11   -1    0    0    0    0  0.00000000000E+00  0.00000000000E+00  0.30000000000E+02  0.30000000000E+02  0.00000000000E+00 0.  1.
        -11   -1    0    0    0    0 -0.00000000000E+00 -0.00000000000E+00 -0.30000000000E+02  0.30000000000E+02  0.00000000000E+00 0. -1.
         23    2    1    2    0    0  0.00000000000E+00  0.00000000000E+00  0.00000000000E+00  0.60000000000E+02  0.60000000000E+02 0.  0.
          5    1    3    3  501    0  0.25186663822E+02 -0.15597457724E+02  0.51115364441E+00  0.30000000000E+02  0.47000000000E+01 0. -1.
         -5    1    3    3    0  501 -0.25186663822E+02  0.15597457724E+02 -0.51115364441E+00  0.30000000000E+02  0.47000000000E+01 0.  1.
</event>
<event>
 5    1  0.7624361E-002  0.6000000E+02  0.7546771E-02  0.1259629E+00
         11   -1    0    0    0    0  0.00000000000E+00  0.00000000000E+00  0.30000000000E+02  0.30000000000E+02  0.00000000000E+00 0.  1.
        -11   -1    0    0    0    0 -0.00000000000E+00 -0.00000000000E+00 -0.30000000000E+02  0.30000000000E+02  0.00000000000E+00 0. -1.
         23    2    1    2    0    0  0.00000000000E+00  0.00000000000E+00  0.00000000000E+00  0.60000000000E+02  0.60000000000E+02 0.  0.
          5    1    3    3  501    0  0.82057254825E+01  0.20519059665E+02 -0.19736875633E+02  0.30000000000E+02  0.47000000000E+01 0. -1.
         -5    1    3    3    0  501 -0.82057254825E+01 -0.20519059665E+02  0.19736875633E+02  0.30000000000E+02  0.47000000000E+01 0.  1.
</event>
<event>
 5    1  0.7624361E-002  0.6000000E+02  0.7546771E-02  0.1259629E+00
         11   -1    0    0    0    0  0.00000000000E+00  0.00000000000E+00  0.30000000000E+02  0.30000000000E+02  0.00000000000E+00 0.  1.
        -11   -1    0    0    0    0 -0.00000000000E+00 -0.00000000000E+00 -0.30000000000E+02  0.30000000000E+02  0.00000000000E+00 0. -1.
         23    2    1    2    0    0  0.00000000000E+00  0.00000000000E+00  0.00000000000E+00  0.60000000000E+02  0.60000000000E+02 0.  0.
          5    1    3    3  501    0  0.18462837275E+02  0.85252984376E+01 -0.21548849768E+02  0.30000000000E+02  0.47000000000E+01 0. -1.
         -5    1    3    3    0  501 -0.18462837275E+02 -0.85252984376E+01  0.21548849768E+02  0.30000000000E+02  0.47000000000E+01 0.  1.
</event>
<event>
 5    1  0.7624361E-002  0.6000000E+02  0.7546771E-02  0.1259629E+00
         11   -1    0    0    0    0  0.00000000000E+00  0.00000000000E+00  0.30000000000E+02  0.30000000000E+02  0.00000000000E+00 0.  1.
        -11   -1    0    0    0    0 -0.00000000000E+00 -0.00000000000E+00 -0.30000000000E+02  0.30000000000E+02  0.00000000000E+00 0. -1.
         23    2    1    2    0    0  0.00000000000E+00  0.00000000000E+00  0.00000000000E+00  0.60000000000E+02  0.60000000000E+02 0.  0.
          5    1    3    3  501    0  0.27022121111E+02 -0.44054816126E+01  0.11327254848E+02  0.30000000000E+02  0.47000000000E+01 0.  1.
         -5    1    3    3    0  501 -0.27022121111E+02  0.44054816126E+01 -0.11327254848E+02  0.30000000000E+02  0.47000000000E+01 0. -1.
</event>
<event>
 5    1  0.7624361E-002  0.6000000E+02  0.7546771E-02  0.1259629E+00
         11   -1    0    0    0    0  0.00000000000E+00  0.00000000000E+00  0.30000000000E+02  0.30000000000E+02  0.00000000000E+00 0.  1.
        -11   -1    0    0    0    0 -0.00000000000E+00 -0.00000000000E+00 -0.30000000000E+02  0.30000000000E+02  0.00000000000E+00 0. -1.
         23    2    1    2    0    0  0.00000000000E+00  0.00000000000E+00  0.00000000000E+00  0.60000000000E+02  0.60000000000E+02 0.  0.
          5    1    3    3  501    0 -0.89085639249E+01  0.10510314467E+02 -0.26231293880E+02  0.30000000000E+02  0.47000000000E+01 0. -1.
         -5    1    3    3    0  501  0.89085639249E+01 -0.10510314467E+02  0.26231293880E+02  0.30000000000E+02  0.47000000000E+01 0.  1.
</event>
<event>
 5    1  0.7624361E-002  0.6000000E+02  0.7546771E-02  0.1259629E+00
         11   -1    0    0    0    0  0.00000000000E+00  0.00000000000E+00  0.30000000000E+02  0.30000000000E+02  0.00000000000E+00 0.  1.
        -11   -1    0    0    0    0 -0.00000000000E+00 -0.00000000000E+00 -0.30000000000E+02  0.30000000000E+02  0.00000000000E+00 0. -1.
         23    2    1    2    0    0  0.00000000000E+00  0.00000000000E+00  0.00000000000E+00  0.60000000000E+02  0.60000000000E+02 0.  0.
          5    1    3    3  501    0 -0.21506049944E+02  0.55514677206E+01 -0.19610737415E+02  0.30000000000E+02  0.47000000000E+01 0. -1.
         -5    1    3    3    0  501  0.21506049944E+02 -0.55514677206E+01  0.19610737415E+02  0.30000000000E+02  0.47000000000E+01 0.  1.
</event>
<event>
 5    1  0.7624361E-002  0.6000000E+02  0.7546771E-02  0.1259629E+00
         11   -1    0    0    0    0  0.00000000000E+00  0.00000000000E+00  0.30000000000E+02  0.30000000000E+02  0.00000000000E+00 0.  1.
        -11   -1    0    0    0    0 -0.00000000000E+00 -0.00000000000E+00 -0.30000000000E+02  0.30000000000E+02  0.00000000000E+00 0. -1.
         23    2    1    2    0    0  0.00000000000E+00  0.00000000000E+00  0.00000000000E+00  0.60000000000E+02  0.60000000000E+02 0.  0.
          5    1    3    3  501    0  0.21036493903E+02 -0.20075722800E+02 -0.56869392786E+01  0.30000000000E+02  0.47000000000E+01 0. -1.
         -5    1    3    3    0  501 -0.21036493903E+02  0.20075722800E+02  0.56869392786E+01  0.30000000000E+02  0.47000000000E+01 0.  1.
</event>
<event>
 5    1  0.7624361E-002  0.6000000E+02  0.7546771E-02  0.1259629E+00
         11   -1    0    0    0    0  0.00000000000E+00  0.00000000000E+00  0.30000000000E+02  0.30000000000E+02  0.00000000000E+00 0.  1.
        -11   -1    0    0    0    0 -0.00000000000E+00 -0.00000000000E+00 -0.30000000000E+02  0.30000000000E+02  0.00000000000E+00 0. -1.
         23    2    1    2    0    0  0.00000000000E+00  0.00000000000E+00  0.00000000000E+00  0.60000000000E+02  0.60000000000E+02 0.  0.
          5    1    3    3  501    0  0.10371699020E+02 -0.27690042050E+02  0.18972165664E+01  0.30000000000E+02  0.47000000000E+01 0. -1.
         -5    1    3    3    0  501 -0.10371699020E+02  0.27690042050E+02 -0.18972165664E+01  0.30000000000E+02  0.47000000000E+01 0.  1.
</event>
<event>
 5    1  0.7624361E-002  0.6000000E+02  0.7546771E-02  0.1259629E+00
         11   -1    0    0    0    0  0.00000000000E+00  0.00000000000E+00  0.30000000000E+02  0.30000000000E+02  0.00000000000E+00 0.  1.
        -11   -1    0    0    0    0 -0.00000000000E+00 -0.00000000000E+00 -0.30000000000E+02  0.30000000000E+02  0.00000000000E+00 0. -1.
         23    2    1    2    0    0  0.00000000000E+00  0.00000000000E+00  0.00000000000E+00  0.60000000000E+02  0.60000000000E+02 0.  0.
          5    1    3    3  501    0  0.15012733470E+02  0.25457351402E+02  0.21097614484E+01  0.30000000000E+02  0.47000000000E+01 0. -1.
         -5    1    3    3    0  501 -0.15012733470E+02 -0.25457351402E+02 -0.21097614484E+01  0.30000000000E+02  0.47000000000E+01 0.  1.
</event>
<event>
 5    1  0.7624361E-002  0.6000000E+02  0.7546771E-02  0.1259629E+00
         11   -1    0    0    0    0  0.00000000000E+00  0.00000000000E+00  0.30000000000E+02  0.30000000000E+02  0.00000000000E+00 0.  1.
        -11   -1    0    0    0    0 -0.00000000000E+00 -0.00000000000E+00 -0.30000000000E+02  0.30000000000E+02  0.00000000000E+00 0. -1.
         23    2    1    2    0    0  0.00000000000E+00  0.00000000000E+00  0.00000000000E+00  0.60000000000E+02  0.60000000000E+02 0.  0.
          5    1    3    3  501    0 -0.24596817846E+02 -0.10846640395E+02 -0.12460214445E+02  0.30000000000E+02  0.47000000000E+01 0. -1.
         -5    1    3    3    0  501  0.24596817846E+02  0.10846640395E+02  0.12460214445E+02  0.30000000000E+02  0.47000000000E+01 0.  1.
</event>
<event>
 5    1  0.7624361E-002  0.6000000E+02  0.7546771E-02  0.1259629E+00
         11   -1    0    0    0    0  0.00000000000E+00  0.00000000000E+00  0.30000000000E+02  0.30000000000E+02  0.00000000000E+00 0. -1.
        -11   -1    0    0    0    0 -0.00000000000E+00 -0.00000000000E+00 -0.30000000000E+02  0.30000000000E+02  0.00000000000E+00 0.  1.
         23    2    1    2    0    0  0.00000000000E+00  0.00000000000E+00  0.00000000000E+00  0.60000000000E+02  0.60000000000E+02 0.  0.
          5    1    3    3  501    0 -0.61171744917E+00  0.10469318956E+02 -0.27711534825E+02  0.30000000000E+02  0.47000000000E+01 0.  1.
         -5    1    3    3    0  501  0.61171744917E+00 -0.10469318956E+02  0.27711534825E+02  0.30000000000E+02  0.47000000000E+01 0. -1.
</event>
<event>
 5    1  0.7624361E-002  0.6000000E+02  0.7546771E-02  0.1259629E+00
         11   -1    0    0    0    0  0.00000000000E+00  0.00000000000E+00  0.30000000000E+02  0.30000000000E+02  0.00000000000E+00 0.  1.
        -11   -1    0    0    0    0 -0.00000000000E+00 -0.00000000000E+00 -0.30000000000E+02  0.30000000000E+02  0.00000000000E+00 0. -1.
         23    2    1    2    0    0  0.00000000000E+00  0.00000000000E+00  0.00000000000E+00  0.60000000000E+02  0.60000000000E+02 0.  0.
          5    1    3    3  501    0 -0.15805892448E+02 -0.51944723206E+01 -0.24517365708E+02  0.30000000000E+02  0.47000000000E+01 0. -1.
         -5    1    3    3    0  501  0.15805892448E+02  0.51944723206E+01  0.24517365708E+02  0.30000000000E+02  0.47000000000E+01 0.  1.
</event>
<event>
 5    1  0.7624361E-002  0.6000000E+02  0.7546771E-02  0.1259629E+00
         11   -1    0    0    0    0  0.00000000000E+00  0.00000000000E+00  0.30000000000E+02  0.30000000000E+02  0.00000000000E+00 0. -1.
        -11   -1    0    0    0    0 -0.00000000000E+00 -0.00000000000E+00 -0.30000000000E+02  0.30000000000E+02  0.00000000000E+00 0.  1.
         23    2    1    2    0    0  0.00000000000E+00  0.00000000000E+00  0.00000000000E+00  0.60000000000E+02  0.60000000000E+02 0.  0.
          5    1    3    3  501    0 -0.19196324956E+02  0.15712010324E+02 -0.16203204613E+02  0.30000000000E+02  0.47000000000E+01 0.  1.
         -5    1    3    3    0  501  0.19196324956E+02 -0.15712010324E+02  0.16203204613E+02  0.30000000000E+02  0.47000000000E+01 0. -1.
</event>
<event>
 5    1  0.7624361E-002  0.6000000E+02  0.7546771E-02  0.1259629E+00
         11   -1    0    0    0    0  0.00000000000E+00  0.00000000000E+00  0.30000000000E+02  0.30000000000E+02  0.00000000000E+00 0.  1.
        -11   -1    0    0    0    0 -0.00000000000E+00 -0.00000000000E+00 -0.30000000000E+02  0.30000000000E+02  0.00000000000E+00 0. -1.
         23    2    1    2    0    0  0.00000000000E+00  0.00000000000E+00  0.00000000000E+00  0.60000000000E+02  0.60000000000E+02 0.  0.
          5    1    3    3  501    0  0.48515377012E+00  0.22383525722E+02 -0.19407534672E+02  0.30000000000E+02  0.47000000000E+01 0. -1.
         -5    1    3    3    0  501 -0.48515377012E+00 -0.22383525722E+02  0.19407534672E+02  0.30000000000E+02  0.47000000000E+01 0.  1.
</event>
<event>
 5    1  0.7624361E-002  0.6000000E+02  0.7546771E-02  0.1259629E+00
         11   -1    0    0    0    0  0.00000000000E+00  0.00000000000E+00  0.30000000000E+02  0.30000000000E+02  0.00000000000E+00 0.  1.
        -11   -1    0    0    0    0 -0.00000000000E+00 -0.00000000000E+00 -0.30000000000E+02  0.30000000000E+02  0.00000000000E+00 0. -1.
         23    2    1    2    0    0  0.00000000000E+00  0.00000000000E+00  0.00000000000E+00  0.60000000000E+02  0.60000000000E+02 0.  0.
          5    1    3    3  501    0 -0.12179006718E+02 -0.11620124716E+02 -0.24383488203E+02  0.30000000000E+02  0.47000000000E+01 0. -1.
         -5    1    3    3    0  501  0.12179006718E+02  0.11620124716E+02  0.24383488203E+02  0.30000000000E+02  0.47000000000E+01 0.  1.
</event>
<event>
 5    1  0.7624361E-002  0.6000000E+02  0.7546771E-02  0.1259629E+00
         11   -1    0    0    0    0  0.00000000000E+00  0.00000000000E+00  0.30000000000E+02  0.30000000000E+02  0.00000000000E+00 0.  1.
        -11   -1    0    0    0    0 -0.00000000000E+00 -0.00000000000E+00 -0.30000000000E+02  0.30000000000E+02  0.00000000000E+00 0. -1.
         23    2    1    2    0    0  0.00000000000E+00  0.00000000000E+00  0.00000000000E+00  0.60000000000E+02  0.60000000000E+02 0.  0.
          5    1    3    3  501    0  0.27552338632E+02  0.75521257509E+01 -0.78577371125E+01  0.30000000000E+02  0.47000000000E+01 0. -1.
         -5    1    3    3    0  501 -0.27552338632E+02 -0.75521257509E+01  0.78577371125E+01  0.30000000000E+02  0.47000000000E+01 0.  1.
</event>
<event>
 5    1  0.7624361E-002  0.6000000E+02  0.7546771E-02  0.1259629E+00
         11   -1    0    0    0    0  0.00000000000E+00  0.00000000000E+00  0.30000000000E+02  0.30000000000E+02  0.00000000000E+00 0. -1.
        -11   -1    0    0    0    0 -0.00000000000E+00 -0.00000000000E+00 -0.30000000000E+02  0.30000000000E+02  0.00000000000E+00 0.  1.
         23    2    1    2    0    0  0.00000000000E+00  0.00000000000E+00  0.00000000000E+00  0.60000000000E+02  0.60000000000E+02 0.  0.
          5    1    3    3  501    0  0.21552045568E+02  0.19987510046E+02  0.37307873177E+01  0.30000000000E+02  0.47000000000E+01 0.  1.
         -5    1    3    3    0  501 -0.21552045568E+02 -0.19987510046E+02 -0.37307873177E+01  0.30000000000E+02  0.47000000000E+01 0. -1.
</event>
<event>
 5    1  0.7624361E-002  0.6000000E+02  0.7546771E-02  0.1259629E+00
         11   -1    0    0    0    0  0.00000000000E+00  0.00000000000E+00  0.30000000000E+02  0.30000000000E+02  0.00000000000E+00 0. -1.
        -11   -1    0    0    0    0 -0.00000000000E+00 -0.00000000000E+00 -0.30000000000E+02  0.30000000000E+02  0.00000000000E+00 0.  1.
         23    2    1    2    0    0  0.00000000000E+00  0.00000000000E+00  0.00000000000E+00  0.60000000000E+02  0.60000000000E+02 0.  0.
          5    1    3    3  501    0  0.12733815908E+02  0.19336015289E+02 -0.18489955250E+02  0.30000000000E+02  0.47000000000E+01 0.  1.
         -5    1    3    3    0  501 -0.12733815908E+02 -0.19336015289E+02  0.18489955250E+02  0.30000000000E+02  0.47000000000E+01 0. -1.
</event>
<event>
 5    1  0.7624361E-002  0.6000000E+02  0.7546771E-02  0.1259629E+00
         11   -1    0    0    0    0  0.00000000000E+00  0.00000000000E+00  0.30000000000E+02  0.30000000000E+02  0.00000000000E+00 0. -1.
        -11   -1    0    0    0    0 -0.00000000000E+00 -0.00000000000E+00 -0.30000000000E+02  0.30000000000E+02  0.00000000000E+00 0.  1.
         23    2    1    2    0    0  0.00000000000E+00  0.00000000000E+00  0.00000000000E+00  0.60000000000E+02  0.60000000000E+02 0.  0.
          5    1    3    3  501    0 -0.62274353605E+01 -0.19695024998E+02 -0.21242293642E+02  0.30000000000E+02  0.47000000000E+01 0.  1.
         -5    1    3    3    0  501  0.62274353605E+01  0.19695024998E+02  0.21242293642E+02  0.30000000000E+02  0.47000000000E+01 0. -1.
</event>
<event>
 5    1  0.7624361E-002  0.6000000E+02  0.7546771E-02  0.1259629E+00
         11   -1    0    0    0    0  0.00000000000E+00  0.00000000000E+00  0.30000000000E+02  0.30000000000E+02  0.00000000000E+00 0.  1.
        -11   -1    0    0    0    0 -0.00000000000E+00 -0.00000000000E+00 -0.30000000000E+02  0.30000000000E+02  0.00000000000E+00 0. -1.
         23    2    1    2    0    0  0.00000000000E+00  0.00000000000E+00  0.00000000000E+00  0.60000000000E+02  0.60000000000E+02 0.  0.
          5    1    3    3  501    0 -0.10695275457E+02 -0.25367730081E+02 -0.10954421640E+02  0.30000000000E+02  0.47000000000E+01 0. -1.
         -5    1    3    3    0  501  0.10695275457E+02  0.25367730081E+02  0.10954421640E+02  0.30000000000E+02  0.47000000000E+01 0.  1.
</event>
<event>
 5    1  0.7624361E-002  0.6000000E+02  0.7546771E-02  0.1259629E+00
         11   -1    0    0    0    0  0.00000000000E+00  0.00000000000E+00  0.30000000000E+02  0.30000000000E+02  0.00000000000E+00 0.  1.
        -11   -1    0    0    0    0 -0.00000000000E+00 -0.00000000000E+00 -0.30000000000E+02  0.30000000000E+02  0.00000000000E+00 0. -1.
         23    2    1    2    0    0  0.00000000000E+00  0.00000000000E+00  0.00000000000E+00  0.60000000000E+02  0.60000000000E+02 0.  0.
          5    1    3    3  501    0 -0.10167066058E+02 -0.27098542460E+02  0.63411169621E+01  0.30000000000E+02  0.47000000000E+01 0. -1.
         -5    1    3    3    0  501  0.10167066058E+02  0.27098542460E+02 -0.63411169621E+01  0.30000000000E+02  0.47000000000E+01 0.  1.
</event>
<event>
 5    1  0.7624361E-002  0.6000000E+02  0.7546771E-02  0.1259629E+00
         11   -1    0    0    0    0  0.00000000000E+00  0.00000000000E+00  0.30000000000E+02  0.30000000000E+02  0.00000000000E+00 0.  1.
        -11   -1    0    0    0    0 -0.00000000000E+00 -0.00000000000E+00 -0.30000000000E+02  0.30000000000E+02  0.00000000000E+00 0. -1.
         23    2    1    2    0    0  0.00000000000E+00  0.00000000000E+00  0.00000000000E+00  0.60000000000E+02  0.60000000000E+02 0.  0.
          5    1    3    3  501    0 -0.29275334145E+02  0.19031090951E+01 -0.41524675129E+01  0.30000000000E+02  0.47000000000E+01 0. -1.
         -5    1    3    3    0  501  0.29275334145E+02 -0.19031090951E+01  0.41524675129E+01  0.30000000000E+02  0.47000000000E+01 0.  1.
</event>
<event>
 5    1  0.7624361E-002  0.6000000E+02  0.7546771E-02  0.1259629E+00
         11   -1    0    0    0    0  0.00000000000E+00  0.00000000000E+00  0.30000000000E+02  0.30000000000E+02  0.00000000000E+00 0.  1.
        -11   -1    0    0    0    0 -0.00000000000E+00 -0.00000000000E+00 -0.30000000000E+02  0.30000000000E+02  0.00000000000E+00 0. -1.
         23    2    1    2    0    0  0.00000000000E+00  0.00000000000E+00  0.00000000000E+00  0.60000000000E+02  0.60000000000E+02 0.  0.
          5    1    3    3  501    0 -0.20530879859E+02  0.45734180787E+00 -0.21358459933E+02  0.30000000000E+02  0.47000000000E+01 0. -1.
         -5    1    3    3    0  501  0.20530879859E+02 -0.45734180787E+00  0.21358459933E+02  0.30000000000E+02  0.47000000000E+01 0.  1.
</event>
<event>
 5    1  0.7624361E-002  0.6000000E+02  0.7546771E-02  0.1259629E+00
         11   -1    0    0    0    0  0.00000000000E+00  0.00000000000E+00  0.30000000000E+02  0.30000000000E+02  0.00000000000E+00 0.  1.
        -11   -1    0    0    0    0 -0.00000000000E+00 -0.00000000000E+00 -0.30000000000E+02  0.30000000000E+02  0.00000000000E+00 0. -1.
         23    2    1    2    0    0  0.00000000000E+00  0.00000000000E+00  0.00000000000E+00  0.60000000000E+02  0.60000000000E+02 0.  0.
          5    1    3    3  501    0 -0.19555726364E+01 -0.20060339087E+02 -0.21717931103E+02  0.30000000000E+02  0.47000000000E+01 0. -1.
         -5    1    3    3    0  501  0.19555726364E+01  0.20060339087E+02  0.21717931103E+02  0.30000000000E+02  0.47000000000E+01 0.  1.
</event>
<event>
 5    1  0.7624361E-002  0.6000000E+02  0.7546771E-02  0.1259629E+00
         11   -1    0    0    0    0  0.00000000000E+00  0.00000000000E+00  0.30000000000E+02  0.30000000000E+02  0.00000000000E+00 0.  1.
        -11   -1    0    0    0    0 -0.00000000000E+00 -0.00000000000E+00 -0.30000000000E+02  0.30000000000E+02  0.00000000000E+00 0. -1.
         23    2    1    2    0    0  0.00000000000E+00  0.00000000000E+00  0.00000000000E+00  0.60000000000E+02  0.60000000000E+02 0.  0.
          5    1    3    3  501    0 -0.48206804624E+01 -0.29225391669E+02  0.73994705870E+00  0.30000000000E+02  0.47000000000E+01 0. -1.
         -5    1    3    3    0  501  0.48206804624E+01  0.29225391669E+02 -0.73994705870E+00  0.30000000000E+02  0.47000000000E+01 0.  1.
</event>
<event>
 5    1  0.7624361E-002  0.6000000E+02  0.7546771E-02  0.1259629E+00
         11   -1    0    0    0    0  0.00000000000E+00  0.00000000000E+00  0.30000000000E+02  0.30000000000E+02  0.00000000000E+00 0. -1.
        -11   -1    0    0    0    0 -0.00000000000E+00 -0.00000000000E+00 -0.30000000000E+02  0.30000000000E+02  0.00000000000E+00 0.  1.
         23    2    1    2    0    0  0.00000000000E+00  0.00000000000E+00  0.00000000000E+00  0.60000000000E+02  0.60000000000E+02 0.  0.
          5    1    3    3  501    0 -0.10589763162E+02  0.22218302789E+02  0.16495876374E+02  0.30000000000E+02  0.47000000000E+01 0. -1.
         -5    1    3    3    0  501  0.10589763162E+02 -0.22218302789E+02 -0.16495876374E+02  0.30000000000E+02  0.47000000000E+01 0.  1.
</event>
<event>
 5    1  0.7624361E-002  0.6000000E+02  0.7546771E-02  0.1259629E+00
         11   -1    0    0    0    0  0.00000000000E+00  0.00000000000E+00  0.30000000000E+02  0.30000000000E+02  0.00000000000E+00 0.  1.
        -11   -1    0    0    0    0 -0.00000000000E+00 -0.00000000000E+00 -0.30000000000E+02  0.30000000000E+02  0.00000000000E+00 0. -1.
         23    2    1    2    0    0  0.00000000000E+00  0.00000000000E+00  0.00000000000E+00  0.60000000000E+02  0.60000000000E+02 0.  0.
          5    1    3    3  501    0  0.22949588322E+02 -0.11969378331E+02 -0.14420831398E+02  0.30000000000E+02  0.47000000000E+01 0. -1.
         -5    1    3    3    0  501 -0.22949588322E+02  0.11969378331E+02  0.14420831398E+02  0.30000000000E+02  0.47000000000E+01 0.  1.
</event>
<event>
 5    1  0.7624361E-002  0.6000000E+02  0.7546771E-02  0.1259629E+00
         11   -1    0    0    0    0  0.00000000000E+00  0.00000000000E+00  0.30000000000E+02  0.30000000000E+02  0.00000000000E+00 0.  1.
        -11   -1    0    0    0    0 -0.00000000000E+00 -0.00000000000E+00 -0.30000000000E+02  0.30000000000E+02  0.00000000000E+00 0. -1.
         23    2    1    2    0    0  0.00000000000E+00  0.00000000000E+00  0.00000000000E+00  0.60000000000E+02  0.60000000000E+02 0.  0.
          5    1    3    3  501    0 -0.17599514815E+02  0.24174535958E+01  0.23713350594E+02  0.30000000000E+02  0.47000000000E+01 0.  1.
         -5    1    3    3    0  501  0.17599514815E+02 -0.24174535958E+01 -0.23713350594E+02  0.30000000000E+02  0.47000000000E+01 0. -1.
</event>
<event>
 5    1  0.7624361E-002  0.6000000E+02  0.7546771E-02  0.1259629E+00
         11   -1    0    0    0    0  0.00000000000E+00  0.00000000000E+00  0.30000000000E+02  0.30000000000E+02  0.00000000000E+00 0.  1.
        -11   -1    0    0    0    0 -0.00000000000E+00 -0.00000000000E+00 -0.30000000000E+02  0.30000000000E+02  0.00000000000E+00 0. -1.
         23    2    1    2    0    0  0.00000000000E+00  0.00000000000E+00  0.00000000000E+00  0.60000000000E+02  0.60000000000E+02 0.  0.
          5    1    3    3  501    0  0.28384293150E+02  0.19710960724E+01 -0.82678100290E+01  0.30000000000E+02  0.47000000000E+01 0. -1.
         -5    1    3    3    0  501 -0.28384293150E+02 -0.19710960724E+01  0.82678100290E+01  0.30000000000E+02  0.47000000000E+01 0.  1.
</event>
<event>
 5    1  0.7624361E-002  0.6000000E+02  0.7546771E-02  0.1259629E+00
         11   -1    0    0    0    0  0.00000000000E+00  0.00000000000E+00  0.30000000000E+02  0.30000000000E+02  0.00000000000E+00 0. -1.
        -11   -1    0    0    0    0 -0.00000000000E+00 -0.00000000000E+00 -0.30000000000E+02  0.30000000000E+02  0.00000000000E+00 0.  1.
         23    2    1    2    0    0  0.00000000000E+00  0.00000000000E+00  0.00000000000E+00  0.60000000000E+02  0.60000000000E+02 0.  0.
          5    1    3    3  501    0 -0.12280778221E+02  0.26285797858E+02 -0.60124302277E+01  0.30000000000E+02  0.47000000000E+01 0.  1.
         -5    1    3    3    0  501  0.12280778221E+02 -0.26285797858E+02  0.60124302277E+01  0.30000000000E+02  0.47000000000E+01 0. -1.
</event>
<event>
 5    1  0.7624361E-002  0.6000000E+02  0.7546771E-02  0.1259629E+00
         11   -1    0    0    0    0  0.00000000000E+00  0.00000000000E+00  0.30000000000E+02  0.30000000000E+02  0.00000000000E+00 0. -1.
        -11   -1    0    0    0    0 -0.00000000000E+00 -0.00000000000E+00 -0.30000000000E+02  0.30000000000E+02  0.00000000000E+00 0.  1.
         23    2    1    2    0    0  0.00000000000E+00  0.00000000000E+00  0.00000000000E+00  0.60000000000E+02  0.60000000000E+02 0.  0.
          5    1    3    3  501    0 -0.65447579662E+01 -0.20938718796E+02 -0.19915978469E+02  0.30000000000E+02  0.47000000000E+01 0.  1.
         -5    1    3    3    0  501  0.65447579662E+01  0.20938718796E+02  0.19915978469E+02  0.30000000000E+02  0.47000000000E+01 0. -1.
</event>
<event>
 5    1  0.7624361E-002  0.6000000E+02  0.7546771E-02  0.1259629E+00
         11   -1    0    0    0    0  0.00000000000E+00  0.00000000000E+00  0.30000000000E+02  0.30000000000E+02  0.00000000000E+00 0.  1.
        -11   -1    0    0    0    0 -0.00000000000E+00 -0.00000000000E+00 -0.30000000000E+02  0.30000000000E+02  0.00000000000E+00 0. -1.
         23    2    1    2    0    0  0.00000000000E+00  0.00000000000E+00  0.00000000000E+00  0.60000000000E+02  0.60000000000E+02 0.  0.
          5    1    3    3  501    0  0.51627773942E+01  0.21384028726E+02 -0.19848905386E+02  0.30000000000E+02  0.47000000000E+01 0. -1.
         -5    1    3    3    0  501 -0.51627773942E+01 -0.21384028726E+02  0.19848905386E+02  0.30000000000E+02  0.47000000000E+01 0.  1.
</event>
<event>
 5    1  0.7624361E-002  0.6000000E+02  0.7546771E-02  0.1259629E+00
         11   -1    0    0    0    0  0.00000000000E+00  0.00000000000E+00  0.30000000000E+02  0.30000000000E+02  0.00000000000E+00 0. -1.
        -11   -1    0    0    0    0 -0.00000000000E+00 -0.00000000000E+00 -0.30000000000E+02  0.30000000000E+02  0.00000000000E+00 0.  1.
         23    2    1    2    0    0  0.00000000000E+00  0.00000000000E+00  0.00000000000E+00  0.60000000000E+02  0.60000000000E+02 0.  0.
          5    1    3    3  501    0 -0.16288295180E+02 -0.22850524918E+02  0.95107807846E+01  0.30000000000E+02  0.47000000000E+01 0. -1.
         -5    1    3    3    0  501  0.16288295180E+02  0.22850524918E+02 -0.95107807846E+01  0.30000000000E+02  0.47000000000E+01 0.  1.
</event>
<event>
 5    1  0.7624361E-002  0.6000000E+02  0.7546771E-02  0.1259629E+00
         11   -1    0    0    0    0  0.00000000000E+00  0.00000000000E+00  0.30000000000E+02  0.30000000000E+02  0.00000000000E+00 0.  1.
        -11   -1    0    0    0    0 -0.00000000000E+00 -0.00000000000E+00 -0.30000000000E+02  0.30000000000E+02  0.00000000000E+00 0. -1.
         23    2    1    2    0    0  0.00000000000E+00  0.00000000000E+00  0.00000000000E+00  0.60000000000E+02  0.60000000000E+02 0.  0.
          5    1    3    3  501    0  0.14303381596E+01 -0.85815897390E+01 -0.28323496435E+02  0.30000000000E+02  0.47000000000E+01 0. -1.
         -5    1    3    3    0  501 -0.14303381596E+01  0.85815897390E+01  0.28323496435E+02  0.30000000000E+02  0.47000000000E+01 0.  1.
</event>
<event>
 5    1  0.7624361E-002  0.6000000E+02  0.7546771E-02  0.1259629E+00
         11   -1    0    0    0    0  0.00000000000E+00  0.00000000000E+00  0.30000000000E+02  0.30000000000E+02  0.00000000000E+00 0. -1.
        -11   -1    0    0    0    0 -0.00000000000E+00 -0.00000000000E+00 -0.30000000000E+02  0.30000000000E+02  0.00000000000E+00 0.  1.
         23    2    1    2    0    0  0.00000000000E+00  0.00000000000E+00  0.00000000000E+00  0.60000000000E+02  0.60000000000E+02 0.  0.
          5    1    3    3  501    0 -0.11312721549E+02 -0.16770045701E+02 -0.21649431825E+02  0.30000000000E+02  0.47000000000E+01 0.  1.
         -5    1    3    3    0  501  0.11312721549E+02  0.16770045701E+02  0.21649431825E+02  0.30000000000E+02  0.47000000000E+01 0. -1.
</event>
<event>
 5    1  0.7624361E-002  0.6000000E+02  0.7546771E-02  0.1259629E+00
         11   -1    0    0    0    0  0.00000000000E+00  0.00000000000E+00  0.30000000000E+02  0.30000000000E+02  0.00000000000E+00 0. -1.
        -11   -1    0    0    0    0 -0.00000000000E+00 -0.00000000000E+00 -0.30000000000E+02  0.30000000000E+02  0.00000000000E+00 0.  1.
         23    2    1    2    0    0  0.00000000000E+00  0.00000000000E+00  0.00000000000E+00  0.60000000000E+02  0.60000000000E+02 0.  0.
          5    1    3    3  501    0 -0.28123662188E+01  0.10473179869E+02  0.27573775579E+02  0.30000000000E+02  0.47000000000E+01 0. -1.
         -5    1    3    3    0  501  0.28123662188E+01 -0.10473179869E+02 -0.27573775579E+02  0.30000000000E+02  0.47000000000E+01 0.  1.
</event>
<event>
 5    1  0.7624361E-002  0.6000000E+02  0.7546771E-02  0.1259629E+00
         11   -1    0    0    0    0  0.00000000000E+00  0.00000000000E+00  0.30000000000E+02  0.30000000000E+02  0.00000000000E+00 0.  1.
        -11   -1    0    0    0    0 -0.00000000000E+00 -0.00000000000E+00 -0.30000000000E+02  0.30000000000E+02  0.00000000000E+00 0. -1.
         23    2    1    2    0    0  0.00000000000E+00  0.00000000000E+00  0.00000000000E+00  0.60000000000E+02  0.60000000000E+02 0.  0.
          5    1    3    3  501    0  0.36292602436E+00  0.12553123199E+02 -0.26836493487E+02  0.30000000000E+02  0.47000000000E+01 0. -1.
         -5    1    3    3    0  501 -0.36292602436E+00 -0.12553123199E+02  0.26836493487E+02  0.30000000000E+02  0.47000000000E+01 0.  1.
</event>
<event>
 5    1  0.7624361E-002  0.6000000E+02  0.7546771E-02  0.1259629E+00
         11   -1    0    0    0    0  0.00000000000E+00  0.00000000000E+00  0.30000000000E+02  0.30000000000E+02  0.00000000000E+00 0.  1.
        -11   -1    0    0    0    0 -0.00000000000E+00 -0.00000000000E+00 -0.30000000000E+02  0.30000000000E+02  0.00000000000E+00 0. -1.
         23    2    1    2    0    0  0.00000000000E+00  0.00000000000E+00  0.00000000000E+00  0.60000000000E+02  0.60000000000E+02 0.  0.
          5    1    3    3  501    0 -0.84459741049E+01  0.27921984912E+01 -0.28262681207E+02  0.30000000000E+02  0.47000000000E+01 0. -1.
         -5    1    3    3    0  501  0.84459741049E+01 -0.27921984912E+01  0.28262681207E+02  0.30000000000E+02  0.47000000000E+01 0.  1.
</event>
<event>
 5    1  0.7624361E-002  0.6000000E+02  0.7546771E-02  0.1259629E+00
         11   -1    0    0    0    0  0.00000000000E+00  0.00000000000E+00  0.30000000000E+02  0.30000000000E+02  0.00000000000E+00 0. -1.
        -11   -1    0    0    0    0 -0.00000000000E+00 -0.00000000000E+00 -0.30000000000E+02  0.30000000000E+02  0.00000000000E+00 0.  1.
         23    2    1    2    0    0  0.00000000000E+00  0.00000000000E+00  0.00000000000E+00  0.60000000000E+02  0.60000000000E+02 0.  0.
          5    1    3    3  501    0 -0.19484720637E+01 -0.18380928506E+02 -0.23157178668E+02  0.30000000000E+02  0.47000000000E+01 0.  1.
         -5    1    3    3    0  501  0.19484720637E+01  0.18380928506E+02  0.23157178668E+02  0.30000000000E+02  0.47000000000E+01 0. -1.
</event>
<event>
 5    1  0.7624361E-002  0.6000000E+02  0.7546771E-02  0.1259629E+00
         11   -1    0    0    0    0  0.00000000000E+00  0.00000000000E+00  0.30000000000E+02  0.30000000000E+02  0.00000000000E+00 0.  1.
        -11   -1    0    0    0    0 -0.00000000000E+00 -0.00000000000E+00 -0.30000000000E+02  0.30000000000E+02  0.00000000000E+00 0. -1.
         23    2    1    2    0    0  0.00000000000E+00  0.00000000000E+00  0.00000000000E+00  0.60000000000E+02  0.60000000000E+02 0.  0.
          5    1    3    3  501    0 -0.13916077226E+02 -0.26074917964E+02 -0.20860124162E+01  0.30000000000E+02  0.47000000000E+01 0. -1.
         -5    1    3    3    0  501  0.13916077226E+02  0.26074917964E+02  0.20860124162E+01  0.30000000000E+02  0.47000000000E+01 0.  1.
</event>
<event>
 5    1  0.7624361E-002  0.6000000E+02  0.7546771E-02  0.1259629E+00
         11   -1    0    0    0    0  0.00000000000E+00  0.00000000000E+00  0.30000000000E+02  0.30000000000E+02  0.00000000000E+00 0.  1.
        -11   -1    0    0    0    0 -0.00000000000E+00 -0.00000000000E+00 -0.30000000000E+02  0.30000000000E+02  0.00000000000E+00 0. -1.
         23    2    1    2    0    0  0.00000000000E+00  0.00000000000E+00  0.00000000000E+00  0.60000000000E+02  0.60000000000E+02 0.  0.
          5    1    3    3  501    0 -0.16842638375E+02 -0.24364626594E+02  0.77492161585E+00  0.30000000000E+02  0.47000000000E+01 0. -1.
         -5    1    3    3    0  501  0.16842638375E+02  0.24364626594E+02 -0.77492161585E+00  0.30000000000E+02  0.47000000000E+01 0.  1.
</event>
<event>
 5    1  0.7624361E-002  0.6000000E+02  0.7546771E-02  0.1259629E+00
         11   -1    0    0    0    0  0.00000000000E+00  0.00000000000E+00  0.30000000000E+02  0.30000000000E+02  0.00000000000E+00 0.  1.
        -11   -1    0    0    0    0 -0.00000000000E+00 -0.00000000000E+00 -0.30000000000E+02  0.30000000000E+02  0.00000000000E+00 0. -1.
         23    2    1    2    0    0  0.00000000000E+00  0.00000000000E+00  0.00000000000E+00  0.60000000000E+02  0.60000000000E+02 0.  0.
          5    1    3    3  501    0  0.15867391418E+02 -0.20722832669E+02 -0.14024981132E+02  0.30000000000E+02  0.47000000000E+01 0. -1.
         -5    1    3    3    0  501 -0.15867391418E+02  0.20722832669E+02  0.14024981132E+02  0.30000000000E+02  0.47000000000E+01 0.  1.
</event>
<event>
 5    1  0.7624361E-002  0.6000000E+02  0.7546771E-02  0.1259629E+00
         11   -1    0    0    0    0  0.00000000000E+00  0.00000000000E+00  0.30000000000E+02  0.30000000000E+02  0.00000000000E+00 0. -1.
        -11   -1    0    0    0    0 -0.00000000000E+00 -0.00000000000E+00 -0.30000000000E+02  0.30000000000E+02  0.00000000000E+00 0.  1.
         23    2    1    2    0    0  0.00000000000E+00  0.00000000000E+00  0.00000000000E+00  0.60000000000E+02  0.60000000000E+02 0.  0.
          5    1    3    3  501    0 -0.11271684980E+01 -0.11489393841E+02 -0.27287970250E+02  0.30000000000E+02  0.47000000000E+01 0.  1.
         -5    1    3    3    0  501  0.11271684980E+01  0.11489393841E+02  0.27287970250E+02  0.30000000000E+02  0.47000000000E+01 0. -1.
</event>
<event>
 5    1  0.7624361E-002  0.6000000E+02  0.7546771E-02  0.1259629E+00
         11   -1    0    0    0    0  0.00000000000E+00  0.00000000000E+00  0.30000000000E+02  0.30000000000E+02  0.00000000000E+00 0.  1.
        -11   -1    0    0    0    0 -0.00000000000E+00 -0.00000000000E+00 -0.30000000000E+02  0.30000000000E+02  0.00000000000E+00 0. -1.
         23    2    1    2    0    0  0.00000000000E+00  0.00000000000E+00  0.00000000000E+00  0.60000000000E+02  0.60000000000E+02 0.  0.
          5    1    3    3  501    0  0.19385212488E+02  0.37629067113E+01 -0.22089908779E+02  0.30000000000E+02  0.47000000000E+01 0. -1.
         -5    1    3    3    0  501 -0.19385212488E+02 -0.37629067113E+01  0.22089908779E+02  0.30000000000E+02  0.47000000000E+01 0.  1.
</event>
<event>
 5    1  0.7624361E-002  0.6000000E+02  0.7546771E-02  0.1259629E+00
         11   -1    0    0    0    0  0.00000000000E+00  0.00000000000E+00  0.30000000000E+02  0.30000000000E+02  0.00000000000E+00 0. -1.
        -11   -1    0    0    0    0 -0.00000000000E+00 -0.00000000000E+00 -0.30000000000E+02  0.30000000000E+02  0.00000000000E+00 0.  1.
         23    2    1    2    0    0  0.00000000000E+00  0.00000000000E+00  0.00000000000E+00  0.60000000000E+02  0.60000000000E+02 0.  0.
          5    1    3    3  501    0  0.19062416249E+02 -0.18104761130E+02 -0.13665720295E+02  0.30000000000E+02  0.47000000000E+01 0.  1.
         -5    1    3    3    0  501 -0.19062416249E+02  0.18104761130E+02  0.13665720295E+02  0.30000000000E+02  0.47000000000E+01 0. -1.
</event>
<event>
 5    1  0.7624361E-002  0.6000000E+02  0.7546771E-02  0.1259629E+00
         11   -1    0    0    0    0  0.00000000000E+00  0.00000000000E+00  0.30000000000E+02  0.30000000000E+02  0.00000000000E+00 0.  1.
        -11   -1    0    0    0    0 -0.00000000000E+00 -0.00000000000E+00 -0.30000000000E+02  0.30000000000E+02  0.00000000000E+00 0. -1.
         23    2    1    2    0    0  0.00000000000E+00  0.00000000000E+00  0.00000000000E+00  0.60000000000E+02  0.60000000000E+02 0.  0.
          5    1    3    3  501    0 -0.25098196054E+02  0.28747201904E+01 -0.15483104942E+02  0.30000000000E+02  0.47000000000E+01 0. -1.
         -5    1    3    3    0  501  0.25098196054E+02 -0.28747201904E+01  0.15483104942E+02  0.30000000000E+02  0.47000000000E+01 0.  1.
</event>
<event>
 5    1  0.7624361E-002  0.6000000E+02  0.7546771E-02  0.1259629E+00
         11   -1    0    0    0    0  0.00000000000E+00  0.00000000000E+00  0.30000000000E+02  0.30000000000E+02  0.00000000000E+00 0.  1.
        -11   -1    0    0    0    0 -0.00000000000E+00 -0.00000000000E+00 -0.30000000000E+02  0.30000000000E+02  0.00000000000E+00 0. -1.
         23    2    1    2    0    0  0.00000000000E+00  0.00000000000E+00  0.00000000000E+00  0.60000000000E+02  0.60000000000E+02 0.  0.
          5    1    3    3  501    0 -0.11379396029E+02  0.27062743369E+02 -0.40034069647E+01  0.30000000000E+02  0.47000000000E+01 0. -1.
         -5    1    3    3    0  501  0.11379396029E+02 -0.27062743369E+02  0.40034069647E+01  0.30000000000E+02  0.47000000000E+01 0.  1.
</event>
<event>
 5    1  0.7624361E-002  0.6000000E+02  0.7546771E-02  0.1259629E+00
         11   -1    0    0    0    0  0.00000000000E+00  0.00000000000E+00  0.30000000000E+02  0.30000000000E+02  0.00000000000E+00 0.  1.
        -11   -1    0    0    0    0 -0.00000000000E+00 -0.00000000000E+00 -0.30000000000E+02  0.30000000000E+02  0.00000000000E+00 0. -1.
         23    2    1    2    0    0  0.00000000000E+00  0.00000000000E+00  0.00000000000E+00  0.60000000000E+02  0.60000000000E+02 0.  0.
          5    1    3    3  501    0  0.14772872395E+02 -0.40755465198E+01 -0.25358670347E+02  0.30000000000E+02  0.47000000000E+01 0. -1.
         -5    1    3    3    0  501 -0.14772872395E+02  0.40755465198E+01  0.25358670347E+02  0.30000000000E+02  0.47000000000E+01 0.  1.
</event>
<event>
 5    1  0.7624361E-002  0.6000000E+02  0.7546771E-02  0.1259629E+00
         11   -1    0    0    0    0  0.00000000000E+00  0.00000000000E+00  0.30000000000E+02  0.30000000000E+02  0.00000000000E+00 0.  1.
        -11   -1    0    0    0    0 -0.00000000000E+00 -0.00000000000E+00 -0.30000000000E+02  0.30000000000E+02  0.00000000000E+00 0. -1.
         23    2    1    2    0    0  0.00000000000E+00  0.00000000000E+00  0.00000000000E+00  0.60000000000E+02  0.60000000000E+02 0.  0.
          5    1    3    3  501    0 -0.14498178519E+02 -0.20930169995E+02  0.15153903907E+02  0.30000000000E+02  0.47000000000E+01 0.  1.
         -5    1    3    3    0  501  0.14498178519E+02  0.20930169995E+02 -0.15153903907E+02  0.30000000000E+02  0.47000000000E+01 0. -1.
</event>
<event>
 5    1  0.7624361E-002  0.6000000E+02  0.7546771E-02  0.1259629E+00
         11   -1    0    0    0    0  0.00000000000E+00  0.00000000000E+00  0.30000000000E+02  0.30000000000E+02  0.00000000000E+00 0.  1.
        -11   -1    0    0    0    0 -0.00000000000E+00 -0.00000000000E+00 -0.30000000000E+02  0.30000000000E+02  0.00000000000E+00 0. -1.
         23    2    1    2    0    0  0.00000000000E+00  0.00000000000E+00  0.00000000000E+00  0.60000000000E+02  0.60000000000E+02 0.  0.
          5    1    3    3  501    0  0.50092760620E+01 -0.26282118712E+02  0.12730569088E+02  0.30000000000E+02  0.47000000000E+01 0.  1.
         -5    1    3    3    0  501 -0.50092760620E+01  0.26282118712E+02 -0.12730569088E+02  0.30000000000E+02  0.47000000000E+01 0. -1.
</event>
<event>
 5    1  0.7624361E-002  0.6000000E+02  0.7546771E-02  0.1259629E+00
         11   -1    0    0    0    0  0.00000000000E+00  0.00000000000E+00  0.30000000000E+02  0.30000000000E+02  0.00000000000E+00 0.  1.
        -11   -1    0    0    0    0 -0.00000000000E+00 -0.00000000000E+00 -0.30000000000E+02  0.30000000000E+02  0.00000000000E+00 0. -1.
         23    2    1    2    0    0  0.00000000000E+00  0.00000000000E+00  0.00000000000E+00  0.60000000000E+02  0.60000000000E+02 0.  0.
          5    1    3    3  501    0  0.27541587732E+02 -0.45407465223E+01 -0.99374325772E+01  0.30000000000E+02  0.47000000000E+01 0. -1.
         -5    1    3    3    0  501 -0.27541587732E+02  0.45407465223E+01  0.99374325772E+01  0.30000000000E+02  0.47000000000E+01 0.  1.
</event>
<event>
 5    1  0.7624361E-002  0.6000000E+02  0.7546771E-02  0.1259629E+00
         11   -1    0    0    0    0  0.00000000000E+00  0.00000000000E+00  0.30000000000E+02  0.30000000000E+02  0.00000000000E+00 0. -1.
        -11   -1    0    0    0    0 -0.00000000000E+00 -0.00000000000E+00 -0.30000000000E+02  0.30000000000E+02  0.00000000000E+00 0.  1.
         23    2    1    2    0    0  0.00000000000E+00  0.00000000000E+00  0.00000000000E+00  0.60000000000E+02  0.60000000000E+02 0.  0.
          5    1    3    3  501    0 -0.29532215320E+01 -0.22608556280E+01 -0.29395186926E+02  0.30000000000E+02  0.47000000000E+01 0.  1.
         -5    1    3    3    0  501  0.29532215320E+01  0.22608556280E+01  0.29395186926E+02  0.30000000000E+02  0.47000000000E+01 0. -1.
</event>
<event>
 5    1  0.7624361E-002  0.6000000E+02  0.7546771E-02  0.1259629E+00
         11   -1    0    0    0    0  0.00000000000E+00  0.00000000000E+00  0.30000000000E+02  0.30000000000E+02  0.00000000000E+00 0.  1.
        -11   -1    0    0    0    0 -0.00000000000E+00 -0.00000000000E+00 -0.30000000000E+02  0.30000000000E+02  0.00000000000E+00 0. -1.
         23    2    1    2    0    0  0.00000000000E+00  0.00000000000E+00  0.00000000000E+00  0.60000000000E+02  0.60000000000E+02 0.  0.
          5    1    3    3  501    0  0.36737142936E+01 -0.22494935615E+02 -0.18931235959E+02  0.30000000000E+02  0.47000000000E+01 0. -1.
         -5    1    3    3    0  501 -0.36737142936E+01  0.22494935615E+02  0.18931235959E+02  0.30000000000E+02  0.47000000000E+01 0.  1.
</event>
<event>
 5    1  0.7624361E-002  0.6000000E+02  0.7546771E-02  0.1259629E+00
         11   -1    0    0    0    0  0.00000000000E+00  0.00000000000E+00  0.30000000000E+02  0.30000000000E+02  0.00000000000E+00 0.  1.
        -11   -1    0    0    0    0 -0.00000000000E+00 -0.00000000000E+00 -0.30000000000E+02  0.30000000000E+02  0.00000000000E+00 0. -1.
         23    2    1    2    0    0  0.00000000000E+00  0.00000000000E+00  0.00000000000E+00  0.60000000000E+02  0.60000000000E+02 0.  0.
          5    1    3    3  501    0  0.12653930757E+02  0.12705895247E+02 -0.23587035896E+02  0.30000000000E+02  0.47000000000E+01 0. -1.
         -5    1    3    3    0  501 -0.12653930757E+02 -0.12705895247E+02  0.23587035896E+02  0.30000000000E+02  0.47000000000E+01 0.  1.
</event>
<event>
 5    1  0.7624361E-002  0.6000000E+02  0.7546771E-02  0.1259629E+00
         11   -1    0    0    0    0  0.00000000000E+00  0.00000000000E+00  0.30000000000E+02  0.30000000000E+02  0.00000000000E+00 0.  1.
        -11   -1    0    0    0    0 -0.00000000000E+00 -0.00000000000E+00 -0.30000000000E+02  0.30000000000E+02  0.00000000000E+00 0. -1.
         23    2    1    2    0    0  0.00000000000E+00  0.00000000000E+00  0.00000000000E+00  0.60000000000E+02  0.60000000000E+02 0.  0.
          5    1    3    3  501    0  0.18846200490E+02  0.18465594995E+02 -0.13481562543E+02  0.30000000000E+02  0.47000000000E+01 0. -1.
         -5    1    3    3    0  501 -0.18846200490E+02 -0.18465594995E+02  0.13481562543E+02  0.30000000000E+02  0.47000000000E+01 0.  1.
</event>
<event>
 5    1  0.7624361E-002  0.6000000E+02  0.7546771E-02  0.1259629E+00
         11   -1    0    0    0    0  0.00000000000E+00  0.00000000000E+00  0.30000000000E+02  0.30000000000E+02  0.00000000000E+00 0.  1.
        -11   -1    0    0    0    0 -0.00000000000E+00 -0.00000000000E+00 -0.30000000000E+02  0.30000000000E+02  0.00000000000E+00 0. -1.
         23    2    1    2    0    0  0.00000000000E+00  0.00000000000E+00  0.00000000000E+00  0.60000000000E+02  0.60000000000E+02 0.  0.
          5    1    3    3  501    0  0.10500492752E+02 -0.26643609250E+02  0.76005090694E+01  0.30000000000E+02  0.47000000000E+01 0. -1.
         -5    1    3    3    0  501 -0.10500492752E+02  0.26643609250E+02 -0.76005090694E+01  0.30000000000E+02  0.47000000000E+01 0.  1.
</event>
<event>
 5    1  0.7624361E-002  0.6000000E+02  0.7546771E-02  0.1259629E+00
         11   -1    0    0    0    0  0.00000000000E+00  0.00000000000E+00  0.30000000000E+02  0.30000000000E+02  0.00000000000E+00 0.  1.
        -11   -1    0    0    0    0 -0.00000000000E+00 -0.00000000000E+00 -0.30000000000E+02  0.30000000000E+02  0.00000000000E+00 0. -1.
         23    2    1    2    0    0  0.00000000000E+00  0.00000000000E+00  0.00000000000E+00  0.60000000000E+02  0.60000000000E+02 0.  0.
          5    1    3    3  501    0  0.20516905893E+01 -0.19465111783E+02 -0.22244324872E+02  0.30000000000E+02  0.47000000000E+01 0. -1.
         -5    1    3    3    0  501 -0.20516905893E+01  0.19465111783E+02  0.22244324872E+02  0.30000000000E+02  0.47000000000E+01 0.  1.
</event>
<event>
 5    1  0.7624361E-002  0.6000000E+02  0.7546771E-02  0.1259629E+00
         11   -1    0    0    0    0  0.00000000000E+00  0.00000000000E+00  0.30000000000E+02  0.30000000000E+02  0.00000000000E+00 0.  1.
        -11   -1    0    0    0    0 -0.00000000000E+00 -0.00000000000E+00 -0.30000000000E+02  0.30000000000E+02  0.00000000000E+00 0. -1.
         23    2    1    2    0    0  0.00000000000E+00  0.00000000000E+00  0.00000000000E+00  0.60000000000E+02  0.60000000000E+02 0.  0.
          5    1    3    3  501    0 -0.16155135668E+02 -0.49462541528E+01 -0.24340422375E+02  0.30000000000E+02  0.47000000000E+01 0. -1.
         -5    1    3    3    0  501  0.16155135668E+02  0.49462541528E+01  0.24340422375E+02  0.30000000000E+02  0.47000000000E+01 0.  1.
</event>
<event>
 5    1  0.7624361E-002  0.6000000E+02  0.7546771E-02  0.1259629E+00
         11   -1    0    0    0    0  0.00000000000E+00  0.00000000000E+00  0.30000000000E+02  0.30000000000E+02  0.00000000000E+00 0. -1.
        -11   -1    0    0    0    0 -0.00000000000E+00 -0.00000000000E+00 -0.30000000000E+02  0.30000000000E+02  0.00000000000E+00 0.  1.
         23    2    1    2    0    0  0.00000000000E+00  0.00000000000E+00  0.00000000000E+00  0.60000000000E+02  0.60000000000E+02 0.  0.
          5    1    3    3  501    0 -0.18400341390E+00 -0.29084932756E+02 -0.56517987682E+01  0.30000000000E+02  0.47000000000E+01 0. -1.
         -5    1    3    3    0  501  0.18400341390E+00  0.29084932756E+02  0.56517987682E+01  0.30000000000E+02  0.47000000000E+01 0.  1.
</event>
<event>
 5    1  0.7624361E-002  0.6000000E+02  0.7546771E-02  0.1259629E+00
         11   -1    0    0    0    0  0.00000000000E+00  0.00000000000E+00  0.30000000000E+02  0.30000000000E+02  0.00000000000E+00 0.  1.
        -11   -1    0    0    0    0 -0.00000000000E+00 -0.00000000000E+00 -0.30000000000E+02  0.30000000000E+02  0.00000000000E+00 0. -1.
         23    2    1    2    0    0  0.00000000000E+00  0.00000000000E+00  0.00000000000E+00  0.60000000000E+02  0.60000000000E+02 0.  0.
          5    1    3    3  501    0  0.10208698200E+02 -0.22754511912E+02  0.15997645723E+02  0.30000000000E+02  0.47000000000E+01 0.  1.
         -5    1    3    3    0  501 -0.10208698200E+02  0.22754511912E+02 -0.15997645723E+02  0.30000000000E+02  0.47000000000E+01 0. -1.
</event>
<event>
 5    1  0.7624361E-002  0.6000000E+02  0.7546771E-02  0.1259629E+00
         11   -1    0    0    0    0  0.00000000000E+00  0.00000000000E+00  0.30000000000E+02  0.30000000000E+02  0.00000000000E+00 0. -1.
        -11   -1    0    0    0    0 -0.00000000000E+00 -0.00000000000E+00 -0.30000000000E+02  0.30000000000E+02  0.00000000000E+00 0.  1.
         23    2    1    2    0    0  0.00000000000E+00  0.00000000000E+00  0.00000000000E+00  0.60000000000E+02  0.60000000000E+02 0.  0.
          5    1    3    3  501    0 -0.25548701443E+02 -0.14952085446E+02  0.12684618189E+01  0.30000000000E+02  0.47000000000E+01 0.  1.
         -5    1    3    3    0  501  0.25548701443E+02  0.14952085446E+02 -0.12684618189E+01  0.30000000000E+02  0.47000000000E+01 0. -1.
</event>
<event>
 5    1  0.7624361E-002  0.6000000E+02  0.7546771E-02  0.1259629E+00
         11   -1    0    0    0    0  0.00000000000E+00  0.00000000000E+00  0.30000000000E+02  0.30000000000E+02  0.00000000000E+00 0.  1.
        -11   -1    0    0    0    0 -0.00000000000E+00 -0.00000000000E+00 -0.30000000000E+02  0.30000000000E+02  0.00000000000E+00 0. -1.
         23    2    1    2    0    0  0.00000000000E+00  0.00000000000E+00  0.00000000000E+00  0.60000000000E+02  0.60000000000E+02 0.  0.
          5    1    3    3  501    0  0.26176408902E+02  0.70947789372E+01 -0.11931878679E+02  0.30000000000E+02  0.47000000000E+01 0. -1.
         -5    1    3    3    0  501 -0.26176408902E+02 -0.70947789372E+01  0.11931878679E+02  0.30000000000E+02  0.47000000000E+01 0.  1.
</event>
<event>
 5    1  0.7624361E-002  0.6000000E+02  0.7546771E-02  0.1259629E+00
         11   -1    0    0    0    0  0.00000000000E+00  0.00000000000E+00  0.30000000000E+02  0.30000000000E+02  0.00000000000E+00 0.  1.
        -11   -1    0    0    0    0 -0.00000000000E+00 -0.00000000000E+00 -0.30000000000E+02  0.30000000000E+02  0.00000000000E+00 0. -1.
         23    2    1    2    0    0  0.00000000000E+00  0.00000000000E+00  0.00000000000E+00  0.60000000000E+02  0.60000000000E+02 0.  0.
          5    1    3    3  501    0 -0.16554629125E+02  0.24458520569E+02  0.23738209903E+01  0.30000000000E+02  0.47000000000E+01 0. -1.
         -5    1    3    3    0  501  0.16554629125E+02 -0.24458520569E+02 -0.23738209903E+01  0.30000000000E+02  0.47000000000E+01 0.  1.
</event>
<event>
 5    1  0.7624361E-002  0.6000000E+02  0.7546771E-02  0.1259629E+00
         11   -1    0    0    0    0  0.00000000000E+00  0.00000000000E+00  0.30000000000E+02  0.30000000000E+02  0.00000000000E+00 0.  1.
        -11   -1    0    0    0    0 -0.00000000000E+00 -0.00000000000E+00 -0.30000000000E+02  0.30000000000E+02  0.00000000000E+00 0. -1.
         23    2    1    2    0    0  0.00000000000E+00  0.00000000000E+00  0.00000000000E+00  0.60000000000E+02  0.60000000000E+02 0.  0.
          5    1    3    3  501    0  0.19237544393E+02 -0.12868455339E+02 -0.18499452503E+02  0.30000000000E+02  0.47000000000E+01 0. -1.
         -5    1    3    3    0  501 -0.19237544393E+02  0.12868455339E+02  0.18499452503E+02  0.30000000000E+02  0.47000000000E+01 0.  1.
</event>
<event>
 5    1  0.7624361E-002  0.6000000E+02  0.7546771E-02  0.1259629E+00
         11   -1    0    0    0    0  0.00000000000E+00  0.00000000000E+00  0.30000000000E+02  0.30000000000E+02  0.00000000000E+00 0.  1.
        -11   -1    0    0    0    0 -0.00000000000E+00 -0.00000000000E+00 -0.30000000000E+02  0.30000000000E+02  0.00000000000E+00 0. -1.
         23    2    1    2    0    0  0.00000000000E+00  0.00000000000E+00  0.00000000000E+00  0.60000000000E+02  0.60000000000E+02 0.  0.
          5    1    3    3  501    0  0.69359014779E+01  0.17895002147E+02 -0.22573705253E+02  0.30000000000E+02  0.47000000000E+01 0. -1.
         -5    1    3    3    0  501 -0.69359014779E+01 -0.17895002147E+02  0.22573705253E+02  0.30000000000E+02  0.47000000000E+01 0.  1.
</event>
<event>
 5    1  0.7624361E-002  0.6000000E+02  0.7546771E-02  0.1259629E+00
         11   -1    0    0    0    0  0.00000000000E+00  0.00000000000E+00  0.30000000000E+02  0.30000000000E+02  0.00000000000E+00 0.  1.
        -11   -1    0    0    0    0 -0.00000000000E+00 -0.00000000000E+00 -0.30000000000E+02  0.30000000000E+02  0.00000000000E+00 0. -1.
         23    2    1    2    0    0  0.00000000000E+00  0.00000000000E+00  0.00000000000E+00  0.60000000000E+02  0.60000000000E+02 0.  0.
          5    1    3    3  501    0  0.18423109429E+02  0.58008621371E+01 -0.22468845930E+02  0.30000000000E+02  0.47000000000E+01 0. -1.
         -5    1    3    3    0  501 -0.18423109429E+02 -0.58008621371E+01  0.22468845930E+02  0.30000000000E+02  0.47000000000E+01 0.  1.
</event>
<event>
 5    1  0.7624361E-002  0.6000000E+02  0.7546771E-02  0.1259629E+00
         11   -1    0    0    0    0  0.00000000000E+00  0.00000000000E+00  0.30000000000E+02  0.30000000000E+02  0.00000000000E+00 0.  1.
        -11   -1    0    0    0    0 -0.00000000000E+00 -0.00000000000E+00 -0.30000000000E+02  0.30000000000E+02  0.00000000000E+00 0. -1.
         23    2    1    2    0    0  0.00000000000E+00  0.00000000000E+00  0.00000000000E+00  0.60000000000E+02  0.60000000000E+02 0.  0.
          5    1    3    3  501    0 -0.15907855666E+02 -0.24521112240E+02 -0.48543982753E+01  0.30000000000E+02  0.47000000000E+01 0. -1.
         -5    1    3    3    0  501  0.15907855666E+02  0.24521112240E+02  0.48543982753E+01  0.30000000000E+02  0.47000000000E+01 0.  1.
</event>
<event>
 5    1  0.7624361E-002  0.6000000E+02  0.7546771E-02  0.1259629E+00
         11   -1    0    0    0    0  0.00000000000E+00  0.00000000000E+00  0.30000000000E+02  0.30000000000E+02  0.00000000000E+00 0. -1.
        -11   -1    0    0    0    0 -0.00000000000E+00 -0.00000000000E+00 -0.30000000000E+02  0.30000000000E+02  0.00000000000E+00 0.  1.
         23    2    1    2    0    0  0.00000000000E+00  0.00000000000E+00  0.00000000000E+00  0.60000000000E+02  0.60000000000E+02 0.  0.
          5    1    3    3  501    0  0.26696369555E+02 -0.75076168090E+01 -0.10433098410E+02  0.30000000000E+02  0.47000000000E+01 0.  1.
         -5    1    3    3    0  501 -0.26696369555E+02  0.75076168090E+01  0.10433098410E+02  0.30000000000E+02  0.47000000000E+01 0. -1.
</event>
<event>
 5    1  0.7624361E-002  0.6000000E+02  0.7546771E-02  0.1259629E+00
         11   -1    0    0    0    0  0.00000000000E+00  0.00000000000E+00  0.30000000000E+02  0.30000000000E+02  0.00000000000E+00 0.  1.
        -11   -1    0    0    0    0 -0.00000000000E+00 -0.00000000000E+00 -0.30000000000E+02  0.30000000000E+02  0.00000000000E+00 0. -1.
         23    2    1    2    0    0  0.00000000000E+00  0.00000000000E+00  0.00000000000E+00  0.60000000000E+02  0.60000000000E+02 0.  0.
          5    1    3    3  501    0 -0.17969555843E+02 -0.21873007290E+02 -0.87508065277E+01  0.30000000000E+02  0.47000000000E+01 0. -1.
         -5    1    3    3    0  501  0.17969555843E+02  0.21873007290E+02  0.87508065277E+01  0.30000000000E+02  0.47000000000E+01 0.  1.
</event>
<event>
 5    1  0.7624361E-002  0.6000000E+02  0.7546771E-02  0.1259629E+00
         11   -1    0    0    0    0  0.00000000000E+00  0.00000000000E+00  0.30000000000E+02  0.30000000000E+02  0.00000000000E+00 0.  1.
        -11   -1    0    0    0    0 -0.00000000000E+00 -0.00000000000E+00 -0.30000000000E+02  0.30000000000E+02  0.00000000000E+00 0. -1.
         23    2    1    2    0    0  0.00000000000E+00  0.00000000000E+00  0.00000000000E+00  0.60000000000E+02  0.60000000000E+02 0.  0.
          5    1    3    3  501    0 -0.31642112631E+00 -0.10673546337E+02 -0.27638474746E+02  0.30000000000E+02  0.47000000000E+01 0. -1.
         -5    1    3    3    0  501  0.31642112631E+00  0.10673546337E+02  0.27638474746E+02  0.30000000000E+02  0.47000000000E+01 0.  1.
</event>
<event>
 5    1  0.7624361E-002  0.6000000E+02  0.7546771E-02  0.1259629E+00
         11   -1    0    0    0    0  0.00000000000E+00  0.00000000000E+00  0.30000000000E+02  0.30000000000E+02  0.00000000000E+00 0. -1.
        -11   -1    0    0    0    0 -0.00000000000E+00 -0.00000000000E+00 -0.30000000000E+02  0.30000000000E+02  0.00000000000E+00 0.  1.
         23    2    1    2    0    0  0.00000000000E+00  0.00000000000E+00  0.00000000000E+00  0.60000000000E+02  0.60000000000E+02 0.  0.
          5    1    3    3  501    0  0.13595633645E+02  0.94368919656E+01 -0.24576692532E+02  0.30000000000E+02  0.47000000000E+01 0.  1.
         -5    1    3    3    0  501 -0.13595633645E+02 -0.94368919656E+01  0.24576692532E+02  0.30000000000E+02  0.47000000000E+01 0. -1.
</event>
<event>
 5    1  0.7624361E-002  0.6000000E+02  0.7546771E-02  0.1259629E+00
         11   -1    0    0    0    0  0.00000000000E+00  0.00000000000E+00  0.30000000000E+02  0.30000000000E+02  0.00000000000E+00 0.  1.
        -11   -1    0    0    0    0 -0.00000000000E+00 -0.00000000000E+00 -0.30000000000E+02  0.30000000000E+02  0.00000000000E+00 0. -1.
         23    2    1    2    0    0  0.00000000000E+00  0.00000000000E+00  0.00000000000E+00  0.60000000000E+02  0.60000000000E+02 0.  0.
          5    1    3    3  501    0  0.57961015640E+01  0.15344376839E+02 -0.24675196171E+02  0.30000000000E+02  0.47000000000E+01 0. -1.
         -5    1    3    3    0  501 -0.57961015640E+01 -0.15344376839E+02  0.24675196171E+02  0.30000000000E+02  0.47000000000E+01 0.  1.
</event>
<event>
 5    1  0.7624361E-002  0.6000000E+02  0.7546771E-02  0.1259629E+00
         11   -1    0    0    0    0  0.00000000000E+00  0.00000000000E+00  0.30000000000E+02  0.30000000000E+02  0.00000000000E+00 0.  1.
        -11   -1    0    0    0    0 -0.00000000000E+00 -0.00000000000E+00 -0.30000000000E+02  0.30000000000E+02  0.00000000000E+00 0. -1.
         23    2    1    2    0    0  0.00000000000E+00  0.00000000000E+00  0.00000000000E+00  0.60000000000E+02  0.60000000000E+02 0.  0.
          5    1    3    3  501    0  0.63502877141E+01 -0.52937672513E+01 -0.28452765669E+02  0.30000000000E+02  0.47000000000E+01 0. -1.
         -5    1    3    3    0  501 -0.63502877141E+01  0.52937672513E+01  0.28452765669E+02  0.30000000000E+02  0.47000000000E+01 0.  1.
</event>
<event>
 5    1  0.7624361E-002  0.6000000E+02  0.7546771E-02  0.1259629E+00
         11   -1    0    0    0    0  0.00000000000E+00  0.00000000000E+00  0.30000000000E+02  0.30000000000E+02  0.00000000000E+00 0.  1.
        -11   -1    0    0    0    0 -0.00000000000E+00 -0.00000000000E+00 -0.30000000000E+02  0.30000000000E+02  0.00000000000E+00 0. -1.
         23    2    1    2    0    0  0.00000000000E+00  0.00000000000E+00  0.00000000000E+00  0.60000000000E+02  0.60000000000E+02 0.  0.
          5    1    3    3  501    0 -0.17439388002E+02  0.10209658074E+02 -0.21668886176E+02  0.30000000000E+02  0.47000000000E+01 0. -1.
         -5    1    3    3    0  501  0.17439388002E+02 -0.10209658074E+02  0.21668886176E+02  0.30000000000E+02  0.47000000000E+01 0.  1.
</event>
<event>
 5    1  0.7624361E-002  0.6000000E+02  0.7546771E-02  0.1259629E+00
         11   -1    0    0    0    0  0.00000000000E+00  0.00000000000E+00  0.30000000000E+02  0.30000000000E+02  0.00000000000E+00 0.  1.
        -11   -1    0    0    0    0 -0.00000000000E+00 -0.00000000000E+00 -0.30000000000E+02  0.30000000000E+02  0.00000000000E+00 0. -1.
         23    2    1    2    0    0  0.00000000000E+00  0.00000000000E+00  0.00000000000E+00  0.60000000000E+02  0.60000000000E+02 0.  0.
          5    1    3    3  501    0 -0.59194807388E+01 -0.27004996266E+02 -0.10658326533E+02  0.30000000000E+02  0.47000000000E+01 0. -1.
         -5    1    3    3    0  501  0.59194807388E+01  0.27004996266E+02  0.10658326533E+02  0.30000000000E+02  0.47000000000E+01 0.  1.
</event>
<event>
 5    1  0.7624361E-002  0.6000000E+02  0.7546771E-02  0.1259629E+00
         11   -1    0    0    0    0  0.00000000000E+00  0.00000000000E+00  0.30000000000E+02  0.30000000000E+02  0.00000000000E+00 0.  1.
        -11   -1    0    0    0    0 -0.00000000000E+00 -0.00000000000E+00 -0.30000000000E+02  0.30000000000E+02  0.00000000000E+00 0. -1.
         23    2    1    2    0    0  0.00000000000E+00  0.00000000000E+00  0.00000000000E+00  0.60000000000E+02  0.60000000000E+02 0.  0.
          5    1    3    3  501    0 -0.10394882913E+02 -0.14852038407E+02 -0.23436581756E+02  0.30000000000E+02  0.47000000000E+01 0. -1.
         -5    1    3    3    0  501  0.10394882913E+02  0.14852038407E+02  0.23436581756E+02  0.30000000000E+02  0.47000000000E+01 0.  1.
</event>
<event>
 5    1  0.7624361E-002  0.6000000E+02  0.7546771E-02  0.1259629E+00
         11   -1    0    0    0    0  0.00000000000E+00  0.00000000000E+00  0.30000000000E+02  0.30000000000E+02  0.00000000000E+00 0.  1.
        -11   -1    0    0    0    0 -0.00000000000E+00 -0.00000000000E+00 -0.30000000000E+02  0.30000000000E+02  0.00000000000E+00 0. -1.
         23    2    1    2    0    0  0.00000000000E+00  0.00000000000E+00  0.00000000000E+00  0.60000000000E+02  0.60000000000E+02 0.  0.
          5    1    3    3  501    0 -0.18815307526E+02  0.20715433657E+02  0.97347322051E+01  0.30000000000E+02  0.47000000000E+01 0.  1.
         -5    1    3    3    0  501  0.18815307526E+02 -0.20715433657E+02 -0.97347322051E+01  0.30000000000E+02  0.47000000000E+01 0. -1.
</event>
<event>
 5    1  0.7624361E-002  0.6000000E+02  0.7546771E-02  0.1259629E+00
         11   -1    0    0    0    0  0.00000000000E+00  0.00000000000E+00  0.30000000000E+02  0.30000000000E+02  0.00000000000E+00 0.  1.
        -11   -1    0    0    0    0 -0.00000000000E+00 -0.00000000000E+00 -0.30000000000E+02  0.30000000000E+02  0.00000000000E+00 0. -1.
         23    2    1    2    0    0  0.00000000000E+00  0.00000000000E+00  0.00000000000E+00  0.60000000000E+02  0.60000000000E+02 0.  0.
          5    1    3    3  501    0 -0.10429964461E+01 -0.69085714652E+01 -0.28793988934E+02  0.30000000000E+02  0.47000000000E+01 0. -1.
         -5    1    3    3    0  501  0.10429964461E+01  0.69085714652E+01  0.28793988934E+02  0.30000000000E+02  0.47000000000E+01 0.  1.
</event>
<event>
 5    1  0.7624361E-002  0.6000000E+02  0.7546771E-02  0.1259629E+00
         11   -1    0    0    0    0  0.00000000000E+00  0.00000000000E+00  0.30000000000E+02  0.30000000000E+02  0.00000000000E+00 0.  1.
        -11   -1    0    0    0    0 -0.00000000000E+00 -0.00000000000E+00 -0.30000000000E+02  0.30000000000E+02  0.00000000000E+00 0. -1.
         23    2    1    2    0    0  0.00000000000E+00  0.00000000000E+00  0.00000000000E+00  0.60000000000E+02  0.60000000000E+02 0.  0.
          5    1    3    3  501    0  0.18133121117E+02  0.12958962665E+02 -0.19523452697E+02  0.30000000000E+02  0.47000000000E+01 0. -1.
         -5    1    3    3    0  501 -0.18133121117E+02 -0.12958962665E+02  0.19523452697E+02  0.30000000000E+02  0.47000000000E+01 0.  1.
</event>
<event>
 5    1  0.7624361E-002  0.6000000E+02  0.7546771E-02  0.1259629E+00
         11   -1    0    0    0    0  0.00000000000E+00  0.00000000000E+00  0.30000000000E+02  0.30000000000E+02  0.00000000000E+00 0.  1.
        -11   -1    0    0    0    0 -0.00000000000E+00 -0.00000000000E+00 -0.30000000000E+02  0.30000000000E+02  0.00000000000E+00 0. -1.
         23    2    1    2    0    0  0.00000000000E+00  0.00000000000E+00  0.00000000000E+00  0.60000000000E+02  0.60000000000E+02 0.  0.
          5    1    3    3  501    0  0.18473196385E+02  0.92919142579E+01 -0.21220540633E+02  0.30000000000E+02  0.47000000000E+01 0. -1.
         -5    1    3    3    0  501 -0.18473196385E+02 -0.92919142579E+01  0.21220540633E+02  0.30000000000E+02  0.47000000000E+01 0.  1.
</event>
<event>
 5    1  0.7624361E-002  0.6000000E+02  0.7546771E-02  0.1259629E+00
         11   -1    0    0    0    0  0.00000000000E+00  0.00000000000E+00  0.30000000000E+02  0.30000000000E+02  0.00000000000E+00 0.  1.
        -11   -1    0    0    0    0 -0.00000000000E+00 -0.00000000000E+00 -0.30000000000E+02  0.30000000000E+02  0.00000000000E+00 0. -1.
         23    2    1    2    0    0  0.00000000000E+00  0.00000000000E+00  0.00000000000E+00  0.60000000000E+02  0.60000000000E+02 0.  0.
          5    1    3    3  501    0  0.63238280926E+01 -0.21294484111E+02 -0.19607757259E+02  0.30000000000E+02  0.47000000000E+01 0. -1.
         -5    1    3    3    0  501 -0.63238280926E+01  0.21294484111E+02  0.19607757259E+02  0.30000000000E+02  0.47000000000E+01 0.  1.
</event>
<event>
 5    1  0.7624361E-002  0.6000000E+02  0.7546771E-02  0.1259629E+00
         11   -1    0    0    0    0  0.00000000000E+00  0.00000000000E+00  0.30000000000E+02  0.30000000000E+02  0.00000000000E+00 0.  1.
        -11   -1    0    0    0    0 -0.00000000000E+00 -0.00000000000E+00 -0.30000000000E+02  0.30000000000E+02  0.00000000000E+00 0. -1.
         23    2    1    2    0    0  0.00000000000E+00  0.00000000000E+00  0.00000000000E+00  0.60000000000E+02  0.60000000000E+02 0.  0.
          5    1    3    3  501    0  0.11060988408E+02 -0.13361901533E+01 -0.27455038359E+02  0.30000000000E+02  0.47000000000E+01 0. -1.
         -5    1    3    3    0  501 -0.11060988408E+02  0.13361901533E+01  0.27455038359E+02  0.30000000000E+02  0.47000000000E+01 0.  1.
</event>
<event>
 5    1  0.7624361E-002  0.6000000E+02  0.7546771E-02  0.1259629E+00
         11   -1    0    0    0    0  0.00000000000E+00  0.00000000000E+00  0.30000000000E+02  0.30000000000E+02  0.00000000000E+00 0.  1.
        -11   -1    0    0    0    0 -0.00000000000E+00 -0.00000000000E+00 -0.30000000000E+02  0.30000000000E+02  0.00000000000E+00 0. -1.
         23    2    1    2    0    0  0.00000000000E+00  0.00000000000E+00  0.00000000000E+00  0.60000000000E+02  0.60000000000E+02 0.  0.
          5    1    3    3  501    0 -0.18885607677E+02  0.14040502668E+02 -0.18003002736E+02  0.30000000000E+02  0.47000000000E+01 0. -1.
         -5    1    3    3    0  501  0.18885607677E+02 -0.14040502668E+02  0.18003002736E+02  0.30000000000E+02  0.47000000000E+01 0.  1.
</event>
<event>
 5    1  0.7624361E-002  0.6000000E+02  0.7546771E-02  0.1259629E+00
         11   -1    0    0    0    0  0.00000000000E+00  0.00000000000E+00  0.30000000000E+02  0.30000000000E+02  0.00000000000E+00 0.  1.
        -11   -1    0    0    0    0 -0.00000000000E+00 -0.00000000000E+00 -0.30000000000E+02  0.30000000000E+02  0.00000000000E+00 0. -1.
         23    2    1    2    0    0  0.00000000000E+00  0.00000000000E+00  0.00000000000E+00  0.60000000000E+02  0.60000000000E+02 0.  0.
          5    1    3    3  501    0  0.29387851798E+02 -0.37418613043E+01 -0.51248480960E+00  0.30000000000E+02  0.47000000000E+01 0. -1.
         -5    1    3    3    0  501 -0.29387851798E+02  0.37418613043E+01  0.51248480960E+00  0.30000000000E+02  0.47000000000E+01 0.  1.
</event>
<event>
 5    1  0.7624361E-002  0.6000000E+02  0.7546771E-02  0.1259629E+00
         11   -1    0    0    0    0  0.00000000000E+00  0.00000000000E+00  0.30000000000E+02  0.30000000000E+02  0.00000000000E+00 0.  1.
        -11   -1    0    0    0    0 -0.00000000000E+00 -0.00000000000E+00 -0.30000000000E+02  0.30000000000E+02  0.00000000000E+00 0. -1.
         23    2    1    2    0    0  0.00000000000E+00  0.00000000000E+00  0.00000000000E+00  0.60000000000E+02  0.60000000000E+02 0.  0.
          5    1    3    3  501    0 -0.25064139372E+02 -0.14423034511E+02 -0.64556171702E+01  0.30000000000E+02  0.47000000000E+01 0.  1.
         -5    1    3    3    0  501  0.25064139372E+02  0.14423034511E+02  0.64556171702E+01  0.30000000000E+02  0.47000000000E+01 0. -1.
</event>
<event>
 5    1  0.7624361E-002  0.6000000E+02  0.7546771E-02  0.1259629E+00
         11   -1    0    0    0    0  0.00000000000E+00  0.00000000000E+00  0.30000000000E+02  0.30000000000E+02  0.00000000000E+00 0.  1.
        -11   -1    0    0    0    0 -0.00000000000E+00 -0.00000000000E+00 -0.30000000000E+02  0.30000000000E+02  0.00000000000E+00 0. -1.
         23    2    1    2    0    0  0.00000000000E+00  0.00000000000E+00  0.00000000000E+00  0.60000000000E+02  0.60000000000E+02 0.  0.
          5    1    3    3  501    0  0.55790911173E+01 -0.67402682701E+01 -0.28308170657E+02  0.30000000000E+02  0.47000000000E+01 0. -1.
         -5    1    3    3    0  501 -0.55790911173E+01  0.67402682701E+01  0.28308170657E+02  0.30000000000E+02  0.47000000000E+01 0.  1.
</event>
<event>
 5    1  0.7624361E-002  0.6000000E+02  0.7546771E-02  0.1259629E+00
         11   -1    0    0    0    0  0.00000000000E+00  0.00000000000E+00  0.30000000000E+02  0.30000000000E+02  0.00000000000E+00 0.  1.
        -11   -1    0    0    0    0 -0.00000000000E+00 -0.00000000000E+00 -0.30000000000E+02  0.30000000000E+02  0.00000000000E+00 0. -1.
         23    2    1    2    0    0  0.00000000000E+00  0.00000000000E+00  0.00000000000E+00  0.60000000000E+02  0.60000000000E+02 0.  0.
          5    1    3    3  501    0 -0.10335017972E+02 -0.27766520382E+02  0.34314630222E+00  0.30000000000E+02  0.47000000000E+01 0. -1.
         -5    1    3    3    0  501  0.10335017972E+02  0.27766520382E+02 -0.34314630222E+00  0.30000000000E+02  0.47000000000E+01 0.  1.
</event>
<event>
 5    1  0.7624361E-002  0.6000000E+02  0.7546771E-02  0.1259629E+00
         11   -1    0    0    0    0  0.00000000000E+00  0.00000000000E+00  0.30000000000E+02  0.30000000000E+02  0.00000000000E+00 0. -1.
        -11   -1    0    0    0    0 -0.00000000000E+00 -0.00000000000E+00 -0.30000000000E+02  0.30000000000E+02  0.00000000000E+00 0.  1.
         23    2    1    2    0    0  0.00000000000E+00  0.00000000000E+00  0.00000000000E+00  0.60000000000E+02  0.60000000000E+02 0.  0.
          5    1    3    3  501    0  0.48682586881E+01  0.10038555521E+02 -0.27448815282E+02  0.30000000000E+02  0.47000000000E+01 0.  1.
         -5    1    3    3    0  501 -0.48682586881E+01 -0.10038555521E+02  0.27448815282E+02  0.30000000000E+02  0.47000000000E+01 0. -1.
</event>
<event>
 5    1  0.7624361E-002  0.6000000E+02  0.7546771E-02  0.1259629E+00
         11   -1    0    0    0    0  0.00000000000E+00  0.00000000000E+00  0.30000000000E+02  0.30000000000E+02  0.00000000000E+00 0.  1.
        -11   -1    0    0    0    0 -0.00000000000E+00 -0.00000000000E+00 -0.30000000000E+02  0.30000000000E+02  0.00000000000E+00 0. -1.
         23    2    1    2    0    0  0.00000000000E+00  0.00000000000E+00  0.00000000000E+00  0.60000000000E+02  0.60000000000E+02 0.  0.
          5    1    3    3  501    0  0.24552232070E+02 -0.14153613524E+02  0.86471454588E+01  0.30000000000E+02  0.47000000000E+01 0.  1.
         -5    1    3    3    0  501 -0.24552232070E+02  0.14153613524E+02 -0.86471454588E+01  0.30000000000E+02  0.47000000000E+01 0. -1.
</event>
<event>
 5    1  0.7624361E-002  0.6000000E+02  0.7546771E-02  0.1259629E+00
         11   -1    0    0    0    0  0.00000000000E+00  0.00000000000E+00  0.30000000000E+02  0.30000000000E+02  0.00000000000E+00 0.  1.
        -11   -1    0    0    0    0 -0.00000000000E+00 -0.00000000000E+00 -0.30000000000E+02  0.30000000000E+02  0.00000000000E+00 0. -1.
         23    2    1    2    0    0  0.00000000000E+00  0.00000000000E+00  0.00000000000E+00  0.60000000000E+02  0.60000000000E+02 0.  0.
          5    1    3    3  501    0  0.25558052382E+02  0.11831417286E+02 -0.92039949729E+01  0.30000000000E+02  0.47000000000E+01 0.  1.
         -5    1    3    3    0  501 -0.25558052382E+02 -0.11831417286E+02  0.92039949729E+01  0.30000000000E+02  0.47000000000E+01 0. -1.
</event>
<event>
 5    1  0.7624361E-002  0.6000000E+02  0.7546771E-02  0.1259629E+00
         11   -1    0    0    0    0  0.00000000000E+00  0.00000000000E+00  0.30000000000E+02  0.30000000000E+02  0.00000000000E+00 0. -1.
        -11   -1    0    0    0    0 -0.00000000000E+00 -0.00000000000E+00 -0.30000000000E+02  0.30000000000E+02  0.00000000000E+00 0.  1.
         23    2    1    2    0    0  0.00000000000E+00  0.00000000000E+00  0.00000000000E+00  0.60000000000E+02  0.60000000000E+02 0.  0.
          5    1    3    3  501    0 -0.15787534812E+02 -0.36179363660E+01 -0.24810769456E+02  0.30000000000E+02  0.47000000000E+01 0.  1.
         -5    1    3    3    0  501  0.15787534812E+02  0.36179363660E+01  0.24810769456E+02  0.30000000000E+02  0.47000000000E+01 0. -1.
</event>
<event>
 5    1  0.7624361E-002  0.6000000E+02  0.7546771E-02  0.1259629E+00
         11   -1    0    0    0    0  0.00000000000E+00  0.00000000000E+00  0.30000000000E+02  0.30000000000E+02  0.00000000000E+00 0.  1.
        -11   -1    0    0    0    0 -0.00000000000E+00 -0.00000000000E+00 -0.30000000000E+02  0.30000000000E+02  0.00000000000E+00 0. -1.
         23    2    1    2    0    0  0.00000000000E+00  0.00000000000E+00  0.00000000000E+00  0.60000000000E+02  0.60000000000E+02 0.  0.
          5    1    3    3  501    0  0.43255723983E+01  0.18047261034E+02 -0.23097527846E+02  0.30000000000E+02  0.47000000000E+01 0. -1.
         -5    1    3    3    0  501 -0.43255723983E+01 -0.18047261034E+02  0.23097527846E+02  0.30000000000E+02  0.47000000000E+01 0.  1.
</event>
<event>
 5    1  0.7624361E-002  0.6000000E+02  0.7546771E-02  0.1259629E+00
         11   -1    0    0    0    0  0.00000000000E+00  0.00000000000E+00  0.30000000000E+02  0.30000000000E+02  0.00000000000E+00 0.  1.
        -11   -1    0    0    0    0 -0.00000000000E+00 -0.00000000000E+00 -0.30000000000E+02  0.30000000000E+02  0.00000000000E+00 0. -1.
         23    2    1    2    0    0  0.00000000000E+00  0.00000000000E+00  0.00000000000E+00  0.60000000000E+02  0.60000000000E+02 0.  0.
          5    1    3    3  501    0 -0.13379693824E+02  0.22571184688E+02  0.13763553864E+02  0.30000000000E+02  0.47000000000E+01 0.  1.
         -5    1    3    3    0  501  0.13379693824E+02 -0.22571184688E+02 -0.13763553864E+02  0.30000000000E+02  0.47000000000E+01 0. -1.
</event>
<event>
 5    1  0.7624361E-002  0.6000000E+02  0.7546771E-02  0.1259629E+00
         11   -1    0    0    0    0  0.00000000000E+00  0.00000000000E+00  0.30000000000E+02  0.30000000000E+02  0.00000000000E+00 0. -1.
        -11   -1    0    0    0    0 -0.00000000000E+00 -0.00000000000E+00 -0.30000000000E+02  0.30000000000E+02  0.00000000000E+00 0.  1.
         23    2    1    2    0    0  0.00000000000E+00  0.00000000000E+00  0.00000000000E+00  0.60000000000E+02  0.60000000000E+02 0.  0.
          5    1    3    3  501    0  0.20845852455E+02 -0.20515448973E+02 -0.47409691913E+01  0.30000000000E+02  0.47000000000E+01 0.  1.
         -5    1    3    3    0  501 -0.20845852455E+02  0.20515448973E+02  0.47409691913E+01  0.30000000000E+02  0.47000000000E+01 0. -1.
</event>
<event>
 5    1  0.7624361E-002  0.6000000E+02  0.7546771E-02  0.1259629E+00
         11   -1    0    0    0    0  0.00000000000E+00  0.00000000000E+00  0.30000000000E+02  0.30000000000E+02  0.00000000000E+00 0.  1.
        -11   -1    0    0    0    0 -0.00000000000E+00 -0.00000000000E+00 -0.30000000000E+02  0.30000000000E+02  0.00000000000E+00 0. -1.
         23    2    1    2    0    0  0.00000000000E+00  0.00000000000E+00  0.00000000000E+00  0.60000000000E+02  0.60000000000E+02 0.  0.
          5    1    3    3  501    0 -0.14936008481E+02  0.63457607996E+01  0.24790259590E+02  0.30000000000E+02  0.47000000000E+01 0.  1.
         -5    1    3    3    0  501  0.14936008481E+02 -0.63457607996E+01 -0.24790259590E+02  0.30000000000E+02  0.47000000000E+01 0. -1.
</event>
<event>
 5    1  0.7624361E-002  0.6000000E+02  0.7546771E-02  0.1259629E+00
         11   -1    0    0    0    0  0.00000000000E+00  0.00000000000E+00  0.30000000000E+02  0.30000000000E+02  0.00000000000E+00 0.  1.
        -11   -1    0    0    0    0 -0.00000000000E+00 -0.00000000000E+00 -0.30000000000E+02  0.30000000000E+02  0.00000000000E+00 0. -1.
         23    2    1    2    0    0  0.00000000000E+00  0.00000000000E+00  0.00000000000E+00  0.60000000000E+02  0.60000000000E+02 0.  0.
          5    1    3    3  501    0  0.26217378722E+02  0.12951592679E+02  0.47765364058E+01  0.30000000000E+02  0.47000000000E+01 0. -1.
         -5    1    3    3    0  501 -0.26217378722E+02 -0.12951592679E+02 -0.47765364058E+01  0.30000000000E+02  0.47000000000E+01 0.  1.
</event>
<event>
 5    1  0.7624361E-002  0.6000000E+02  0.7546771E-02  0.1259629E+00
         11   -1    0    0    0    0  0.00000000000E+00  0.00000000000E+00  0.30000000000E+02  0.30000000000E+02  0.00000000000E+00 0. -1.
        -11   -1    0    0    0    0 -0.00000000000E+00 -0.00000000000E+00 -0.30000000000E+02  0.30000000000E+02  0.00000000000E+00 0.  1.
         23    2    1    2    0    0  0.00000000000E+00  0.00000000000E+00  0.00000000000E+00  0.60000000000E+02  0.60000000000E+02 0.  0.
          5    1    3    3  501    0  0.15778529219E+02  0.23853318559E+02 -0.77438497785E+01  0.30000000000E+02  0.47000000000E+01 0.  1.
         -5    1    3    3    0  501 -0.15778529219E+02 -0.23853318559E+02  0.77438497785E+01  0.30000000000E+02  0.47000000000E+01 0. -1.
</event>
<event>
 5    1  0.7624361E-002  0.6000000E+02  0.7546771E-02  0.1259629E+00
         11   -1    0    0    0    0  0.00000000000E+00  0.00000000000E+00  0.30000000000E+02  0.30000000000E+02  0.00000000000E+00 0.  1.
        -11   -1    0    0    0    0 -0.00000000000E+00 -0.00000000000E+00 -0.30000000000E+02  0.30000000000E+02  0.00000000000E+00 0. -1.
         23    2    1    2    0    0  0.00000000000E+00  0.00000000000E+00  0.00000000000E+00  0.60000000000E+02  0.60000000000E+02 0.  0.
          5    1    3    3  501    0 -0.97461610143E+01 -0.15980925692E+02 -0.22968072612E+02  0.30000000000E+02  0.47000000000E+01 0. -1.
         -5    1    3    3    0  501  0.97461610143E+01  0.15980925692E+02  0.22968072612E+02  0.30000000000E+02  0.47000000000E+01 0.  1.
</event>
<event>
 5    1  0.7624361E-002  0.6000000E+02  0.7546771E-02  0.1259629E+00
         11   -1    0    0    0    0  0.00000000000E+00  0.00000000000E+00  0.30000000000E+02  0.30000000000E+02  0.00000000000E+00 0.  1.
        -11   -1    0    0    0    0 -0.00000000000E+00 -0.00000000000E+00 -0.30000000000E+02  0.30000000000E+02  0.00000000000E+00 0. -1.
         23    2    1    2    0    0  0.00000000000E+00  0.00000000000E+00  0.00000000000E+00  0.60000000000E+02  0.60000000000E+02 0.  0.
          5    1    3    3  501    0 -0.21653508015E+02  0.11622651689E+02 -0.16551421642E+02  0.30000000000E+02  0.47000000000E+01 0.  1.
         -5    1    3    3    0  501  0.21653508015E+02 -0.11622651689E+02  0.16551421642E+02  0.30000000000E+02  0.47000000000E+01 0. -1.
</event>
<event>
 5    1  0.7624361E-002  0.6000000E+02  0.7546771E-02  0.1259629E+00
         11   -1    0    0    0    0  0.00000000000E+00  0.00000000000E+00  0.30000000000E+02  0.30000000000E+02  0.00000000000E+00 0.  1.
        -11   -1    0    0    0    0 -0.00000000000E+00 -0.00000000000E+00 -0.30000000000E+02  0.30000000000E+02  0.00000000000E+00 0. -1.
         23    2    1    2    0    0  0.00000000000E+00  0.00000000000E+00  0.00000000000E+00  0.60000000000E+02  0.60000000000E+02 0.  0.
          5    1    3    3  501    0  0.21442561293E+02  0.10058590833E+02 -0.17803126570E+02  0.30000000000E+02  0.47000000000E+01 0. -1.
         -5    1    3    3    0  501 -0.21442561293E+02 -0.10058590833E+02  0.17803126570E+02  0.30000000000E+02  0.47000000000E+01 0.  1.
</event>
<event>
 5    1  0.7624361E-002  0.6000000E+02  0.7546771E-02  0.1259629E+00
         11   -1    0    0    0    0  0.00000000000E+00  0.00000000000E+00  0.30000000000E+02  0.30000000000E+02  0.00000000000E+00 0.  1.
        -11   -1    0    0    0    0 -0.00000000000E+00 -0.00000000000E+00 -0.30000000000E+02  0.30000000000E+02  0.00000000000E+00 0. -1.
         23    2    1    2    0    0  0.00000000000E+00  0.00000000000E+00  0.00000000000E+00  0.60000000000E+02  0.60000000000E+02 0.  0.
          5    1    3    3  501    0  0.43437159411E+01 -0.15372087073E+02 -0.24954780521E+02  0.30000000000E+02  0.47000000000E+01 0. -1.
         -5    1    3    3    0  501 -0.43437159411E+01  0.15372087073E+02  0.24954780521E+02  0.30000000000E+02  0.47000000000E+01 0.  1.
</event>
<event>
 5    1  0.7624361E-002  0.6000000E+02  0.7546771E-02  0.1259629E+00
         11   -1    0    0    0    0  0.00000000000E+00  0.00000000000E+00  0.30000000000E+02  0.30000000000E+02  0.00000000000E+00 0.  1.
        -11   -1    0    0    0    0 -0.00000000000E+00 -0.00000000000E+00 -0.30000000000E+02  0.30000000000E+02  0.00000000000E+00 0. -1.
         23    2    1    2    0    0  0.00000000000E+00  0.00000000000E+00  0.00000000000E+00  0.60000000000E+02  0.60000000000E+02 0.  0.
          5    1    3    3  501    0 -0.13352902773E+02 -0.89090618618E+01 -0.24904590024E+02  0.30000000000E+02  0.47000000000E+01 0. -1.
         -5    1    3    3    0  501  0.13352902773E+02  0.89090618618E+01  0.24904590024E+02  0.30000000000E+02  0.47000000000E+01 0.  1.
</event>
<event>
 5    1  0.7624361E-002  0.6000000E+02  0.7546771E-02  0.1259629E+00
         11   -1    0    0    0    0  0.00000000000E+00  0.00000000000E+00  0.30000000000E+02  0.30000000000E+02  0.00000000000E+00 0. -1.
        -11   -1    0    0    0    0 -0.00000000000E+00 -0.00000000000E+00 -0.30000000000E+02  0.30000000000E+02  0.00000000000E+00 0.  1.
         23    2    1    2    0    0  0.00000000000E+00  0.00000000000E+00  0.00000000000E+00  0.60000000000E+02  0.60000000000E+02 0.  0.
          5    1    3    3  501    0 -0.16414095448E+02 -0.14765250452E+02 -0.19760436476E+02  0.30000000000E+02  0.47000000000E+01 0.  1.
         -5    1    3    3    0  501  0.16414095448E+02  0.14765250452E+02  0.19760436476E+02  0.30000000000E+02  0.47000000000E+01 0. -1.
</event>
<event>
 5    1  0.7624361E-002  0.6000000E+02  0.7546771E-02  0.1259629E+00
         11   -1    0    0    0    0  0.00000000000E+00  0.00000000000E+00  0.30000000000E+02  0.30000000000E+02  0.00000000000E+00 0.  1.
        -11   -1    0    0    0    0 -0.00000000000E+00 -0.00000000000E+00 -0.30000000000E+02  0.30000000000E+02  0.00000000000E+00 0. -1.
         23    2    1    2    0    0  0.00000000000E+00  0.00000000000E+00  0.00000000000E+00  0.60000000000E+02  0.60000000000E+02 0.  0.
          5    1    3    3  501    0 -0.77220612858E+01  0.56899736777E+01 -0.28033978830E+02  0.30000000000E+02  0.47000000000E+01 0. -1.
         -5    1    3    3    0  501  0.77220612858E+01 -0.56899736777E+01  0.28033978830E+02  0.30000000000E+02  0.47000000000E+01 0.  1.
</event>
<event>
 5    1  0.7624361E-002  0.6000000E+02  0.7546771E-02  0.1259629E+00
         11   -1    0    0    0    0  0.00000000000E+00  0.00000000000E+00  0.30000000000E+02  0.30000000000E+02  0.00000000000E+00 0.  1.
        -11   -1    0    0    0    0 -0.00000000000E+00 -0.00000000000E+00 -0.30000000000E+02  0.30000000000E+02  0.00000000000E+00 0. -1.
         23    2    1    2    0    0  0.00000000000E+00  0.00000000000E+00  0.00000000000E+00  0.60000000000E+02  0.60000000000E+02 0.  0.
          5    1    3    3  501    0  0.13784551240E+02  0.18107135762E+02 -0.18974398056E+02  0.30000000000E+02  0.47000000000E+01 0. -1.
         -5    1    3    3    0  501 -0.13784551240E+02 -0.18107135762E+02  0.18974398056E+02  0.30000000000E+02  0.47000000000E+01 0.  1.
</event>
<event>
 5    1  0.7624361E-002  0.6000000E+02  0.7546771E-02  0.1259629E+00
         11   -1    0    0    0    0  0.00000000000E+00  0.00000000000E+00  0.30000000000E+02  0.30000000000E+02  0.00000000000E+00 0.  1.
        -11   -1    0    0    0    0 -0.00000000000E+00 -0.00000000000E+00 -0.30000000000E+02  0.30000000000E+02  0.00000000000E+00 0. -1.
         23    2    1    2    0    0  0.00000000000E+00  0.00000000000E+00  0.00000000000E+00  0.60000000000E+02  0.60000000000E+02 0.  0.
          5    1    3    3  501    0  0.22897213646E+01 -0.20370645577E+02 -0.21394017268E+02  0.30000000000E+02  0.47000000000E+01 0. -1.
         -5    1    3    3    0  501 -0.22897213646E+01  0.20370645577E+02  0.21394017268E+02  0.30000000000E+02  0.47000000000E+01 0.  1.
</event>
<event>
 5    1  0.7624361E-002  0.6000000E+02  0.7546771E-02  0.1259629E+00
         11   -1    0    0    0    0  0.00000000000E+00  0.00000000000E+00  0.30000000000E+02  0.30000000000E+02  0.00000000000E+00 0.  1.
        -11   -1    0    0    0    0 -0.00000000000E+00 -0.00000000000E+00 -0.30000000000E+02  0.30000000000E+02  0.00000000000E+00 0. -1.
         23    2    1    2    0    0  0.00000000000E+00  0.00000000000E+00  0.00000000000E+00  0.60000000000E+02  0.60000000000E+02 0.  0.
          5    1    3    3  501    0  0.15938563559E+02 -0.24737559400E+02  0.34533095166E+01  0.30000000000E+02  0.47000000000E+01 0. -1.
         -5    1    3    3    0  501 -0.15938563559E+02  0.24737559400E+02 -0.34533095166E+01  0.30000000000E+02  0.47000000000E+01 0.  1.
</event>
<event>
 5    1  0.7624361E-002  0.6000000E+02  0.7546771E-02  0.1259629E+00
         11   -1    0    0    0    0  0.00000000000E+00  0.00000000000E+00  0.30000000000E+02  0.30000000000E+02  0.00000000000E+00 0.  1.
        -11   -1    0    0    0    0 -0.00000000000E+00 -0.00000000000E+00 -0.30000000000E+02  0.30000000000E+02  0.00000000000E+00 0. -1.
         23    2    1    2    0    0  0.00000000000E+00  0.00000000000E+00  0.00000000000E+00  0.60000000000E+02  0.60000000000E+02 0.  0.
          5    1    3    3  501    0 -0.26672305303E+02 -0.12622398200E+02 -0.26782818209E+01  0.30000000000E+02  0.47000000000E+01 0. -1.
         -5    1    3    3    0  501  0.26672305303E+02  0.12622398200E+02  0.26782818209E+01  0.30000000000E+02  0.47000000000E+01 0.  1.
</event>
<event>
 5    1  0.7624361E-002  0.6000000E+02  0.7546771E-02  0.1259629E+00
         11   -1    0    0    0    0  0.00000000000E+00  0.00000000000E+00  0.30000000000E+02  0.30000000000E+02  0.00000000000E+00 0.  1.
        -11   -1    0    0    0    0 -0.00000000000E+00 -0.00000000000E+00 -0.30000000000E+02  0.30000000000E+02  0.00000000000E+00 0. -1.
         23    2    1    2    0    0  0.00000000000E+00  0.00000000000E+00  0.00000000000E+00  0.60000000000E+02  0.60000000000E+02 0.  0.
          5    1    3    3  501    0  0.12160365174E+02 -0.11166764572E+02 -0.24603635663E+02  0.30000000000E+02  0.47000000000E+01 0. -1.
         -5    1    3    3    0  501 -0.12160365174E+02  0.11166764572E+02  0.24603635663E+02  0.30000000000E+02  0.47000000000E+01 0.  1.
</event>
<event>
 5    1  0.7624361E-002  0.6000000E+02  0.7546771E-02  0.1259629E+00
         11   -1    0    0    0    0  0.00000000000E+00  0.00000000000E+00  0.30000000000E+02  0.30000000000E+02  0.00000000000E+00 0.  1.
        -11   -1    0    0    0    0 -0.00000000000E+00 -0.00000000000E+00 -0.30000000000E+02  0.30000000000E+02  0.00000000000E+00 0. -1.
         23    2    1    2    0    0  0.00000000000E+00  0.00000000000E+00  0.00000000000E+00  0.60000000000E+02  0.60000000000E+02 0.  0.
          5    1    3    3  501    0  0.24854404995E+01  0.44242161391E+01 -0.29191760774E+02  0.30000000000E+02  0.47000000000E+01 0. -1.
         -5    1    3    3    0  501 -0.24854404995E+01 -0.44242161391E+01  0.29191760774E+02  0.30000000000E+02  0.47000000000E+01 0.  1.
</event>
<event>
 5    1  0.7624361E-002  0.6000000E+02  0.7546771E-02  0.1259629E+00
         11   -1    0    0    0    0  0.00000000000E+00  0.00000000000E+00  0.30000000000E+02  0.30000000000E+02  0.00000000000E+00 0.  1.
        -11   -1    0    0    0    0 -0.00000000000E+00 -0.00000000000E+00 -0.30000000000E+02  0.30000000000E+02  0.00000000000E+00 0. -1.
         23    2    1    2    0    0  0.00000000000E+00  0.00000000000E+00  0.00000000000E+00  0.60000000000E+02  0.60000000000E+02 0.  0.
          5    1    3    3  501    0 -0.26188000484E+02 -0.12682539879E+02 -0.55903320894E+01  0.30000000000E+02  0.47000000000E+01 0. -1.
         -5    1    3    3    0  501  0.26188000484E+02  0.12682539879E+02  0.55903320894E+01  0.30000000000E+02  0.47000000000E+01 0.  1.
</event>
<event>
 5    1  0.7624361E-002  0.6000000E+02  0.7546771E-02  0.1259629E+00
         11   -1    0    0    0    0  0.00000000000E+00  0.00000000000E+00  0.30000000000E+02  0.30000000000E+02  0.00000000000E+00 0.  1.
        -11   -1    0    0    0    0 -0.00000000000E+00 -0.00000000000E+00 -0.30000000000E+02  0.30000000000E+02  0.00000000000E+00 0. -1.
         23    2    1    2    0    0  0.00000000000E+00  0.00000000000E+00  0.00000000000E+00  0.60000000000E+02  0.60000000000E+02 0.  0.
          5    1    3    3  501    0 -0.68700821479E+01  0.16101693313E+02 -0.23904966926E+02  0.30000000000E+02  0.47000000000E+01 0. -1.
         -5    1    3    3    0  501  0.68700821479E+01 -0.16101693313E+02  0.23904966926E+02  0.30000000000E+02  0.47000000000E+01 0.  1.
</event>
<event>
 5    1  0.7624361E-002  0.6000000E+02  0.7546771E-02  0.1259629E+00
         11   -1    0    0    0    0  0.00000000000E+00  0.00000000000E+00  0.30000000000E+02  0.30000000000E+02  0.00000000000E+00 0.  1.
        -11   -1    0    0    0    0 -0.00000000000E+00 -0.00000000000E+00 -0.30000000000E+02  0.30000000000E+02  0.00000000000E+00 0. -1.
         23    2    1    2    0    0  0.00000000000E+00  0.00000000000E+00  0.00000000000E+00  0.60000000000E+02  0.60000000000E+02 0.  0.
          5    1    3    3  501    0 -0.43680393435E+01  0.10690285700E+02 -0.27286407311E+02  0.30000000000E+02  0.47000000000E+01 0. -1.
         -5    1    3    3    0  501  0.43680393435E+01 -0.10690285700E+02  0.27286407311E+02  0.30000000000E+02  0.47000000000E+01 0.  1.
</event>
<event>
 5    1  0.7624361E-002  0.6000000E+02  0.7546771E-02  0.1259629E+00
         11   -1    0    0    0    0  0.00000000000E+00  0.00000000000E+00  0.30000000000E+02  0.30000000000E+02  0.00000000000E+00 0.  1.
        -11   -1    0    0    0    0 -0.00000000000E+00 -0.00000000000E+00 -0.30000000000E+02  0.30000000000E+02  0.00000000000E+00 0. -1.
         23    2    1    2    0    0  0.00000000000E+00  0.00000000000E+00  0.00000000000E+00  0.60000000000E+02  0.60000000000E+02 0.  0.
          5    1    3    3  501    0  0.88848615029E+01 -0.13687597371E+02 -0.24730930316E+02  0.30000000000E+02  0.47000000000E+01 0. -1.
         -5    1    3    3    0  501 -0.88848615029E+01  0.13687597371E+02  0.24730930316E+02  0.30000000000E+02  0.47000000000E+01 0.  1.
</event>
<event>
 5    1  0.7624361E-002  0.6000000E+02  0.7546771E-02  0.1259629E+00
         11   -1    0    0    0    0  0.00000000000E+00  0.00000000000E+00  0.30000000000E+02  0.30000000000E+02  0.00000000000E+00 0.  1.
        -11   -1    0    0    0    0 -0.00000000000E+00 -0.00000000000E+00 -0.30000000000E+02  0.30000000000E+02  0.00000000000E+00 0. -1.
         23    2    1    2    0    0  0.00000000000E+00  0.00000000000E+00  0.00000000000E+00  0.60000000000E+02  0.60000000000E+02 0.  0.
          5    1    3    3  501    0  0.22121149569E+02 -0.42034373091E-01 -0.19712000783E+02  0.30000000000E+02  0.47000000000E+01 0. -1.
         -5    1    3    3    0  501 -0.22121149569E+02  0.42034373091E-01  0.19712000783E+02  0.30000000000E+02  0.47000000000E+01 0.  1.
</event>
<event>
 5    1  0.7624361E-002  0.6000000E+02  0.7546771E-02  0.1259629E+00
         11   -1    0    0    0    0  0.00000000000E+00  0.00000000000E+00  0.30000000000E+02  0.30000000000E+02  0.00000000000E+00 0. -1.
        -11   -1    0    0    0    0 -0.00000000000E+00 -0.00000000000E+00 -0.30000000000E+02  0.30000000000E+02  0.00000000000E+00 0.  1.
         23    2    1    2    0    0  0.00000000000E+00  0.00000000000E+00  0.00000000000E+00  0.60000000000E+02  0.60000000000E+02 0.  0.
          5    1    3    3  501    0 -0.27958929111E+02 -0.33494184195E+01 -0.92189847183E+01  0.30000000000E+02  0.47000000000E+01 0. -1.
         -5    1    3    3    0  501  0.27958929111E+02  0.33494184195E+01  0.92189847183E+01  0.30000000000E+02  0.47000000000E+01 0.  1.
</event>
<event>
 5    1  0.7624361E-002  0.6000000E+02  0.7546771E-02  0.1259629E+00
         11   -1    0    0    0    0  0.00000000000E+00  0.00000000000E+00  0.30000000000E+02  0.30000000000E+02  0.00000000000E+00 0.  1.
        -11   -1    0    0    0    0 -0.00000000000E+00 -0.00000000000E+00 -0.30000000000E+02  0.30000000000E+02  0.00000000000E+00 0. -1.
         23    2    1    2    0    0  0.00000000000E+00  0.00000000000E+00  0.00000000000E+00  0.60000000000E+02  0.60000000000E+02 0.  0.
          5    1    3    3  501    0 -0.24350094613E+02  0.14397702282E+02 -0.88141398527E+01  0.30000000000E+02  0.47000000000E+01 0. -1.
         -5    1    3    3    0  501  0.24350094613E+02 -0.14397702282E+02  0.88141398527E+01  0.30000000000E+02  0.47000000000E+01 0.  1.
</event>
<event>
 5    1  0.7624361E-002  0.6000000E+02  0.7546771E-02  0.1259629E+00
         11   -1    0    0    0    0  0.00000000000E+00  0.00000000000E+00  0.30000000000E+02  0.30000000000E+02  0.00000000000E+00 0. -1.
        -11   -1    0    0    0    0 -0.00000000000E+00 -0.00000000000E+00 -0.30000000000E+02  0.30000000000E+02  0.00000000000E+00 0.  1.
         23    2    1    2    0    0  0.00000000000E+00  0.00000000000E+00  0.00000000000E+00  0.60000000000E+02  0.60000000000E+02 0.  0.
          5    1    3    3  501    0 -0.14762697575E+02  0.15296650929E+00  0.25689479589E+02  0.30000000000E+02  0.47000000000E+01 0. -1.
         -5    1    3    3    0  501  0.14762697575E+02 -0.15296650929E+00 -0.25689479589E+02  0.30000000000E+02  0.47000000000E+01 0.  1.
</event>
<event>
 5    1  0.7624361E-002  0.6000000E+02  0.7546771E-02  0.1259629E+00
         11   -1    0    0    0    0  0.00000000000E+00  0.00000000000E+00  0.30000000000E+02  0.30000000000E+02  0.00000000000E+00 0.  1.
        -11   -1    0    0    0    0 -0.00000000000E+00 -0.00000000000E+00 -0.30000000000E+02  0.30000000000E+02  0.00000000000E+00 0. -1.
         23    2    1    2    0    0  0.00000000000E+00  0.00000000000E+00  0.00000000000E+00  0.60000000000E+02  0.60000000000E+02 0.  0.
          5    1    3    3  501    0 -0.12248462692E+02 -0.25873248470E+02  0.76459254061E+01  0.30000000000E+02  0.47000000000E+01 0.  1.
         -5    1    3    3    0  501  0.12248462692E+02  0.25873248470E+02 -0.76459254061E+01  0.30000000000E+02  0.47000000000E+01 0. -1.
</event>
<event>
 5    1  0.7624361E-002  0.6000000E+02  0.7546771E-02  0.1259629E+00
         11   -1    0    0    0    0  0.00000000000E+00  0.00000000000E+00  0.30000000000E+02  0.30000000000E+02  0.00000000000E+00 0.  1.
        -11   -1    0    0    0    0 -0.00000000000E+00 -0.00000000000E+00 -0.30000000000E+02  0.30000000000E+02  0.00000000000E+00 0. -1.
         23    2    1    2    0    0  0.00000000000E+00  0.00000000000E+00  0.00000000000E+00  0.60000000000E+02  0.60000000000E+02 0.  0.
          5    1    3    3  501    0 -0.68377846284E+01  0.17854250003E+02  0.22635822455E+02  0.30000000000E+02  0.47000000000E+01 0. -1.
         -5    1    3    3    0  501  0.68377846284E+01 -0.17854250003E+02 -0.22635822455E+02  0.30000000000E+02  0.47000000000E+01 0.  1.
</event>
<event>
 5    1  0.7624361E-002  0.6000000E+02  0.7546771E-02  0.1259629E+00
         11   -1    0    0    0    0  0.00000000000E+00  0.00000000000E+00  0.30000000000E+02  0.30000000000E+02  0.00000000000E+00 0. -1.
        -11   -1    0    0    0    0 -0.00000000000E+00 -0.00000000000E+00 -0.30000000000E+02  0.30000000000E+02  0.00000000000E+00 0.  1.
         23    2    1    2    0    0  0.00000000000E+00  0.00000000000E+00  0.00000000000E+00  0.60000000000E+02  0.60000000000E+02 0.  0.
          5    1    3    3  501    0 -0.26097956146E+02 -0.93374821819E+00 -0.13997671208E+02  0.30000000000E+02  0.47000000000E+01 0.  1.
         -5    1    3    3    0  501  0.26097956146E+02  0.93374821819E+00  0.13997671208E+02  0.30000000000E+02  0.47000000000E+01 0. -1.
</event>
<event>
 5    1  0.7624361E-002  0.6000000E+02  0.7546771E-02  0.1259629E+00
         11   -1    0    0    0    0  0.00000000000E+00  0.00000000000E+00  0.30000000000E+02  0.30000000000E+02  0.00000000000E+00 0.  1.
        -11   -1    0    0    0    0 -0.00000000000E+00 -0.00000000000E+00 -0.30000000000E+02  0.30000000000E+02  0.00000000000E+00 0. -1.
         23    2    1    2    0    0  0.00000000000E+00  0.00000000000E+00  0.00000000000E+00  0.60000000000E+02  0.60000000000E+02 0.  0.
          5    1    3    3  501    0  0.70587491072E+01 -0.21567818262E+02 -0.19050282845E+02  0.30000000000E+02  0.47000000000E+01 0. -1.
         -5    1    3    3    0  501 -0.70587491072E+01  0.21567818262E+02  0.19050282845E+02  0.30000000000E+02  0.47000000000E+01 0.  1.
</event>
<event>
 5    1  0.7624361E-002  0.6000000E+02  0.7546771E-02  0.1259629E+00
         11   -1    0    0    0    0  0.00000000000E+00  0.00000000000E+00  0.30000000000E+02  0.30000000000E+02  0.00000000000E+00 0.  1.
        -11   -1    0    0    0    0 -0.00000000000E+00 -0.00000000000E+00 -0.30000000000E+02  0.30000000000E+02  0.00000000000E+00 0. -1.
         23    2    1    2    0    0  0.00000000000E+00  0.00000000000E+00  0.00000000000E+00  0.60000000000E+02  0.60000000000E+02 0.  0.
          5    1    3    3  501    0  0.25756627133E+02  0.86713341773E+01 -0.11803140358E+02  0.30000000000E+02  0.47000000000E+01 0. -1.
         -5    1    3    3    0  501 -0.25756627133E+02 -0.86713341773E+01  0.11803140358E+02  0.30000000000E+02  0.47000000000E+01 0.  1.
</event>
<event>
 5    1  0.7624361E-002  0.6000000E+02  0.7546771E-02  0.1259629E+00
         11   -1    0    0    0    0  0.00000000000E+00  0.00000000000E+00  0.30000000000E+02  0.30000000000E+02  0.00000000000E+00 0.  1.
        -11   -1    0    0    0    0 -0.00000000000E+00 -0.00000000000E+00 -0.30000000000E+02  0.30000000000E+02  0.00000000000E+00 0. -1.
         23    2    1    2    0    0  0.00000000000E+00  0.00000000000E+00  0.00000000000E+00  0.60000000000E+02  0.60000000000E+02 0.  0.
          5    1    3    3  501    0 -0.86573409889E+01  0.19741835754E+02 -0.20327822511E+02  0.30000000000E+02  0.47000000000E+01 0. -1.
         -5    1    3    3    0  501  0.86573409889E+01 -0.19741835754E+02  0.20327822511E+02  0.30000000000E+02  0.47000000000E+01 0.  1.
</event>
<event>
 5    1  0.7624361E-002  0.6000000E+02  0.7546771E-02  0.1259629E+00
         11   -1    0    0    0    0  0.00000000000E+00  0.00000000000E+00  0.30000000000E+02  0.30000000000E+02  0.00000000000E+00 0.  1.
        -11   -1    0    0    0    0 -0.00000000000E+00 -0.00000000000E+00 -0.30000000000E+02  0.30000000000E+02  0.00000000000E+00 0. -1.
         23    2    1    2    0    0  0.00000000000E+00  0.00000000000E+00  0.00000000000E+00  0.60000000000E+02  0.60000000000E+02 0.  0.
          5    1    3    3  501    0 -0.19997531482E+02  0.93043587496E+01 -0.19784783115E+02  0.30000000000E+02  0.47000000000E+01 0. -1.
         -5    1    3    3    0  501  0.19997531482E+02 -0.93043587496E+01  0.19784783115E+02  0.30000000000E+02  0.47000000000E+01 0.  1.
</event>
<event>
 5    1  0.7624361E-002  0.6000000E+02  0.7546771E-02  0.1259629E+00
         11   -1    0    0    0    0  0.00000000000E+00  0.00000000000E+00  0.30000000000E+02  0.30000000000E+02  0.00000000000E+00 0.  1.
        -11   -1    0    0    0    0 -0.00000000000E+00 -0.00000000000E+00 -0.30000000000E+02  0.30000000000E+02  0.00000000000E+00 0. -1.
         23    2    1    2    0    0  0.00000000000E+00  0.00000000000E+00  0.00000000000E+00  0.60000000000E+02  0.60000000000E+02 0.  0.
          5    1    3    3  501    0  0.25199104212E+02 -0.14828335658E+02 -0.47995425339E+01  0.30000000000E+02  0.47000000000E+01 0. -1.
         -5    1    3    3    0  501 -0.25199104212E+02  0.14828335658E+02  0.47995425339E+01  0.30000000000E+02  0.47000000000E+01 0.  1.
</event>
<event>
 5    1  0.7624361E-002  0.6000000E+02  0.7546771E-02  0.1259629E+00
         11   -1    0    0    0    0  0.00000000000E+00  0.00000000000E+00  0.30000000000E+02  0.30000000000E+02  0.00000000000E+00 0. -1.
        -11   -1    0    0    0    0 -0.00000000000E+00 -0.00000000000E+00 -0.30000000000E+02  0.30000000000E+02  0.00000000000E+00 0.  1.
         23    2    1    2    0    0  0.00000000000E+00  0.00000000000E+00  0.00000000000E+00  0.60000000000E+02  0.60000000000E+02 0.  0.
          5    1    3    3  501    0 -0.10171081920E+02  0.81283152711E+00 -0.27817232024E+02  0.30000000000E+02  0.47000000000E+01 0.  1.
         -5    1    3    3    0  501  0.10171081920E+02 -0.81283152711E+00  0.27817232024E+02  0.30000000000E+02  0.47000000000E+01 0. -1.
</event>
<event>
 5    1  0.7624361E-002  0.6000000E+02  0.7546771E-02  0.1259629E+00
         11   -1    0    0    0    0  0.00000000000E+00  0.00000000000E+00  0.30000000000E+02  0.30000000000E+02  0.00000000000E+00 0.  1.
        -11   -1    0    0    0    0 -0.00000000000E+00 -0.00000000000E+00 -0.30000000000E+02  0.30000000000E+02  0.00000000000E+00 0. -1.
         23    2    1    2    0    0  0.00000000000E+00  0.00000000000E+00  0.00000000000E+00  0.60000000000E+02  0.60000000000E+02 0.  0.
          5    1    3    3  501    0  0.99677512527E+01  0.23295773702E+02 -0.15357762290E+02  0.30000000000E+02  0.47000000000E+01 0. -1.
         -5    1    3    3    0  501 -0.99677512527E+01 -0.23295773702E+02  0.15357762290E+02  0.30000000000E+02  0.47000000000E+01 0.  1.
</event>
<event>
 5    1  0.7624361E-002  0.6000000E+02  0.7546771E-02  0.1259629E+00
         11   -1    0    0    0    0  0.00000000000E+00  0.00000000000E+00  0.30000000000E+02  0.30000000000E+02  0.00000000000E+00 0.  1.
        -11   -1    0    0    0    0 -0.00000000000E+00 -0.00000000000E+00 -0.30000000000E+02  0.30000000000E+02  0.00000000000E+00 0. -1.
         23    2    1    2    0    0  0.00000000000E+00  0.00000000000E+00  0.00000000000E+00  0.60000000000E+02  0.60000000000E+02 0.  0.
          5    1    3    3  501    0 -0.25880920964E+01  0.28450920270E+01 -0.29378856864E+02  0.30000000000E+02  0.47000000000E+01 0. -1.
         -5    1    3    3    0  501  0.25880920964E+01 -0.28450920270E+01  0.29378856864E+02  0.30000000000E+02  0.47000000000E+01 0.  1.
</event>
<event>
 5    1  0.7624361E-002  0.6000000E+02  0.7546771E-02  0.1259629E+00
         11   -1    0    0    0    0  0.00000000000E+00  0.00000000000E+00  0.30000000000E+02  0.30000000000E+02  0.00000000000E+00 0. -1.
        -11   -1    0    0    0    0 -0.00000000000E+00 -0.00000000000E+00 -0.30000000000E+02  0.30000000000E+02  0.00000000000E+00 0.  1.
         23    2    1    2    0    0  0.00000000000E+00  0.00000000000E+00  0.00000000000E+00  0.60000000000E+02  0.60000000000E+02 0.  0.
          5    1    3    3  501    0  0.29341438366E+02  0.39958124843E+01 -0.10116705145E+01  0.30000000000E+02  0.47000000000E+01 0.  1.
         -5    1    3    3    0  501 -0.29341438366E+02 -0.39958124843E+01  0.10116705145E+01  0.30000000000E+02  0.47000000000E+01 0. -1.
</event>
<event>
 5    1  0.7624361E-002  0.6000000E+02  0.7546771E-02  0.1259629E+00
         11   -1    0    0    0    0  0.00000000000E+00  0.00000000000E+00  0.30000000000E+02  0.30000000000E+02  0.00000000000E+00 0.  1.
        -11   -1    0    0    0    0 -0.00000000000E+00 -0.00000000000E+00 -0.30000000000E+02  0.30000000000E+02  0.00000000000E+00 0. -1.
         23    2    1    2    0    0  0.00000000000E+00  0.00000000000E+00  0.00000000000E+00  0.60000000000E+02  0.60000000000E+02 0.  0.
          5    1    3    3  501    0  0.22091606812E+02 -0.16883131044E+02 -0.10238691058E+02  0.30000000000E+02  0.47000000000E+01 0. -1.
         -5    1    3    3    0  501 -0.22091606812E+02  0.16883131044E+02  0.10238691058E+02  0.30000000000E+02  0.47000000000E+01 0.  1.
</event>
<event>
 5    1  0.7624361E-002  0.6000000E+02  0.7546771E-02  0.1259629E+00
         11   -1    0    0    0    0  0.00000000000E+00  0.00000000000E+00  0.30000000000E+02  0.30000000000E+02  0.00000000000E+00 0.  1.
        -11   -1    0    0    0    0 -0.00000000000E+00 -0.00000000000E+00 -0.30000000000E+02  0.30000000000E+02  0.00000000000E+00 0. -1.
         23    2    1    2    0    0  0.00000000000E+00  0.00000000000E+00  0.00000000000E+00  0.60000000000E+02  0.60000000000E+02 0.  0.
          5    1    3    3  501    0 -0.15251821513E+02  0.25096722987E+02 -0.39301953951E+01  0.30000000000E+02  0.47000000000E+01 0. -1.
         -5    1    3    3    0  501  0.15251821513E+02 -0.25096722987E+02  0.39301953951E+01  0.30000000000E+02  0.47000000000E+01 0.  1.
</event>
<event>
 5    1  0.7624361E-002  0.6000000E+02  0.7546771E-02  0.1259629E+00
         11   -1    0    0    0    0  0.00000000000E+00  0.00000000000E+00  0.30000000000E+02  0.30000000000E+02  0.00000000000E+00 0.  1.
        -11   -1    0    0    0    0 -0.00000000000E+00 -0.00000000000E+00 -0.30000000000E+02  0.30000000000E+02  0.00000000000E+00 0. -1.
         23    2    1    2    0    0  0.00000000000E+00  0.00000000000E+00  0.00000000000E+00  0.60000000000E+02  0.60000000000E+02 0.  0.
          5    1    3    3  501    0 -0.28455356399E+02 -0.17653153669E+01 -0.80676114110E+01  0.30000000000E+02  0.47000000000E+01 0.  1.
         -5    1    3    3    0  501  0.28455356399E+02  0.17653153669E+01  0.80676114110E+01  0.30000000000E+02  0.47000000000E+01 0. -1.
</event>
<event>
 5    1  0.7624361E-002  0.6000000E+02  0.7546771E-02  0.1259629E+00
         11   -1    0    0    0    0  0.00000000000E+00  0.00000000000E+00  0.30000000000E+02  0.30000000000E+02  0.00000000000E+00 0. -1.
        -11   -1    0    0    0    0 -0.00000000000E+00 -0.00000000000E+00 -0.30000000000E+02  0.30000000000E+02  0.00000000000E+00 0.  1.
         23    2    1    2    0    0  0.00000000000E+00  0.00000000000E+00  0.00000000000E+00  0.60000000000E+02  0.60000000000E+02 0.  0.
          5    1    3    3  501    0  0.23872631143E+02  0.16141926949E+02 -0.68880822227E+01  0.30000000000E+02  0.47000000000E+01 0.  1.
         -5    1    3    3    0  501 -0.23872631143E+02 -0.16141926949E+02  0.68880822227E+01  0.30000000000E+02  0.47000000000E+01 0. -1.
</event>
<event>
 5    1  0.7624361E-002  0.6000000E+02  0.7546771E-02  0.1259629E+00
         11   -1    0    0    0    0  0.00000000000E+00  0.00000000000E+00  0.30000000000E+02  0.30000000000E+02  0.00000000000E+00 0.  1.
        -11   -1    0    0    0    0 -0.00000000000E+00 -0.00000000000E+00 -0.30000000000E+02  0.30000000000E+02  0.00000000000E+00 0. -1.
         23    2    1    2    0    0  0.00000000000E+00  0.00000000000E+00  0.00000000000E+00  0.60000000000E+02  0.60000000000E+02 0.  0.
          5    1    3    3  501    0 -0.15969724752E+01 -0.78649935348E+01 -0.28521948664E+02  0.30000000000E+02  0.47000000000E+01 0. -1.
         -5    1    3    3    0  501  0.15969724752E+01  0.78649935348E+01  0.28521948664E+02  0.30000000000E+02  0.47000000000E+01 0.  1.
</event>
<event>
 5    1  0.7624361E-002  0.6000000E+02  0.7546771E-02  0.1259629E+00
         11   -1    0    0    0    0  0.00000000000E+00  0.00000000000E+00  0.30000000000E+02  0.30000000000E+02  0.00000000000E+00 0.  1.
        -11   -1    0    0    0    0 -0.00000000000E+00 -0.00000000000E+00 -0.30000000000E+02  0.30000000000E+02  0.00000000000E+00 0. -1.
         23    2    1    2    0    0  0.00000000000E+00  0.00000000000E+00  0.00000000000E+00  0.60000000000E+02  0.60000000000E+02 0.  0.
          5    1    3    3  501    0 -0.20061058131E+02 -0.19119030163E+02  0.10484590231E+02  0.30000000000E+02  0.47000000000E+01 0.  1.
         -5    1    3    3    0  501  0.20061058131E+02  0.19119030163E+02 -0.10484590231E+02  0.30000000000E+02  0.47000000000E+01 0. -1.
</event>
<event>
 5    1  0.7624361E-002  0.6000000E+02  0.7546771E-02  0.1259629E+00
         11   -1    0    0    0    0  0.00000000000E+00  0.00000000000E+00  0.30000000000E+02  0.30000000000E+02  0.00000000000E+00 0.  1.
        -11   -1    0    0    0    0 -0.00000000000E+00 -0.00000000000E+00 -0.30000000000E+02  0.30000000000E+02  0.00000000000E+00 0. -1.
         23    2    1    2    0    0  0.00000000000E+00  0.00000000000E+00  0.00000000000E+00  0.60000000000E+02  0.60000000000E+02 0.  0.
          5    1    3    3  501    0 -0.89031331314E+01  0.40683259111E+00 -0.28257365548E+02  0.30000000000E+02  0.47000000000E+01 0. -1.
         -5    1    3    3    0  501  0.89031331314E+01 -0.40683259111E+00  0.28257365548E+02  0.30000000000E+02  0.47000000000E+01 0.  1.
</event>
<event>
 5    1  0.7624361E-002  0.6000000E+02  0.7546771E-02  0.1259629E+00
         11   -1    0    0    0    0  0.00000000000E+00  0.00000000000E+00  0.30000000000E+02  0.30000000000E+02  0.00000000000E+00 0.  1.
        -11   -1    0    0    0    0 -0.00000000000E+00 -0.00000000000E+00 -0.30000000000E+02  0.30000000000E+02  0.00000000000E+00 0. -1.
         23    2    1    2    0    0  0.00000000000E+00  0.00000000000E+00  0.00000000000E+00  0.60000000000E+02  0.60000000000E+02 0.  0.
          5    1    3    3  501    0  0.40488658395E+01 -0.21098766587E+02  0.20404870348E+02  0.30000000000E+02  0.47000000000E+01 0.  1.
         -5    1    3    3    0  501 -0.40488658395E+01  0.21098766587E+02 -0.20404870348E+02  0.30000000000E+02  0.47000000000E+01 0. -1.
</event>
<event>
 5    1  0.7624361E-002  0.6000000E+02  0.7546771E-02  0.1259629E+00
         11   -1    0    0    0    0  0.00000000000E+00  0.00000000000E+00  0.30000000000E+02  0.30000000000E+02  0.00000000000E+00 0.  1.
        -11   -1    0    0    0    0 -0.00000000000E+00 -0.00000000000E+00 -0.30000000000E+02  0.30000000000E+02  0.00000000000E+00 0. -1.
         23    2    1    2    0    0  0.00000000000E+00  0.00000000000E+00  0.00000000000E+00  0.60000000000E+02  0.60000000000E+02 0.  0.
          5    1    3    3  501    0  0.61728740207E+00  0.29605621945E+02  0.10178926726E+01  0.30000000000E+02  0.47000000000E+01 0. -1.
         -5    1    3    3    0  501 -0.61728740207E+00 -0.29605621945E+02 -0.10178926726E+01  0.30000000000E+02  0.47000000000E+01 0.  1.
</event>
<event>
 5    1  0.7624361E-002  0.6000000E+02  0.7546771E-02  0.1259629E+00
         11   -1    0    0    0    0  0.00000000000E+00  0.00000000000E+00  0.30000000000E+02  0.30000000000E+02  0.00000000000E+00 0.  1.
        -11   -1    0    0    0    0 -0.00000000000E+00 -0.00000000000E+00 -0.30000000000E+02  0.30000000000E+02  0.00000000000E+00 0. -1.
         23    2    1    2    0    0  0.00000000000E+00  0.00000000000E+00  0.00000000000E+00  0.60000000000E+02  0.60000000000E+02 0.  0.
          5    1    3    3  501    0  0.24431712734E+02 -0.16762755053E+02  0.10703221259E+00  0.30000000000E+02  0.47000000000E+01 0. -1.
         -5    1    3    3    0  501 -0.24431712734E+02  0.16762755053E+02 -0.10703221259E+00  0.30000000000E+02  0.47000000000E+01 0.  1.
</event>
<event>
 5    1  0.7624361E-002  0.6000000E+02  0.7546771E-02  0.1259629E+00
         11   -1    0    0    0    0  0.00000000000E+00  0.00000000000E+00  0.30000000000E+02  0.30000000000E+02  0.00000000000E+00 0.  1.
        -11   -1    0    0    0    0 -0.00000000000E+00 -0.00000000000E+00 -0.30000000000E+02  0.30000000000E+02  0.00000000000E+00 0. -1.
         23    2    1    2    0    0  0.00000000000E+00  0.00000000000E+00  0.00000000000E+00  0.60000000000E+02  0.60000000000E+02 0.  0.
          5    1    3    3  501    0 -0.14583878077E+02  0.58873600056E+01 -0.25110943678E+02  0.30000000000E+02  0.47000000000E+01 0. -1.
         -5    1    3    3    0  501  0.14583878077E+02 -0.58873600056E+01  0.25110943678E+02  0.30000000000E+02  0.47000000000E+01 0.  1.
</event>
<event>
 5    1  0.7624361E-002  0.6000000E+02  0.7546771E-02  0.1259629E+00
         11   -1    0    0    0    0  0.00000000000E+00  0.00000000000E+00  0.30000000000E+02  0.30000000000E+02  0.00000000000E+00 0. -1.
        -11   -1    0    0    0    0 -0.00000000000E+00 -0.00000000000E+00 -0.30000000000E+02  0.30000000000E+02  0.00000000000E+00 0.  1.
         23    2    1    2    0    0  0.00000000000E+00  0.00000000000E+00  0.00000000000E+00  0.60000000000E+02  0.60000000000E+02 0.  0.
          5    1    3    3  501    0  0.20132597322E+02  0.11584158682E+01 -0.21708214983E+02  0.30000000000E+02  0.47000000000E+01 0.  1.
         -5    1    3    3    0  501 -0.20132597322E+02 -0.11584158682E+01  0.21708214983E+02  0.30000000000E+02  0.47000000000E+01 0. -1.
</event>
<event>
 5    1  0.7624361E-002  0.6000000E+02  0.7546771E-02  0.1259629E+00
         11   -1    0    0    0    0  0.00000000000E+00  0.00000000000E+00  0.30000000000E+02  0.30000000000E+02  0.00000000000E+00 0.  1.
        -11   -1    0    0    0    0 -0.00000000000E+00 -0.00000000000E+00 -0.30000000000E+02  0.30000000000E+02  0.00000000000E+00 0. -1.
         23    2    1    2    0    0  0.00000000000E+00  0.00000000000E+00  0.00000000000E+00  0.60000000000E+02  0.60000000000E+02 0.  0.
          5    1    3    3  501    0 -0.28743063349E+02 -0.69255909794E+01 -0.19448647462E+01  0.30000000000E+02  0.47000000000E+01 0. -1.
         -5    1    3    3    0  501  0.28743063349E+02  0.69255909794E+01  0.19448647462E+01  0.30000000000E+02  0.47000000000E+01 0.  1.
</event>
<event>
 5    1  0.7624361E-002  0.6000000E+02  0.7546771E-02  0.1259629E+00
         11   -1    0    0    0    0  0.00000000000E+00  0.00000000000E+00  0.30000000000E+02  0.30000000000E+02  0.00000000000E+00 0. -1.
        -11   -1    0    0    0    0 -0.00000000000E+00 -0.00000000000E+00 -0.30000000000E+02  0.30000000000E+02  0.00000000000E+00 0.  1.
         23    2    1    2    0    0  0.00000000000E+00  0.00000000000E+00  0.00000000000E+00  0.60000000000E+02  0.60000000000E+02 0.  0.
          5    1    3    3  501    0 -0.80189733511E+01  0.64122670880E+01  0.27793684484E+02  0.30000000000E+02  0.47000000000E+01 0. -1.
         -5    1    3    3    0  501  0.80189733511E+01 -0.64122670880E+01 -0.27793684484E+02  0.30000000000E+02  0.47000000000E+01 0.  1.
</event>
<event>
 5    1  0.7624361E-002  0.6000000E+02  0.7546771E-02  0.1259629E+00
         11   -1    0    0    0    0  0.00000000000E+00  0.00000000000E+00  0.30000000000E+02  0.30000000000E+02  0.00000000000E+00 0.  1.
        -11   -1    0    0    0    0 -0.00000000000E+00 -0.00000000000E+00 -0.30000000000E+02  0.30000000000E+02  0.00000000000E+00 0. -1.
         23    2    1    2    0    0  0.00000000000E+00  0.00000000000E+00  0.00000000000E+00  0.60000000000E+02  0.60000000000E+02 0.  0.
          5    1    3    3  501    0  0.10729513378E+00  0.23573130141E+02 -0.17950098137E+02  0.30000000000E+02  0.47000000000E+01 0. -1.
         -5    1    3    3    0  501 -0.10729513378E+00 -0.23573130141E+02  0.17950098137E+02  0.30000000000E+02  0.47000000000E+01 0.  1.
</event>
<event>
 5    1  0.7624361E-002  0.6000000E+02  0.7546771E-02  0.1259629E+00
         11   -1    0    0    0    0  0.00000000000E+00  0.00000000000E+00  0.30000000000E+02  0.30000000000E+02  0.00000000000E+00 0.  1.
        -11   -1    0    0    0    0 -0.00000000000E+00 -0.00000000000E+00 -0.30000000000E+02  0.30000000000E+02  0.00000000000E+00 0. -1.
         23    2    1    2    0    0  0.00000000000E+00  0.00000000000E+00  0.00000000000E+00  0.60000000000E+02  0.60000000000E+02 0.  0.
          5    1    3    3  501    0  0.98222102408E+01  0.65030449853E+01 -0.27187213758E+02  0.30000000000E+02  0.47000000000E+01 0. -1.
         -5    1    3    3    0  501 -0.98222102408E+01 -0.65030449853E+01  0.27187213758E+02  0.30000000000E+02  0.47000000000E+01 0.  1.
</event>
<event>
 5    1  0.7624361E-002  0.6000000E+02  0.7546771E-02  0.1259629E+00
         11   -1    0    0    0    0  0.00000000000E+00  0.00000000000E+00  0.30000000000E+02  0.30000000000E+02  0.00000000000E+00 0.  1.
        -11   -1    0    0    0    0 -0.00000000000E+00 -0.00000000000E+00 -0.30000000000E+02  0.30000000000E+02  0.00000000000E+00 0. -1.
         23    2    1    2    0    0  0.00000000000E+00  0.00000000000E+00  0.00000000000E+00  0.60000000000E+02  0.60000000000E+02 0.  0.
          5    1    3    3  501    0  0.18180213331E+02 -0.16364984463E+02 -0.16720560001E+02  0.30000000000E+02  0.47000000000E+01 0. -1.
         -5    1    3    3    0  501 -0.18180213331E+02  0.16364984463E+02  0.16720560001E+02  0.30000000000E+02  0.47000000000E+01 0.  1.
</event>
<event>
 5    1  0.7624361E-002  0.6000000E+02  0.7546771E-02  0.1259629E+00
         11   -1    0    0    0    0  0.00000000000E+00  0.00000000000E+00  0.30000000000E+02  0.30000000000E+02  0.00000000000E+00 0. -1.
        -11   -1    0    0    0    0 -0.00000000000E+00 -0.00000000000E+00 -0.30000000000E+02  0.30000000000E+02  0.00000000000E+00 0.  1.
         23    2    1    2    0    0  0.00000000000E+00  0.00000000000E+00  0.00000000000E+00  0.60000000000E+02  0.60000000000E+02 0.  0.
          5    1    3    3  501    0 -0.24900308394E+00 -0.25772194007E+02 -0.14616497991E+02  0.30000000000E+02  0.47000000000E+01 0.  1.
         -5    1    3    3    0  501  0.24900308394E+00  0.25772194007E+02  0.14616497991E+02  0.30000000000E+02  0.47000000000E+01 0. -1.
</event>
<event>
 5    1  0.7624361E-002  0.6000000E+02  0.7546771E-02  0.1259629E+00
         11   -1    0    0    0    0  0.00000000000E+00  0.00000000000E+00  0.30000000000E+02  0.30000000000E+02  0.00000000000E+00 0.  1.
        -11   -1    0    0    0    0 -0.00000000000E+00 -0.00000000000E+00 -0.30000000000E+02  0.30000000000E+02  0.00000000000E+00 0. -1.
         23    2    1    2    0    0  0.00000000000E+00  0.00000000000E+00  0.00000000000E+00  0.60000000000E+02  0.60000000000E+02 0.  0.
          5    1    3    3  501    0  0.88325033896E+01 -0.52256483482E+01 -0.27795493937E+02  0.30000000000E+02  0.47000000000E+01 0. -1.
         -5    1    3    3    0  501 -0.88325033896E+01  0.52256483482E+01  0.27795493937E+02  0.30000000000E+02  0.47000000000E+01 0.  1.
</event>
<event>
 5    1  0.7624361E-002  0.6000000E+02  0.7546771E-02  0.1259629E+00
         11   -1    0    0    0    0  0.00000000000E+00  0.00000000000E+00  0.30000000000E+02  0.30000000000E+02  0.00000000000E+00 0. -1.
        -11   -1    0    0    0    0 -0.00000000000E+00 -0.00000000000E+00 -0.30000000000E+02  0.30000000000E+02  0.00000000000E+00 0.  1.
         23    2    1    2    0    0  0.00000000000E+00  0.00000000000E+00  0.00000000000E+00  0.60000000000E+02  0.60000000000E+02 0.  0.
          5    1    3    3  501    0 -0.25172030359E+02  0.93457148033E+01 -0.12527430001E+02  0.30000000000E+02  0.47000000000E+01 0.  1.
         -5    1    3    3    0  501  0.25172030359E+02 -0.93457148033E+01  0.12527430001E+02  0.30000000000E+02  0.47000000000E+01 0. -1.
</event>
<event>
 5    1  0.7624361E-002  0.6000000E+02  0.7546771E-02  0.1259629E+00
         11   -1    0    0    0    0  0.00000000000E+00  0.00000000000E+00  0.30000000000E+02  0.30000000000E+02  0.00000000000E+00 0. -1.
        -11   -1    0    0    0    0 -0.00000000000E+00 -0.00000000000E+00 -0.30000000000E+02  0.30000000000E+02  0.00000000000E+00 0.  1.
         23    2    1    2    0    0  0.00000000000E+00  0.00000000000E+00  0.00000000000E+00  0.60000000000E+02  0.60000000000E+02 0.  0.
          5    1    3    3  501    0  0.68814933463E+01 -0.22612935027E+02 -0.17866455126E+02  0.30000000000E+02  0.47000000000E+01 0.  1.
         -5    1    3    3    0  501 -0.68814933463E+01  0.22612935027E+02  0.17866455126E+02  0.30000000000E+02  0.47000000000E+01 0. -1.
</event>
<event>
 5    1  0.7624361E-002  0.6000000E+02  0.7546771E-02  0.1259629E+00
         11   -1    0    0    0    0  0.00000000000E+00  0.00000000000E+00  0.30000000000E+02  0.30000000000E+02  0.00000000000E+00 0.  1.
        -11   -1    0    0    0    0 -0.00000000000E+00 -0.00000000000E+00 -0.30000000000E+02  0.30000000000E+02  0.00000000000E+00 0. -1.
         23    2    1    2    0    0  0.00000000000E+00  0.00000000000E+00  0.00000000000E+00  0.60000000000E+02  0.60000000000E+02 0.  0.
          5    1    3    3  501    0 -0.29106811275E+02  0.11721878842E+01 -0.54156729021E+01  0.30000000000E+02  0.47000000000E+01 0. -1.
         -5    1    3    3    0  501  0.29106811275E+02 -0.11721878842E+01  0.54156729021E+01  0.30000000000E+02  0.47000000000E+01 0.  1.
</event>
<event>
 5    1  0.7624361E-002  0.6000000E+02  0.7546771E-02  0.1259629E+00
         11   -1    0    0    0    0  0.00000000000E+00  0.00000000000E+00  0.30000000000E+02  0.30000000000E+02  0.00000000000E+00 0.  1.
        -11   -1    0    0    0    0 -0.00000000000E+00 -0.00000000000E+00 -0.30000000000E+02  0.30000000000E+02  0.00000000000E+00 0. -1.
         23    2    1    2    0    0  0.00000000000E+00  0.00000000000E+00  0.00000000000E+00  0.60000000000E+02  0.60000000000E+02 0.  0.
          5    1    3    3  501    0  0.27269793606E+02  0.56707308485E+01 -0.10105007093E+02  0.30000000000E+02  0.47000000000E+01 0. -1.
         -5    1    3    3    0  501 -0.27269793606E+02 -0.56707308485E+01  0.10105007093E+02  0.30000000000E+02  0.47000000000E+01 0.  1.
</event>
<event>
 5    1  0.7624361E-002  0.6000000E+02  0.7546771E-02  0.1259629E+00
         11   -1    0    0    0    0  0.00000000000E+00  0.00000000000E+00  0.30000000000E+02  0.30000000000E+02  0.00000000000E+00 0.  1.
        -11   -1    0    0    0    0 -0.00000000000E+00 -0.00000000000E+00 -0.30000000000E+02  0.30000000000E+02  0.00000000000E+00 0. -1.
         23    2    1    2    0    0  0.00000000000E+00  0.00000000000E+00  0.00000000000E+00  0.60000000000E+02  0.60000000000E+02 0.  0.
          5    1    3    3  501    0 -0.25705224495E+02 -0.88714209350E+01 -0.11766449092E+02  0.30000000000E+02  0.47000000000E+01 0. -1.
         -5    1    3    3    0  501  0.25705224495E+02  0.88714209350E+01  0.11766449092E+02  0.30000000000E+02  0.47000000000E+01 0.  1.
</event>
<event>
 5    1  0.7624361E-002  0.6000000E+02  0.7546771E-02  0.1259629E+00
         11   -1    0    0    0    0  0.00000000000E+00  0.00000000000E+00  0.30000000000E+02  0.30000000000E+02  0.00000000000E+00 0.  1.
        -11   -1    0    0    0    0 -0.00000000000E+00 -0.00000000000E+00 -0.30000000000E+02  0.30000000000E+02  0.00000000000E+00 0. -1.
         23    2    1    2    0    0  0.00000000000E+00  0.00000000000E+00  0.00000000000E+00  0.60000000000E+02  0.60000000000E+02 0.  0.
          5    1    3    3  501    0  0.11600893893E+02 -0.26606871032E+02  0.59500987196E+01  0.30000000000E+02  0.47000000000E+01 0. -1.
         -5    1    3    3    0  501 -0.11600893893E+02  0.26606871032E+02 -0.59500987196E+01  0.30000000000E+02  0.47000000000E+01 0.  1.
</event>
<event>
 5    1  0.7624361E-002  0.6000000E+02  0.7546771E-02  0.1259629E+00
         11   -1    0    0    0    0  0.00000000000E+00  0.00000000000E+00  0.30000000000E+02  0.30000000000E+02  0.00000000000E+00 0.  1.
        -11   -1    0    0    0    0 -0.00000000000E+00 -0.00000000000E+00 -0.30000000000E+02  0.30000000000E+02  0.00000000000E+00 0. -1.
         23    2    1    2    0    0  0.00000000000E+00  0.00000000000E+00  0.00000000000E+00  0.60000000000E+02  0.60000000000E+02 0.  0.
          5    1    3    3  501    0  0.26513979831E+02 -0.31887971593E+01 -0.12835515034E+02  0.30000000000E+02  0.47000000000E+01 0. -1.
         -5    1    3    3    0  501 -0.26513979831E+02  0.31887971593E+01  0.12835515034E+02  0.30000000000E+02  0.47000000000E+01 0.  1.
</event>
<event>
 5    1  0.7624361E-002  0.6000000E+02  0.7546771E-02  0.1259629E+00
         11   -1    0    0    0    0  0.00000000000E+00  0.00000000000E+00  0.30000000000E+02  0.30000000000E+02  0.00000000000E+00 0.  1.
        -11   -1    0    0    0    0 -0.00000000000E+00 -0.00000000000E+00 -0.30000000000E+02  0.30000000000E+02  0.00000000000E+00 0. -1.
         23    2    1    2    0    0  0.00000000000E+00  0.00000000000E+00  0.00000000000E+00  0.60000000000E+02  0.60000000000E+02 0.  0.
          5    1    3    3  501    0  0.19390359455E+02  0.83360874555E+01 -0.20795038017E+02  0.30000000000E+02  0.47000000000E+01 0. -1.
         -5    1    3    3    0  501 -0.19390359455E+02 -0.83360874555E+01  0.20795038017E+02  0.30000000000E+02  0.47000000000E+01 0.  1.
</event>
<event>
 5    1  0.7624361E-002  0.6000000E+02  0.7546771E-02  0.1259629E+00
         11   -1    0    0    0    0  0.00000000000E+00  0.00000000000E+00  0.30000000000E+02  0.30000000000E+02  0.00000000000E+00 0. -1.
        -11   -1    0    0    0    0 -0.00000000000E+00 -0.00000000000E+00 -0.30000000000E+02  0.30000000000E+02  0.00000000000E+00 0.  1.
         23    2    1    2    0    0  0.00000000000E+00  0.00000000000E+00  0.00000000000E+00  0.60000000000E+02  0.60000000000E+02 0.  0.
          5    1    3    3  501    0  0.94679657385E+01 -0.35197406489E+01  0.27854605553E+02  0.30000000000E+02  0.47000000000E+01 0. -1.
         -5    1    3    3    0  501 -0.94679657385E+01  0.35197406489E+01 -0.27854605553E+02  0.30000000000E+02  0.47000000000E+01 0.  1.
</event>
<event>
 5    1  0.7624361E-002  0.6000000E+02  0.7546771E-02  0.1259629E+00
         11   -1    0    0    0    0  0.00000000000E+00  0.00000000000E+00  0.30000000000E+02  0.30000000000E+02  0.00000000000E+00 0.  1.
        -11   -1    0    0    0    0 -0.00000000000E+00 -0.00000000000E+00 -0.30000000000E+02  0.30000000000E+02  0.00000000000E+00 0. -1.
         23    2    1    2    0    0  0.00000000000E+00  0.00000000000E+00  0.00000000000E+00  0.60000000000E+02  0.60000000000E+02 0.  0.
          5    1    3    3  501    0  0.29319448651E+02  0.30923584620E+01 -0.29524989345E+01  0.30000000000E+02  0.47000000000E+01 0. -1.
         -5    1    3    3    0  501 -0.29319448651E+02 -0.30923584620E+01  0.29524989345E+01  0.30000000000E+02  0.47000000000E+01 0.  1.
</event>
<event>
 5    1  0.7624361E-002  0.6000000E+02  0.7546771E-02  0.1259629E+00
         11   -1    0    0    0    0  0.00000000000E+00  0.00000000000E+00  0.30000000000E+02  0.30000000000E+02  0.00000000000E+00 0.  1.
        -11   -1    0    0    0    0 -0.00000000000E+00 -0.00000000000E+00 -0.30000000000E+02  0.30000000000E+02  0.00000000000E+00 0. -1.
         23    2    1    2    0    0  0.00000000000E+00  0.00000000000E+00  0.00000000000E+00  0.60000000000E+02  0.60000000000E+02 0.  0.
          5    1    3    3  501    0  0.17456878119E+02 -0.19190714343E+02  0.14313765728E+02  0.30000000000E+02  0.47000000000E+01 0.  1.
         -5    1    3    3    0  501 -0.17456878119E+02  0.19190714343E+02 -0.14313765728E+02  0.30000000000E+02  0.47000000000E+01 0. -1.
</event>
<event>
 5    1  0.7624361E-002  0.6000000E+02  0.7546771E-02  0.1259629E+00
         11   -1    0    0    0    0  0.00000000000E+00  0.00000000000E+00  0.30000000000E+02  0.30000000000E+02  0.00000000000E+00 0.  1.
        -11   -1    0    0    0    0 -0.00000000000E+00 -0.00000000000E+00 -0.30000000000E+02  0.30000000000E+02  0.00000000000E+00 0. -1.
         23    2    1    2    0    0  0.00000000000E+00  0.00000000000E+00  0.00000000000E+00  0.60000000000E+02  0.60000000000E+02 0.  0.
          5    1    3    3  501    0 -0.28918264032E+00 -0.14605325693E+02 -0.25778107665E+02  0.30000000000E+02  0.47000000000E+01 0. -1.
         -5    1    3    3    0  501  0.28918264032E+00  0.14605325693E+02  0.25778107665E+02  0.30000000000E+02  0.47000000000E+01 0.  1.
</event>
<event>
 5    1  0.7624361E-002  0.6000000E+02  0.7546771E-02  0.1259629E+00
         11   -1    0    0    0    0  0.00000000000E+00  0.00000000000E+00  0.30000000000E+02  0.30000000000E+02  0.00000000000E+00 0.  1.
        -11   -1    0    0    0    0 -0.00000000000E+00 -0.00000000000E+00 -0.30000000000E+02  0.30000000000E+02  0.00000000000E+00 0. -1.
         23    2    1    2    0    0  0.00000000000E+00  0.00000000000E+00  0.00000000000E+00  0.60000000000E+02  0.60000000000E+02 0.  0.
          5    1    3    3  501    0  0.28862585576E+02 -0.37477386041E+01 -0.55511808866E+01  0.30000000000E+02  0.47000000000E+01 0. -1.
         -5    1    3    3    0  501 -0.28862585576E+02  0.37477386041E+01  0.55511808866E+01  0.30000000000E+02  0.47000000000E+01 0.  1.
</event>
<event>
 5    1  0.7624361E-002  0.6000000E+02  0.7546771E-02  0.1259629E+00
         11   -1    0    0    0    0  0.00000000000E+00  0.00000000000E+00  0.30000000000E+02  0.30000000000E+02  0.00000000000E+00 0.  1.
        -11   -1    0    0    0    0 -0.00000000000E+00 -0.00000000000E+00 -0.30000000000E+02  0.30000000000E+02  0.00000000000E+00 0. -1.
         23    2    1    2    0    0  0.00000000000E+00  0.00000000000E+00  0.00000000000E+00  0.60000000000E+02  0.60000000000E+02 0.  0.
          5    1    3    3  501    0  0.18040327534E+02 -0.23503453402E+02  0.21038217030E+00  0.30000000000E+02  0.47000000000E+01 0. -1.
         -5    1    3    3    0  501 -0.18040327534E+02  0.23503453402E+02 -0.21038217030E+00  0.30000000000E+02  0.47000000000E+01 0.  1.
</event>
<event>
 5    1  0.7624361E-002  0.6000000E+02  0.7546771E-02  0.1259629E+00
         11   -1    0    0    0    0  0.00000000000E+00  0.00000000000E+00  0.30000000000E+02  0.30000000000E+02  0.00000000000E+00 0.  1.
        -11   -1    0    0    0    0 -0.00000000000E+00 -0.00000000000E+00 -0.30000000000E+02  0.30000000000E+02  0.00000000000E+00 0. -1.
         23    2    1    2    0    0  0.00000000000E+00  0.00000000000E+00  0.00000000000E+00  0.60000000000E+02  0.60000000000E+02 0.  0.
          5    1    3    3  501    0  0.98243771296E+01  0.24394636307E+02 -0.13648931587E+02  0.30000000000E+02  0.47000000000E+01 0. -1.
         -5    1    3    3    0  501 -0.98243771296E+01 -0.24394636307E+02  0.13648931587E+02  0.30000000000E+02  0.47000000000E+01 0.  1.
</event>
<event>
 5    1  0.7624361E-002  0.6000000E+02  0.7546771E-02  0.1259629E+00
         11   -1    0    0    0    0  0.00000000000E+00  0.00000000000E+00  0.30000000000E+02  0.30000000000E+02  0.00000000000E+00 0.  1.
        -11   -1    0    0    0    0 -0.00000000000E+00 -0.00000000000E+00 -0.30000000000E+02  0.30000000000E+02  0.00000000000E+00 0. -1.
         23    2    1    2    0    0  0.00000000000E+00  0.00000000000E+00  0.00000000000E+00  0.60000000000E+02  0.60000000000E+02 0.  0.
          5    1    3    3  501    0 -0.18160724639E+02 -0.19558568871E+01 -0.23329652900E+02  0.30000000000E+02  0.47000000000E+01 0. -1.
         -5    1    3    3    0  501  0.18160724639E+02  0.19558568871E+01  0.23329652900E+02  0.30000000000E+02  0.47000000000E+01 0.  1.
</event>
<event>
 5    1  0.7624361E-002  0.6000000E+02  0.7546771E-02  0.1259629E+00
         11   -1    0    0    0    0  0.00000000000E+00  0.00000000000E+00  0.30000000000E+02  0.30000000000E+02  0.00000000000E+00 0. -1.
        -11   -1    0    0    0    0 -0.00000000000E+00 -0.00000000000E+00 -0.30000000000E+02  0.30000000000E+02  0.00000000000E+00 0.  1.
         23    2    1    2    0    0  0.00000000000E+00  0.00000000000E+00  0.00000000000E+00  0.60000000000E+02  0.60000000000E+02 0.  0.
          5    1    3    3  501    0 -0.25378873774E+01 -0.14785126249E+02  0.25551304653E+02  0.30000000000E+02  0.47000000000E+01 0. -1.
         -5    1    3    3    0  501  0.25378873774E+01  0.14785126249E+02 -0.25551304653E+02  0.30000000000E+02  0.47000000000E+01 0.  1.
</event>
<event>
 5    1  0.7624361E-002  0.6000000E+02  0.7546771E-02  0.1259629E+00
         11   -1    0    0    0    0  0.00000000000E+00  0.00000000000E+00  0.30000000000E+02  0.30000000000E+02  0.00000000000E+00 0. -1.
        -11   -1    0    0    0    0 -0.00000000000E+00 -0.00000000000E+00 -0.30000000000E+02  0.30000000000E+02  0.00000000000E+00 0.  1.
         23    2    1    2    0    0  0.00000000000E+00  0.00000000000E+00  0.00000000000E+00  0.60000000000E+02  0.60000000000E+02 0.  0.
          5    1    3    3  501    0 -0.20402244760E+02 -0.16099450828E+02  0.14229058009E+02  0.30000000000E+02  0.47000000000E+01 0. -1.
         -5    1    3    3    0  501  0.20402244760E+02  0.16099450828E+02 -0.14229058009E+02  0.30000000000E+02  0.47000000000E+01 0.  1.
</event>
<event>
 5    1  0.7624361E-002  0.6000000E+02  0.7546771E-02  0.1259629E+00
         11   -1    0    0    0    0  0.00000000000E+00  0.00000000000E+00  0.30000000000E+02  0.30000000000E+02  0.00000000000E+00 0. -1.
        -11   -1    0    0    0    0 -0.00000000000E+00 -0.00000000000E+00 -0.30000000000E+02  0.30000000000E+02  0.00000000000E+00 0.  1.
         23    2    1    2    0    0  0.00000000000E+00  0.00000000000E+00  0.00000000000E+00  0.60000000000E+02  0.60000000000E+02 0.  0.
          5    1    3    3  501    0 -0.13687259693E+02 -0.26155503459E+02  0.25413698854E+01  0.30000000000E+02  0.47000000000E+01 0.  1.
         -5    1    3    3    0  501  0.13687259693E+02  0.26155503459E+02 -0.25413698854E+01  0.30000000000E+02  0.47000000000E+01 0. -1.
</event>
<event>
 5    1  0.7624361E-002  0.6000000E+02  0.7546771E-02  0.1259629E+00
         11   -1    0    0    0    0  0.00000000000E+00  0.00000000000E+00  0.30000000000E+02  0.30000000000E+02  0.00000000000E+00 0.  1.
        -11   -1    0    0    0    0 -0.00000000000E+00 -0.00000000000E+00 -0.30000000000E+02  0.30000000000E+02  0.00000000000E+00 0. -1.
         23    2    1    2    0    0  0.00000000000E+00  0.00000000000E+00  0.00000000000E+00  0.60000000000E+02  0.60000000000E+02 0.  0.
          5    1    3    3  501    0 -0.14092264032E+02  0.68183970506E+01 -0.25156064003E+02  0.30000000000E+02  0.47000000000E+01 0. -1.
         -5    1    3    3    0  501  0.14092264032E+02 -0.68183970506E+01  0.25156064003E+02  0.30000000000E+02  0.47000000000E+01 0.  1.
</event>
<event>
 5    1  0.7624361E-002  0.6000000E+02  0.7546771E-02  0.1259629E+00
         11   -1    0    0    0    0  0.00000000000E+00  0.00000000000E+00  0.30000000000E+02  0.30000000000E+02  0.00000000000E+00 0.  1.
        -11   -1    0    0    0    0 -0.00000000000E+00 -0.00000000000E+00 -0.30000000000E+02  0.30000000000E+02  0.00000000000E+00 0. -1.
         23    2    1    2    0    0  0.00000000000E+00  0.00000000000E+00  0.00000000000E+00  0.60000000000E+02  0.60000000000E+02 0.  0.
          5    1    3    3  501    0  0.30998040724E+01 -0.17177971405E+02 -0.23941982231E+02  0.30000000000E+02  0.47000000000E+01 0. -1.
         -5    1    3    3    0  501 -0.30998040724E+01  0.17177971405E+02  0.23941982231E+02  0.30000000000E+02  0.47000000000E+01 0.  1.
</event>
<event>
 5    1  0.7624361E-002  0.6000000E+02  0.7546771E-02  0.1259629E+00
         11   -1    0    0    0    0  0.00000000000E+00  0.00000000000E+00  0.30000000000E+02  0.30000000000E+02  0.00000000000E+00 0.  1.
        -11   -1    0    0    0    0 -0.00000000000E+00 -0.00000000000E+00 -0.30000000000E+02  0.30000000000E+02  0.00000000000E+00 0. -1.
         23    2    1    2    0    0  0.00000000000E+00  0.00000000000E+00  0.00000000000E+00  0.60000000000E+02  0.60000000000E+02 0.  0.
          5    1    3    3  501    0  0.22878734083E+02 -0.17719305521E+02  0.63639404949E+01  0.30000000000E+02  0.47000000000E+01 0. -1.
         -5    1    3    3    0  501 -0.22878734083E+02  0.17719305521E+02 -0.63639404949E+01  0.30000000000E+02  0.47000000000E+01 0.  1.
</event>
<event>
 5    1  0.7624361E-002  0.6000000E+02  0.7546771E-02  0.1259629E+00
         11   -1    0    0    0    0  0.00000000000E+00  0.00000000000E+00  0.30000000000E+02  0.30000000000E+02  0.00000000000E+00 0. -1.
        -11   -1    0    0    0    0 -0.00000000000E+00 -0.00000000000E+00 -0.30000000000E+02  0.30000000000E+02  0.00000000000E+00 0.  1.
         23    2    1    2    0    0  0.00000000000E+00  0.00000000000E+00  0.00000000000E+00  0.60000000000E+02  0.60000000000E+02 0.  0.
          5    1    3    3  501    0 -0.16060626599E+02  0.20774794415E+02 -0.13724947733E+02  0.30000000000E+02  0.47000000000E+01 0.  1.
         -5    1    3    3    0  501  0.16060626599E+02 -0.20774794415E+02  0.13724947733E+02  0.30000000000E+02  0.47000000000E+01 0. -1.
</event>
<event>
 5    1  0.7624361E-002  0.6000000E+02  0.7546771E-02  0.1259629E+00
         11   -1    0    0    0    0  0.00000000000E+00  0.00000000000E+00  0.30000000000E+02  0.30000000000E+02  0.00000000000E+00 0.  1.
        -11   -1    0    0    0    0 -0.00000000000E+00 -0.00000000000E+00 -0.30000000000E+02  0.30000000000E+02  0.00000000000E+00 0. -1.
         23    2    1    2    0    0  0.00000000000E+00  0.00000000000E+00  0.00000000000E+00  0.60000000000E+02  0.60000000000E+02 0.  0.
          5    1    3    3  501    0 -0.20124928735E+02 -0.20523177588E+02  0.71900226084E+01  0.30000000000E+02  0.47000000000E+01 0.  1.
         -5    1    3    3    0  501  0.20124928735E+02  0.20523177588E+02 -0.71900226084E+01  0.30000000000E+02  0.47000000000E+01 0. -1.
</event>
<event>
 5    1  0.7624361E-002  0.6000000E+02  0.7546771E-02  0.1259629E+00
         11   -1    0    0    0    0  0.00000000000E+00  0.00000000000E+00  0.30000000000E+02  0.30000000000E+02  0.00000000000E+00 0. -1.
        -11   -1    0    0    0    0 -0.00000000000E+00 -0.00000000000E+00 -0.30000000000E+02  0.30000000000E+02  0.00000000000E+00 0.  1.
         23    2    1    2    0    0  0.00000000000E+00  0.00000000000E+00  0.00000000000E+00  0.60000000000E+02  0.60000000000E+02 0.  0.
          5    1    3    3  501    0  0.10674339944E+02  0.26340108448E+02 -0.83765836552E+01  0.30000000000E+02  0.47000000000E+01 0.  1.
         -5    1    3    3    0  501 -0.10674339944E+02 -0.26340108448E+02  0.83765836552E+01  0.30000000000E+02  0.47000000000E+01 0. -1.
</event>
<event>
 5    1  0.7624361E-002  0.6000000E+02  0.7546771E-02  0.1259629E+00
         11   -1    0    0    0    0  0.00000000000E+00  0.00000000000E+00  0.30000000000E+02  0.30000000000E+02  0.00000000000E+00 0.  1.
        -11   -1    0    0    0    0 -0.00000000000E+00 -0.00000000000E+00 -0.30000000000E+02  0.30000000000E+02  0.00000000000E+00 0. -1.
         23    2    1    2    0    0  0.00000000000E+00  0.00000000000E+00  0.00000000000E+00  0.60000000000E+02  0.60000000000E+02 0.  0.
          5    1    3    3  501    0  0.25207147909E+02 -0.35699024712E+01 -0.15158017371E+02  0.30000000000E+02  0.47000000000E+01 0. -1.
         -5    1    3    3    0  501 -0.25207147909E+02  0.35699024712E+01  0.15158017371E+02  0.30000000000E+02  0.47000000000E+01 0.  1.
</event>
<event>
 5    1  0.7624361E-002  0.6000000E+02  0.7546771E-02  0.1259629E+00
         11   -1    0    0    0    0  0.00000000000E+00  0.00000000000E+00  0.30000000000E+02  0.30000000000E+02  0.00000000000E+00 0.  1.
        -11   -1    0    0    0    0 -0.00000000000E+00 -0.00000000000E+00 -0.30000000000E+02  0.30000000000E+02  0.00000000000E+00 0. -1.
         23    2    1    2    0    0  0.00000000000E+00  0.00000000000E+00  0.00000000000E+00  0.60000000000E+02  0.60000000000E+02 0.  0.
          5    1    3    3  501    0  0.55377967657E+01  0.28891694428E+02  0.35373436461E+01  0.30000000000E+02  0.47000000000E+01 0.  1.
         -5    1    3    3    0  501 -0.55377967657E+01 -0.28891694428E+02 -0.35373436461E+01  0.30000000000E+02  0.47000000000E+01 0. -1.
</event>
<event>
 5    1  0.7624361E-002  0.6000000E+02  0.7546771E-02  0.1259629E+00
         11   -1    0    0    0    0  0.00000000000E+00  0.00000000000E+00  0.30000000000E+02  0.30000000000E+02  0.00000000000E+00 0.  1.
        -11   -1    0    0    0    0 -0.00000000000E+00 -0.00000000000E+00 -0.30000000000E+02  0.30000000000E+02  0.00000000000E+00 0. -1.
         23    2    1    2    0    0  0.00000000000E+00  0.00000000000E+00  0.00000000000E+00  0.60000000000E+02  0.60000000000E+02 0.  0.
          5    1    3    3  501    0  0.64110546211E+01 -0.11669942454E+02 -0.26469242939E+02  0.30000000000E+02  0.47000000000E+01 0. -1.
         -5    1    3    3    0  501 -0.64110546211E+01  0.11669942454E+02  0.26469242939E+02  0.30000000000E+02  0.47000000000E+01 0.  1.
</event>
<event>
 5    1  0.7624361E-002  0.6000000E+02  0.7546771E-02  0.1259629E+00
         11   -1    0    0    0    0  0.00000000000E+00  0.00000000000E+00  0.30000000000E+02  0.30000000000E+02  0.00000000000E+00 0.  1.
        -11   -1    0    0    0    0 -0.00000000000E+00 -0.00000000000E+00 -0.30000000000E+02  0.30000000000E+02  0.00000000000E+00 0. -1.
         23    2    1    2    0    0  0.00000000000E+00  0.00000000000E+00  0.00000000000E+00  0.60000000000E+02  0.60000000000E+02 0.  0.
          5    1    3    3  501    0  0.52530698685E+01  0.16222956115E+02 -0.24230785209E+02  0.30000000000E+02  0.47000000000E+01 0. -1.
         -5    1    3    3    0  501 -0.52530698685E+01 -0.16222956115E+02  0.24230785209E+02  0.30000000000E+02  0.47000000000E+01 0.  1.
</event>
<event>
 5    1  0.7624361E-002  0.6000000E+02  0.7546771E-02  0.1259629E+00
         11   -1    0    0    0    0  0.00000000000E+00  0.00000000000E+00  0.30000000000E+02  0.30000000000E+02  0.00000000000E+00 0. -1.
        -11   -1    0    0    0    0 -0.00000000000E+00 -0.00000000000E+00 -0.30000000000E+02  0.30000000000E+02  0.00000000000E+00 0.  1.
         23    2    1    2    0    0  0.00000000000E+00  0.00000000000E+00  0.00000000000E+00  0.60000000000E+02  0.60000000000E+02 0.  0.
          5    1    3    3  501    0  0.26373595284E+02  0.71497037914E+01 -0.11455357152E+02  0.30000000000E+02  0.47000000000E+01 0. -1.
         -5    1    3    3    0  501 -0.26373595284E+02 -0.71497037914E+01  0.11455357152E+02  0.30000000000E+02  0.47000000000E+01 0.  1.
</event>
<event>
 5    1  0.7624361E-002  0.6000000E+02  0.7546771E-02  0.1259629E+00
         11   -1    0    0    0    0  0.00000000000E+00  0.00000000000E+00  0.30000000000E+02  0.30000000000E+02  0.00000000000E+00 0. -1.
        -11   -1    0    0    0    0 -0.00000000000E+00 -0.00000000000E+00 -0.30000000000E+02  0.30000000000E+02  0.00000000000E+00 0.  1.
         23    2    1    2    0    0  0.00000000000E+00  0.00000000000E+00  0.00000000000E+00  0.60000000000E+02  0.60000000000E+02 0.  0.
          5    1    3    3  501    0 -0.13796587006E+02  0.26217541521E+02  0.45244179332E+00  0.30000000000E+02  0.47000000000E+01 0.  1.
         -5    1    3    3    0  501  0.13796587006E+02 -0.26217541521E+02 -0.45244179332E+00  0.30000000000E+02  0.47000000000E+01 0. -1.
</event>
<event>
 5    1  0.7624361E-002  0.6000000E+02  0.7546771E-02  0.1259629E+00
         11   -1    0    0    0    0  0.00000000000E+00  0.00000000000E+00  0.30000000000E+02  0.30000000000E+02  0.00000000000E+00 0.  1.
        -11   -1    0    0    0    0 -0.00000000000E+00 -0.00000000000E+00 -0.30000000000E+02  0.30000000000E+02  0.00000000000E+00 0. -1.
         23    2    1    2    0    0  0.00000000000E+00  0.00000000000E+00  0.00000000000E+00  0.60000000000E+02  0.60000000000E+02 0.  0.
          5    1    3    3  501    0 -0.28882824478E+02 -0.66100198158E+01 -0.93906406897E-02  0.30000000000E+02  0.47000000000E+01 0. -1.
         -5    1    3    3    0  501  0.28882824478E+02  0.66100198158E+01  0.93906406897E-02  0.30000000000E+02  0.47000000000E+01 0.  1.
</event>
<event>
 5    1  0.7624361E-002  0.6000000E+02  0.7546771E-02  0.1259629E+00
         11   -1    0    0    0    0  0.00000000000E+00  0.00000000000E+00  0.30000000000E+02  0.30000000000E+02  0.00000000000E+00 0.  1.
        -11   -1    0    0    0    0 -0.00000000000E+00 -0.00000000000E+00 -0.30000000000E+02  0.30000000000E+02  0.00000000000E+00 0. -1.
         23    2    1    2    0    0  0.00000000000E+00  0.00000000000E+00  0.00000000000E+00  0.60000000000E+02  0.60000000000E+02 0.  0.
          5    1    3    3  501    0  0.13488590948E+02  0.17380184083E+02 -0.19846841448E+02  0.30000000000E+02  0.47000000000E+01 0. -1.
         -5    1    3    3    0  501 -0.13488590948E+02 -0.17380184083E+02  0.19846841448E+02  0.30000000000E+02  0.47000000000E+01 0.  1.
</event>
<event>
 5    1  0.7624361E-002  0.6000000E+02  0.7546771E-02  0.1259629E+00
         11   -1    0    0    0    0  0.00000000000E+00  0.00000000000E+00  0.30000000000E+02  0.30000000000E+02  0.00000000000E+00 0.  1.
        -11   -1    0    0    0    0 -0.00000000000E+00 -0.00000000000E+00 -0.30000000000E+02  0.30000000000E+02  0.00000000000E+00 0. -1.
         23    2    1    2    0    0  0.00000000000E+00  0.00000000000E+00  0.00000000000E+00  0.60000000000E+02  0.60000000000E+02 0.  0.
          5    1    3    3  501    0  0.58454320437E+01  0.21268775746E+02 -0.19783328903E+02  0.30000000000E+02  0.47000000000E+01 0. -1.
         -5    1    3    3    0  501 -0.58454320437E+01 -0.21268775746E+02  0.19783328903E+02  0.30000000000E+02  0.47000000000E+01 0.  1.
</event>
<event>
 5    1  0.7624361E-002  0.6000000E+02  0.7546771E-02  0.1259629E+00
         11   -1    0    0    0    0  0.00000000000E+00  0.00000000000E+00  0.30000000000E+02  0.30000000000E+02  0.00000000000E+00 0. -1.
        -11   -1    0    0    0    0 -0.00000000000E+00 -0.00000000000E+00 -0.30000000000E+02  0.30000000000E+02  0.00000000000E+00 0.  1.
         23    2    1    2    0    0  0.00000000000E+00  0.00000000000E+00  0.00000000000E+00  0.60000000000E+02  0.60000000000E+02 0.  0.
          5    1    3    3  501    0 -0.73707796585E+01 -0.23311052312E+02  0.16738472073E+02  0.30000000000E+02  0.47000000000E+01 0. -1.
         -5    1    3    3    0  501  0.73707796585E+01  0.23311052312E+02 -0.16738472073E+02  0.30000000000E+02  0.47000000000E+01 0.  1.
</event>
<event>
 5    1  0.7624361E-002  0.6000000E+02  0.7546771E-02  0.1259629E+00
         11   -1    0    0    0    0  0.00000000000E+00  0.00000000000E+00  0.30000000000E+02  0.30000000000E+02  0.00000000000E+00 0.  1.
        -11   -1    0    0    0    0 -0.00000000000E+00 -0.00000000000E+00 -0.30000000000E+02  0.30000000000E+02  0.00000000000E+00 0. -1.
         23    2    1    2    0    0  0.00000000000E+00  0.00000000000E+00  0.00000000000E+00  0.60000000000E+02  0.60000000000E+02 0.  0.
          5    1    3    3  501    0  0.70447501446E+01  0.28203079829E+02  0.57330431305E+01  0.30000000000E+02  0.47000000000E+01 0.  1.
         -5    1    3    3    0  501 -0.70447501446E+01 -0.28203079829E+02 -0.57330431305E+01  0.30000000000E+02  0.47000000000E+01 0.  1.
</event>
<event>
 5    1  0.7624361E-002  0.6000000E+02  0.7546771E-02  0.1259629E+00
         11   -1    0    0    0    0  0.00000000000E+00  0.00000000000E+00  0.30000000000E+02  0.30000000000E+02  0.00000000000E+00 0.  1.
        -11   -1    0    0    0    0 -0.00000000000E+00 -0.00000000000E+00 -0.30000000000E+02  0.30000000000E+02  0.00000000000E+00 0. -1.
         23    2    1    2    0    0  0.00000000000E+00  0.00000000000E+00  0.00000000000E+00  0.60000000000E+02  0.60000000000E+02 0.  0.
          5    1    3    3  501    0 -0.93218894974E+01  0.23733805096E+02 -0.15090356917E+02  0.30000000000E+02  0.47000000000E+01 0. -1.
         -5    1    3    3    0  501  0.93218894974E+01 -0.23733805096E+02  0.15090356917E+02  0.30000000000E+02  0.47000000000E+01 0.  1.
</event>
<event>
 5    1  0.7624361E-002  0.6000000E+02  0.7546771E-02  0.1259629E+00
         11   -1    0    0    0    0  0.00000000000E+00  0.00000000000E+00  0.30000000000E+02  0.30000000000E+02  0.00000000000E+00 0. -1.
        -11   -1    0    0    0    0 -0.00000000000E+00 -0.00000000000E+00 -0.30000000000E+02  0.30000000000E+02  0.00000000000E+00 0.  1.
         23    2    1    2    0    0  0.00000000000E+00  0.00000000000E+00  0.00000000000E+00  0.60000000000E+02  0.60000000000E+02 0.  0.
          5    1    3    3  501    0 -0.13001824496E+02  0.88033624213E+01  0.25126945096E+02  0.30000000000E+02  0.47000000000E+01 0. -1.
         -5    1    3    3    0  501  0.13001824496E+02 -0.88033624213E+01 -0.25126945096E+02  0.30000000000E+02  0.47000000000E+01 0.  1.
</event>
<event>
 5    1  0.7624361E-002  0.6000000E+02  0.7546771E-02  0.1259629E+00
         11   -1    0    0    0    0  0.00000000000E+00  0.00000000000E+00  0.30000000000E+02  0.30000000000E+02  0.00000000000E+00 0.  1.
        -11   -1    0    0    0    0 -0.00000000000E+00 -0.00000000000E+00 -0.30000000000E+02  0.30000000000E+02  0.00000000000E+00 0. -1.
         23    2    1    2    0    0  0.00000000000E+00  0.00000000000E+00  0.00000000000E+00  0.60000000000E+02  0.60000000000E+02 0.  0.
          5    1    3    3  501    0 -0.54075447184E+01  0.11095685236E+02 -0.26936113848E+02  0.30000000000E+02  0.47000000000E+01 0. -1.
         -5    1    3    3    0  501  0.54075447184E+01 -0.11095685236E+02  0.26936113848E+02  0.30000000000E+02  0.47000000000E+01 0.  1.
</event>
<event>
 5    1  0.7624361E-002  0.6000000E+02  0.7546771E-02  0.1259629E+00
         11   -1    0    0    0    0  0.00000000000E+00  0.00000000000E+00  0.30000000000E+02  0.30000000000E+02  0.00000000000E+00 0. -1.
        -11   -1    0    0    0    0 -0.00000000000E+00 -0.00000000000E+00 -0.30000000000E+02  0.30000000000E+02  0.00000000000E+00 0.  1.
         23    2    1    2    0    0  0.00000000000E+00  0.00000000000E+00  0.00000000000E+00  0.60000000000E+02  0.60000000000E+02 0.  0.
          5    1    3    3  501    0  0.96204322374E+01 -0.11900600335E+02 -0.25371893804E+02  0.30000000000E+02  0.47000000000E+01 0.  1.
         -5    1    3    3    0  501 -0.96204322374E+01  0.11900600335E+02  0.25371893804E+02  0.30000000000E+02  0.47000000000E+01 0. -1.
</event>
<event>
 5    1  0.7624361E-002  0.6000000E+02  0.7546771E-02  0.1259629E+00
         11   -1    0    0    0    0  0.00000000000E+00  0.00000000000E+00  0.30000000000E+02  0.30000000000E+02  0.00000000000E+00 0. -1.
        -11   -1    0    0    0    0 -0.00000000000E+00 -0.00000000000E+00 -0.30000000000E+02  0.30000000000E+02  0.00000000000E+00 0.  1.
         23    2    1    2    0    0  0.00000000000E+00  0.00000000000E+00  0.00000000000E+00  0.60000000000E+02  0.60000000000E+02 0.  0.
          5    1    3    3  501    0  0.13314901656E+02  0.68490325982E+01 -0.25567834213E+02  0.30000000000E+02  0.47000000000E+01 0.  1.
         -5    1    3    3    0  501 -0.13314901656E+02 -0.68490325982E+01  0.25567834213E+02  0.30000000000E+02  0.47000000000E+01 0. -1.
</event>
<event>
 5    1  0.7624361E-002  0.6000000E+02  0.7546771E-02  0.1259629E+00
         11   -1    0    0    0    0  0.00000000000E+00  0.00000000000E+00  0.30000000000E+02  0.30000000000E+02  0.00000000000E+00 0.  1.
        -11   -1    0    0    0    0 -0.00000000000E+00 -0.00000000000E+00 -0.30000000000E+02  0.30000000000E+02  0.00000000000E+00 0. -1.
         23    2    1    2    0    0  0.00000000000E+00  0.00000000000E+00  0.00000000000E+00  0.60000000000E+02  0.60000000000E+02 0.  0.
          5    1    3    3  501    0 -0.21807786352E+01  0.71055117290E+01 -0.28682153120E+02  0.30000000000E+02  0.47000000000E+01 0. -1.
         -5    1    3    3    0  501  0.21807786352E+01 -0.71055117290E+01  0.28682153120E+02  0.30000000000E+02  0.47000000000E+01 0.  1.
</event>
<event>
 5    1  0.7624361E-002  0.6000000E+02  0.7546771E-02  0.1259629E+00
         11   -1    0    0    0    0  0.00000000000E+00  0.00000000000E+00  0.30000000000E+02  0.30000000000E+02  0.00000000000E+00 0.  1.
        -11   -1    0    0    0    0 -0.00000000000E+00 -0.00000000000E+00 -0.30000000000E+02  0.30000000000E+02  0.00000000000E+00 0. -1.
         23    2    1    2    0    0  0.00000000000E+00  0.00000000000E+00  0.00000000000E+00  0.60000000000E+02  0.60000000000E+02 0.  0.
          5    1    3    3  501    0 -0.74924344508E+01  0.16412544807E+02 -0.23503229543E+02  0.30000000000E+02  0.47000000000E+01 0. -1.
         -5    1    3    3    0  501  0.74924344508E+01 -0.16412544807E+02  0.23503229543E+02  0.30000000000E+02  0.47000000000E+01 0.  1.
</event>
<event>
 5    1  0.7624361E-002  0.6000000E+02  0.7546771E-02  0.1259629E+00
         11   -1    0    0    0    0  0.00000000000E+00  0.00000000000E+00  0.30000000000E+02  0.30000000000E+02  0.00000000000E+00 0.  1.
        -11   -1    0    0    0    0 -0.00000000000E+00 -0.00000000000E+00 -0.30000000000E+02  0.30000000000E+02  0.00000000000E+00 0. -1.
         23    2    1    2    0    0  0.00000000000E+00  0.00000000000E+00  0.00000000000E+00  0.60000000000E+02  0.60000000000E+02 0.  0.
          5    1    3    3  501    0  0.19850787439E+02  0.16232164835E+02  0.14844967593E+02  0.30000000000E+02  0.47000000000E+01 0. -1.
         -5    1    3    3    0  501 -0.19850787439E+02 -0.16232164835E+02 -0.14844967593E+02  0.30000000000E+02  0.47000000000E+01 0.  1.
</event>
<event>
 5    1  0.7624361E-002  0.6000000E+02  0.7546771E-02  0.1259629E+00
         11   -1    0    0    0    0  0.00000000000E+00  0.00000000000E+00  0.30000000000E+02  0.30000000000E+02  0.00000000000E+00 0. -1.
        -11   -1    0    0    0    0 -0.00000000000E+00 -0.00000000000E+00 -0.30000000000E+02  0.30000000000E+02  0.00000000000E+00 0.  1.
         23    2    1    2    0    0  0.00000000000E+00  0.00000000000E+00  0.00000000000E+00  0.60000000000E+02  0.60000000000E+02 0.  0.
          5    1    3    3  501    0  0.10501694930E+02  0.26531900149E+02 -0.79801427374E+01  0.30000000000E+02  0.47000000000E+01 0.  1.
         -5    1    3    3    0  501 -0.10501694930E+02 -0.26531900149E+02  0.79801427374E+01  0.30000000000E+02  0.47000000000E+01 0. -1.
</event>
<event>
 5    1  0.7624361E-002  0.6000000E+02  0.7546771E-02  0.1259629E+00
         11   -1    0    0    0    0  0.00000000000E+00  0.00000000000E+00  0.30000000000E+02  0.30000000000E+02  0.00000000000E+00 0.  1.
        -11   -1    0    0    0    0 -0.00000000000E+00 -0.00000000000E+00 -0.30000000000E+02  0.30000000000E+02  0.00000000000E+00 0. -1.
         23    2    1    2    0    0  0.00000000000E+00  0.00000000000E+00  0.00000000000E+00  0.60000000000E+02  0.60000000000E+02 0.  0.
          5    1    3    3  501    0  0.74374269860E+01  0.23186063133E+02 -0.16881977261E+02  0.30000000000E+02  0.47000000000E+01 0. -1.
         -5    1    3    3    0  501 -0.74374269860E+01 -0.23186063133E+02  0.16881977261E+02  0.30000000000E+02  0.47000000000E+01 0.  1.
</event>
<event>
 5    1  0.7624361E-002  0.6000000E+02  0.7546771E-02  0.1259629E+00
         11   -1    0    0    0    0  0.00000000000E+00  0.00000000000E+00  0.30000000000E+02  0.30000000000E+02  0.00000000000E+00 0.  1.
        -11   -1    0    0    0    0 -0.00000000000E+00 -0.00000000000E+00 -0.30000000000E+02  0.30000000000E+02  0.00000000000E+00 0. -1.
         23    2    1    2    0    0  0.00000000000E+00  0.00000000000E+00  0.00000000000E+00  0.60000000000E+02  0.60000000000E+02 0.  0.
          5    1    3    3  501    0 -0.27732610286E+02 -0.10385935289E+02 -0.97194387612E+00  0.30000000000E+02  0.47000000000E+01 0. -1.
         -5    1    3    3    0  501  0.27732610286E+02  0.10385935289E+02  0.97194387612E+00  0.30000000000E+02  0.47000000000E+01 0.  1.
</event>
<event>
 5    1  0.7624361E-002  0.6000000E+02  0.7546771E-02  0.1259629E+00
         11   -1    0    0    0    0  0.00000000000E+00  0.00000000000E+00  0.30000000000E+02  0.30000000000E+02  0.00000000000E+00 0. -1.
        -11   -1    0    0    0    0 -0.00000000000E+00 -0.00000000000E+00 -0.30000000000E+02  0.30000000000E+02  0.00000000000E+00 0.  1.
         23    2    1    2    0    0  0.00000000000E+00  0.00000000000E+00  0.00000000000E+00  0.60000000000E+02  0.60000000000E+02 0.  0.
          5    1    3    3  501    0  0.80035038702E+00 -0.14777929994E+02 -0.25668701259E+02  0.30000000000E+02  0.47000000000E+01 0.  1.
         -5    1    3    3    0  501 -0.80035038702E+00  0.14777929994E+02  0.25668701259E+02  0.30000000000E+02  0.47000000000E+01 0. -1.
</event>
<event>
 5    1  0.7624361E-002  0.6000000E+02  0.7546771E-02  0.1259629E+00
         11   -1    0    0    0    0  0.00000000000E+00  0.00000000000E+00  0.30000000000E+02  0.30000000000E+02  0.00000000000E+00 0.  1.
        -11   -1    0    0    0    0 -0.00000000000E+00 -0.00000000000E+00 -0.30000000000E+02  0.30000000000E+02  0.00000000000E+00 0. -1.
         23    2    1    2    0    0  0.00000000000E+00  0.00000000000E+00  0.00000000000E+00  0.60000000000E+02  0.60000000000E+02 0.  0.
          5    1    3    3  501    0 -0.85734675619E+01  0.24259469122E+02 -0.14692985126E+02  0.30000000000E+02  0.47000000000E+01 0. -1.
         -5    1    3    3    0  501  0.85734675619E+01 -0.24259469122E+02  0.14692985126E+02  0.30000000000E+02  0.47000000000E+01 0.  1.
</event>
<event>
 5    1  0.7624361E-002  0.6000000E+02  0.7546771E-02  0.1259629E+00
         11   -1    0    0    0    0  0.00000000000E+00  0.00000000000E+00  0.30000000000E+02  0.30000000000E+02  0.00000000000E+00 0.  1.
        -11   -1    0    0    0    0 -0.00000000000E+00 -0.00000000000E+00 -0.30000000000E+02  0.30000000000E+02  0.00000000000E+00 0. -1.
         23    2    1    2    0    0  0.00000000000E+00  0.00000000000E+00  0.00000000000E+00  0.60000000000E+02  0.60000000000E+02 0.  0.
          5    1    3    3  501    0  0.69494775722E+01 -0.54850876811E+01 -0.28275936317E+02  0.30000000000E+02  0.47000000000E+01 0. -1.
         -5    1    3    3    0  501 -0.69494775722E+01  0.54850876811E+01  0.28275936317E+02  0.30000000000E+02  0.47000000000E+01 0.  1.
</event>
<event>
 5    1  0.7624361E-002  0.6000000E+02  0.7546771E-02  0.1259629E+00
         11   -1    0    0    0    0  0.00000000000E+00  0.00000000000E+00  0.30000000000E+02  0.30000000000E+02  0.00000000000E+00 0. -1.
        -11   -1    0    0    0    0 -0.00000000000E+00 -0.00000000000E+00 -0.30000000000E+02  0.30000000000E+02  0.00000000000E+00 0.  1.
         23    2    1    2    0    0  0.00000000000E+00  0.00000000000E+00  0.00000000000E+00  0.60000000000E+02  0.60000000000E+02 0.  0.
          5    1    3    3  501    0  0.25631522569E+02 -0.14487455511E+02  0.33239560185E+01  0.30000000000E+02  0.47000000000E+01 0. -1.
         -5    1    3    3    0  501 -0.25631522569E+02  0.14487455511E+02 -0.33239560185E+01  0.30000000000E+02  0.47000000000E+01 0.  1.
</event>
<event>
 5    1  0.7624361E-002  0.6000000E+02  0.7546771E-02  0.1259629E+00
         11   -1    0    0    0    0  0.00000000000E+00  0.00000000000E+00  0.30000000000E+02  0.30000000000E+02  0.00000000000E+00 0.  1.
        -11   -1    0    0    0    0 -0.00000000000E+00 -0.00000000000E+00 -0.30000000000E+02  0.30000000000E+02  0.00000000000E+00 0. -1.
         23    2    1    2    0    0  0.00000000000E+00  0.00000000000E+00  0.00000000000E+00  0.60000000000E+02  0.60000000000E+02 0.  0.
          5    1    3    3  501    0 -0.19730525363E+02  0.14620234930E+02 -0.16579056049E+02  0.30000000000E+02  0.47000000000E+01 0. -1.
         -5    1    3    3    0  501  0.19730525363E+02 -0.14620234930E+02  0.16579056049E+02  0.30000000000E+02  0.47000000000E+01 0.  1.
</event>
<event>
 5    1  0.7624361E-002  0.6000000E+02  0.7546771E-02  0.1259629E+00
         11   -1    0    0    0    0  0.00000000000E+00  0.00000000000E+00  0.30000000000E+02  0.30000000000E+02  0.00000000000E+00 0.  1.
        -11   -1    0    0    0    0 -0.00000000000E+00 -0.00000000000E+00 -0.30000000000E+02  0.30000000000E+02  0.00000000000E+00 0. -1.
         23    2    1    2    0    0  0.00000000000E+00  0.00000000000E+00  0.00000000000E+00  0.60000000000E+02  0.60000000000E+02 0.  0.
          5    1    3    3  501    0  0.97302728803E+01  0.24633560273E+02 -0.13282300176E+02  0.30000000000E+02  0.47000000000E+01 0. -1.
         -5    1    3    3    0  501 -0.97302728803E+01 -0.24633560273E+02  0.13282300176E+02  0.30000000000E+02  0.47000000000E+01 0.  1.
</event>
<event>
 5    1  0.7624361E-002  0.6000000E+02  0.7546771E-02  0.1259629E+00
         11   -1    0    0    0    0  0.00000000000E+00  0.00000000000E+00  0.30000000000E+02  0.30000000000E+02  0.00000000000E+00 0. -1.
        -11   -1    0    0    0    0 -0.00000000000E+00 -0.00000000000E+00 -0.30000000000E+02  0.30000000000E+02  0.00000000000E+00 0.  1.
         23    2    1    2    0    0  0.00000000000E+00  0.00000000000E+00  0.00000000000E+00  0.60000000000E+02  0.60000000000E+02 0.  0.
          5    1    3    3  501    0 -0.26895002770E+02 -0.49584415209E+01 -0.11400994856E+02  0.30000000000E+02  0.47000000000E+01 0.  1.
         -5    1    3    3    0  501  0.26895002770E+02  0.49584415209E+01  0.11400994856E+02  0.30000000000E+02  0.47000000000E+01 0. -1.
</event>
<event>
 5    1  0.7624361E-002  0.6000000E+02  0.7546771E-02  0.1259629E+00
         11   -1    0    0    0    0  0.00000000000E+00  0.00000000000E+00  0.30000000000E+02  0.30000000000E+02  0.00000000000E+00 0. -1.
        -11   -1    0    0    0    0 -0.00000000000E+00 -0.00000000000E+00 -0.30000000000E+02  0.30000000000E+02  0.00000000000E+00 0.  1.
         23    2    1    2    0    0  0.00000000000E+00  0.00000000000E+00  0.00000000000E+00  0.60000000000E+02  0.60000000000E+02 0.  0.
          5    1    3    3  501    0 -0.12232070288E+02  0.24291932552E+02 -0.11755359176E+02  0.30000000000E+02  0.47000000000E+01 0.  1.
         -5    1    3    3    0  501  0.12232070288E+02 -0.24291932552E+02  0.11755359176E+02  0.30000000000E+02  0.47000000000E+01 0. -1.
</event>
<event>
 5    1  0.7624361E-002  0.6000000E+02  0.7546771E-02  0.1259629E+00
         11   -1    0    0    0    0  0.00000000000E+00  0.00000000000E+00  0.30000000000E+02  0.30000000000E+02  0.00000000000E+00 0.  1.
        -11   -1    0    0    0    0 -0.00000000000E+00 -0.00000000000E+00 -0.30000000000E+02  0.30000000000E+02  0.00000000000E+00 0. -1.
         23    2    1    2    0    0  0.00000000000E+00  0.00000000000E+00  0.00000000000E+00  0.60000000000E+02  0.60000000000E+02 0.  0.
          5    1    3    3  501    0  0.27836663109E+01 -0.77099972742E+01 -0.28473095088E+02  0.30000000000E+02  0.47000000000E+01 0. -1.
         -5    1    3    3    0  501 -0.27836663109E+01  0.77099972742E+01  0.28473095088E+02  0.30000000000E+02  0.47000000000E+01 0.  1.
</event>
<event>
 5    1  0.7624361E-002  0.6000000E+02  0.7546771E-02  0.1259629E+00
         11   -1    0    0    0    0  0.00000000000E+00  0.00000000000E+00  0.30000000000E+02  0.30000000000E+02  0.00000000000E+00 0.  1.
        -11   -1    0    0    0    0 -0.00000000000E+00 -0.00000000000E+00 -0.30000000000E+02  0.30000000000E+02  0.00000000000E+00 0. -1.
         23    2    1    2    0    0  0.00000000000E+00  0.00000000000E+00  0.00000000000E+00  0.60000000000E+02  0.60000000000E+02 0.  0.
          5    1    3    3  501    0  0.61378447269E+01  0.11929507042E+02 -0.26418246040E+02  0.30000000000E+02  0.47000000000E+01 0. -1.
         -5    1    3    3    0  501 -0.61378447269E+01 -0.11929507042E+02  0.26418246040E+02  0.30000000000E+02  0.47000000000E+01 0.  1.
</event>
<event>
 5    1  0.7624361E-002  0.6000000E+02  0.7546771E-02  0.1259629E+00
         11   -1    0    0    0    0  0.00000000000E+00  0.00000000000E+00  0.30000000000E+02  0.30000000000E+02  0.00000000000E+00 0.  1.
        -11   -1    0    0    0    0 -0.00000000000E+00 -0.00000000000E+00 -0.30000000000E+02  0.30000000000E+02  0.00000000000E+00 0. -1.
         23    2    1    2    0    0  0.00000000000E+00  0.00000000000E+00  0.00000000000E+00  0.60000000000E+02  0.60000000000E+02 0.  0.
          5    1    3    3  501    0 -0.18057558673E+02 -0.23409507244E+02  0.19569224234E+01  0.30000000000E+02  0.47000000000E+01 0. -1.
         -5    1    3    3    0  501  0.18057558673E+02  0.23409507244E+02 -0.19569224234E+01  0.30000000000E+02  0.47000000000E+01 0.  1.
</event>
<event>
 5    1  0.7624361E-002  0.6000000E+02  0.7546771E-02  0.1259629E+00
         11   -1    0    0    0    0  0.00000000000E+00  0.00000000000E+00  0.30000000000E+02  0.30000000000E+02  0.00000000000E+00 0.  1.
        -11   -1    0    0    0    0 -0.00000000000E+00 -0.00000000000E+00 -0.30000000000E+02  0.30000000000E+02  0.00000000000E+00 0. -1.
         23    2    1    2    0    0  0.00000000000E+00  0.00000000000E+00  0.00000000000E+00  0.60000000000E+02  0.60000000000E+02 0.  0.
          5    1    3    3  501    0  0.26661026918E+02  0.10242588523E+02  0.78860017749E+01  0.30000000000E+02  0.47000000000E+01 0. -1.
         -5    1    3    3    0  501 -0.26661026918E+02 -0.10242588523E+02 -0.78860017749E+01  0.30000000000E+02  0.47000000000E+01 0.  1.
</event>
<event>
 5    1  0.7624361E-002  0.6000000E+02  0.7546771E-02  0.1259629E+00
         11   -1    0    0    0    0  0.00000000000E+00  0.00000000000E+00  0.30000000000E+02  0.30000000000E+02  0.00000000000E+00 0.  1.
        -11   -1    0    0    0    0 -0.00000000000E+00 -0.00000000000E+00 -0.30000000000E+02  0.30000000000E+02  0.00000000000E+00 0. -1.
         23    2    1    2    0    0  0.00000000000E+00  0.00000000000E+00  0.00000000000E+00  0.60000000000E+02  0.60000000000E+02 0.  0.
          5    1    3    3  501    0 -0.23611969042E+02 -0.72603696544E+01 -0.16360683068E+02  0.30000000000E+02  0.47000000000E+01 0. -1.
         -5    1    3    3    0  501  0.23611969042E+02  0.72603696544E+01  0.16360683068E+02  0.30000000000E+02  0.47000000000E+01 0.  1.
</event>
<event>
 5    1  0.7624361E-002  0.6000000E+02  0.7546771E-02  0.1259629E+00
         11   -1    0    0    0    0  0.00000000000E+00  0.00000000000E+00  0.30000000000E+02  0.30000000000E+02  0.00000000000E+00 0.  1.
        -11   -1    0    0    0    0 -0.00000000000E+00 -0.00000000000E+00 -0.30000000000E+02  0.30000000000E+02  0.00000000000E+00 0. -1.
         23    2    1    2    0    0  0.00000000000E+00  0.00000000000E+00  0.00000000000E+00  0.60000000000E+02  0.60000000000E+02 0.  0.
          5    1    3    3  501    0  0.53764082847E+00 -0.21488083141E+02 -0.20393215177E+02  0.30000000000E+02  0.47000000000E+01 0. -1.
         -5    1    3    3    0  501 -0.53764082847E+00  0.21488083141E+02  0.20393215177E+02  0.30000000000E+02  0.47000000000E+01 0.  1.
</event>
<event>
 5    1  0.7624361E-002  0.6000000E+02  0.7546771E-02  0.1259629E+00
         11   -1    0    0    0    0  0.00000000000E+00  0.00000000000E+00  0.30000000000E+02  0.30000000000E+02  0.00000000000E+00 0. -1.
        -11   -1    0    0    0    0 -0.00000000000E+00 -0.00000000000E+00 -0.30000000000E+02  0.30000000000E+02  0.00000000000E+00 0.  1.
         23    2    1    2    0    0  0.00000000000E+00  0.00000000000E+00  0.00000000000E+00  0.60000000000E+02  0.60000000000E+02 0.  0.
          5    1    3    3  501    0  0.16028210498E+02 -0.34085660095E+01 -0.24685788340E+02  0.30000000000E+02  0.47000000000E+01 0.  1.
         -5    1    3    3    0  501 -0.16028210498E+02  0.34085660095E+01  0.24685788340E+02  0.30000000000E+02  0.47000000000E+01 0. -1.
</event>
