<event>
 4    1  0.4838534E-004  0.1000000E+04  0.7546771E-02  0.8684367E-01
         11   -1    0    0    0    0  0.00000000000E+00  0.00000000000E+00  0.50000000000E+03  0.50000000000E+03  0.00000000000E+00 0. -1.
        -11   -1    0    0    0    0 -0.00000000000E+00 -0.00000000000E+00 -0.50000000000E+03  0.50000000000E+03  0.00000000000E+00 0.  1.
          5    1    1    2  501    0  0.42124542785E+03  0.26810243718E+03 -0.25520240872E+02  0.50000000000E+03  0.47000000000E+01 0. -1.
         -5    1    1    2    0  501 -0.42124542785E+03 -0.26810243718E+03  0.25520240872E+02  0.50000000000E+03  0.47000000000E+01 0.  1.
</event>
<event>
 4    1  0.4838534E-004  0.1000000E+04  0.7546771E-02  0.8684367E-01
         11   -1    0    0    0    0  0.00000000000E+00  0.00000000000E+00  0.50000000000E+03  0.50000000000E+03  0.00000000000E+00 0.  1.
        -11   -1    0    0    0    0 -0.00000000000E+00 -0.00000000000E+00 -0.50000000000E+03  0.50000000000E+03  0.00000000000E+00 0. -1.
          5    1    1    2  501    0 -0.33712368147E+03 -0.35211421393E+03  0.11109056549E+03  0.50000000000E+03  0.47000000000E+01 0.  1.
         -5    1    1    2    0  501  0.33712368147E+03  0.35211421393E+03 -0.11109056549E+03  0.50000000000E+03  0.47000000000E+01 0. -1.
</event>
<event>
 4    1  0.4838534E-004  0.1000000E+04  0.7546771E-02  0.8684367E-01
         11   -1    0    0    0    0  0.00000000000E+00  0.00000000000E+00  0.50000000000E+03  0.50000000000E+03  0.00000000000E+00 0. -1.
        -11   -1    0    0    0    0 -0.00000000000E+00 -0.00000000000E+00 -0.50000000000E+03  0.50000000000E+03  0.00000000000E+00 0.  1.
          5    1    1    2  501    0 -0.29950385190E+03 -0.15883790283E+03  0.36748588180E+03  0.50000000000E+03  0.47000000000E+01 0. -1.
         -5    1    1    2    0  501  0.29950385190E+03  0.15883790283E+03 -0.36748588180E+03  0.50000000000E+03  0.47000000000E+01 0.  1.
</event>
<event>
 4    1  0.4838534E-004  0.1000000E+04  0.7546771E-02  0.8684367E-01
         11   -1    0    0    0    0  0.00000000000E+00  0.00000000000E+00  0.50000000000E+03  0.50000000000E+03  0.00000000000E+00 0. -1.
        -11   -1    0    0    0    0 -0.00000000000E+00 -0.00000000000E+00 -0.50000000000E+03  0.50000000000E+03  0.00000000000E+00 0.  1.
          5    1    1    2  501    0 -0.15315903841E+03 -0.16606635499E+02  0.47565159372E+03  0.50000000000E+03  0.47000000000E+01 0. -1.
         -5    1    1    2    0  501  0.15315903841E+03  0.16606635499E+02 -0.47565159372E+03  0.50000000000E+03  0.47000000000E+01 0.  1.
</event>
<event>
 4    1  0.4838534E-004  0.1000000E+04  0.7546771E-02  0.8684367E-01
         11   -1    0    0    0    0  0.00000000000E+00  0.00000000000E+00  0.50000000000E+03  0.50000000000E+03  0.00000000000E+00 0. -1.
        -11   -1    0    0    0    0 -0.00000000000E+00 -0.00000000000E+00 -0.50000000000E+03  0.50000000000E+03  0.00000000000E+00 0.  1.
          5    1    1    2  501    0 -0.30839909991E+03 -0.19824638877E+03  0.33995040008E+03  0.50000000000E+03  0.47000000000E+01 0. -1.
         -5    1    1    2    0  501  0.30839909991E+03  0.19824638877E+03 -0.33995040008E+03  0.50000000000E+03  0.47000000000E+01 0.  1.
</event>
<event>
 4    1  0.4838534E-004  0.1000000E+04  0.7546771E-02  0.8684367E-01
         11   -1    0    0    0    0  0.00000000000E+00  0.00000000000E+00  0.50000000000E+03  0.50000000000E+03  0.00000000000E+00 0. -1.
        -11   -1    0    0    0    0 -0.00000000000E+00 -0.00000000000E+00 -0.50000000000E+03  0.50000000000E+03  0.00000000000E+00 0.  1.
          5    1    1    2  501    0  0.27064909333E+03  0.38564015871E+03  0.16735783898E+03  0.50000000000E+03  0.47000000000E+01 0. -1.
         -5    1    1    2    0  501 -0.27064909333E+03 -0.38564015871E+03 -0.16735783898E+03  0.50000000000E+03  0.47000000000E+01 0.  1.
</event>
<event>
 4    1  0.4838534E-004  0.1000000E+04  0.7546771E-02  0.8684367E-01
         11   -1    0    0    0    0  0.00000000000E+00  0.00000000000E+00  0.50000000000E+03  0.50000000000E+03  0.00000000000E+00 0. -1.
        -11   -1    0    0    0    0 -0.00000000000E+00 -0.00000000000E+00 -0.50000000000E+03  0.50000000000E+03  0.00000000000E+00 0.  1.
          5    1    1    2  501    0  0.43162773519E+03 -0.24938956945E+03 -0.38474028380E+02  0.50000000000E+03  0.47000000000E+01 0. -1.
         -5    1    1    2    0  501 -0.43162773519E+03  0.24938956945E+03  0.38474028380E+02  0.50000000000E+03  0.47000000000E+01 0.  1.
</event>
<event>
 4    1  0.4838534E-004  0.1000000E+04  0.7546771E-02  0.8684367E-01
         11   -1    0    0    0    0  0.00000000000E+00  0.00000000000E+00  0.50000000000E+03  0.50000000000E+03  0.00000000000E+00 0.  1.
        -11   -1    0    0    0    0 -0.00000000000E+00 -0.00000000000E+00 -0.50000000000E+03  0.50000000000E+03  0.00000000000E+00 0. -1.
          5    1    1    2  501    0 -0.34202666141E+03 -0.34052460624E+03 -0.13053223906E+03  0.50000000000E+03  0.47000000000E+01 0.  1.
         -5    1    1    2    0  501  0.34202666141E+03  0.34052460624E+03  0.13053223906E+03  0.50000000000E+03  0.47000000000E+01 0. -1.
</event>
<event>
 4    1  0.4838534E-004  0.1000000E+04  0.7546771E-02  0.8684367E-01
         11   -1    0    0    0    0  0.00000000000E+00  0.00000000000E+00  0.50000000000E+03  0.50000000000E+03  0.00000000000E+00 0. -1.
        -11   -1    0    0    0    0 -0.00000000000E+00 -0.00000000000E+00 -0.50000000000E+03  0.50000000000E+03  0.00000000000E+00 0.  1.
          5    1    1    2  501    0  0.15008141575E+03  0.47692034230E+03  0.68246051553E+00  0.50000000000E+03  0.47000000000E+01 0. -1.
         -5    1    1    2    0  501 -0.15008141575E+03 -0.47692034230E+03 -0.68246051553E+00  0.50000000000E+03  0.47000000000E+01 0.  1.
</event>
<event>
 4    1  0.4838534E-004  0.1000000E+04  0.7546771E-02  0.8684367E-01
         11   -1    0    0    0    0  0.00000000000E+00  0.00000000000E+00  0.50000000000E+03  0.50000000000E+03  0.00000000000E+00 0. -1.
        -11   -1    0    0    0    0 -0.00000000000E+00 -0.00000000000E+00 -0.50000000000E+03  0.50000000000E+03  0.00000000000E+00 0.  1.
          5    1    1    2  501    0  0.80386038563E+02  0.26588684637E+03  0.41571646555E+03  0.50000000000E+03  0.47000000000E+01 0. -1.
         -5    1    1    2    0  501 -0.80386038563E+02 -0.26588684637E+03 -0.41571646555E+03  0.50000000000E+03  0.47000000000E+01 0.  1.
</event>
<event>
 4    1  0.4838534E-004  0.1000000E+04  0.7546771E-02  0.8684367E-01
         11   -1    0    0    0    0  0.00000000000E+00  0.00000000000E+00  0.50000000000E+03  0.50000000000E+03  0.00000000000E+00 0. -1.
        -11   -1    0    0    0    0 -0.00000000000E+00 -0.00000000000E+00 -0.50000000000E+03  0.50000000000E+03  0.00000000000E+00 0.  1.
          5    1    1    2  501    0  0.30498641184E+03 -0.14855762319E+03  0.36727623281E+03  0.50000000000E+03  0.47000000000E+01 0. -1.
         -5    1    1    2    0  501 -0.30498641184E+03  0.14855762319E+03 -0.36727623281E+03  0.50000000000E+03  0.47000000000E+01 0.  1.
</event>
<event>
 4    1  0.4838534E-004  0.1000000E+04  0.7546771E-02  0.8684367E-01
         11   -1    0    0    0    0  0.00000000000E+00  0.00000000000E+00  0.50000000000E+03  0.50000000000E+03  0.00000000000E+00 0. -1.
        -11   -1    0    0    0    0 -0.00000000000E+00 -0.00000000000E+00 -0.50000000000E+03  0.50000000000E+03  0.00000000000E+00 0.  1.
          5    1    1    2  501    0  0.16626864136E+03  0.12624997671E+03  0.45430561550E+03  0.50000000000E+03  0.47000000000E+01 0. -1.
         -5    1    1    2    0  501 -0.16626864136E+03 -0.12624997671E+03 -0.45430561550E+03  0.50000000000E+03  0.47000000000E+01 0.  1.
</event>
<event>
 4    1  0.4838534E-004  0.1000000E+04  0.7546771E-02  0.8684367E-01
         11   -1    0    0    0    0  0.00000000000E+00  0.00000000000E+00  0.50000000000E+03  0.50000000000E+03  0.00000000000E+00 0.  1.
        -11   -1    0    0    0    0 -0.00000000000E+00 -0.00000000000E+00 -0.50000000000E+03  0.50000000000E+03  0.00000000000E+00 0. -1.
          5    1    1    2  501    0 -0.21444452141E+03 -0.19512594871E+03  0.40732949976E+03  0.50000000000E+03  0.47000000000E+01 0.  1.
         -5    1    1    2    0  501  0.21444452141E+03  0.19512594871E+03 -0.40732949976E+03  0.50000000000E+03  0.47000000000E+01 0. -1.
</event>
<event>
 4    1  0.4838534E-004  0.1000000E+04  0.7546771E-02  0.8684367E-01
         11   -1    0    0    0    0  0.00000000000E+00  0.00000000000E+00  0.50000000000E+03  0.50000000000E+03  0.00000000000E+00 0. -1.
        -11   -1    0    0    0    0 -0.00000000000E+00 -0.00000000000E+00 -0.50000000000E+03  0.50000000000E+03  0.00000000000E+00 0.  1.
          5    1    1    2  501    0  0.44237416805E+03  0.67477396329E+01  0.23288940175E+03  0.50000000000E+03  0.47000000000E+01 0. -1.
         -5    1    1    2    0  501 -0.44237416805E+03 -0.67477396329E+01 -0.23288940175E+03  0.50000000000E+03  0.47000000000E+01 0.  1.
</event>
<event>
 4    1  0.4838534E-004  0.1000000E+04  0.7546771E-02  0.8684367E-01
         11   -1    0    0    0    0  0.00000000000E+00  0.00000000000E+00  0.50000000000E+03  0.50000000000E+03  0.00000000000E+00 0. -1.
        -11   -1    0    0    0    0 -0.00000000000E+00 -0.00000000000E+00 -0.50000000000E+03  0.50000000000E+03  0.00000000000E+00 0.  1.
          5    1    1    2  501    0 -0.13757620584E+03  0.16627873844E+03  0.45100119593E+03  0.50000000000E+03  0.47000000000E+01 0. -1.
         -5    1    1    2    0  501  0.13757620584E+03 -0.16627873844E+03 -0.45100119593E+03  0.50000000000E+03  0.47000000000E+01 0.  1.
</event>
<event>
 4    1  0.4838534E-004  0.1000000E+04  0.7546771E-02  0.8684367E-01
         11   -1    0    0    0    0  0.00000000000E+00  0.00000000000E+00  0.50000000000E+03  0.50000000000E+03  0.00000000000E+00 0. -1.
        -11   -1    0    0    0    0 -0.00000000000E+00 -0.00000000000E+00 -0.50000000000E+03  0.50000000000E+03  0.00000000000E+00 0.  1.
          5    1    1    2  501    0 -0.26356262124E+03 -0.20798345772E+03  0.37048014252E+03  0.50000000000E+03  0.47000000000E+01 0. -1.
         -5    1    1    2    0  501  0.26356262124E+03  0.20798345772E+03 -0.37048014252E+03  0.50000000000E+03  0.47000000000E+01 0.  1.
</event>
<event>
 4    1  0.4838534E-004  0.1000000E+04  0.7546771E-02  0.8684367E-01
         11   -1    0    0    0    0  0.00000000000E+00  0.00000000000E+00  0.50000000000E+03  0.50000000000E+03  0.00000000000E+00 0. -1.
        -11   -1    0    0    0    0 -0.00000000000E+00 -0.00000000000E+00 -0.50000000000E+03  0.50000000000E+03  0.00000000000E+00 0.  1.
          5    1    1    2  501    0  0.30933709315E+03 -0.14108270111E+02  0.39254226462E+03  0.50000000000E+03  0.47000000000E+01 0. -1.
         -5    1    1    2    0  501 -0.30933709315E+03  0.14108270111E+02 -0.39254226462E+03  0.50000000000E+03  0.47000000000E+01 0.  1.
</event>
<event>
 4    1  0.4838534E-004  0.1000000E+04  0.7546771E-02  0.8684367E-01
         11   -1    0    0    0    0  0.00000000000E+00  0.00000000000E+00  0.50000000000E+03  0.50000000000E+03  0.00000000000E+00 0. -1.
        -11   -1    0    0    0    0 -0.00000000000E+00 -0.00000000000E+00 -0.50000000000E+03  0.50000000000E+03  0.00000000000E+00 0.  1.
          5    1    1    2  501    0  0.86278827493E+02  0.56934310909E+02  0.48917518147E+03  0.50000000000E+03  0.47000000000E+01 0. -1.
         -5    1    1    2    0  501 -0.86278827493E+02 -0.56934310909E+02 -0.48917518147E+03  0.50000000000E+03  0.47000000000E+01 0.  1.
</event>
<event>
 4    1  0.4838534E-004  0.1000000E+04  0.7546771E-02  0.8684367E-01
         11   -1    0    0    0    0  0.00000000000E+00  0.00000000000E+00  0.50000000000E+03  0.50000000000E+03  0.00000000000E+00 0. -1.
        -11   -1    0    0    0    0 -0.00000000000E+00 -0.00000000000E+00 -0.50000000000E+03  0.50000000000E+03  0.00000000000E+00 0.  1.
          5    1    1    2  501    0 -0.33722629052E+03  0.28084161991E+03 -0.23955025257E+03  0.50000000000E+03  0.47000000000E+01 0. -1.
         -5    1    1    2    0  501  0.33722629052E+03 -0.28084161991E+03  0.23955025257E+03  0.50000000000E+03  0.47000000000E+01 0.  1.
</event>
<event>
 4    1  0.4838534E-004  0.1000000E+04  0.7546771E-02  0.8684367E-01
         11   -1    0    0    0    0  0.00000000000E+00  0.00000000000E+00  0.50000000000E+03  0.50000000000E+03  0.00000000000E+00 0. -1.
        -11   -1    0    0    0    0 -0.00000000000E+00 -0.00000000000E+00 -0.50000000000E+03  0.50000000000E+03  0.00000000000E+00 0.  1.
          5    1    1    2  501    0 -0.22054040533E+02 -0.49695044219E+03  0.50316869021E+02  0.50000000000E+03  0.47000000000E+01 0. -1.
         -5    1    1    2    0  501  0.22054040533E+02  0.49695044219E+03 -0.50316869021E+02  0.50000000000E+03  0.47000000000E+01 0.  1.
</event>
<event>
 4    1  0.4838534E-004  0.1000000E+04  0.7546771E-02  0.8684367E-01
         11   -1    0    0    0    0  0.00000000000E+00  0.00000000000E+00  0.50000000000E+03  0.50000000000E+03  0.00000000000E+00 0. -1.
        -11   -1    0    0    0    0 -0.00000000000E+00 -0.00000000000E+00 -0.50000000000E+03  0.50000000000E+03  0.00000000000E+00 0.  1.
          5    1    1    2  501    0 -0.38673732282E+03 -0.14888327447E+03  0.27972472848E+03  0.50000000000E+03  0.47000000000E+01 0. -1.
         -5    1    1    2    0  501  0.38673732282E+03  0.14888327447E+03 -0.27972472848E+03  0.50000000000E+03  0.47000000000E+01 0.  1.
</event>
<event>
 4    1  0.4838534E-004  0.1000000E+04  0.7546771E-02  0.8684367E-01
         11   -1    0    0    0    0  0.00000000000E+00  0.00000000000E+00  0.50000000000E+03  0.50000000000E+03  0.00000000000E+00 0. -1.
        -11   -1    0    0    0    0 -0.00000000000E+00 -0.00000000000E+00 -0.50000000000E+03  0.50000000000E+03  0.00000000000E+00 0.  1.
          5    1    1    2  501    0 -0.34648962299E+03  0.73359924365E+02  0.35290391420E+03  0.50000000000E+03  0.47000000000E+01 0. -1.
         -5    1    1    2    0  501  0.34648962299E+03 -0.73359924365E+02 -0.35290391420E+03  0.50000000000E+03  0.47000000000E+01 0.  1.
</event>
<event>
 4    1  0.4838534E-004  0.1000000E+04  0.7546771E-02  0.8684367E-01
         11   -1    0    0    0    0  0.00000000000E+00  0.00000000000E+00  0.50000000000E+03  0.50000000000E+03  0.00000000000E+00 0. -1.
        -11   -1    0    0    0    0 -0.00000000000E+00 -0.00000000000E+00 -0.50000000000E+03  0.50000000000E+03  0.00000000000E+00 0.  1.
          5    1    1    2  501    0  0.85590924687E+02  0.13063635996E+03  0.47495920358E+03  0.50000000000E+03  0.47000000000E+01 0. -1.
         -5    1    1    2    0  501 -0.85590924687E+02 -0.13063635996E+03 -0.47495920358E+03  0.50000000000E+03  0.47000000000E+01 0.  1.
</event>
<event>
 4    1  0.4838534E-004  0.1000000E+04  0.7546771E-02  0.8684367E-01
         11   -1    0    0    0    0  0.00000000000E+00  0.00000000000E+00  0.50000000000E+03  0.50000000000E+03  0.00000000000E+00 0. -1.
        -11   -1    0    0    0    0 -0.00000000000E+00 -0.00000000000E+00 -0.50000000000E+03  0.50000000000E+03  0.00000000000E+00 0.  1.
          5    1    1    2  501    0 -0.37400640339E+03 -0.14859539931E+03  0.29667579532E+03  0.50000000000E+03  0.47000000000E+01 0. -1.
         -5    1    1    2    0  501  0.37400640339E+03  0.14859539931E+03 -0.29667579532E+03  0.50000000000E+03  0.47000000000E+01 0.  1.
</event>
<event>
 4    1  0.4838534E-004  0.1000000E+04  0.7546771E-02  0.8684367E-01
         11   -1    0    0    0    0  0.00000000000E+00  0.00000000000E+00  0.50000000000E+03  0.50000000000E+03  0.00000000000E+00 0. -1.
        -11   -1    0    0    0    0 -0.00000000000E+00 -0.00000000000E+00 -0.50000000000E+03  0.50000000000E+03  0.00000000000E+00 0.  1.
          5    1    1    2  501    0 -0.13989463479E+03 -0.21614444835E+03  0.42858952228E+03  0.50000000000E+03  0.47000000000E+01 0. -1.
         -5    1    1    2    0  501  0.13989463479E+03  0.21614444835E+03 -0.42858952228E+03  0.50000000000E+03  0.47000000000E+01 0.  1.
</event>
<event>
 4    1  0.4838534E-004  0.1000000E+04  0.7546771E-02  0.8684367E-01
         11   -1    0    0    0    0  0.00000000000E+00  0.00000000000E+00  0.50000000000E+03  0.50000000000E+03  0.00000000000E+00 0. -1.
        -11   -1    0    0    0    0 -0.00000000000E+00 -0.00000000000E+00 -0.50000000000E+03  0.50000000000E+03  0.00000000000E+00 0.  1.
          5    1    1    2  501    0  0.50979673671E+02  0.44115412849E+03  0.22969984282E+03  0.50000000000E+03  0.47000000000E+01 0. -1.
         -5    1    1    2    0  501 -0.50979673671E+02 -0.44115412849E+03 -0.22969984282E+03  0.50000000000E+03  0.47000000000E+01 0.  1.
</event>
<event>
 4    1  0.4838534E-004  0.1000000E+04  0.7546771E-02  0.8684367E-01
         11   -1    0    0    0    0  0.00000000000E+00  0.00000000000E+00  0.50000000000E+03  0.50000000000E+03  0.00000000000E+00 0. -1.
        -11   -1    0    0    0    0 -0.00000000000E+00 -0.00000000000E+00 -0.50000000000E+03  0.50000000000E+03  0.00000000000E+00 0.  1.
          5    1    1    2  501    0  0.14041550017E+03 -0.80936360040E+02  0.47298065810E+03  0.50000000000E+03  0.47000000000E+01 0. -1.
         -5    1    1    2    0  501 -0.14041550017E+03  0.80936360040E+02 -0.47298065810E+03  0.50000000000E+03  0.47000000000E+01 0.  1.
</event>
<event>
 4    1  0.4838534E-004  0.1000000E+04  0.7546771E-02  0.8684367E-01
         11   -1    0    0    0    0  0.00000000000E+00  0.00000000000E+00  0.50000000000E+03  0.50000000000E+03  0.00000000000E+00 0. -1.
        -11   -1    0    0    0    0 -0.00000000000E+00 -0.00000000000E+00 -0.50000000000E+03  0.50000000000E+03  0.00000000000E+00 0.  1.
          5    1    1    2  501    0 -0.16061042547E+03  0.23245956616E+03  0.41248606198E+03  0.50000000000E+03  0.47000000000E+01 0. -1.
         -5    1    1    2    0  501  0.16061042547E+03 -0.23245956616E+03 -0.41248606198E+03  0.50000000000E+03  0.47000000000E+01 0.  1.
</event>
<event>
 4    1  0.4838534E-004  0.1000000E+04  0.7546771E-02  0.8684367E-01
         11   -1    0    0    0    0  0.00000000000E+00  0.00000000000E+00  0.50000000000E+03  0.50000000000E+03  0.00000000000E+00 0. -1.
        -11   -1    0    0    0    0 -0.00000000000E+00 -0.00000000000E+00 -0.50000000000E+03  0.50000000000E+03  0.00000000000E+00 0.  1.
          5    1    1    2  501    0  0.35799313872E+03 -0.34182257931E+03  0.70541809649E+02  0.50000000000E+03  0.47000000000E+01 0.  1.
         -5    1    1    2    0  501 -0.35799313872E+03  0.34182257931E+03 -0.70541809649E+02  0.50000000000E+03  0.47000000000E+01 0. -1.
</event>
<event>
 4    1  0.4838534E-004  0.1000000E+04  0.7546771E-02  0.8684367E-01
         11   -1    0    0    0    0  0.00000000000E+00  0.00000000000E+00  0.50000000000E+03  0.50000000000E+03  0.00000000000E+00 0. -1.
        -11   -1    0    0    0    0 -0.00000000000E+00 -0.00000000000E+00 -0.50000000000E+03  0.50000000000E+03  0.00000000000E+00 0.  1.
          5    1    1    2  501    0  0.31878510293E+03 -0.27017495789E+02  0.38421871775E+03  0.50000000000E+03  0.47000000000E+01 0. -1.
         -5    1    1    2    0  501 -0.31878510293E+03  0.27017495789E+02 -0.38421871775E+03  0.50000000000E+03  0.47000000000E+01 0.  1.
</event>
<event>
 4    1  0.4838534E-004  0.1000000E+04  0.7546771E-02  0.8684367E-01
         11   -1    0    0    0    0  0.00000000000E+00  0.00000000000E+00  0.50000000000E+03  0.50000000000E+03  0.00000000000E+00 0.  1.
        -11   -1    0    0    0    0 -0.00000000000E+00 -0.00000000000E+00 -0.50000000000E+03  0.50000000000E+03  0.00000000000E+00 0. -1.
          5    1    1    2  501    0 -0.10215745981E+03 -0.21783925040E+03  0.43827824996E+03  0.50000000000E+03  0.47000000000E+01 0.  1.
         -5    1    1    2    0  501  0.10215745981E+03  0.21783925040E+03 -0.43827824996E+03  0.50000000000E+03  0.47000000000E+01 0. -1.
</event>
<event>
 4    1  0.4838534E-004  0.1000000E+04  0.7546771E-02  0.8684367E-01
         11   -1    0    0    0    0  0.00000000000E+00  0.00000000000E+00  0.50000000000E+03  0.50000000000E+03  0.00000000000E+00 0. -1.
        -11   -1    0    0    0    0 -0.00000000000E+00 -0.00000000000E+00 -0.50000000000E+03  0.50000000000E+03  0.00000000000E+00 0.  1.
          5    1    1    2  501    0 -0.32703563504E+03  0.22007788803E+03  0.30755702986E+03  0.50000000000E+03  0.47000000000E+01 0. -1.
         -5    1    1    2    0  501  0.32703563504E+03 -0.22007788803E+03 -0.30755702986E+03  0.50000000000E+03  0.47000000000E+01 0.  1.
</event>
<event>
 4    1  0.4838534E-004  0.1000000E+04  0.7546771E-02  0.8684367E-01
         11   -1    0    0    0    0  0.00000000000E+00  0.00000000000E+00  0.50000000000E+03  0.50000000000E+03  0.00000000000E+00 0. -1.
        -11   -1    0    0    0    0 -0.00000000000E+00 -0.00000000000E+00 -0.50000000000E+03  0.50000000000E+03  0.00000000000E+00 0.  1.
          5    1    1    2  501    0 -0.45269363183E+03  0.19370987111E+03  0.86734488696E+02  0.50000000000E+03  0.47000000000E+01 0. -1.
         -5    1    1    2    0  501  0.45269363183E+03 -0.19370987111E+03 -0.86734488696E+02  0.50000000000E+03  0.47000000000E+01 0.  1.
</event>
<event>
 4    1  0.4838534E-004  0.1000000E+04  0.7546771E-02  0.8684367E-01
         11   -1    0    0    0    0  0.00000000000E+00  0.00000000000E+00  0.50000000000E+03  0.50000000000E+03  0.00000000000E+00 0. -1.
        -11   -1    0    0    0    0 -0.00000000000E+00 -0.00000000000E+00 -0.50000000000E+03  0.50000000000E+03  0.00000000000E+00 0.  1.
          5    1    1    2  501    0  0.12643745249E+03 -0.13765402841E+03  0.46372712781E+03  0.50000000000E+03  0.47000000000E+01 0. -1.
         -5    1    1    2    0  501 -0.12643745249E+03  0.13765402841E+03 -0.46372712781E+03  0.50000000000E+03  0.47000000000E+01 0.  1.
</event>
<event>
 4    1  0.4838534E-004  0.1000000E+04  0.7546771E-02  0.8684367E-01
         11   -1    0    0    0    0  0.00000000000E+00  0.00000000000E+00  0.50000000000E+03  0.50000000000E+03  0.00000000000E+00 0. -1.
        -11   -1    0    0    0    0 -0.00000000000E+00 -0.00000000000E+00 -0.50000000000E+03  0.50000000000E+03  0.00000000000E+00 0.  1.
          5    1    1    2  501    0 -0.28151302084E+02  0.29092901232E+03  0.40564235970E+03  0.50000000000E+03  0.47000000000E+01 0. -1.
         -5    1    1    2    0  501  0.28151302084E+02 -0.29092901232E+03 -0.40564235970E+03  0.50000000000E+03  0.47000000000E+01 0.  1.
</event>
<event>
 4    1  0.4838534E-004  0.1000000E+04  0.7546771E-02  0.8684367E-01
         11   -1    0    0    0    0  0.00000000000E+00  0.00000000000E+00  0.50000000000E+03  0.50000000000E+03  0.00000000000E+00 0. -1.
        -11   -1    0    0    0    0 -0.00000000000E+00 -0.00000000000E+00 -0.50000000000E+03  0.50000000000E+03  0.00000000000E+00 0.  1.
          5    1    1    2  501    0  0.45051434784E+03 -0.11244345881E+02  0.21653705706E+03  0.50000000000E+03  0.47000000000E+01 0. -1.
         -5    1    1    2    0  501 -0.45051434784E+03  0.11244345881E+02 -0.21653705706E+03  0.50000000000E+03  0.47000000000E+01 0.  1.
</event>
<event>
 4    1  0.4838534E-004  0.1000000E+04  0.7546771E-02  0.8684367E-01
         11   -1    0    0    0    0  0.00000000000E+00  0.00000000000E+00  0.50000000000E+03  0.50000000000E+03  0.00000000000E+00 0. -1.
        -11   -1    0    0    0    0 -0.00000000000E+00 -0.00000000000E+00 -0.50000000000E+03  0.50000000000E+03  0.00000000000E+00 0.  1.
          5    1    1    2  501    0  0.52558672892E+00 -0.23365979243E+03  0.44201893077E+03  0.50000000000E+03  0.47000000000E+01 0. -1.
         -5    1    1    2    0  501 -0.52558672892E+00  0.23365979243E+03 -0.44201893077E+03  0.50000000000E+03  0.47000000000E+01 0.  1.
</event>
<event>
 4    1  0.4838534E-004  0.1000000E+04  0.7546771E-02  0.8684367E-01
         11   -1    0    0    0    0  0.00000000000E+00  0.00000000000E+00  0.50000000000E+03  0.50000000000E+03  0.00000000000E+00 0. -1.
        -11   -1    0    0    0    0 -0.00000000000E+00 -0.00000000000E+00 -0.50000000000E+03  0.50000000000E+03  0.00000000000E+00 0.  1.
          5    1    1    2  501    0  0.46967058384E+03  0.13561587136E+03 -0.10486080349E+03  0.50000000000E+03  0.47000000000E+01 0. -1.
         -5    1    1    2    0  501 -0.46967058384E+03 -0.13561587136E+03  0.10486080349E+03  0.50000000000E+03  0.47000000000E+01 0.  1.
</event>
<event>
 4    1  0.4838534E-004  0.1000000E+04  0.7546771E-02  0.8684367E-01
         11   -1    0    0    0    0  0.00000000000E+00  0.00000000000E+00  0.50000000000E+03  0.50000000000E+03  0.00000000000E+00 0. -1.
        -11   -1    0    0    0    0 -0.00000000000E+00 -0.00000000000E+00 -0.50000000000E+03  0.50000000000E+03  0.00000000000E+00 0.  1.
          5    1    1    2  501    0 -0.19159169937E+03  0.27828144456E+03  0.36855117466E+03  0.50000000000E+03  0.47000000000E+01 0. -1.
         -5    1    1    2    0  501  0.19159169937E+03 -0.27828144456E+03 -0.36855117466E+03  0.50000000000E+03  0.47000000000E+01 0.  1.
</event>
<event>
 4    1  0.4838534E-004  0.1000000E+04  0.7546771E-02  0.8684367E-01
         11   -1    0    0    0    0  0.00000000000E+00  0.00000000000E+00  0.50000000000E+03  0.50000000000E+03  0.00000000000E+00 0. -1.
        -11   -1    0    0    0    0 -0.00000000000E+00 -0.00000000000E+00 -0.50000000000E+03  0.50000000000E+03  0.00000000000E+00 0.  1.
          5    1    1    2  501    0 -0.10386325743E+03 -0.90241165025E+02  0.48067334635E+03  0.50000000000E+03  0.47000000000E+01 0. -1.
         -5    1    1    2    0  501  0.10386325743E+03  0.90241165025E+02 -0.48067334635E+03  0.50000000000E+03  0.47000000000E+01 0.  1.
</event>
<event>
 4    1  0.4838534E-004  0.1000000E+04  0.7546771E-02  0.8684367E-01
         11   -1    0    0    0    0  0.00000000000E+00  0.00000000000E+00  0.50000000000E+03  0.50000000000E+03  0.00000000000E+00 0. -1.
        -11   -1    0    0    0    0 -0.00000000000E+00 -0.00000000000E+00 -0.50000000000E+03  0.50000000000E+03  0.00000000000E+00 0.  1.
          5    1    1    2  501    0 -0.20103733525E+03 -0.81742474349E+02 -0.45042209950E+03  0.50000000000E+03  0.47000000000E+01 0.  1.
         -5    1    1    2    0  501  0.20103733525E+03  0.81742474349E+02  0.45042209950E+03  0.50000000000E+03  0.47000000000E+01 0. -1.
</event>
<event>
 4    1  0.4838534E-004  0.1000000E+04  0.7546771E-02  0.8684367E-01
         11   -1    0    0    0    0  0.00000000000E+00  0.00000000000E+00  0.50000000000E+03  0.50000000000E+03  0.00000000000E+00 0. -1.
        -11   -1    0    0    0    0 -0.00000000000E+00 -0.00000000000E+00 -0.50000000000E+03  0.50000000000E+03  0.00000000000E+00 0.  1.
          5    1    1    2  501    0  0.16512115789E+03 -0.84662233818E+02  0.46426847769E+03  0.50000000000E+03  0.47000000000E+01 0. -1.
         -5    1    1    2    0  501 -0.16512115789E+03  0.84662233818E+02 -0.46426847769E+03  0.50000000000E+03  0.47000000000E+01 0.  1.
</event>
<event>
 4    1  0.4838534E-004  0.1000000E+04  0.7546771E-02  0.8684367E-01
         11   -1    0    0    0    0  0.00000000000E+00  0.00000000000E+00  0.50000000000E+03  0.50000000000E+03  0.00000000000E+00 0. -1.
        -11   -1    0    0    0    0 -0.00000000000E+00 -0.00000000000E+00 -0.50000000000E+03  0.50000000000E+03  0.00000000000E+00 0.  1.
          5    1    1    2  501    0  0.28496724138E+03 -0.21873402740E+03  0.34774560615E+03  0.50000000000E+03  0.47000000000E+01 0. -1.
         -5    1    1    2    0  501 -0.28496724138E+03  0.21873402740E+03 -0.34774560615E+03  0.50000000000E+03  0.47000000000E+01 0.  1.
</event>
<event>
 4    1  0.4838534E-004  0.1000000E+04  0.7546771E-02  0.8684367E-01
         11   -1    0    0    0    0  0.00000000000E+00  0.00000000000E+00  0.50000000000E+03  0.50000000000E+03  0.00000000000E+00 0.  1.
        -11   -1    0    0    0    0 -0.00000000000E+00 -0.00000000000E+00 -0.50000000000E+03  0.50000000000E+03  0.00000000000E+00 0. -1.
          5    1    1    2  501    0 -0.45676282218E+01 -0.43360624356E+03 -0.24888284858E+03  0.50000000000E+03  0.47000000000E+01 0. -1.
         -5    1    1    2    0  501  0.45676282218E+01  0.43360624356E+03  0.24888284858E+03  0.50000000000E+03  0.47000000000E+01 0.  1.
</event>
<event>
 4    1  0.4838534E-004  0.1000000E+04  0.7546771E-02  0.8684367E-01
         11   -1    0    0    0    0  0.00000000000E+00  0.00000000000E+00  0.50000000000E+03  0.50000000000E+03  0.00000000000E+00 0.  1.
        -11   -1    0    0    0    0 -0.00000000000E+00 -0.00000000000E+00 -0.50000000000E+03  0.50000000000E+03  0.00000000000E+00 0. -1.
          5    1    1    2  501    0 -0.28856410467E+03 -0.19188626271E+02  0.40784857989E+03  0.50000000000E+03  0.47000000000E+01 0.  1.
         -5    1    1    2    0  501  0.28856410467E+03  0.19188626271E+02 -0.40784857989E+03  0.50000000000E+03  0.47000000000E+01 0. -1.
</event>
<event>
 4    1  0.4838534E-004  0.1000000E+04  0.7546771E-02  0.8684367E-01
         11   -1    0    0    0    0  0.00000000000E+00  0.00000000000E+00  0.50000000000E+03  0.50000000000E+03  0.00000000000E+00 0.  1.
        -11   -1    0    0    0    0 -0.00000000000E+00 -0.00000000000E+00 -0.50000000000E+03  0.50000000000E+03  0.00000000000E+00 0. -1.
          5    1    1    2  501    0 -0.28660210601E+03  0.37747344676E+03  0.15921978465E+03  0.50000000000E+03  0.47000000000E+01 0.  1.
         -5    1    1    2    0  501  0.28660210601E+03 -0.37747344676E+03 -0.15921978465E+03  0.50000000000E+03  0.47000000000E+01 0. -1.
</event>
<event>
 4    1  0.4838534E-004  0.1000000E+04  0.7546771E-02  0.8684367E-01
         11   -1    0    0    0    0  0.00000000000E+00  0.00000000000E+00  0.50000000000E+03  0.50000000000E+03  0.00000000000E+00 0. -1.
        -11   -1    0    0    0    0 -0.00000000000E+00 -0.00000000000E+00 -0.50000000000E+03  0.50000000000E+03  0.00000000000E+00 0.  1.
          5    1    1    2  501    0 -0.15257680638E+03 -0.44343550129E+03  0.17338738233E+03  0.50000000000E+03  0.47000000000E+01 0. -1.
         -5    1    1    2    0  501  0.15257680638E+03  0.44343550129E+03 -0.17338738233E+03  0.50000000000E+03  0.47000000000E+01 0.  1.
</event>
<event>
 4    1  0.4838534E-004  0.1000000E+04  0.7546771E-02  0.8684367E-01
         11   -1    0    0    0    0  0.00000000000E+00  0.00000000000E+00  0.50000000000E+03  0.50000000000E+03  0.00000000000E+00 0.  1.
        -11   -1    0    0    0    0 -0.00000000000E+00 -0.00000000000E+00 -0.50000000000E+03  0.50000000000E+03  0.00000000000E+00 0. -1.
          5    1    1    2  501    0 -0.17223070907E+03 -0.10496196119E+03  0.45749041471E+03  0.50000000000E+03  0.47000000000E+01 0.  1.
         -5    1    1    2    0  501  0.17223070907E+03  0.10496196119E+03 -0.45749041471E+03  0.50000000000E+03  0.47000000000E+01 0. -1.
</event>
<event>
 4    1  0.4838534E-004  0.1000000E+04  0.7546771E-02  0.8684367E-01
         11   -1    0    0    0    0  0.00000000000E+00  0.00000000000E+00  0.50000000000E+03  0.50000000000E+03  0.00000000000E+00 0.  1.
        -11   -1    0    0    0    0 -0.00000000000E+00 -0.00000000000E+00 -0.50000000000E+03  0.50000000000E+03  0.00000000000E+00 0. -1.
          5    1    1    2  501    0  0.43385956547E+03  0.12161200207E+03  0.21668942845E+03  0.50000000000E+03  0.47000000000E+01 0.  1.
         -5    1    1    2    0  501 -0.43385956547E+03 -0.12161200207E+03 -0.21668942845E+03  0.50000000000E+03  0.47000000000E+01 0. -1.
</event>
<event>
 4    1  0.4838534E-004  0.1000000E+04  0.7546771E-02  0.8684367E-01
         11   -1    0    0    0    0  0.00000000000E+00  0.00000000000E+00  0.50000000000E+03  0.50000000000E+03  0.00000000000E+00 0. -1.
        -11   -1    0    0    0    0 -0.00000000000E+00 -0.00000000000E+00 -0.50000000000E+03  0.50000000000E+03  0.00000000000E+00 0.  1.
          5    1    1    2  501    0  0.24448805949E+03  0.22448351008E+03  0.37391262679E+03  0.50000000000E+03  0.47000000000E+01 0. -1.
         -5    1    1    2    0  501 -0.24448805949E+03 -0.22448351008E+03 -0.37391262679E+03  0.50000000000E+03  0.47000000000E+01 0.  1.
</event>
<event>
 4    1  0.4838534E-004  0.1000000E+04  0.7546771E-02  0.8684367E-01
         11   -1    0    0    0    0  0.00000000000E+00  0.00000000000E+00  0.50000000000E+03  0.50000000000E+03  0.00000000000E+00 0. -1.
        -11   -1    0    0    0    0 -0.00000000000E+00 -0.00000000000E+00 -0.50000000000E+03  0.50000000000E+03  0.00000000000E+00 0.  1.
          5    1    1    2  501    0 -0.43970909866E+03 -0.13288922167E+03  0.19741902977E+03  0.50000000000E+03  0.47000000000E+01 0. -1.
         -5    1    1    2    0  501  0.43970909866E+03  0.13288922167E+03 -0.19741902977E+03  0.50000000000E+03  0.47000000000E+01 0.  1.
</event>
<event>
 4    1  0.4838534E-004  0.1000000E+04  0.7546771E-02  0.8684367E-01
         11   -1    0    0    0    0  0.00000000000E+00  0.00000000000E+00  0.50000000000E+03  0.50000000000E+03  0.00000000000E+00 0. -1.
        -11   -1    0    0    0    0 -0.00000000000E+00 -0.00000000000E+00 -0.50000000000E+03  0.50000000000E+03  0.00000000000E+00 0.  1.
          5    1    1    2  501    0 -0.30025066057E+03  0.18224304174E+03  0.35582990959E+03  0.50000000000E+03  0.47000000000E+01 0. -1.
         -5    1    1    2    0  501  0.30025066057E+03 -0.18224304174E+03 -0.35582990959E+03  0.50000000000E+03  0.47000000000E+01 0.  1.
</event>
<event>
 4    1  0.4838534E-004  0.1000000E+04  0.7546771E-02  0.8684367E-01
         11   -1    0    0    0    0  0.00000000000E+00  0.00000000000E+00  0.50000000000E+03  0.50000000000E+03  0.00000000000E+00 0. -1.
        -11   -1    0    0    0    0 -0.00000000000E+00 -0.00000000000E+00 -0.50000000000E+03  0.50000000000E+03  0.00000000000E+00 0.  1.
          5    1    1    2  501    0 -0.10806696144E+03 -0.24496788513E+03  0.42224421500E+03  0.50000000000E+03  0.47000000000E+01 0. -1.
         -5    1    1    2    0  501  0.10806696144E+03  0.24496788513E+03 -0.42224421500E+03  0.50000000000E+03  0.47000000000E+01 0.  1.
</event>
<event>
 4    1  0.4838534E-004  0.1000000E+04  0.7546771E-02  0.8684367E-01
         11   -1    0    0    0    0  0.00000000000E+00  0.00000000000E+00  0.50000000000E+03  0.50000000000E+03  0.00000000000E+00 0. -1.
        -11   -1    0    0    0    0 -0.00000000000E+00 -0.00000000000E+00 -0.50000000000E+03  0.50000000000E+03  0.00000000000E+00 0.  1.
          5    1    1    2  501    0  0.13522946909E+03  0.63253797251E+02 -0.47716858428E+03  0.50000000000E+03  0.47000000000E+01 0.  1.
         -5    1    1    2    0  501 -0.13522946909E+03 -0.63253797251E+02  0.47716858428E+03  0.50000000000E+03  0.47000000000E+01 0. -1.
</event>
<event>
 4    1  0.4838534E-004  0.1000000E+04  0.7546771E-02  0.8684367E-01
         11   -1    0    0    0    0  0.00000000000E+00  0.00000000000E+00  0.50000000000E+03  0.50000000000E+03  0.00000000000E+00 0. -1.
        -11   -1    0    0    0    0 -0.00000000000E+00 -0.00000000000E+00 -0.50000000000E+03  0.50000000000E+03  0.00000000000E+00 0.  1.
          5    1    1    2  501    0 -0.25057707965E+02 -0.73766445690E+02  0.49387096773E+03  0.50000000000E+03  0.47000000000E+01 0. -1.
         -5    1    1    2    0  501  0.25057707965E+02  0.73766445690E+02 -0.49387096773E+03  0.50000000000E+03  0.47000000000E+01 0.  1.
</event>
<event>
 4    1  0.4838534E-004  0.1000000E+04  0.7546771E-02  0.8684367E-01
         11   -1    0    0    0    0  0.00000000000E+00  0.00000000000E+00  0.50000000000E+03  0.50000000000E+03  0.00000000000E+00 0. -1.
        -11   -1    0    0    0    0 -0.00000000000E+00 -0.00000000000E+00 -0.50000000000E+03  0.50000000000E+03  0.00000000000E+00 0.  1.
          5    1    1    2  501    0 -0.21730774550E+02  0.78431850739E+02  0.49330936361E+03  0.50000000000E+03  0.47000000000E+01 0. -1.
         -5    1    1    2    0  501  0.21730774550E+02 -0.78431850739E+02 -0.49330936361E+03  0.50000000000E+03  0.47000000000E+01 0.  1.
</event>
<event>
 4    1  0.4838534E-004  0.1000000E+04  0.7546771E-02  0.8684367E-01
         11   -1    0    0    0    0  0.00000000000E+00  0.00000000000E+00  0.50000000000E+03  0.50000000000E+03  0.00000000000E+00 0.  1.
        -11   -1    0    0    0    0 -0.00000000000E+00 -0.00000000000E+00 -0.50000000000E+03  0.50000000000E+03  0.00000000000E+00 0. -1.
          5    1    1    2  501    0  0.47979909651E+03  0.11490538066E+03 -0.81040054794E+02  0.50000000000E+03  0.47000000000E+01 0.  1.
         -5    1    1    2    0  501 -0.47979909651E+03 -0.11490538066E+03  0.81040054794E+02  0.50000000000E+03  0.47000000000E+01 0. -1.
</event>
<event>
 4    1  0.4838534E-004  0.1000000E+04  0.7546771E-02  0.8684367E-01
         11   -1    0    0    0    0  0.00000000000E+00  0.00000000000E+00  0.50000000000E+03  0.50000000000E+03  0.00000000000E+00 0.  1.
        -11   -1    0    0    0    0 -0.00000000000E+00 -0.00000000000E+00 -0.50000000000E+03  0.50000000000E+03  0.00000000000E+00 0. -1.
          5    1    1    2  501    0 -0.12273132037E+03  0.51528766016E+02  0.48193331413E+03  0.50000000000E+03  0.47000000000E+01 0.  1.
         -5    1    1    2    0  501  0.12273132037E+03 -0.51528766016E+02 -0.48193331413E+03  0.50000000000E+03  0.47000000000E+01 0. -1.
</event>
<event>
 4    1  0.4838534E-004  0.1000000E+04  0.7546771E-02  0.8684367E-01
         11   -1    0    0    0    0  0.00000000000E+00  0.00000000000E+00  0.50000000000E+03  0.50000000000E+03  0.00000000000E+00 0. -1.
        -11   -1    0    0    0    0 -0.00000000000E+00 -0.00000000000E+00 -0.50000000000E+03  0.50000000000E+03  0.00000000000E+00 0.  1.
          5    1    1    2  501    0  0.26637992032E+02 -0.29587861041E+03  0.40214944397E+03  0.50000000000E+03  0.47000000000E+01 0. -1.
         -5    1    1    2    0  501 -0.26637992032E+02  0.29587861041E+03 -0.40214944397E+03  0.50000000000E+03  0.47000000000E+01 0.  1.
</event>
<event>
 4    1  0.4838534E-004  0.1000000E+04  0.7546771E-02  0.8684367E-01
         11   -1    0    0    0    0  0.00000000000E+00  0.00000000000E+00  0.50000000000E+03  0.50000000000E+03  0.00000000000E+00 0. -1.
        -11   -1    0    0    0    0 -0.00000000000E+00 -0.00000000000E+00 -0.50000000000E+03  0.50000000000E+03  0.00000000000E+00 0.  1.
          5    1    1    2  501    0  0.17305622304E+03 -0.57989208117E+02  0.46547470974E+03  0.50000000000E+03  0.47000000000E+01 0. -1.
         -5    1    1    2    0  501 -0.17305622304E+03  0.57989208117E+02 -0.46547470974E+03  0.50000000000E+03  0.47000000000E+01 0.  1.
</event>
<event>
 4    1  0.4838534E-004  0.1000000E+04  0.7546771E-02  0.8684367E-01
         11   -1    0    0    0    0  0.00000000000E+00  0.00000000000E+00  0.50000000000E+03  0.50000000000E+03  0.00000000000E+00 0. -1.
        -11   -1    0    0    0    0 -0.00000000000E+00 -0.00000000000E+00 -0.50000000000E+03  0.50000000000E+03  0.00000000000E+00 0.  1.
          5    1    1    2  501    0  0.11094894982E+03  0.23487112655E+03  0.42720462831E+03  0.50000000000E+03  0.47000000000E+01 0. -1.
         -5    1    1    2    0  501 -0.11094894982E+03 -0.23487112655E+03 -0.42720462831E+03  0.50000000000E+03  0.47000000000E+01 0.  1.
</event>
<event>
 4    1  0.4838534E-004  0.1000000E+04  0.7546771E-02  0.8684367E-01
         11   -1    0    0    0    0  0.00000000000E+00  0.00000000000E+00  0.50000000000E+03  0.50000000000E+03  0.00000000000E+00 0. -1.
        -11   -1    0    0    0    0 -0.00000000000E+00 -0.00000000000E+00 -0.50000000000E+03  0.50000000000E+03  0.00000000000E+00 0.  1.
          5    1    1    2  501    0 -0.33624946179E+03 -0.92644647558E+02  0.35823341375E+03  0.50000000000E+03  0.47000000000E+01 0. -1.
         -5    1    1    2    0  501  0.33624946179E+03  0.92644647558E+02 -0.35823341375E+03  0.50000000000E+03  0.47000000000E+01 0.  1.
</event>
<event>
 4    1  0.4838534E-004  0.1000000E+04  0.7546771E-02  0.8684367E-01
         11   -1    0    0    0    0  0.00000000000E+00  0.00000000000E+00  0.50000000000E+03  0.50000000000E+03  0.00000000000E+00 0. -1.
        -11   -1    0    0    0    0 -0.00000000000E+00 -0.00000000000E+00 -0.50000000000E+03  0.50000000000E+03  0.00000000000E+00 0.  1.
          5    1    1    2  501    0 -0.92312309425E+02 -0.22591197309E+02  0.49086249127E+03  0.50000000000E+03  0.47000000000E+01 0. -1.
         -5    1    1    2    0  501  0.92312309425E+02  0.22591197309E+02 -0.49086249127E+03  0.50000000000E+03  0.47000000000E+01 0.  1.
</event>
<event>
 4    1  0.4838534E-004  0.1000000E+04  0.7546771E-02  0.8684367E-01
         11   -1    0    0    0    0  0.00000000000E+00  0.00000000000E+00  0.50000000000E+03  0.50000000000E+03  0.00000000000E+00 0. -1.
        -11   -1    0    0    0    0 -0.00000000000E+00 -0.00000000000E+00 -0.50000000000E+03  0.50000000000E+03  0.00000000000E+00 0.  1.
          5    1    1    2  501    0  0.85641472968E+02  0.20071567588E+03  0.44984071132E+03  0.50000000000E+03  0.47000000000E+01 0. -1.
         -5    1    1    2    0  501 -0.85641472968E+02 -0.20071567588E+03 -0.44984071132E+03  0.50000000000E+03  0.47000000000E+01 0.  1.
</event>
<event>
 4    1  0.4838534E-004  0.1000000E+04  0.7546771E-02  0.8684367E-01
         11   -1    0    0    0    0  0.00000000000E+00  0.00000000000E+00  0.50000000000E+03  0.50000000000E+03  0.00000000000E+00 0. -1.
        -11   -1    0    0    0    0 -0.00000000000E+00 -0.00000000000E+00 -0.50000000000E+03  0.50000000000E+03  0.00000000000E+00 0.  1.
          5    1    1    2  501    0  0.44963275846E+03  0.17902209202E+03  0.12553638152E+03  0.50000000000E+03  0.47000000000E+01 0. -1.
         -5    1    1    2    0  501 -0.44963275846E+03 -0.17902209202E+03 -0.12553638152E+03  0.50000000000E+03  0.47000000000E+01 0.  1.
</event>
<event>
 4    1  0.4838534E-004  0.1000000E+04  0.7546771E-02  0.8684367E-01
         11   -1    0    0    0    0  0.00000000000E+00  0.00000000000E+00  0.50000000000E+03  0.50000000000E+03  0.00000000000E+00 0. -1.
        -11   -1    0    0    0    0 -0.00000000000E+00 -0.00000000000E+00 -0.50000000000E+03  0.50000000000E+03  0.00000000000E+00 0.  1.
          5    1    1    2  501    0  0.35918656131E+03 -0.27511605088E+03  0.21277707283E+03  0.50000000000E+03  0.47000000000E+01 0. -1.
         -5    1    1    2    0  501 -0.35918656131E+03  0.27511605088E+03 -0.21277707283E+03  0.50000000000E+03  0.47000000000E+01 0.  1.
</event>
<event>
 4    1  0.4838534E-004  0.1000000E+04  0.7546771E-02  0.8684367E-01
         11   -1    0    0    0    0  0.00000000000E+00  0.00000000000E+00  0.50000000000E+03  0.50000000000E+03  0.00000000000E+00 0. -1.
        -11   -1    0    0    0    0 -0.00000000000E+00 -0.00000000000E+00 -0.50000000000E+03  0.50000000000E+03  0.00000000000E+00 0.  1.
          5    1    1    2  501    0  0.98238270822E+02  0.31809910364E+03  0.37301489570E+03  0.50000000000E+03  0.47000000000E+01 0. -1.
         -5    1    1    2    0  501 -0.98238270822E+02 -0.31809910364E+03 -0.37301489570E+03  0.50000000000E+03  0.47000000000E+01 0.  1.
</event>
<event>
 4    1  0.4838534E-004  0.1000000E+04  0.7546771E-02  0.8684367E-01
         11   -1    0    0    0    0  0.00000000000E+00  0.00000000000E+00  0.50000000000E+03  0.50000000000E+03  0.00000000000E+00 0.  1.
        -11   -1    0    0    0    0 -0.00000000000E+00 -0.00000000000E+00 -0.50000000000E+03  0.50000000000E+03  0.00000000000E+00 0. -1.
          5    1    1    2  501    0  0.98840460739E+02 -0.41293547147E+03 -0.26399388199E+03  0.50000000000E+03  0.47000000000E+01 0. -1.
         -5    1    1    2    0  501 -0.98840460739E+02  0.41293547147E+03  0.26399388199E+03  0.50000000000E+03  0.47000000000E+01 0.  1.
</event>
<event>
 4    1  0.4838534E-004  0.1000000E+04  0.7546771E-02  0.8684367E-01
         11   -1    0    0    0    0  0.00000000000E+00  0.00000000000E+00  0.50000000000E+03  0.50000000000E+03  0.00000000000E+00 0. -1.
        -11   -1    0    0    0    0 -0.00000000000E+00 -0.00000000000E+00 -0.50000000000E+03  0.50000000000E+03  0.00000000000E+00 0.  1.
          5    1    1    2  501    0 -0.15366621818E+03 -0.19210091500E+03  0.43527214688E+03  0.50000000000E+03  0.47000000000E+01 0. -1.
         -5    1    1    2    0  501  0.15366621818E+03  0.19210091500E+03 -0.43527214688E+03  0.50000000000E+03  0.47000000000E+01 0.  1.
</event>
<event>
 4    1  0.4838534E-004  0.1000000E+04  0.7546771E-02  0.8684367E-01
         11   -1    0    0    0    0  0.00000000000E+00  0.00000000000E+00  0.50000000000E+03  0.50000000000E+03  0.00000000000E+00 0. -1.
        -11   -1    0    0    0    0 -0.00000000000E+00 -0.00000000000E+00 -0.50000000000E+03  0.50000000000E+03  0.00000000000E+00 0.  1.
          5    1    1    2  501    0  0.80471778417E+02 -0.47962305051E+03  0.11603418588E+03  0.50000000000E+03  0.47000000000E+01 0. -1.
         -5    1    1    2    0  501 -0.80471778417E+02  0.47962305051E+03 -0.11603418588E+03  0.50000000000E+03  0.47000000000E+01 0.  1.
</event>
<event>
 4    1  0.4838534E-004  0.1000000E+04  0.7546771E-02  0.8684367E-01
         11   -1    0    0    0    0  0.00000000000E+00  0.00000000000E+00  0.50000000000E+03  0.50000000000E+03  0.00000000000E+00 0. -1.
        -11   -1    0    0    0    0 -0.00000000000E+00 -0.00000000000E+00 -0.50000000000E+03  0.50000000000E+03  0.00000000000E+00 0.  1.
          5    1    1    2  501    0 -0.46999909122E+03  0.17049676925E+03  0.31009567320E+01  0.50000000000E+03  0.47000000000E+01 0. -1.
         -5    1    1    2    0  501  0.46999909122E+03 -0.17049676925E+03 -0.31009567320E+01  0.50000000000E+03  0.47000000000E+01 0.  1.
</event>
<event>
 4    1  0.4838534E-004  0.1000000E+04  0.7546771E-02  0.8684367E-01
         11   -1    0    0    0    0  0.00000000000E+00  0.00000000000E+00  0.50000000000E+03  0.50000000000E+03  0.00000000000E+00 0.  1.
        -11   -1    0    0    0    0 -0.00000000000E+00 -0.00000000000E+00 -0.50000000000E+03  0.50000000000E+03  0.00000000000E+00 0. -1.
          5    1    1    2  501    0  0.16708486038E+03  0.35066686345E+03  0.31479089934E+03  0.50000000000E+03  0.47000000000E+01 0.  1.
         -5    1    1    2    0  501 -0.16708486038E+03 -0.35066686345E+03 -0.31479089934E+03  0.50000000000E+03  0.47000000000E+01 0. -1.
</event>
<event>
 4    1  0.4838534E-004  0.1000000E+04  0.7546771E-02  0.8684367E-01
         11   -1    0    0    0    0  0.00000000000E+00  0.00000000000E+00  0.50000000000E+03  0.50000000000E+03  0.00000000000E+00 0.  1.
        -11   -1    0    0    0    0 -0.00000000000E+00 -0.00000000000E+00 -0.50000000000E+03  0.50000000000E+03  0.00000000000E+00 0. -1.
          5    1    1    2  501    0  0.23440631904E+03 -0.12029625698E+03  0.42492399103E+03  0.50000000000E+03  0.47000000000E+01 0.  1.
         -5    1    1    2    0  501 -0.23440631904E+03  0.12029625698E+03 -0.42492399103E+03  0.50000000000E+03  0.47000000000E+01 0. -1.
</event>
<event>
 4    1  0.4838534E-004  0.1000000E+04  0.7546771E-02  0.8684367E-01
         11   -1    0    0    0    0  0.00000000000E+00  0.00000000000E+00  0.50000000000E+03  0.50000000000E+03  0.00000000000E+00 0. -1.
        -11   -1    0    0    0    0 -0.00000000000E+00 -0.00000000000E+00 -0.50000000000E+03  0.50000000000E+03  0.00000000000E+00 0.  1.
          5    1    1    2  501    0  0.63363196490E+02  0.45492430797E+03 -0.19750161861E+03  0.50000000000E+03  0.47000000000E+01 0. -1.
         -5    1    1    2    0  501 -0.63363196490E+02 -0.45492430797E+03  0.19750161861E+03  0.50000000000E+03  0.47000000000E+01 0.  1.
</event>
<event>
 4    1  0.4838534E-004  0.1000000E+04  0.7546771E-02  0.8684367E-01
         11   -1    0    0    0    0  0.00000000000E+00  0.00000000000E+00  0.50000000000E+03  0.50000000000E+03  0.00000000000E+00 0. -1.
        -11   -1    0    0    0    0 -0.00000000000E+00 -0.00000000000E+00 -0.50000000000E+03  0.50000000000E+03  0.00000000000E+00 0.  1.
          5    1    1    2  501    0  0.33560868038E+03  0.14247717108E+03  0.34211837041E+03  0.50000000000E+03  0.47000000000E+01 0. -1.
         -5    1    1    2    0  501 -0.33560868038E+03 -0.14247717108E+03 -0.34211837041E+03  0.50000000000E+03  0.47000000000E+01 0.  1.
</event>
<event>
 4    1  0.4838534E-004  0.1000000E+04  0.7546771E-02  0.8684367E-01
         11   -1    0    0    0    0  0.00000000000E+00  0.00000000000E+00  0.50000000000E+03  0.50000000000E+03  0.00000000000E+00 0.  1.
        -11   -1    0    0    0    0 -0.00000000000E+00 -0.00000000000E+00 -0.50000000000E+03  0.50000000000E+03  0.00000000000E+00 0. -1.
          5    1    1    2  501    0  0.49927912390E+03 -0.13522247012E+02 -0.22702759217E+02  0.50000000000E+03  0.47000000000E+01 0.  1.
         -5    1    1    2    0  501 -0.49927912390E+03  0.13522247012E+02  0.22702759217E+02  0.50000000000E+03  0.47000000000E+01 0. -1.
</event>
<event>
 4    1  0.4838534E-004  0.1000000E+04  0.7546771E-02  0.8684367E-01
         11   -1    0    0    0    0  0.00000000000E+00  0.00000000000E+00  0.50000000000E+03  0.50000000000E+03  0.00000000000E+00 0. -1.
        -11   -1    0    0    0    0 -0.00000000000E+00 -0.00000000000E+00 -0.50000000000E+03  0.50000000000E+03  0.00000000000E+00 0.  1.
          5    1    1    2  501    0  0.15171254505E+03 -0.47129543763E+03  0.69583217425E+02  0.50000000000E+03  0.47000000000E+01 0. -1.
         -5    1    1    2    0  501 -0.15171254505E+03  0.47129543763E+03 -0.69583217425E+02  0.50000000000E+03  0.47000000000E+01 0.  1.
</event>
<event>
 4    1  0.4838534E-004  0.1000000E+04  0.7546771E-02  0.8684367E-01
         11   -1    0    0    0    0  0.00000000000E+00  0.00000000000E+00  0.50000000000E+03  0.50000000000E+03  0.00000000000E+00 0.  1.
        -11   -1    0    0    0    0 -0.00000000000E+00 -0.00000000000E+00 -0.50000000000E+03  0.50000000000E+03  0.00000000000E+00 0. -1.
          5    1    1    2  501    0 -0.38051310280E+03  0.12805034062E+03  0.29797784962E+03  0.50000000000E+03  0.47000000000E+01 0. -1.
         -5    1    1    2    0  501  0.38051310280E+03 -0.12805034062E+03 -0.29797784962E+03  0.50000000000E+03  0.47000000000E+01 0.  1.
</event>
<event>
 4    1  0.4838534E-004  0.1000000E+04  0.7546771E-02  0.8684367E-01
         11   -1    0    0    0    0  0.00000000000E+00  0.00000000000E+00  0.50000000000E+03  0.50000000000E+03  0.00000000000E+00 0. -1.
        -11   -1    0    0    0    0 -0.00000000000E+00 -0.00000000000E+00 -0.50000000000E+03  0.50000000000E+03  0.00000000000E+00 0.  1.
          5    1    1    2  501    0  0.12991258296E+03  0.48080966543E+03  0.43848562355E+02  0.50000000000E+03  0.47000000000E+01 0. -1.
         -5    1    1    2    0  501 -0.12991258296E+03 -0.48080966543E+03 -0.43848562355E+02  0.50000000000E+03  0.47000000000E+01 0.  1.
</event>
<event>
 4    1  0.4838534E-004  0.1000000E+04  0.7546771E-02  0.8684367E-01
         11   -1    0    0    0    0  0.00000000000E+00  0.00000000000E+00  0.50000000000E+03  0.50000000000E+03  0.00000000000E+00 0. -1.
        -11   -1    0    0    0    0 -0.00000000000E+00 -0.00000000000E+00 -0.50000000000E+03  0.50000000000E+03  0.00000000000E+00 0.  1.
          5    1    1    2  501    0  0.73394490630E+02 -0.12951312646E+03  0.47730232434E+03  0.50000000000E+03  0.47000000000E+01 0. -1.
         -5    1    1    2    0  501 -0.73394490630E+02  0.12951312646E+03 -0.47730232434E+03  0.50000000000E+03  0.47000000000E+01 0.  1.
</event>
<event>
 4    1  0.4838534E-004  0.1000000E+04  0.7546771E-02  0.8684367E-01
         11   -1    0    0    0    0  0.00000000000E+00  0.00000000000E+00  0.50000000000E+03  0.50000000000E+03  0.00000000000E+00 0. -1.
        -11   -1    0    0    0    0 -0.00000000000E+00 -0.00000000000E+00 -0.50000000000E+03  0.50000000000E+03  0.00000000000E+00 0.  1.
          5    1    1    2  501    0 -0.48804189448E+03  0.79352731892E+02  0.74136112507E+02  0.50000000000E+03  0.47000000000E+01 0. -1.
         -5    1    1    2    0  501  0.48804189448E+03 -0.79352731892E+02 -0.74136112507E+02  0.50000000000E+03  0.47000000000E+01 0.  1.
</event>
<event>
 4    1  0.4838534E-004  0.1000000E+04  0.7546771E-02  0.8684367E-01
         11   -1    0    0    0    0  0.00000000000E+00  0.00000000000E+00  0.50000000000E+03  0.50000000000E+03  0.00000000000E+00 0. -1.
        -11   -1    0    0    0    0 -0.00000000000E+00 -0.00000000000E+00 -0.50000000000E+03  0.50000000000E+03  0.00000000000E+00 0.  1.
          5    1    1    2  501    0  0.38759221155E+03 -0.76892150410E+02  0.30632953620E+03  0.50000000000E+03  0.47000000000E+01 0. -1.
         -5    1    1    2    0  501 -0.38759221155E+03  0.76892150410E+02 -0.30632953620E+03  0.50000000000E+03  0.47000000000E+01 0.  1.
</event>
<event>
 4    1  0.4838534E-004  0.1000000E+04  0.7546771E-02  0.8684367E-01
         11   -1    0    0    0    0  0.00000000000E+00  0.00000000000E+00  0.50000000000E+03  0.50000000000E+03  0.00000000000E+00 0. -1.
        -11   -1    0    0    0    0 -0.00000000000E+00 -0.00000000000E+00 -0.50000000000E+03  0.50000000000E+03  0.00000000000E+00 0.  1.
          5    1    1    2  501    0 -0.16664440707E+03  0.46821611508E+03  0.54600560189E+02  0.50000000000E+03  0.47000000000E+01 0. -1.
         -5    1    1    2    0  501  0.16664440707E+03 -0.46821611508E+03 -0.54600560189E+02  0.50000000000E+03  0.47000000000E+01 0.  1.
</event>
<event>
 4    1  0.4838534E-004  0.1000000E+04  0.7546771E-02  0.8684367E-01
         11   -1    0    0    0    0  0.00000000000E+00  0.00000000000E+00  0.50000000000E+03  0.50000000000E+03  0.00000000000E+00 0. -1.
        -11   -1    0    0    0    0 -0.00000000000E+00 -0.00000000000E+00 -0.50000000000E+03  0.50000000000E+03  0.00000000000E+00 0.  1.
          5    1    1    2  501    0 -0.35399190968E+02  0.15377385626E+03  0.47442429155E+03  0.50000000000E+03  0.47000000000E+01 0. -1.
         -5    1    1    2    0  501  0.35399190968E+02 -0.15377385626E+03 -0.47442429155E+03  0.50000000000E+03  0.47000000000E+01 0.  1.
</event>
<event>
 4    1  0.4838534E-004  0.1000000E+04  0.7546771E-02  0.8684367E-01
         11   -1    0    0    0    0  0.00000000000E+00  0.00000000000E+00  0.50000000000E+03  0.50000000000E+03  0.00000000000E+00 0. -1.
        -11   -1    0    0    0    0 -0.00000000000E+00 -0.00000000000E+00 -0.50000000000E+03  0.50000000000E+03  0.00000000000E+00 0.  1.
          5    1    1    2  501    0 -0.18557597907E+02  0.48463357680E+03  0.12150646814E+03  0.50000000000E+03  0.47000000000E+01 0. -1.
         -5    1    1    2    0  501  0.18557597907E+02 -0.48463357680E+03 -0.12150646814E+03  0.50000000000E+03  0.47000000000E+01 0.  1.
</event>
<event>
 4    1  0.4838534E-004  0.1000000E+04  0.7546771E-02  0.8684367E-01
         11   -1    0    0    0    0  0.00000000000E+00  0.00000000000E+00  0.50000000000E+03  0.50000000000E+03  0.00000000000E+00 0. -1.
        -11   -1    0    0    0    0 -0.00000000000E+00 -0.00000000000E+00 -0.50000000000E+03  0.50000000000E+03  0.00000000000E+00 0.  1.
          5    1    1    2  501    0 -0.78330955910E+02  0.40091420260E+02  0.49217359678E+03  0.50000000000E+03  0.47000000000E+01 0. -1.
         -5    1    1    2    0  501  0.78330955910E+02 -0.40091420260E+02 -0.49217359678E+03  0.50000000000E+03  0.47000000000E+01 0.  1.
</event>
<event>
 4    1  0.4838534E-004  0.1000000E+04  0.7546771E-02  0.8684367E-01
         11   -1    0    0    0    0  0.00000000000E+00  0.00000000000E+00  0.50000000000E+03  0.50000000000E+03  0.00000000000E+00 0. -1.
        -11   -1    0    0    0    0 -0.00000000000E+00 -0.00000000000E+00 -0.50000000000E+03  0.50000000000E+03  0.00000000000E+00 0.  1.
          5    1    1    2  501    0  0.77550318464E+02 -0.44268638987E+03 -0.21907217608E+03  0.50000000000E+03  0.47000000000E+01 0.  1.
         -5    1    1    2    0  501 -0.77550318464E+02  0.44268638987E+03  0.21907217608E+03  0.50000000000E+03  0.47000000000E+01 0. -1.
</event>
<event>
 4    1  0.4838534E-004  0.1000000E+04  0.7546771E-02  0.8684367E-01
         11   -1    0    0    0    0  0.00000000000E+00  0.00000000000E+00  0.50000000000E+03  0.50000000000E+03  0.00000000000E+00 0. -1.
        -11   -1    0    0    0    0 -0.00000000000E+00 -0.00000000000E+00 -0.50000000000E+03  0.50000000000E+03  0.00000000000E+00 0.  1.
          5    1    1    2  501    0 -0.23489258933E+02 -0.17700149941E+03  0.46700817329E+03  0.50000000000E+03  0.47000000000E+01 0. -1.
         -5    1    1    2    0  501  0.23489258933E+02  0.17700149941E+03 -0.46700817329E+03  0.50000000000E+03  0.47000000000E+01 0.  1.
</event>
<event>
 4    1  0.4838534E-004  0.1000000E+04  0.7546771E-02  0.8684367E-01
         11   -1    0    0    0    0  0.00000000000E+00  0.00000000000E+00  0.50000000000E+03  0.50000000000E+03  0.00000000000E+00 0.  1.
        -11   -1    0    0    0    0 -0.00000000000E+00 -0.00000000000E+00 -0.50000000000E+03  0.50000000000E+03  0.00000000000E+00 0. -1.
          5    1    1    2  501    0  0.39370753823E+03 -0.16636680252E+03  0.25941158679E+03  0.50000000000E+03  0.47000000000E+01 0.  1.
         -5    1    1    2    0  501 -0.39370753823E+03  0.16636680252E+03 -0.25941158679E+03  0.50000000000E+03  0.47000000000E+01 0. -1.
</event>
<event>
 4    1  0.4838534E-004  0.1000000E+04  0.7546771E-02  0.8684367E-01
         11   -1    0    0    0    0  0.00000000000E+00  0.00000000000E+00  0.50000000000E+03  0.50000000000E+03  0.00000000000E+00 0. -1.
        -11   -1    0    0    0    0 -0.00000000000E+00 -0.00000000000E+00 -0.50000000000E+03  0.50000000000E+03  0.00000000000E+00 0.  1.
          5    1    1    2  501    0 -0.45266352003E+03 -0.20033440002E+02 -0.21135824782E+03  0.50000000000E+03  0.47000000000E+01 0. -1.
         -5    1    1    2    0  501  0.45266352003E+03  0.20033440002E+02  0.21135824782E+03  0.50000000000E+03  0.47000000000E+01 0.  1.
</event>
<event>
 4    1  0.4838534E-004  0.1000000E+04  0.7546771E-02  0.8684367E-01
         11   -1    0    0    0    0  0.00000000000E+00  0.00000000000E+00  0.50000000000E+03  0.50000000000E+03  0.00000000000E+00 0. -1.
        -11   -1    0    0    0    0 -0.00000000000E+00 -0.00000000000E+00 -0.50000000000E+03  0.50000000000E+03  0.00000000000E+00 0.  1.
          5    1    1    2  501    0 -0.32110306838E+03  0.38322673311E+03 -0.28285174175E+01  0.50000000000E+03  0.47000000000E+01 0. -1.
         -5    1    1    2    0  501  0.32110306838E+03 -0.38322673311E+03  0.28285174175E+01  0.50000000000E+03  0.47000000000E+01 0.  1.
</event>
<event>
 4    1  0.4838534E-004  0.1000000E+04  0.7546771E-02  0.8684367E-01
         11   -1    0    0    0    0  0.00000000000E+00  0.00000000000E+00  0.50000000000E+03  0.50000000000E+03  0.00000000000E+00 0. -1.
        -11   -1    0    0    0    0 -0.00000000000E+00 -0.00000000000E+00 -0.50000000000E+03  0.50000000000E+03  0.00000000000E+00 0.  1.
          5    1    1    2  501    0 -0.10871099582E+03 -0.38688215723E+03  0.29745928427E+03  0.50000000000E+03  0.47000000000E+01 0. -1.
         -5    1    1    2    0  501  0.10871099582E+03  0.38688215723E+03 -0.29745928427E+03  0.50000000000E+03  0.47000000000E+01 0.  1.
</event>
<event>
 4    1  0.4838534E-004  0.1000000E+04  0.7546771E-02  0.8684367E-01
         11   -1    0    0    0    0  0.00000000000E+00  0.00000000000E+00  0.50000000000E+03  0.50000000000E+03  0.00000000000E+00 0. -1.
        -11   -1    0    0    0    0 -0.00000000000E+00 -0.00000000000E+00 -0.50000000000E+03  0.50000000000E+03  0.00000000000E+00 0.  1.
          5    1    1    2  501    0 -0.97050212707E+02  0.20005255221E+03  0.44781485300E+03  0.50000000000E+03  0.47000000000E+01 0. -1.
         -5    1    1    2    0  501  0.97050212707E+02 -0.20005255221E+03 -0.44781485300E+03  0.50000000000E+03  0.47000000000E+01 0.  1.
</event>
<event>
 4    1  0.4838534E-004  0.1000000E+04  0.7546771E-02  0.8684367E-01
         11   -1    0    0    0    0  0.00000000000E+00  0.00000000000E+00  0.50000000000E+03  0.50000000000E+03  0.00000000000E+00 0.  1.
        -11   -1    0    0    0    0 -0.00000000000E+00 -0.00000000000E+00 -0.50000000000E+03  0.50000000000E+03  0.00000000000E+00 0. -1.
          5    1    1    2  501    0 -0.78497166160E+01 -0.59203675796E+02  0.49639824408E+03  0.50000000000E+03  0.47000000000E+01 0.  1.
         -5    1    1    2    0  501  0.78497166160E+01  0.59203675796E+02 -0.49639824408E+03  0.50000000000E+03  0.47000000000E+01 0. -1.
</event>
<event>
 4    1  0.4838534E-004  0.1000000E+04  0.7546771E-02  0.8684367E-01
         11   -1    0    0    0    0  0.00000000000E+00  0.00000000000E+00  0.50000000000E+03  0.50000000000E+03  0.00000000000E+00 0. -1.
        -11   -1    0    0    0    0 -0.00000000000E+00 -0.00000000000E+00 -0.50000000000E+03  0.50000000000E+03  0.00000000000E+00 0.  1.
          5    1    1    2  501    0 -0.13567109890E+03 -0.23037117617E+03  0.42249305806E+03  0.50000000000E+03  0.47000000000E+01 0. -1.
         -5    1    1    2    0  501  0.13567109890E+03  0.23037117617E+03 -0.42249305806E+03  0.50000000000E+03  0.47000000000E+01 0.  1.
</event>
<event>
 4    1  0.4838534E-004  0.1000000E+04  0.7546771E-02  0.8684367E-01
         11   -1    0    0    0    0  0.00000000000E+00  0.00000000000E+00  0.50000000000E+03  0.50000000000E+03  0.00000000000E+00 0. -1.
        -11   -1    0    0    0    0 -0.00000000000E+00 -0.00000000000E+00 -0.50000000000E+03  0.50000000000E+03  0.00000000000E+00 0.  1.
          5    1    1    2  501    0  0.19531536842E+02 -0.48678976579E+03 -0.11239285117E+03  0.50000000000E+03  0.47000000000E+01 0. -1.
         -5    1    1    2    0  501 -0.19531536842E+02  0.48678976579E+03  0.11239285117E+03  0.50000000000E+03  0.47000000000E+01 0.  1.
</event>
<event>
 4    1  0.4838534E-004  0.1000000E+04  0.7546771E-02  0.8684367E-01
         11   -1    0    0    0    0  0.00000000000E+00  0.00000000000E+00  0.50000000000E+03  0.50000000000E+03  0.00000000000E+00 0. -1.
        -11   -1    0    0    0    0 -0.00000000000E+00 -0.00000000000E+00 -0.50000000000E+03  0.50000000000E+03  0.00000000000E+00 0.  1.
          5    1    1    2  501    0  0.37285237869E+03 -0.33309550907E+03  0.25289405546E+01  0.50000000000E+03  0.47000000000E+01 0. -1.
         -5    1    1    2    0  501 -0.37285237869E+03  0.33309550907E+03 -0.25289405546E+01  0.50000000000E+03  0.47000000000E+01 0.  1.
</event>
<event>
 4    1  0.4838534E-004  0.1000000E+04  0.7546771E-02  0.8684367E-01
         11   -1    0    0    0    0  0.00000000000E+00  0.00000000000E+00  0.50000000000E+03  0.50000000000E+03  0.00000000000E+00 0. -1.
        -11   -1    0    0    0    0 -0.00000000000E+00 -0.00000000000E+00 -0.50000000000E+03  0.50000000000E+03  0.00000000000E+00 0.  1.
          5    1    1    2  501    0  0.37095857073E+03  0.28201534611E+03  0.18120428626E+03  0.50000000000E+03  0.47000000000E+01 0. -1.
         -5    1    1    2    0  501 -0.37095857073E+03 -0.28201534611E+03 -0.18120428626E+03  0.50000000000E+03  0.47000000000E+01 0.  1.
</event>
<event>
 4    1  0.4838534E-004  0.1000000E+04  0.7546771E-02  0.8684367E-01
         11   -1    0    0    0    0  0.00000000000E+00  0.00000000000E+00  0.50000000000E+03  0.50000000000E+03  0.00000000000E+00 0. -1.
        -11   -1    0    0    0    0 -0.00000000000E+00 -0.00000000000E+00 -0.50000000000E+03  0.50000000000E+03  0.00000000000E+00 0.  1.
          5    1    1    2  501    0 -0.10217812180E+03 -0.11636812667E+03  0.47539036646E+03  0.50000000000E+03  0.47000000000E+01 0. -1.
         -5    1    1    2    0  501  0.10217812180E+03  0.11636812667E+03 -0.47539036646E+03  0.50000000000E+03  0.47000000000E+01 0.  1.
</event>
<event>
 4    1  0.4838534E-004  0.1000000E+04  0.7546771E-02  0.8684367E-01
         11   -1    0    0    0    0  0.00000000000E+00  0.00000000000E+00  0.50000000000E+03  0.50000000000E+03  0.00000000000E+00 0. -1.
        -11   -1    0    0    0    0 -0.00000000000E+00 -0.00000000000E+00 -0.50000000000E+03  0.50000000000E+03  0.00000000000E+00 0.  1.
          5    1    1    2  501    0  0.16409710726E+03 -0.45880577017E+03  0.11201479655E+03  0.50000000000E+03  0.47000000000E+01 0. -1.
         -5    1    1    2    0  501 -0.16409710726E+03  0.45880577017E+03 -0.11201479655E+03  0.50000000000E+03  0.47000000000E+01 0.  1.
</event>
<event>
 4    1  0.4838534E-004  0.1000000E+04  0.7546771E-02  0.8684367E-01
         11   -1    0    0    0    0  0.00000000000E+00  0.00000000000E+00  0.50000000000E+03  0.50000000000E+03  0.00000000000E+00 0. -1.
        -11   -1    0    0    0    0 -0.00000000000E+00 -0.00000000000E+00 -0.50000000000E+03  0.50000000000E+03  0.00000000000E+00 0.  1.
          5    1    1    2  501    0  0.21007353038E+03 -0.45233500425E+03  0.35214567463E+02  0.50000000000E+03  0.47000000000E+01 0. -1.
         -5    1    1    2    0  501 -0.21007353038E+03  0.45233500425E+03 -0.35214567463E+02  0.50000000000E+03  0.47000000000E+01 0.  1.
</event>
<event>
 4    1  0.4838534E-004  0.1000000E+04  0.7546771E-02  0.8684367E-01
         11   -1    0    0    0    0  0.00000000000E+00  0.00000000000E+00  0.50000000000E+03  0.50000000000E+03  0.00000000000E+00 0. -1.
        -11   -1    0    0    0    0 -0.00000000000E+00 -0.00000000000E+00 -0.50000000000E+03  0.50000000000E+03  0.00000000000E+00 0.  1.
          5    1    1    2  501    0  0.12569850983E+03  0.10195865195E+03  0.47305626295E+03  0.50000000000E+03  0.47000000000E+01 0. -1.
         -5    1    1    2    0  501 -0.12569850983E+03 -0.10195865195E+03 -0.47305626295E+03  0.50000000000E+03  0.47000000000E+01 0.  1.
</event>
<event>
 4    1  0.4838534E-004  0.1000000E+04  0.7546771E-02  0.8684367E-01
         11   -1    0    0    0    0  0.00000000000E+00  0.00000000000E+00  0.50000000000E+03  0.50000000000E+03  0.00000000000E+00 0. -1.
        -11   -1    0    0    0    0 -0.00000000000E+00 -0.00000000000E+00 -0.50000000000E+03  0.50000000000E+03  0.00000000000E+00 0.  1.
          5    1    1    2  501    0 -0.45654158028E+03 -0.20275140471E+03 -0.20965766579E+02  0.50000000000E+03  0.47000000000E+01 0. -1.
         -5    1    1    2    0  501  0.45654158028E+03  0.20275140471E+03  0.20965766579E+02  0.50000000000E+03  0.47000000000E+01 0.  1.
</event>
<event>
 4    1  0.4838534E-004  0.1000000E+04  0.7546771E-02  0.8684367E-01
         11   -1    0    0    0    0  0.00000000000E+00  0.00000000000E+00  0.50000000000E+03  0.50000000000E+03  0.00000000000E+00 0. -1.
        -11   -1    0    0    0    0 -0.00000000000E+00 -0.00000000000E+00 -0.50000000000E+03  0.50000000000E+03  0.00000000000E+00 0.  1.
          5    1    1    2  501    0 -0.82293433772E+02 -0.48912544779E+03  0.62944396774E+02  0.50000000000E+03  0.47000000000E+01 0. -1.
         -5    1    1    2    0  501  0.82293433772E+02  0.48912544779E+03 -0.62944396774E+02  0.50000000000E+03  0.47000000000E+01 0.  1.
</event>
<event>
 4    1  0.4838534E-004  0.1000000E+04  0.7546771E-02  0.8684367E-01
         11   -1    0    0    0    0  0.00000000000E+00  0.00000000000E+00  0.50000000000E+03  0.50000000000E+03  0.00000000000E+00 0. -1.
        -11   -1    0    0    0    0 -0.00000000000E+00 -0.00000000000E+00 -0.50000000000E+03  0.50000000000E+03  0.00000000000E+00 0.  1.
          5    1    1    2  501    0 -0.20492441295E+02 -0.90552968068E+02  0.49128212854E+03  0.50000000000E+03  0.47000000000E+01 0. -1.
         -5    1    1    2    0  501  0.20492441295E+02  0.90552968068E+02 -0.49128212854E+03  0.50000000000E+03  0.47000000000E+01 0.  1.
</event>
<event>
 4    1  0.4838534E-004  0.1000000E+04  0.7546771E-02  0.8684367E-01
         11   -1    0    0    0    0  0.00000000000E+00  0.00000000000E+00  0.50000000000E+03  0.50000000000E+03  0.00000000000E+00 0.  1.
        -11   -1    0    0    0    0 -0.00000000000E+00 -0.00000000000E+00 -0.50000000000E+03  0.50000000000E+03  0.00000000000E+00 0. -1.
          5    1    1    2  501    0  0.12388256107E+03 -0.94316869663E+02  0.47511614281E+03  0.50000000000E+03  0.47000000000E+01 0.  1.
         -5    1    1    2    0  501 -0.12388256107E+03  0.94316869663E+02 -0.47511614281E+03  0.50000000000E+03  0.47000000000E+01 0. -1.
</event>
<event>
 4    1  0.4838534E-004  0.1000000E+04  0.7546771E-02  0.8684367E-01
         11   -1    0    0    0    0  0.00000000000E+00  0.00000000000E+00  0.50000000000E+03  0.50000000000E+03  0.00000000000E+00 0. -1.
        -11   -1    0    0    0    0 -0.00000000000E+00 -0.00000000000E+00 -0.50000000000E+03  0.50000000000E+03  0.00000000000E+00 0.  1.
          5    1    1    2  501    0  0.83024540338E+02 -0.47176350784E+03 -0.14326209676E+03  0.50000000000E+03  0.47000000000E+01 0.  1.
         -5    1    1    2    0  501 -0.83024540338E+02  0.47176350784E+03  0.14326209676E+03  0.50000000000E+03  0.47000000000E+01 0. -1.
</event>
<event>
 4    1  0.4838534E-004  0.1000000E+04  0.7546771E-02  0.8684367E-01
         11   -1    0    0    0    0  0.00000000000E+00  0.00000000000E+00  0.50000000000E+03  0.50000000000E+03  0.00000000000E+00 0.  1.
        -11   -1    0    0    0    0 -0.00000000000E+00 -0.00000000000E+00 -0.50000000000E+03  0.50000000000E+03  0.00000000000E+00 0. -1.
          5    1    1    2  501    0  0.17451905172E+03 -0.41089014303E+03  0.22514506645E+03  0.50000000000E+03  0.47000000000E+01 0.  1.
         -5    1    1    2    0  501 -0.17451905172E+03  0.41089014303E+03 -0.22514506645E+03  0.50000000000E+03  0.47000000000E+01 0. -1.
</event>
<event>
 4    1  0.4838534E-004  0.1000000E+04  0.7546771E-02  0.8684367E-01
         11   -1    0    0    0    0  0.00000000000E+00  0.00000000000E+00  0.50000000000E+03  0.50000000000E+03  0.00000000000E+00 0.  1.
        -11   -1    0    0    0    0 -0.00000000000E+00 -0.00000000000E+00 -0.50000000000E+03  0.50000000000E+03  0.00000000000E+00 0. -1.
          5    1    1    2  501    0  0.49023773268E+03 -0.97707228982E+02 -0.99082217393E+01  0.50000000000E+03  0.47000000000E+01 0. -1.
         -5    1    1    2    0  501 -0.49023773268E+03  0.97707228982E+02  0.99082217393E+01  0.50000000000E+03  0.47000000000E+01 0.  1.
</event>
<event>
 4    1  0.4838534E-004  0.1000000E+04  0.7546771E-02  0.8684367E-01
         11   -1    0    0    0    0  0.00000000000E+00  0.00000000000E+00  0.50000000000E+03  0.50000000000E+03  0.00000000000E+00 0. -1.
        -11   -1    0    0    0    0 -0.00000000000E+00 -0.00000000000E+00 -0.50000000000E+03  0.50000000000E+03  0.00000000000E+00 0.  1.
          5    1    1    2  501    0  0.94579334106E+02 -0.44950737003E+03  0.19742285544E+03  0.50000000000E+03  0.47000000000E+01 0. -1.
         -5    1    1    2    0  501 -0.94579334106E+02  0.44950737003E+03 -0.19742285544E+03  0.50000000000E+03  0.47000000000E+01 0.  1.
</event>
<event>
 4    1  0.4838534E-004  0.1000000E+04  0.7546771E-02  0.8684367E-01
         11   -1    0    0    0    0  0.00000000000E+00  0.00000000000E+00  0.50000000000E+03  0.50000000000E+03  0.00000000000E+00 0. -1.
        -11   -1    0    0    0    0 -0.00000000000E+00 -0.00000000000E+00 -0.50000000000E+03  0.50000000000E+03  0.00000000000E+00 0.  1.
          5    1    1    2  501    0  0.22586123414E+03  0.26999801512E+03  0.35505729783E+03  0.50000000000E+03  0.47000000000E+01 0. -1.
         -5    1    1    2    0  501 -0.22586123414E+03 -0.26999801512E+03 -0.35505729783E+03  0.50000000000E+03  0.47000000000E+01 0.  1.
</event>
<event>
 4    1  0.4838534E-004  0.1000000E+04  0.7546771E-02  0.8684367E-01
         11   -1    0    0    0    0  0.00000000000E+00  0.00000000000E+00  0.50000000000E+03  0.50000000000E+03  0.00000000000E+00 0. -1.
        -11   -1    0    0    0    0 -0.00000000000E+00 -0.00000000000E+00 -0.50000000000E+03  0.50000000000E+03  0.00000000000E+00 0.  1.
          5    1    1    2  501    0 -0.94900471354E+02  0.48840462693E+03 -0.49322722214E+02  0.50000000000E+03  0.47000000000E+01 0. -1.
         -5    1    1    2    0  501  0.94900471354E+02 -0.48840462693E+03  0.49322722214E+02  0.50000000000E+03  0.47000000000E+01 0.  1.
</event>
<event>
 4    1  0.4838534E-004  0.1000000E+04  0.7546771E-02  0.8684367E-01
         11   -1    0    0    0    0  0.00000000000E+00  0.00000000000E+00  0.50000000000E+03  0.50000000000E+03  0.00000000000E+00 0.  1.
        -11   -1    0    0    0    0 -0.00000000000E+00 -0.00000000000E+00 -0.50000000000E+03  0.50000000000E+03  0.00000000000E+00 0. -1.
          5    1    1    2  501    0 -0.60074068063E+02 -0.19602719978E+02  0.49596849670E+03  0.50000000000E+03  0.47000000000E+01 0.  1.
         -5    1    1    2    0  501  0.60074068063E+02  0.19602719978E+02 -0.49596849670E+03  0.50000000000E+03  0.47000000000E+01 0. -1.
</event>
<event>
 4    1  0.4838534E-004  0.1000000E+04  0.7546771E-02  0.8684367E-01
         11   -1    0    0    0    0  0.00000000000E+00  0.00000000000E+00  0.50000000000E+03  0.50000000000E+03  0.00000000000E+00 0. -1.
        -11   -1    0    0    0    0 -0.00000000000E+00 -0.00000000000E+00 -0.50000000000E+03  0.50000000000E+03  0.00000000000E+00 0.  1.
          5    1    1    2  501    0 -0.37397412683E+03  0.29485307432E+01  0.33183213923E+03  0.50000000000E+03  0.47000000000E+01 0. -1.
         -5    1    1    2    0  501  0.37397412683E+03 -0.29485307432E+01 -0.33183213923E+03  0.50000000000E+03  0.47000000000E+01 0.  1.
</event>
<event>
 4    1  0.4838534E-004  0.1000000E+04  0.7546771E-02  0.8684367E-01
         11   -1    0    0    0    0  0.00000000000E+00  0.00000000000E+00  0.50000000000E+03  0.50000000000E+03  0.00000000000E+00 0.  1.
        -11   -1    0    0    0    0 -0.00000000000E+00 -0.00000000000E+00 -0.50000000000E+03  0.50000000000E+03  0.00000000000E+00 0. -1.
          5    1    1    2  501    0 -0.44731053183E+02  0.22057104628E+03  0.44645879589E+03  0.50000000000E+03  0.47000000000E+01 0.  1.
         -5    1    1    2    0  501  0.44731053183E+02 -0.22057104628E+03 -0.44645879589E+03  0.50000000000E+03  0.47000000000E+01 0. -1.
</event>
<event>
 4    1  0.4838534E-004  0.1000000E+04  0.7546771E-02  0.8684367E-01
         11   -1    0    0    0    0  0.00000000000E+00  0.00000000000E+00  0.50000000000E+03  0.50000000000E+03  0.00000000000E+00 0.  1.
        -11   -1    0    0    0    0 -0.00000000000E+00 -0.00000000000E+00 -0.50000000000E+03  0.50000000000E+03  0.00000000000E+00 0. -1.
          5    1    1    2  501    0  0.25542321592E+03 -0.62999218852E+02 -0.42516818930E+03  0.50000000000E+03  0.47000000000E+01 0. -1.
         -5    1    1    2    0  501 -0.25542321592E+03  0.62999218852E+02  0.42516818930E+03  0.50000000000E+03  0.47000000000E+01 0.  1.
</event>
<event>
 4    1  0.4838534E-004  0.1000000E+04  0.7546771E-02  0.8684367E-01
         11   -1    0    0    0    0  0.00000000000E+00  0.00000000000E+00  0.50000000000E+03  0.50000000000E+03  0.00000000000E+00 0.  1.
        -11   -1    0    0    0    0 -0.00000000000E+00 -0.00000000000E+00 -0.50000000000E+03  0.50000000000E+03  0.00000000000E+00 0. -1.
          5    1    1    2  501    0 -0.34310856930E+03  0.30594705370E+03 -0.19659811801E+03  0.50000000000E+03  0.47000000000E+01 0.  1.
         -5    1    1    2    0  501  0.34310856930E+03 -0.30594705370E+03  0.19659811801E+03  0.50000000000E+03  0.47000000000E+01 0. -1.
</event>
<event>
 4    1  0.4838534E-004  0.1000000E+04  0.7546771E-02  0.8684367E-01
         11   -1    0    0    0    0  0.00000000000E+00  0.00000000000E+00  0.50000000000E+03  0.50000000000E+03  0.00000000000E+00 0. -1.
        -11   -1    0    0    0    0 -0.00000000000E+00 -0.00000000000E+00 -0.50000000000E+03  0.50000000000E+03  0.00000000000E+00 0.  1.
          5    1    1    2  501    0  0.29377144372E+02 -0.49600089876E+03  0.55659696495E+02  0.50000000000E+03  0.47000000000E+01 0. -1.
         -5    1    1    2    0  501 -0.29377144372E+02  0.49600089876E+03 -0.55659696495E+02  0.50000000000E+03  0.47000000000E+01 0.  1.
</event>
<event>
 4    1  0.4838534E-004  0.1000000E+04  0.7546771E-02  0.8684367E-01
         11   -1    0    0    0    0  0.00000000000E+00  0.00000000000E+00  0.50000000000E+03  0.50000000000E+03  0.00000000000E+00 0. -1.
        -11   -1    0    0    0    0 -0.00000000000E+00 -0.00000000000E+00 -0.50000000000E+03  0.50000000000E+03  0.00000000000E+00 0.  1.
          5    1    1    2  501    0 -0.15457415332E+03  0.16005576222E+03  0.44773529468E+03  0.50000000000E+03  0.47000000000E+01 0. -1.
         -5    1    1    2    0  501  0.15457415332E+03 -0.16005576222E+03 -0.44773529468E+03  0.50000000000E+03  0.47000000000E+01 0.  1.
</event>
<event>
 4    1  0.4838534E-004  0.1000000E+04  0.7546771E-02  0.8684367E-01
         11   -1    0    0    0    0  0.00000000000E+00  0.00000000000E+00  0.50000000000E+03  0.50000000000E+03  0.00000000000E+00 0. -1.
        -11   -1    0    0    0    0 -0.00000000000E+00 -0.00000000000E+00 -0.50000000000E+03  0.50000000000E+03  0.00000000000E+00 0.  1.
          5    1    1    2  501    0  0.45191826173E+03 -0.86012090958E+02  0.19583083241E+03  0.50000000000E+03  0.47000000000E+01 0. -1.
         -5    1    1    2    0  501 -0.45191826173E+03  0.86012090958E+02 -0.19583083241E+03  0.50000000000E+03  0.47000000000E+01 0.  1.
</event>
<event>
 4    1  0.4838534E-004  0.1000000E+04  0.7546771E-02  0.8684367E-01
         11   -1    0    0    0    0  0.00000000000E+00  0.00000000000E+00  0.50000000000E+03  0.50000000000E+03  0.00000000000E+00 0. -1.
        -11   -1    0    0    0    0 -0.00000000000E+00 -0.00000000000E+00 -0.50000000000E+03  0.50000000000E+03  0.00000000000E+00 0.  1.
          5    1    1    2  501    0 -0.40807795614E+03  0.88847140090E+02  0.27487538524E+03  0.50000000000E+03  0.47000000000E+01 0. -1.
         -5    1    1    2    0  501  0.40807795614E+03 -0.88847140090E+02 -0.27487538524E+03  0.50000000000E+03  0.47000000000E+01 0.  1.
</event>
<event>
 4    1  0.4838534E-004  0.1000000E+04  0.7546771E-02  0.8684367E-01
         11   -1    0    0    0    0  0.00000000000E+00  0.00000000000E+00  0.50000000000E+03  0.50000000000E+03  0.00000000000E+00 0. -1.
        -11   -1    0    0    0    0 -0.00000000000E+00 -0.00000000000E+00 -0.50000000000E+03  0.50000000000E+03  0.00000000000E+00 0.  1.
          5    1    1    2  501    0 -0.35834281305E+03  0.34279704655E+03  0.63706539758E+02  0.50000000000E+03  0.47000000000E+01 0. -1.
         -5    1    1    2    0  501  0.35834281305E+03 -0.34279704655E+03 -0.63706539758E+02  0.50000000000E+03  0.47000000000E+01 0.  1.
</event>
<event>
 4    1  0.4838534E-004  0.1000000E+04  0.7546771E-02  0.8684367E-01
         11   -1    0    0    0    0  0.00000000000E+00  0.00000000000E+00  0.50000000000E+03  0.50000000000E+03  0.00000000000E+00 0.  1.
        -11   -1    0    0    0    0 -0.00000000000E+00 -0.00000000000E+00 -0.50000000000E+03  0.50000000000E+03  0.00000000000E+00 0. -1.
          5    1    1    2  501    0 -0.11320921420E+03 -0.26909934001E+03 -0.40589053823E+03  0.50000000000E+03  0.47000000000E+01 0. -1.
         -5    1    1    2    0  501  0.11320921420E+03  0.26909934001E+03  0.40589053823E+03  0.50000000000E+03  0.47000000000E+01 0.  1.
</event>
<event>
 4    1  0.4838534E-004  0.1000000E+04  0.7546771E-02  0.8684367E-01
         11   -1    0    0    0    0  0.00000000000E+00  0.00000000000E+00  0.50000000000E+03  0.50000000000E+03  0.00000000000E+00 0. -1.
        -11   -1    0    0    0    0 -0.00000000000E+00 -0.00000000000E+00 -0.50000000000E+03  0.50000000000E+03  0.00000000000E+00 0.  1.
          5    1    1    2  501    0  0.11754754229E+03  0.12005992200E+03 -0.47089924658E+03  0.50000000000E+03  0.47000000000E+01 0.  1.
         -5    1    1    2    0  501 -0.11754754229E+03 -0.12005992200E+03  0.47089924658E+03  0.50000000000E+03  0.47000000000E+01 0. -1.
</event>
<event>
 4    1  0.4838534E-004  0.1000000E+04  0.7546771E-02  0.8684367E-01
         11   -1    0    0    0    0  0.00000000000E+00  0.00000000000E+00  0.50000000000E+03  0.50000000000E+03  0.00000000000E+00 0. -1.
        -11   -1    0    0    0    0 -0.00000000000E+00 -0.00000000000E+00 -0.50000000000E+03  0.50000000000E+03  0.00000000000E+00 0.  1.
          5    1    1    2  501    0  0.47882732939E+03  0.14203965039E+03  0.22957272114E+02  0.50000000000E+03  0.47000000000E+01 0. -1.
         -5    1    1    2    0  501 -0.47882732939E+03 -0.14203965039E+03 -0.22957272114E+02  0.50000000000E+03  0.47000000000E+01 0.  1.
</event>
<event>
 4    1  0.4838534E-004  0.1000000E+04  0.7546771E-02  0.8684367E-01
         11   -1    0    0    0    0  0.00000000000E+00  0.00000000000E+00  0.50000000000E+03  0.50000000000E+03  0.00000000000E+00 0.  1.
        -11   -1    0    0    0    0 -0.00000000000E+00 -0.00000000000E+00 -0.50000000000E+03  0.50000000000E+03  0.00000000000E+00 0. -1.
          5    1    1    2  501    0  0.39903914482E+03  0.21110897298E+03  0.21489223445E+03  0.50000000000E+03  0.47000000000E+01 0.  1.
         -5    1    1    2    0  501 -0.39903914482E+03 -0.21110897298E+03 -0.21489223445E+03  0.50000000000E+03  0.47000000000E+01 0. -1.
</event>
<event>
 4    1  0.4838534E-004  0.1000000E+04  0.7546771E-02  0.8684367E-01
         11   -1    0    0    0    0  0.00000000000E+00  0.00000000000E+00  0.50000000000E+03  0.50000000000E+03  0.00000000000E+00 0. -1.
        -11   -1    0    0    0    0 -0.00000000000E+00 -0.00000000000E+00 -0.50000000000E+03  0.50000000000E+03  0.00000000000E+00 0.  1.
          5    1    1    2  501    0 -0.76674276088E+02  0.12529183121E+03  0.47791309086E+03  0.50000000000E+03  0.47000000000E+01 0. -1.
         -5    1    1    2    0  501  0.76674276088E+02 -0.12529183121E+03 -0.47791309086E+03  0.50000000000E+03  0.47000000000E+01 0.  1.
</event>
<event>
 4    1  0.4838534E-004  0.1000000E+04  0.7546771E-02  0.8684367E-01
         11   -1    0    0    0    0  0.00000000000E+00  0.00000000000E+00  0.50000000000E+03  0.50000000000E+03  0.00000000000E+00 0. -1.
        -11   -1    0    0    0    0 -0.00000000000E+00 -0.00000000000E+00 -0.50000000000E+03  0.50000000000E+03  0.00000000000E+00 0.  1.
          5    1    1    2  501    0 -0.25258904505E+03  0.79068082606E+02  0.42417557996E+03  0.50000000000E+03  0.47000000000E+01 0. -1.
         -5    1    1    2    0  501  0.25258904505E+03 -0.79068082606E+02 -0.42417557996E+03  0.50000000000E+03  0.47000000000E+01 0.  1.
</event>
<event>
 4    1  0.4838534E-004  0.1000000E+04  0.7546771E-02  0.8684367E-01
         11   -1    0    0    0    0  0.00000000000E+00  0.00000000000E+00  0.50000000000E+03  0.50000000000E+03  0.00000000000E+00 0.  1.
        -11   -1    0    0    0    0 -0.00000000000E+00 -0.00000000000E+00 -0.50000000000E+03  0.50000000000E+03  0.00000000000E+00 0. -1.
          5    1    1    2  501    0  0.47011511656E+03  0.17019680188E+03 -0.16540275195E+01  0.50000000000E+03  0.47000000000E+01 0.  1.
         -5    1    1    2    0  501 -0.47011511656E+03 -0.17019680188E+03  0.16540275195E+01  0.50000000000E+03  0.47000000000E+01 0. -1.
</event>
<event>
 4    1  0.4838534E-004  0.1000000E+04  0.7546771E-02  0.8684367E-01
         11   -1    0    0    0    0  0.00000000000E+00  0.00000000000E+00  0.50000000000E+03  0.50000000000E+03  0.00000000000E+00 0. -1.
        -11   -1    0    0    0    0 -0.00000000000E+00 -0.00000000000E+00 -0.50000000000E+03  0.50000000000E+03  0.00000000000E+00 0.  1.
          5    1    1    2  501    0 -0.20941731935E+03  0.27191223270E+03  0.36357397331E+03  0.50000000000E+03  0.47000000000E+01 0. -1.
         -5    1    1    2    0  501  0.20941731935E+03 -0.27191223270E+03 -0.36357397331E+03  0.50000000000E+03  0.47000000000E+01 0.  1.
</event>
<event>
 4    1  0.4838534E-004  0.1000000E+04  0.7546771E-02  0.8684367E-01
         11   -1    0    0    0    0  0.00000000000E+00  0.00000000000E+00  0.50000000000E+03  0.50000000000E+03  0.00000000000E+00 0. -1.
        -11   -1    0    0    0    0 -0.00000000000E+00 -0.00000000000E+00 -0.50000000000E+03  0.50000000000E+03  0.00000000000E+00 0.  1.
          5    1    1    2  501    0 -0.34028969067E+03 -0.24579298366E+03  0.27160015760E+03  0.50000000000E+03  0.47000000000E+01 0. -1.
         -5    1    1    2    0  501  0.34028969067E+03  0.24579298366E+03 -0.27160015760E+03  0.50000000000E+03  0.47000000000E+01 0.  1.
</event>
<event>
 4    1  0.4838534E-004  0.1000000E+04  0.7546771E-02  0.8684367E-01
         11   -1    0    0    0    0  0.00000000000E+00  0.00000000000E+00  0.50000000000E+03  0.50000000000E+03  0.00000000000E+00 0. -1.
        -11   -1    0    0    0    0 -0.00000000000E+00 -0.00000000000E+00 -0.50000000000E+03  0.50000000000E+03  0.00000000000E+00 0.  1.
          5    1    1    2  501    0 -0.11583178802E+03 -0.42154754476E+03  0.24260786135E+03  0.50000000000E+03  0.47000000000E+01 0. -1.
         -5    1    1    2    0  501  0.11583178802E+03  0.42154754476E+03 -0.24260786135E+03  0.50000000000E+03  0.47000000000E+01 0.  1.
</event>
<event>
 4    1  0.4838534E-004  0.1000000E+04  0.7546771E-02  0.8684367E-01
         11   -1    0    0    0    0  0.00000000000E+00  0.00000000000E+00  0.50000000000E+03  0.50000000000E+03  0.00000000000E+00 0. -1.
        -11   -1    0    0    0    0 -0.00000000000E+00 -0.00000000000E+00 -0.50000000000E+03  0.50000000000E+03  0.00000000000E+00 0.  1.
          5    1    1    2  501    0 -0.62254006190E+02 -0.13491651499E+03  0.47738860763E+03  0.50000000000E+03  0.47000000000E+01 0. -1.
         -5    1    1    2    0  501  0.62254006190E+02  0.13491651499E+03 -0.47738860763E+03  0.50000000000E+03  0.47000000000E+01 0.  1.
</event>
<event>
 4    1  0.4838534E-004  0.1000000E+04  0.7546771E-02  0.8684367E-01
         11   -1    0    0    0    0  0.00000000000E+00  0.00000000000E+00  0.50000000000E+03  0.50000000000E+03  0.00000000000E+00 0. -1.
        -11   -1    0    0    0    0 -0.00000000000E+00 -0.00000000000E+00 -0.50000000000E+03  0.50000000000E+03  0.00000000000E+00 0.  1.
          5    1    1    2  501    0  0.39834046799E+03 -0.20817172372E+03  0.21901441735E+03  0.50000000000E+03  0.47000000000E+01 0. -1.
         -5    1    1    2    0  501 -0.39834046799E+03  0.20817172372E+03 -0.21901441735E+03  0.50000000000E+03  0.47000000000E+01 0.  1.
</event>
<event>
 4    1  0.4838534E-004  0.1000000E+04  0.7546771E-02  0.8684367E-01
         11   -1    0    0    0    0  0.00000000000E+00  0.00000000000E+00  0.50000000000E+03  0.50000000000E+03  0.00000000000E+00 0.  1.
        -11   -1    0    0    0    0 -0.00000000000E+00 -0.00000000000E+00 -0.50000000000E+03  0.50000000000E+03  0.00000000000E+00 0. -1.
          5    1    1    2  501    0 -0.10703326979E+03  0.25347446878E+03  0.41745955832E+03  0.50000000000E+03  0.47000000000E+01 0.  1.
         -5    1    1    2    0  501  0.10703326979E+03 -0.25347446878E+03 -0.41745955832E+03  0.50000000000E+03  0.47000000000E+01 0. -1.
</event>
<event>
 4    1  0.4838534E-004  0.1000000E+04  0.7546771E-02  0.8684367E-01
         11   -1    0    0    0    0  0.00000000000E+00  0.00000000000E+00  0.50000000000E+03  0.50000000000E+03  0.00000000000E+00 0. -1.
        -11   -1    0    0    0    0 -0.00000000000E+00 -0.00000000000E+00 -0.50000000000E+03  0.50000000000E+03  0.00000000000E+00 0.  1.
          5    1    1    2  501    0 -0.15889453953E+03  0.46246574950E+03 -0.10419148646E+03  0.50000000000E+03  0.47000000000E+01 0.  1.
         -5    1    1    2    0  501  0.15889453953E+03 -0.46246574950E+03  0.10419148646E+03  0.50000000000E+03  0.47000000000E+01 0. -1.
</event>
<event>
 4    1  0.4838534E-004  0.1000000E+04  0.7546771E-02  0.8684367E-01
         11   -1    0    0    0    0  0.00000000000E+00  0.00000000000E+00  0.50000000000E+03  0.50000000000E+03  0.00000000000E+00 0. -1.
        -11   -1    0    0    0    0 -0.00000000000E+00 -0.00000000000E+00 -0.50000000000E+03  0.50000000000E+03  0.00000000000E+00 0.  1.
          5    1    1    2  501    0 -0.38331421495E+03  0.24617020166E+03  0.20602998430E+03  0.50000000000E+03  0.47000000000E+01 0. -1.
         -5    1    1    2    0  501  0.38331421495E+03 -0.24617020166E+03 -0.20602998430E+03  0.50000000000E+03  0.47000000000E+01 0.  1.
</event>
<event>
 4    1  0.4838534E-004  0.1000000E+04  0.7546771E-02  0.8684367E-01
         11   -1    0    0    0    0  0.00000000000E+00  0.00000000000E+00  0.50000000000E+03  0.50000000000E+03  0.00000000000E+00 0.  1.
        -11   -1    0    0    0    0 -0.00000000000E+00 -0.00000000000E+00 -0.50000000000E+03  0.50000000000E+03  0.00000000000E+00 0. -1.
          5    1    1    2  501    0 -0.46169031317E+03  0.13310995507E+02  0.19142304492E+03  0.50000000000E+03  0.47000000000E+01 0.  1.
         -5    1    1    2    0  501  0.46169031317E+03 -0.13310995507E+02 -0.19142304492E+03  0.50000000000E+03  0.47000000000E+01 0. -1.
</event>
<event>
 4    1  0.4838534E-004  0.1000000E+04  0.7546771E-02  0.8684367E-01
         11   -1    0    0    0    0  0.00000000000E+00  0.00000000000E+00  0.50000000000E+03  0.50000000000E+03  0.00000000000E+00 0. -1.
        -11   -1    0    0    0    0 -0.00000000000E+00 -0.00000000000E+00 -0.50000000000E+03  0.50000000000E+03  0.00000000000E+00 0.  1.
          5    1    1    2  501    0 -0.41115763861E+03  0.19838504150E+01  0.28447033334E+03  0.50000000000E+03  0.47000000000E+01 0. -1.
         -5    1    1    2    0  501  0.41115763861E+03 -0.19838504150E+01 -0.28447033334E+03  0.50000000000E+03  0.47000000000E+01 0.  1.
</event>
<event>
 4    1  0.4838534E-004  0.1000000E+04  0.7546771E-02  0.8684367E-01
         11   -1    0    0    0    0  0.00000000000E+00  0.00000000000E+00  0.50000000000E+03  0.50000000000E+03  0.00000000000E+00 0. -1.
        -11   -1    0    0    0    0 -0.00000000000E+00 -0.00000000000E+00 -0.50000000000E+03  0.50000000000E+03  0.00000000000E+00 0.  1.
          5    1    1    2  501    0 -0.24961302721E+01  0.23299183383E+03  0.44236465128E+03  0.50000000000E+03  0.47000000000E+01 0. -1.
         -5    1    1    2    0  501  0.24961302721E+01 -0.23299183383E+03 -0.44236465128E+03  0.50000000000E+03  0.47000000000E+01 0.  1.
</event>
<event>
 4    1  0.4838534E-004  0.1000000E+04  0.7546771E-02  0.8684367E-01
         11   -1    0    0    0    0  0.00000000000E+00  0.00000000000E+00  0.50000000000E+03  0.50000000000E+03  0.00000000000E+00 0. -1.
        -11   -1    0    0    0    0 -0.00000000000E+00 -0.00000000000E+00 -0.50000000000E+03  0.50000000000E+03  0.00000000000E+00 0.  1.
          5    1    1    2  501    0 -0.46064311495E+03  0.12066727261E+03  0.15239829384E+03  0.50000000000E+03  0.47000000000E+01 0. -1.
         -5    1    1    2    0  501  0.46064311495E+03 -0.12066727261E+03 -0.15239829384E+03  0.50000000000E+03  0.47000000000E+01 0.  1.
</event>
<event>
 4    1  0.4838534E-004  0.1000000E+04  0.7546771E-02  0.8684367E-01
         11   -1    0    0    0    0  0.00000000000E+00  0.00000000000E+00  0.50000000000E+03  0.50000000000E+03  0.00000000000E+00 0. -1.
        -11   -1    0    0    0    0 -0.00000000000E+00 -0.00000000000E+00 -0.50000000000E+03  0.50000000000E+03  0.00000000000E+00 0.  1.
          5    1    1    2  501    0  0.12692397823E+03 -0.24615259901E+03  0.41626567448E+03  0.50000000000E+03  0.47000000000E+01 0. -1.
         -5    1    1    2    0  501 -0.12692397823E+03  0.24615259901E+03 -0.41626567448E+03  0.50000000000E+03  0.47000000000E+01 0.  1.
</event>
<event>
 4    1  0.4838534E-004  0.1000000E+04  0.7546771E-02  0.8684367E-01
         11   -1    0    0    0    0  0.00000000000E+00  0.00000000000E+00  0.50000000000E+03  0.50000000000E+03  0.00000000000E+00 0. -1.
        -11   -1    0    0    0    0 -0.00000000000E+00 -0.00000000000E+00 -0.50000000000E+03  0.50000000000E+03  0.00000000000E+00 0.  1.
          5    1    1    2  501    0 -0.68066281887E+02  0.44024762839E+03  0.22699541178E+03  0.50000000000E+03  0.47000000000E+01 0. -1.
         -5    1    1    2    0  501  0.68066281887E+02 -0.44024762839E+03 -0.22699541178E+03  0.50000000000E+03  0.47000000000E+01 0.  1.
</event>
<event>
 4    1  0.4838534E-004  0.1000000E+04  0.7546771E-02  0.8684367E-01
         11   -1    0    0    0    0  0.00000000000E+00  0.00000000000E+00  0.50000000000E+03  0.50000000000E+03  0.00000000000E+00 0. -1.
        -11   -1    0    0    0    0 -0.00000000000E+00 -0.00000000000E+00 -0.50000000000E+03  0.50000000000E+03  0.00000000000E+00 0.  1.
          5    1    1    2  501    0 -0.22814128792E+03 -0.27057861845E+03  0.35315247979E+03  0.50000000000E+03  0.47000000000E+01 0. -1.
         -5    1    1    2    0  501  0.22814128792E+03  0.27057861845E+03 -0.35315247979E+03  0.50000000000E+03  0.47000000000E+01 0.  1.
</event>
<event>
 4    1  0.4838534E-004  0.1000000E+04  0.7546771E-02  0.8684367E-01
         11   -1    0    0    0    0  0.00000000000E+00  0.00000000000E+00  0.50000000000E+03  0.50000000000E+03  0.00000000000E+00 0. -1.
        -11   -1    0    0    0    0 -0.00000000000E+00 -0.00000000000E+00 -0.50000000000E+03  0.50000000000E+03  0.00000000000E+00 0.  1.
          5    1    1    2  501    0  0.62825049412E+02  0.26229683293E+03  0.42098847324E+03  0.50000000000E+03  0.47000000000E+01 0. -1.
         -5    1    1    2    0  501 -0.62825049412E+02 -0.26229683293E+03 -0.42098847324E+03  0.50000000000E+03  0.47000000000E+01 0.  1.
</event>
<event>
 4    1  0.4838534E-004  0.1000000E+04  0.7546771E-02  0.8684367E-01
         11   -1    0    0    0    0  0.00000000000E+00  0.00000000000E+00  0.50000000000E+03  0.50000000000E+03  0.00000000000E+00 0. -1.
        -11   -1    0    0    0    0 -0.00000000000E+00 -0.00000000000E+00 -0.50000000000E+03  0.50000000000E+03  0.00000000000E+00 0.  1.
          5    1    1    2  501    0 -0.26555106440E+03  0.20204013509E+03  0.37234436481E+03  0.50000000000E+03  0.47000000000E+01 0. -1.
         -5    1    1    2    0  501  0.26555106440E+03 -0.20204013509E+03 -0.37234436481E+03  0.50000000000E+03  0.47000000000E+01 0.  1.
</event>
<event>
 4    1  0.4838534E-004  0.1000000E+04  0.7546771E-02  0.8684367E-01
         11   -1    0    0    0    0  0.00000000000E+00  0.00000000000E+00  0.50000000000E+03  0.50000000000E+03  0.00000000000E+00 0. -1.
        -11   -1    0    0    0    0 -0.00000000000E+00 -0.00000000000E+00 -0.50000000000E+03  0.50000000000E+03  0.00000000000E+00 0.  1.
          5    1    1    2  501    0 -0.31856482333E+03  0.10297019492E+03  0.37133745070E+03  0.50000000000E+03  0.47000000000E+01 0. -1.
         -5    1    1    2    0  501  0.31856482333E+03 -0.10297019492E+03 -0.37133745070E+03  0.50000000000E+03  0.47000000000E+01 0.  1.
</event>
<event>
 4    1  0.4838534E-004  0.1000000E+04  0.7546771E-02  0.8684367E-01
         11   -1    0    0    0    0  0.00000000000E+00  0.00000000000E+00  0.50000000000E+03  0.50000000000E+03  0.00000000000E+00 0.  1.
        -11   -1    0    0    0    0 -0.00000000000E+00 -0.00000000000E+00 -0.50000000000E+03  0.50000000000E+03  0.00000000000E+00 0. -1.
          5    1    1    2  501    0 -0.39879854490E+03 -0.23334018501E+03  0.19102352904E+03  0.50000000000E+03  0.47000000000E+01 0. -1.
         -5    1    1    2    0  501  0.39879854490E+03  0.23334018501E+03 -0.19102352904E+03  0.50000000000E+03  0.47000000000E+01 0.  1.
</event>
<event>
 4    1  0.4838534E-004  0.1000000E+04  0.7546771E-02  0.8684367E-01
         11   -1    0    0    0    0  0.00000000000E+00  0.00000000000E+00  0.50000000000E+03  0.50000000000E+03  0.00000000000E+00 0. -1.
        -11   -1    0    0    0    0 -0.00000000000E+00 -0.00000000000E+00 -0.50000000000E+03  0.50000000000E+03  0.00000000000E+00 0.  1.
          5    1    1    2  501    0  0.36635186457E+03 -0.13144777334E+03  0.31382432061E+03  0.50000000000E+03  0.47000000000E+01 0. -1.
         -5    1    1    2    0  501 -0.36635186457E+03  0.13144777334E+03 -0.31382432061E+03  0.50000000000E+03  0.47000000000E+01 0.  1.
</event>
<event>
 4    1  0.4838534E-004  0.1000000E+04  0.7546771E-02  0.8684367E-01
         11   -1    0    0    0    0  0.00000000000E+00  0.00000000000E+00  0.50000000000E+03  0.50000000000E+03  0.00000000000E+00 0. -1.
        -11   -1    0    0    0    0 -0.00000000000E+00 -0.00000000000E+00 -0.50000000000E+03  0.50000000000E+03  0.00000000000E+00 0.  1.
          5    1    1    2  501    0  0.50096466793E+02  0.36270794073E+03  0.34045734497E+03  0.50000000000E+03  0.47000000000E+01 0. -1.
         -5    1    1    2    0  501 -0.50096466793E+02 -0.36270794073E+03 -0.34045734497E+03  0.50000000000E+03  0.47000000000E+01 0.  1.
</event>
<event>
 4    1  0.4838534E-004  0.1000000E+04  0.7546771E-02  0.8684367E-01
         11   -1    0    0    0    0  0.00000000000E+00  0.00000000000E+00  0.50000000000E+03  0.50000000000E+03  0.00000000000E+00 0. -1.
        -11   -1    0    0    0    0 -0.00000000000E+00 -0.00000000000E+00 -0.50000000000E+03  0.50000000000E+03  0.00000000000E+00 0.  1.
          5    1    1    2  501    0  0.15290116032E+03  0.34409216154E+03  0.32893727295E+03  0.50000000000E+03  0.47000000000E+01 0. -1.
         -5    1    1    2    0  501 -0.15290116032E+03 -0.34409216154E+03 -0.32893727295E+03  0.50000000000E+03  0.47000000000E+01 0.  1.
</event>
<event>
 4    1  0.4838534E-004  0.1000000E+04  0.7546771E-02  0.8684367E-01
         11   -1    0    0    0    0  0.00000000000E+00  0.00000000000E+00  0.50000000000E+03  0.50000000000E+03  0.00000000000E+00 0. -1.
        -11   -1    0    0    0    0 -0.00000000000E+00 -0.00000000000E+00 -0.50000000000E+03  0.50000000000E+03  0.00000000000E+00 0.  1.
          5    1    1    2  501    0  0.35703787854E+03  0.73309514090E+02  0.34223906620E+03  0.50000000000E+03  0.47000000000E+01 0. -1.
         -5    1    1    2    0  501 -0.35703787854E+03 -0.73309514090E+02 -0.34223906620E+03  0.50000000000E+03  0.47000000000E+01 0.  1.
</event>
<event>
 4    1  0.4838534E-004  0.1000000E+04  0.7546771E-02  0.8684367E-01
         11   -1    0    0    0    0  0.00000000000E+00  0.00000000000E+00  0.50000000000E+03  0.50000000000E+03  0.00000000000E+00 0.  1.
        -11   -1    0    0    0    0 -0.00000000000E+00 -0.00000000000E+00 -0.50000000000E+03  0.50000000000E+03  0.00000000000E+00 0. -1.
          5    1    1    2  501    0 -0.36554015063E+03  0.73695569895E+02 -0.33305745939E+03  0.50000000000E+03  0.47000000000E+01 0. -1.
         -5    1    1    2    0  501  0.36554015063E+03 -0.73695569895E+02  0.33305745939E+03  0.50000000000E+03  0.47000000000E+01 0.  1.
</event>
<event>
 4    1  0.4838534E-004  0.1000000E+04  0.7546771E-02  0.8684367E-01
         11   -1    0    0    0    0  0.00000000000E+00  0.00000000000E+00  0.50000000000E+03  0.50000000000E+03  0.00000000000E+00 0.  1.
        -11   -1    0    0    0    0 -0.00000000000E+00 -0.00000000000E+00 -0.50000000000E+03  0.50000000000E+03  0.00000000000E+00 0. -1.
          5    1    1    2  501    0  0.14491462873E+03  0.46289449211E+03  0.12126973883E+03  0.50000000000E+03  0.47000000000E+01 0.  1.
         -5    1    1    2    0  501 -0.14491462873E+03 -0.46289449211E+03 -0.12126973883E+03  0.50000000000E+03  0.47000000000E+01 0. -1.
</event>
<event>
 4    1  0.4838534E-004  0.1000000E+04  0.7546771E-02  0.8684367E-01
         11   -1    0    0    0    0  0.00000000000E+00  0.00000000000E+00  0.50000000000E+03  0.50000000000E+03  0.00000000000E+00 0. -1.
        -11   -1    0    0    0    0 -0.00000000000E+00 -0.00000000000E+00 -0.50000000000E+03  0.50000000000E+03  0.00000000000E+00 0.  1.
          5    1    1    2  501    0 -0.48491760403E+02 -0.44019524591E+03  0.23206594893E+03  0.50000000000E+03  0.47000000000E+01 0. -1.
         -5    1    1    2    0  501  0.48491760403E+02  0.44019524591E+03 -0.23206594893E+03  0.50000000000E+03  0.47000000000E+01 0.  1.
</event>
<event>
 4    1  0.4838534E-004  0.1000000E+04  0.7546771E-02  0.8684367E-01
         11   -1    0    0    0    0  0.00000000000E+00  0.00000000000E+00  0.50000000000E+03  0.50000000000E+03  0.00000000000E+00 0. -1.
        -11   -1    0    0    0    0 -0.00000000000E+00 -0.00000000000E+00 -0.50000000000E+03  0.50000000000E+03  0.00000000000E+00 0.  1.
          5    1    1    2  501    0 -0.17775782149E+03 -0.15398764139E+03  0.44121182350E+03  0.50000000000E+03  0.47000000000E+01 0. -1.
         -5    1    1    2    0  501  0.17775782149E+03  0.15398764139E+03 -0.44121182350E+03  0.50000000000E+03  0.47000000000E+01 0.  1.
</event>
<event>
 4    1  0.4838534E-004  0.1000000E+04  0.7546771E-02  0.8684367E-01
         11   -1    0    0    0    0  0.00000000000E+00  0.00000000000E+00  0.50000000000E+03  0.50000000000E+03  0.00000000000E+00 0. -1.
        -11   -1    0    0    0    0 -0.00000000000E+00 -0.00000000000E+00 -0.50000000000E+03  0.50000000000E+03  0.00000000000E+00 0.  1.
          5    1    1    2  501    0 -0.41029355090E+03 -0.21607370764E+03 -0.18694722505E+03  0.50000000000E+03  0.47000000000E+01 0. -1.
         -5    1    1    2    0  501  0.41029355090E+03  0.21607370764E+03  0.18694722505E+03  0.50000000000E+03  0.47000000000E+01 0.  1.
</event>
<event>
 4    1  0.4838534E-004  0.1000000E+04  0.7546771E-02  0.8684367E-01
         11   -1    0    0    0    0  0.00000000000E+00  0.00000000000E+00  0.50000000000E+03  0.50000000000E+03  0.00000000000E+00 0. -1.
        -11   -1    0    0    0    0 -0.00000000000E+00 -0.00000000000E+00 -0.50000000000E+03  0.50000000000E+03  0.00000000000E+00 0.  1.
          5    1    1    2  501    0  0.84425499945E+02 -0.19724207426E+03  0.45160359731E+03  0.50000000000E+03  0.47000000000E+01 0. -1.
         -5    1    1    2    0  501 -0.84425499945E+02  0.19724207426E+03 -0.45160359731E+03  0.50000000000E+03  0.47000000000E+01 0.  1.
</event>
<event>
 4    1  0.4838534E-004  0.1000000E+04  0.7546771E-02  0.8684367E-01
         11   -1    0    0    0    0  0.00000000000E+00  0.00000000000E+00  0.50000000000E+03  0.50000000000E+03  0.00000000000E+00 0. -1.
        -11   -1    0    0    0    0 -0.00000000000E+00 -0.00000000000E+00 -0.50000000000E+03  0.50000000000E+03  0.00000000000E+00 0.  1.
          5    1    1    2  501    0  0.60887018253E+02 -0.29357204170E+03  0.40010765719E+03  0.50000000000E+03  0.47000000000E+01 0. -1.
         -5    1    1    2    0  501 -0.60887018253E+02  0.29357204170E+03 -0.40010765719E+03  0.50000000000E+03  0.47000000000E+01 0.  1.
</event>
<event>
 4    1  0.4838534E-004  0.1000000E+04  0.7546771E-02  0.8684367E-01
         11   -1    0    0    0    0  0.00000000000E+00  0.00000000000E+00  0.50000000000E+03  0.50000000000E+03  0.00000000000E+00 0. -1.
        -11   -1    0    0    0    0 -0.00000000000E+00 -0.00000000000E+00 -0.50000000000E+03  0.50000000000E+03  0.00000000000E+00 0.  1.
          5    1    1    2  501    0 -0.11415915065E+03  0.42958086655E+03  0.22892330029E+03  0.50000000000E+03  0.47000000000E+01 0. -1.
         -5    1    1    2    0  501  0.11415915065E+03 -0.42958086655E+03 -0.22892330029E+03  0.50000000000E+03  0.47000000000E+01 0.  1.
</event>
<event>
 4    1  0.4838534E-004  0.1000000E+04  0.7546771E-02  0.8684367E-01
         11   -1    0    0    0    0  0.00000000000E+00  0.00000000000E+00  0.50000000000E+03  0.50000000000E+03  0.00000000000E+00 0. -1.
        -11   -1    0    0    0    0 -0.00000000000E+00 -0.00000000000E+00 -0.50000000000E+03  0.50000000000E+03  0.00000000000E+00 0.  1.
          5    1    1    2  501    0 -0.35150903846E+03  0.16563592801E+03  0.31461729965E+03  0.50000000000E+03  0.47000000000E+01 0. -1.
         -5    1    1    2    0  501  0.35150903846E+03 -0.16563592801E+03 -0.31461729965E+03  0.50000000000E+03  0.47000000000E+01 0.  1.
</event>
<event>
 4    1  0.4838534E-004  0.1000000E+04  0.7546771E-02  0.8684367E-01
         11   -1    0    0    0    0  0.00000000000E+00  0.00000000000E+00  0.50000000000E+03  0.50000000000E+03  0.00000000000E+00 0. -1.
        -11   -1    0    0    0    0 -0.00000000000E+00 -0.00000000000E+00 -0.50000000000E+03  0.50000000000E+03  0.00000000000E+00 0.  1.
          5    1    1    2  501    0  0.16577561270E+03  0.47156040609E+03 -0.11275621633E+02  0.50000000000E+03  0.47000000000E+01 0. -1.
         -5    1    1    2    0  501 -0.16577561270E+03 -0.47156040609E+03  0.11275621633E+02  0.50000000000E+03  0.47000000000E+01 0.  1.
</event>
<event>
 4    1  0.4838534E-004  0.1000000E+04  0.7546771E-02  0.8684367E-01
         11   -1    0    0    0    0  0.00000000000E+00  0.00000000000E+00  0.50000000000E+03  0.50000000000E+03  0.00000000000E+00 0.  1.
        -11   -1    0    0    0    0 -0.00000000000E+00 -0.00000000000E+00 -0.50000000000E+03  0.50000000000E+03  0.00000000000E+00 0. -1.
          5    1    1    2  501    0  0.33963130860E+03 -0.36669236767E+03  0.12852692669E+02  0.50000000000E+03  0.47000000000E+01 0.  1.
         -5    1    1    2    0  501 -0.33963130860E+03  0.36669236767E+03 -0.12852692669E+02  0.50000000000E+03  0.47000000000E+01 0. -1.
</event>
<event>
 4    1  0.4838534E-004  0.1000000E+04  0.7546771E-02  0.8684367E-01
         11   -1    0    0    0    0  0.00000000000E+00  0.00000000000E+00  0.50000000000E+03  0.50000000000E+03  0.00000000000E+00 0. -1.
        -11   -1    0    0    0    0 -0.00000000000E+00 -0.00000000000E+00 -0.50000000000E+03  0.50000000000E+03  0.00000000000E+00 0.  1.
          5    1    1    2  501    0  0.41847321089E+03  0.14518613637E+03  0.23190314265E+03  0.50000000000E+03  0.47000000000E+01 0. -1.
         -5    1    1    2    0  501 -0.41847321089E+03 -0.14518613637E+03 -0.23190314265E+03  0.50000000000E+03  0.47000000000E+01 0.  1.
</event>
<event>
 4    1  0.4838534E-004  0.1000000E+04  0.7546771E-02  0.8684367E-01
         11   -1    0    0    0    0  0.00000000000E+00  0.00000000000E+00  0.50000000000E+03  0.50000000000E+03  0.00000000000E+00 0. -1.
        -11   -1    0    0    0    0 -0.00000000000E+00 -0.00000000000E+00 -0.50000000000E+03  0.50000000000E+03  0.00000000000E+00 0.  1.
          5    1    1    2  501    0 -0.21103375143E+02 -0.42692294878E+03  0.25936336164E+03  0.50000000000E+03  0.47000000000E+01 0. -1.
         -5    1    1    2    0  501  0.21103375143E+02  0.42692294878E+03 -0.25936336164E+03  0.50000000000E+03  0.47000000000E+01 0.  1.
</event>
<event>
 4    1  0.4838534E-004  0.1000000E+04  0.7546771E-02  0.8684367E-01
         11   -1    0    0    0    0  0.00000000000E+00  0.00000000000E+00  0.50000000000E+03  0.50000000000E+03  0.00000000000E+00 0. -1.
        -11   -1    0    0    0    0 -0.00000000000E+00 -0.00000000000E+00 -0.50000000000E+03  0.50000000000E+03  0.00000000000E+00 0.  1.
          5    1    1    2  501    0 -0.34930152895E+03  0.35511135898E+03 -0.43154079750E+02  0.50000000000E+03  0.47000000000E+01 0. -1.
         -5    1    1    2    0  501  0.34930152895E+03 -0.35511135898E+03  0.43154079750E+02  0.50000000000E+03  0.47000000000E+01 0.  1.
</event>
<event>
 4    1  0.4838534E-004  0.1000000E+04  0.7546771E-02  0.8684367E-01
         11   -1    0    0    0    0  0.00000000000E+00  0.00000000000E+00  0.50000000000E+03  0.50000000000E+03  0.00000000000E+00 0. -1.
        -11   -1    0    0    0    0 -0.00000000000E+00 -0.00000000000E+00 -0.50000000000E+03  0.50000000000E+03  0.00000000000E+00 0.  1.
          5    1    1    2  501    0 -0.24232184131E+03  0.19911235067E+03  0.38937425061E+03  0.50000000000E+03  0.47000000000E+01 0. -1.
         -5    1    1    2    0  501  0.24232184131E+03 -0.19911235067E+03 -0.38937425061E+03  0.50000000000E+03  0.47000000000E+01 0.  1.
</event>
<event>
 4    1  0.4838534E-004  0.1000000E+04  0.7546771E-02  0.8684367E-01
         11   -1    0    0    0    0  0.00000000000E+00  0.00000000000E+00  0.50000000000E+03  0.50000000000E+03  0.00000000000E+00 0. -1.
        -11   -1    0    0    0    0 -0.00000000000E+00 -0.00000000000E+00 -0.50000000000E+03  0.50000000000E+03  0.00000000000E+00 0.  1.
          5    1    1    2  501    0  0.39778914944E+03  0.11641810882E+03  0.27962211380E+03  0.50000000000E+03  0.47000000000E+01 0. -1.
         -5    1    1    2    0  501 -0.39778914944E+03 -0.11641810882E+03 -0.27962211380E+03  0.50000000000E+03  0.47000000000E+01 0.  1.
</event>
<event>
 4    1  0.4838534E-004  0.1000000E+04  0.7546771E-02  0.8684367E-01
         11   -1    0    0    0    0  0.00000000000E+00  0.00000000000E+00  0.50000000000E+03  0.50000000000E+03  0.00000000000E+00 0. -1.
        -11   -1    0    0    0    0 -0.00000000000E+00 -0.00000000000E+00 -0.50000000000E+03  0.50000000000E+03  0.00000000000E+00 0.  1.
          5    1    1    2  501    0 -0.13849498809E+02 -0.34649429868E+03  0.36017745954E+03  0.50000000000E+03  0.47000000000E+01 0. -1.
         -5    1    1    2    0  501  0.13849498809E+02  0.34649429868E+03 -0.36017745954E+03  0.50000000000E+03  0.47000000000E+01 0.  1.
</event>
<event>
 4    1  0.4838534E-004  0.1000000E+04  0.7546771E-02  0.8684367E-01
         11   -1    0    0    0    0  0.00000000000E+00  0.00000000000E+00  0.50000000000E+03  0.50000000000E+03  0.00000000000E+00 0. -1.
        -11   -1    0    0    0    0 -0.00000000000E+00 -0.00000000000E+00 -0.50000000000E+03  0.50000000000E+03  0.00000000000E+00 0.  1.
          5    1    1    2  501    0  0.26767242094E+03 -0.30068244573E+03  0.29651214460E+03  0.50000000000E+03  0.47000000000E+01 0. -1.
         -5    1    1    2    0  501 -0.26767242094E+03  0.30068244573E+03 -0.29651214460E+03  0.50000000000E+03  0.47000000000E+01 0.  1.
</event>
<event>
 4    1  0.4838534E-004  0.1000000E+04  0.7546771E-02  0.8684367E-01
         11   -1    0    0    0    0  0.00000000000E+00  0.00000000000E+00  0.50000000000E+03  0.50000000000E+03  0.00000000000E+00 0. -1.
        -11   -1    0    0    0    0 -0.00000000000E+00 -0.00000000000E+00 -0.50000000000E+03  0.50000000000E+03  0.00000000000E+00 0.  1.
          5    1    1    2  501    0 -0.18718064808E+03 -0.11876770120E+03  0.44814679307E+03  0.50000000000E+03  0.47000000000E+01 0. -1.
         -5    1    1    2    0  501  0.18718064808E+03  0.11876770120E+03 -0.44814679307E+03  0.50000000000E+03  0.47000000000E+01 0.  1.
</event>
<event>
 4    1  0.4838534E-004  0.1000000E+04  0.7546771E-02  0.8684367E-01
         11   -1    0    0    0    0  0.00000000000E+00  0.00000000000E+00  0.50000000000E+03  0.50000000000E+03  0.00000000000E+00 0. -1.
        -11   -1    0    0    0    0 -0.00000000000E+00 -0.00000000000E+00 -0.50000000000E+03  0.50000000000E+03  0.00000000000E+00 0.  1.
          5    1    1    2  501    0  0.46801945303E+03  0.77816538761E+02  0.15773486577E+03  0.50000000000E+03  0.47000000000E+01 0. -1.
         -5    1    1    2    0  501 -0.46801945303E+03 -0.77816538761E+02 -0.15773486577E+03  0.50000000000E+03  0.47000000000E+01 0.  1.
</event>
<event>
 4    1  0.4838534E-004  0.1000000E+04  0.7546771E-02  0.8684367E-01
         11   -1    0    0    0    0  0.00000000000E+00  0.00000000000E+00  0.50000000000E+03  0.50000000000E+03  0.00000000000E+00 0. -1.
        -11   -1    0    0    0    0 -0.00000000000E+00 -0.00000000000E+00 -0.50000000000E+03  0.50000000000E+03  0.00000000000E+00 0.  1.
          5    1    1    2  501    0 -0.17661881417E+03  0.46306882491E+03  0.65961866810E+02  0.50000000000E+03  0.47000000000E+01 0.  1.
         -5    1    1    2    0  501  0.17661881417E+03 -0.46306882491E+03 -0.65961866810E+02  0.50000000000E+03  0.47000000000E+01 0. -1.
</event>
<event>
 4    1  0.4838534E-004  0.1000000E+04  0.7546771E-02  0.8684367E-01
         11   -1    0    0    0    0  0.00000000000E+00  0.00000000000E+00  0.50000000000E+03  0.50000000000E+03  0.00000000000E+00 0. -1.
        -11   -1    0    0    0    0 -0.00000000000E+00 -0.00000000000E+00 -0.50000000000E+03  0.50000000000E+03  0.00000000000E+00 0.  1.
          5    1    1    2  501    0  0.14435071156E+03 -0.88173161504E+02  0.47049577645E+03  0.50000000000E+03  0.47000000000E+01 0. -1.
         -5    1    1    2    0  501 -0.14435071156E+03  0.88173161504E+02 -0.47049577645E+03  0.50000000000E+03  0.47000000000E+01 0.  1.
</event>
<event>
 4    1  0.4838534E-004  0.1000000E+04  0.7546771E-02  0.8684367E-01
         11   -1    0    0    0    0  0.00000000000E+00  0.00000000000E+00  0.50000000000E+03  0.50000000000E+03  0.00000000000E+00 0. -1.
        -11   -1    0    0    0    0 -0.00000000000E+00 -0.00000000000E+00 -0.50000000000E+03  0.50000000000E+03  0.00000000000E+00 0.  1.
          5    1    1    2  501    0  0.54643823351E+02 -0.13247868186E+03  0.47900037727E+03  0.50000000000E+03  0.47000000000E+01 0. -1.
         -5    1    1    2    0  501 -0.54643823351E+02  0.13247868186E+03 -0.47900037727E+03  0.50000000000E+03  0.47000000000E+01 0.  1.
</event>
<event>
 4    1  0.4838534E-004  0.1000000E+04  0.7546771E-02  0.8684367E-01
         11   -1    0    0    0    0  0.00000000000E+00  0.00000000000E+00  0.50000000000E+03  0.50000000000E+03  0.00000000000E+00 0.  1.
        -11   -1    0    0    0    0 -0.00000000000E+00 -0.00000000000E+00 -0.50000000000E+03  0.50000000000E+03  0.00000000000E+00 0. -1.
          5    1    1    2  501    0 -0.22085837281E+03 -0.15489311214E+03  0.42096034608E+03  0.50000000000E+03  0.47000000000E+01 0.  1.
         -5    1    1    2    0  501  0.22085837281E+03  0.15489311214E+03 -0.42096034608E+03  0.50000000000E+03  0.47000000000E+01 0. -1.
</event>
<event>
 4    1  0.4838534E-004  0.1000000E+04  0.7546771E-02  0.8684367E-01
         11   -1    0    0    0    0  0.00000000000E+00  0.00000000000E+00  0.50000000000E+03  0.50000000000E+03  0.00000000000E+00 0. -1.
        -11   -1    0    0    0    0 -0.00000000000E+00 -0.00000000000E+00 -0.50000000000E+03  0.50000000000E+03  0.00000000000E+00 0.  1.
          5    1    1    2  501    0  0.72983645391E+02 -0.47541999841E+03 -0.13648121708E+03  0.50000000000E+03  0.47000000000E+01 0.  1.
         -5    1    1    2    0  501 -0.72983645391E+02  0.47541999841E+03  0.13648121708E+03  0.50000000000E+03  0.47000000000E+01 0. -1.
</event>
<event>
 4    1  0.4838534E-004  0.1000000E+04  0.7546771E-02  0.8684367E-01
         11   -1    0    0    0    0  0.00000000000E+00  0.00000000000E+00  0.50000000000E+03  0.50000000000E+03  0.00000000000E+00 0.  1.
        -11   -1    0    0    0    0 -0.00000000000E+00 -0.00000000000E+00 -0.50000000000E+03  0.50000000000E+03  0.00000000000E+00 0. -1.
          5    1    1    2  501    0  0.32266996411E+03  0.84840675462E+02  0.37237623991E+03  0.50000000000E+03  0.47000000000E+01 0.  1.
         -5    1    1    2    0  501 -0.32266996411E+03 -0.84840675462E+02 -0.37237623991E+03  0.50000000000E+03  0.47000000000E+01 0. -1.
</event>
<event>
 4    1  0.4838534E-004  0.1000000E+04  0.7546771E-02  0.8684367E-01
         11   -1    0    0    0    0  0.00000000000E+00  0.00000000000E+00  0.50000000000E+03  0.50000000000E+03  0.00000000000E+00 0. -1.
        -11   -1    0    0    0    0 -0.00000000000E+00 -0.00000000000E+00 -0.50000000000E+03  0.50000000000E+03  0.00000000000E+00 0.  1.
          5    1    1    2  501    0  0.13601288029E+03 -0.43406678818E+03  0.20751970942E+03  0.50000000000E+03  0.47000000000E+01 0. -1.
         -5    1    1    2    0  501 -0.13601288029E+03  0.43406678818E+03 -0.20751970942E+03  0.50000000000E+03  0.47000000000E+01 0.  1.
</event>
<event>
 4    1  0.4838534E-004  0.1000000E+04  0.7546771E-02  0.8684367E-01
         11   -1    0    0    0    0  0.00000000000E+00  0.00000000000E+00  0.50000000000E+03  0.50000000000E+03  0.00000000000E+00 0. -1.
        -11   -1    0    0    0    0 -0.00000000000E+00 -0.00000000000E+00 -0.50000000000E+03  0.50000000000E+03  0.00000000000E+00 0.  1.
          5    1    1    2  501    0  0.96634237274E+02 -0.17887655071E+03  0.45677446710E+03  0.50000000000E+03  0.47000000000E+01 0. -1.
         -5    1    1    2    0  501 -0.96634237274E+02  0.17887655071E+03 -0.45677446710E+03  0.50000000000E+03  0.47000000000E+01 0.  1.
</event>
<event>
 4    1  0.4838534E-004  0.1000000E+04  0.7546771E-02  0.8684367E-01
         11   -1    0    0    0    0  0.00000000000E+00  0.00000000000E+00  0.50000000000E+03  0.50000000000E+03  0.00000000000E+00 0. -1.
        -11   -1    0    0    0    0 -0.00000000000E+00 -0.00000000000E+00 -0.50000000000E+03  0.50000000000E+03  0.00000000000E+00 0.  1.
          5    1    1    2  501    0  0.38878245202E+03  0.25469971729E+03 -0.18426657053E+03  0.50000000000E+03  0.47000000000E+01 0. -1.
         -5    1    1    2    0  501 -0.38878245202E+03 -0.25469971729E+03  0.18426657053E+03  0.50000000000E+03  0.47000000000E+01 0.  1.
</event>
<event>
 4    1  0.4838534E-004  0.1000000E+04  0.7546771E-02  0.8684367E-01
         11   -1    0    0    0    0  0.00000000000E+00  0.00000000000E+00  0.50000000000E+03  0.50000000000E+03  0.00000000000E+00 0. -1.
        -11   -1    0    0    0    0 -0.00000000000E+00 -0.00000000000E+00 -0.50000000000E+03  0.50000000000E+03  0.00000000000E+00 0.  1.
          5    1    1    2  501    0  0.36393154918E+03 -0.27346329668E+03 -0.20675967421E+03  0.50000000000E+03  0.47000000000E+01 0. -1.
         -5    1    1    2    0  501 -0.36393154918E+03  0.27346329668E+03  0.20675967421E+03  0.50000000000E+03  0.47000000000E+01 0.  1.
</event>
<event>
 4    1  0.4838534E-004  0.1000000E+04  0.7546771E-02  0.8684367E-01
         11   -1    0    0    0    0  0.00000000000E+00  0.00000000000E+00  0.50000000000E+03  0.50000000000E+03  0.00000000000E+00 0.  1.
        -11   -1    0    0    0    0 -0.00000000000E+00 -0.00000000000E+00 -0.50000000000E+03  0.50000000000E+03  0.00000000000E+00 0. -1.
          5    1    1    2  501    0  0.40314698514E+03  0.98391725785E+02 -0.27887181046E+03  0.50000000000E+03  0.47000000000E+01 0. -1.
         -5    1    1    2    0  501 -0.40314698514E+03 -0.98391725785E+02  0.27887181046E+03  0.50000000000E+03  0.47000000000E+01 0.  1.
</event>
<event>
 4    1  0.4838534E-004  0.1000000E+04  0.7546771E-02  0.8684367E-01
         11   -1    0    0    0    0  0.00000000000E+00  0.00000000000E+00  0.50000000000E+03  0.50000000000E+03  0.00000000000E+00 0.  1.
        -11   -1    0    0    0    0 -0.00000000000E+00 -0.00000000000E+00 -0.50000000000E+03  0.50000000000E+03  0.00000000000E+00 0. -1.
          5    1    1    2  501    0 -0.42893069190E+02 -0.33406585829E+02  0.49701317351E+03  0.50000000000E+03  0.47000000000E+01 0.  1.
         -5    1    1    2    0  501  0.42893069190E+02  0.33406585829E+02 -0.49701317351E+03  0.50000000000E+03  0.47000000000E+01 0. -1.
</event>
<event>
 4    1  0.4838534E-004  0.1000000E+04  0.7546771E-02  0.8684367E-01
         11   -1    0    0    0    0  0.00000000000E+00  0.00000000000E+00  0.50000000000E+03  0.50000000000E+03  0.00000000000E+00 0. -1.
        -11   -1    0    0    0    0 -0.00000000000E+00 -0.00000000000E+00 -0.50000000000E+03  0.50000000000E+03  0.00000000000E+00 0.  1.
          5    1    1    2  501    0  0.38769080035E+03 -0.17989512788E+03  0.25944459194E+03  0.50000000000E+03  0.47000000000E+01 0. -1.
         -5    1    1    2    0  501 -0.38769080035E+03  0.17989512788E+03 -0.25944459194E+03  0.50000000000E+03  0.47000000000E+01 0.  1.
</event>
<event>
 4    1  0.4838534E-004  0.1000000E+04  0.7546771E-02  0.8684367E-01
         11   -1    0    0    0    0  0.00000000000E+00  0.00000000000E+00  0.50000000000E+03  0.50000000000E+03  0.00000000000E+00 0. -1.
        -11   -1    0    0    0    0 -0.00000000000E+00 -0.00000000000E+00 -0.50000000000E+03  0.50000000000E+03  0.00000000000E+00 0.  1.
          5    1    1    2  501    0  0.46451634321E+02  0.18227899622E+03  0.46324348156E+03  0.50000000000E+03  0.47000000000E+01 0. -1.
         -5    1    1    2    0  501 -0.46451634321E+02 -0.18227899622E+03 -0.46324348156E+03  0.50000000000E+03  0.47000000000E+01 0.  1.
</event>
<event>
 4    1  0.4838534E-004  0.1000000E+04  0.7546771E-02  0.8684367E-01
         11   -1    0    0    0    0  0.00000000000E+00  0.00000000000E+00  0.50000000000E+03  0.50000000000E+03  0.00000000000E+00 0. -1.
        -11   -1    0    0    0    0 -0.00000000000E+00 -0.00000000000E+00 -0.50000000000E+03  0.50000000000E+03  0.00000000000E+00 0.  1.
          5    1    1    2  501    0 -0.43000906233E+03  0.19822186665E+03 -0.16055593384E+03  0.50000000000E+03  0.47000000000E+01 0. -1.
         -5    1    1    2    0  501  0.43000906233E+03 -0.19822186665E+03  0.16055593384E+03  0.50000000000E+03  0.47000000000E+01 0.  1.
</event>
<event>
 4    1  0.4838534E-004  0.1000000E+04  0.7546771E-02  0.8684367E-01
         11   -1    0    0    0    0  0.00000000000E+00  0.00000000000E+00  0.50000000000E+03  0.50000000000E+03  0.00000000000E+00 0. -1.
        -11   -1    0    0    0    0 -0.00000000000E+00 -0.00000000000E+00 -0.50000000000E+03  0.50000000000E+03  0.00000000000E+00 0.  1.
          5    1    1    2  501    0 -0.10469736490E+03 -0.58022224417E+02 -0.48543773366E+03  0.50000000000E+03  0.47000000000E+01 0.  1.
         -5    1    1    2    0  501  0.10469736490E+03  0.58022224417E+02  0.48543773366E+03  0.50000000000E+03  0.47000000000E+01 0. -1.
</event>
<event>
 4    1  0.4838534E-004  0.1000000E+04  0.7546771E-02  0.8684367E-01
         11   -1    0    0    0    0  0.00000000000E+00  0.00000000000E+00  0.50000000000E+03  0.50000000000E+03  0.00000000000E+00 0. -1.
        -11   -1    0    0    0    0 -0.00000000000E+00 -0.00000000000E+00 -0.50000000000E+03  0.50000000000E+03  0.00000000000E+00 0.  1.
          5    1    1    2  501    0 -0.15771200653E+03  0.38601051391E+03  0.27586358250E+03  0.50000000000E+03  0.47000000000E+01 0. -1.
         -5    1    1    2    0  501  0.15771200653E+03 -0.38601051391E+03 -0.27586358250E+03  0.50000000000E+03  0.47000000000E+01 0.  1.
</event>
<event>
 4    1  0.4838534E-004  0.1000000E+04  0.7546771E-02  0.8684367E-01
         11   -1    0    0    0    0  0.00000000000E+00  0.00000000000E+00  0.50000000000E+03  0.50000000000E+03  0.00000000000E+00 0. -1.
        -11   -1    0    0    0    0 -0.00000000000E+00 -0.00000000000E+00 -0.50000000000E+03  0.50000000000E+03  0.00000000000E+00 0.  1.
          5    1    1    2  501    0  0.13640612823E+03  0.48599961034E+02  0.47854918448E+03  0.50000000000E+03  0.47000000000E+01 0. -1.
         -5    1    1    2    0  501 -0.13640612823E+03 -0.48599961034E+02 -0.47854918448E+03  0.50000000000E+03  0.47000000000E+01 0.  1.
</event>
<event>
 4    1  0.4838534E-004  0.1000000E+04  0.7546771E-02  0.8684367E-01
         11   -1    0    0    0    0  0.00000000000E+00  0.00000000000E+00  0.50000000000E+03  0.50000000000E+03  0.00000000000E+00 0. -1.
        -11   -1    0    0    0    0 -0.00000000000E+00 -0.00000000000E+00 -0.50000000000E+03  0.50000000000E+03  0.00000000000E+00 0.  1.
          5    1    1    2  501    0 -0.37871195420E+02  0.24532296681E+02  0.49793759546E+03  0.50000000000E+03  0.47000000000E+01 0. -1.
         -5    1    1    2    0  501  0.37871195420E+02 -0.24532296681E+02 -0.49793759546E+03  0.50000000000E+03  0.47000000000E+01 0.  1.
</event>
<event>
 4    1  0.4838534E-004  0.1000000E+04  0.7546771E-02  0.8684367E-01
         11   -1    0    0    0    0  0.00000000000E+00  0.00000000000E+00  0.50000000000E+03  0.50000000000E+03  0.00000000000E+00 0. -1.
        -11   -1    0    0    0    0 -0.00000000000E+00 -0.00000000000E+00 -0.50000000000E+03  0.50000000000E+03  0.00000000000E+00 0.  1.
          5    1    1    2  501    0  0.19404973692E+01 -0.22508806378E+03  0.44644093452E+03  0.50000000000E+03  0.47000000000E+01 0. -1.
         -5    1    1    2    0  501 -0.19404973692E+01  0.22508806378E+03 -0.44644093452E+03  0.50000000000E+03  0.47000000000E+01 0.  1.
</event>
<event>
 4    1  0.4838534E-004  0.1000000E+04  0.7546771E-02  0.8684367E-01
         11   -1    0    0    0    0  0.00000000000E+00  0.00000000000E+00  0.50000000000E+03  0.50000000000E+03  0.00000000000E+00 0. -1.
        -11   -1    0    0    0    0 -0.00000000000E+00 -0.00000000000E+00 -0.50000000000E+03  0.50000000000E+03  0.00000000000E+00 0.  1.
          5    1    1    2  501    0 -0.16325938371E+03 -0.11761287979E+03  0.45770240784E+03  0.50000000000E+03  0.47000000000E+01 0. -1.
         -5    1    1    2    0  501  0.16325938371E+03  0.11761287979E+03 -0.45770240784E+03  0.50000000000E+03  0.47000000000E+01 0.  1.
</event>
<event>
 4    1  0.4838534E-004  0.1000000E+04  0.7546771E-02  0.8684367E-01
         11   -1    0    0    0    0  0.00000000000E+00  0.00000000000E+00  0.50000000000E+03  0.50000000000E+03  0.00000000000E+00 0.  1.
        -11   -1    0    0    0    0 -0.00000000000E+00 -0.00000000000E+00 -0.50000000000E+03  0.50000000000E+03  0.00000000000E+00 0. -1.
          5    1    1    2  501    0  0.48715145567E+03 -0.85834891642E+02  0.72758096549E+02  0.50000000000E+03  0.47000000000E+01 0.  1.
         -5    1    1    2    0  501 -0.48715145567E+03  0.85834891642E+02 -0.72758096549E+02  0.50000000000E+03  0.47000000000E+01 0. -1.
</event>
<event>
 4    1  0.4838534E-004  0.1000000E+04  0.7546771E-02  0.8684367E-01
         11   -1    0    0    0    0  0.00000000000E+00  0.00000000000E+00  0.50000000000E+03  0.50000000000E+03  0.00000000000E+00 0. -1.
        -11   -1    0    0    0    0 -0.00000000000E+00 -0.00000000000E+00 -0.50000000000E+03  0.50000000000E+03  0.00000000000E+00 0.  1.
          5    1    1    2  501    0  0.56833103995E+02 -0.42268067676E+03 -0.26093860155E+03  0.50000000000E+03  0.47000000000E+01 0. -1.
         -5    1    1    2    0  501 -0.56833103995E+02  0.42268067676E+03  0.26093860155E+03  0.50000000000E+03  0.47000000000E+01 0.  1.
</event>
<event>
 4    1  0.4838534E-004  0.1000000E+04  0.7546771E-02  0.8684367E-01
         11   -1    0    0    0    0  0.00000000000E+00  0.00000000000E+00  0.50000000000E+03  0.50000000000E+03  0.00000000000E+00 0. -1.
        -11   -1    0    0    0    0 -0.00000000000E+00 -0.00000000000E+00 -0.50000000000E+03  0.50000000000E+03  0.00000000000E+00 0.  1.
          5    1    1    2  501    0  0.13016966997E+03  0.39482646649E+03  0.27775137872E+03  0.50000000000E+03  0.47000000000E+01 0. -1.
         -5    1    1    2    0  501 -0.13016966997E+03 -0.39482646649E+03 -0.27775137872E+03  0.50000000000E+03  0.47000000000E+01 0.  1.
</event>
<event>
 4    1  0.4838534E-004  0.1000000E+04  0.7546771E-02  0.8684367E-01
         11   -1    0    0    0    0  0.00000000000E+00  0.00000000000E+00  0.50000000000E+03  0.50000000000E+03  0.00000000000E+00 0. -1.
        -11   -1    0    0    0    0 -0.00000000000E+00 -0.00000000000E+00 -0.50000000000E+03  0.50000000000E+03  0.00000000000E+00 0.  1.
          5    1    1    2  501    0  0.53619303692E+02  0.31012035689E+03  0.38849484490E+03  0.50000000000E+03  0.47000000000E+01 0. -1.
         -5    1    1    2    0  501 -0.53619303692E+02 -0.31012035689E+03 -0.38849484490E+03  0.50000000000E+03  0.47000000000E+01 0.  1.
</event>
<event>
 4    1  0.4838534E-004  0.1000000E+04  0.7546771E-02  0.8684367E-01
         11   -1    0    0    0    0  0.00000000000E+00  0.00000000000E+00  0.50000000000E+03  0.50000000000E+03  0.00000000000E+00 0. -1.
        -11   -1    0    0    0    0 -0.00000000000E+00 -0.00000000000E+00 -0.50000000000E+03  0.50000000000E+03  0.00000000000E+00 0.  1.
          5    1    1    2  501    0 -0.31176049561E+03  0.19563778551E+03  0.33839202157E+03  0.50000000000E+03  0.47000000000E+01 0. -1.
         -5    1    1    2    0  501  0.31176049561E+03 -0.19563778551E+03 -0.33839202157E+03  0.50000000000E+03  0.47000000000E+01 0.  1.
</event>
<event>
 4    1  0.4838534E-004  0.1000000E+04  0.7546771E-02  0.8684367E-01
         11   -1    0    0    0    0  0.00000000000E+00  0.00000000000E+00  0.50000000000E+03  0.50000000000E+03  0.00000000000E+00 0.  1.
        -11   -1    0    0    0    0 -0.00000000000E+00 -0.00000000000E+00 -0.50000000000E+03  0.50000000000E+03  0.00000000000E+00 0. -1.
          5    1    1    2  501    0  0.11862482230E+03  0.47497600803E+03  0.10150789788E+03  0.50000000000E+03  0.47000000000E+01 0. -1.
         -5    1    1    2    0  501 -0.11862482230E+03 -0.47497600803E+03 -0.10150789788E+03  0.50000000000E+03  0.47000000000E+01 0.  1.
</event>
<event>
 4    1  0.4838534E-004  0.1000000E+04  0.7546771E-02  0.8684367E-01
         11   -1    0    0    0    0  0.00000000000E+00  0.00000000000E+00  0.50000000000E+03  0.50000000000E+03  0.00000000000E+00 0. -1.
        -11   -1    0    0    0    0 -0.00000000000E+00 -0.00000000000E+00 -0.50000000000E+03  0.50000000000E+03  0.00000000000E+00 0.  1.
          5    1    1    2  501    0  0.19528306040E+03 -0.18821935462E+03  0.42001894108E+03  0.50000000000E+03  0.47000000000E+01 0. -1.
         -5    1    1    2    0  501 -0.19528306040E+03  0.18821935462E+03 -0.42001894108E+03  0.50000000000E+03  0.47000000000E+01 0.  1.
</event>
<event>
 4    1  0.4838534E-004  0.1000000E+04  0.7546771E-02  0.8684367E-01
         11   -1    0    0    0    0  0.00000000000E+00  0.00000000000E+00  0.50000000000E+03  0.50000000000E+03  0.00000000000E+00 0.  1.
        -11   -1    0    0    0    0 -0.00000000000E+00 -0.00000000000E+00 -0.50000000000E+03  0.50000000000E+03  0.00000000000E+00 0. -1.
          5    1    1    2  501    0  0.24200668246E+03  0.33537668821E+03  0.28095044518E+03  0.50000000000E+03  0.47000000000E+01 0.  1.
         -5    1    1    2    0  501 -0.24200668246E+03 -0.33537668821E+03 -0.28095044518E+03  0.50000000000E+03  0.47000000000E+01 0. -1.
</event>
<event>
 4    1  0.4838534E-004  0.1000000E+04  0.7546771E-02  0.8684367E-01
         11   -1    0    0    0    0  0.00000000000E+00  0.00000000000E+00  0.50000000000E+03  0.50000000000E+03  0.00000000000E+00 0. -1.
        -11   -1    0    0    0    0 -0.00000000000E+00 -0.00000000000E+00 -0.50000000000E+03  0.50000000000E+03  0.00000000000E+00 0.  1.
          5    1    1    2  501    0 -0.27555805082E+03  0.24439597750E+03 -0.33810690145E+03  0.50000000000E+03  0.47000000000E+01 0. -1.
         -5    1    1    2    0  501  0.27555805082E+03 -0.24439597750E+03  0.33810690145E+03  0.50000000000E+03  0.47000000000E+01 0.  1.
</event>
<event>
 4    1  0.4838534E-004  0.1000000E+04  0.7546771E-02  0.8684367E-01
         11   -1    0    0    0    0  0.00000000000E+00  0.00000000000E+00  0.50000000000E+03  0.50000000000E+03  0.00000000000E+00 0. -1.
        -11   -1    0    0    0    0 -0.00000000000E+00 -0.00000000000E+00 -0.50000000000E+03  0.50000000000E+03  0.00000000000E+00 0.  1.
          5    1    1    2  501    0 -0.11571437640E+03  0.93473998338E+02  0.47733709758E+03  0.50000000000E+03  0.47000000000E+01 0. -1.
         -5    1    1    2    0  501  0.11571437640E+03 -0.93473998338E+02 -0.47733709758E+03  0.50000000000E+03  0.47000000000E+01 0.  1.
</event>
<event>
 4    1  0.4838534E-004  0.1000000E+04  0.7546771E-02  0.8684367E-01
         11   -1    0    0    0    0  0.00000000000E+00  0.00000000000E+00  0.50000000000E+03  0.50000000000E+03  0.00000000000E+00 0.  1.
        -11   -1    0    0    0    0 -0.00000000000E+00 -0.00000000000E+00 -0.50000000000E+03  0.50000000000E+03  0.00000000000E+00 0. -1.
          5    1    1    2  501    0  0.21776271890E+03  0.89904333426E+02 -0.44099265197E+03  0.50000000000E+03  0.47000000000E+01 0. -1.
         -5    1    1    2    0  501 -0.21776271890E+03 -0.89904333426E+02  0.44099265197E+03  0.50000000000E+03  0.47000000000E+01 0.  1.
</event>
<event>
 4    1  0.4838534E-004  0.1000000E+04  0.7546771E-02  0.8684367E-01
         11   -1    0    0    0    0  0.00000000000E+00  0.00000000000E+00  0.50000000000E+03  0.50000000000E+03  0.00000000000E+00 0. -1.
        -11   -1    0    0    0    0 -0.00000000000E+00 -0.00000000000E+00 -0.50000000000E+03  0.50000000000E+03  0.00000000000E+00 0.  1.
          5    1    1    2  501    0 -0.22451320504E+03 -0.41306768173E+03  0.17013765330E+03  0.50000000000E+03  0.47000000000E+01 0. -1.
         -5    1    1    2    0  501  0.22451320504E+03  0.41306768173E+03 -0.17013765330E+03  0.50000000000E+03  0.47000000000E+01 0.  1.
</event>
<event>
 4    1  0.4838534E-004  0.1000000E+04  0.7546771E-02  0.8684367E-01
         11   -1    0    0    0    0  0.00000000000E+00  0.00000000000E+00  0.50000000000E+03  0.50000000000E+03  0.00000000000E+00 0. -1.
        -11   -1    0    0    0    0 -0.00000000000E+00 -0.00000000000E+00 -0.50000000000E+03  0.50000000000E+03  0.00000000000E+00 0.  1.
          5    1    1    2  501    0 -0.37755461625E+03  0.58312233198E+02  0.32253698269E+03  0.50000000000E+03  0.47000000000E+01 0. -1.
         -5    1    1    2    0  501  0.37755461625E+03 -0.58312233198E+02 -0.32253698269E+03  0.50000000000E+03  0.47000000000E+01 0.  1.
</event>
<event>
 4    1  0.4838534E-004  0.1000000E+04  0.7546771E-02  0.8684367E-01
         11   -1    0    0    0    0  0.00000000000E+00  0.00000000000E+00  0.50000000000E+03  0.50000000000E+03  0.00000000000E+00 0. -1.
        -11   -1    0    0    0    0 -0.00000000000E+00 -0.00000000000E+00 -0.50000000000E+03  0.50000000000E+03  0.00000000000E+00 0.  1.
          5    1    1    2  501    0  0.33414307976E+03 -0.20903512005E+03  0.30762092067E+03  0.50000000000E+03  0.47000000000E+01 0. -1.
         -5    1    1    2    0  501 -0.33414307976E+03  0.20903512005E+03 -0.30762092067E+03  0.50000000000E+03  0.47000000000E+01 0.  1.
</event>
<event>
 4    1  0.4838534E-004  0.1000000E+04  0.7546771E-02  0.8684367E-01
         11   -1    0    0    0    0  0.00000000000E+00  0.00000000000E+00  0.50000000000E+03  0.50000000000E+03  0.00000000000E+00 0. -1.
        -11   -1    0    0    0    0 -0.00000000000E+00 -0.00000000000E+00 -0.50000000000E+03  0.50000000000E+03  0.00000000000E+00 0.  1.
          5    1    1    2  501    0 -0.49385898462E+03  0.76591752824E+02 -0.14660037810E+02  0.50000000000E+03  0.47000000000E+01 0. -1.
         -5    1    1    2    0  501  0.49385898462E+03 -0.76591752824E+02  0.14660037810E+02  0.50000000000E+03  0.47000000000E+01 0.  1.
</event>
<event>
 4    1  0.4838534E-004  0.1000000E+04  0.7546771E-02  0.8684367E-01
         11   -1    0    0    0    0  0.00000000000E+00  0.00000000000E+00  0.50000000000E+03  0.50000000000E+03  0.00000000000E+00 0. -1.
        -11   -1    0    0    0    0 -0.00000000000E+00 -0.00000000000E+00 -0.50000000000E+03  0.50000000000E+03  0.00000000000E+00 0.  1.
          5    1    1    2  501    0  0.43397827028E+03 -0.15091441521E+03  0.19714362836E+03  0.50000000000E+03  0.47000000000E+01 0. -1.
         -5    1    1    2    0  501 -0.43397827028E+03  0.15091441521E+03 -0.19714362836E+03  0.50000000000E+03  0.47000000000E+01 0.  1.
</event>
<event>
 4    1  0.4838534E-004  0.1000000E+04  0.7546771E-02  0.8684367E-01
         11   -1    0    0    0    0  0.00000000000E+00  0.00000000000E+00  0.50000000000E+03  0.50000000000E+03  0.00000000000E+00 0. -1.
        -11   -1    0    0    0    0 -0.00000000000E+00 -0.00000000000E+00 -0.50000000000E+03  0.50000000000E+03  0.00000000000E+00 0.  1.
          5    1    1    2  501    0  0.19233881784E+03  0.41304866225E+03  0.20585065403E+03  0.50000000000E+03  0.47000000000E+01 0. -1.
         -5    1    1    2    0  501 -0.19233881784E+03 -0.41304866225E+03 -0.20585065403E+03  0.50000000000E+03  0.47000000000E+01 0.  1.
</event>
<event>
 4    1  0.4838534E-004  0.1000000E+04  0.7546771E-02  0.8684367E-01
         11   -1    0    0    0    0  0.00000000000E+00  0.00000000000E+00  0.50000000000E+03  0.50000000000E+03  0.00000000000E+00 0. -1.
        -11   -1    0    0    0    0 -0.00000000000E+00 -0.00000000000E+00 -0.50000000000E+03  0.50000000000E+03  0.00000000000E+00 0.  1.
          5    1    1    2  501    0  0.25860483322E+03  0.10538844252E+03  0.41472246915E+03  0.50000000000E+03  0.47000000000E+01 0. -1.
         -5    1    1    2    0  501 -0.25860483322E+03 -0.10538844252E+03 -0.41472246915E+03  0.50000000000E+03  0.47000000000E+01 0.  1.
</event>
<event>
 4    1  0.4838534E-004  0.1000000E+04  0.7546771E-02  0.8684367E-01
         11   -1    0    0    0    0  0.00000000000E+00  0.00000000000E+00  0.50000000000E+03  0.50000000000E+03  0.00000000000E+00 0. -1.
        -11   -1    0    0    0    0 -0.00000000000E+00 -0.00000000000E+00 -0.50000000000E+03  0.50000000000E+03  0.00000000000E+00 0.  1.
          5    1    1    2  501    0  0.48782776836E+03 -0.61453312840E+02  0.90694370055E+02  0.50000000000E+03  0.47000000000E+01 0. -1.
         -5    1    1    2    0  501 -0.48782776836E+03  0.61453312840E+02 -0.90694370055E+02  0.50000000000E+03  0.47000000000E+01 0.  1.
</event>
<event>
 4    1  0.4838534E-004  0.1000000E+04  0.7546771E-02  0.8684367E-01
         11   -1    0    0    0    0  0.00000000000E+00  0.00000000000E+00  0.50000000000E+03  0.50000000000E+03  0.00000000000E+00 0. -1.
        -11   -1    0    0    0    0 -0.00000000000E+00 -0.00000000000E+00 -0.50000000000E+03  0.50000000000E+03  0.00000000000E+00 0.  1.
          5    1    1    2  501    0 -0.35121496948E+03 -0.35582822630E+03  0.34969380396E+01  0.50000000000E+03  0.47000000000E+01 0. -1.
         -5    1    1    2    0  501  0.35121496948E+03  0.35582822630E+03 -0.34969380396E+01  0.50000000000E+03  0.47000000000E+01 0.  1.
</event>
<event>
 4    1  0.4838534E-004  0.1000000E+04  0.7546771E-02  0.8684367E-01
         11   -1    0    0    0    0  0.00000000000E+00  0.00000000000E+00  0.50000000000E+03  0.50000000000E+03  0.00000000000E+00 0.  1.
        -11   -1    0    0    0    0 -0.00000000000E+00 -0.00000000000E+00 -0.50000000000E+03  0.50000000000E+03  0.00000000000E+00 0. -1.
          5    1    1    2  501    0 -0.37148142171E+03 -0.29261241355E+03  0.16234974210E+03  0.50000000000E+03  0.47000000000E+01 0.  1.
         -5    1    1    2    0  501  0.37148142171E+03  0.29261241355E+03 -0.16234974210E+03  0.50000000000E+03  0.47000000000E+01 0. -1.
</event>
<event>
 4    1  0.4838534E-004  0.1000000E+04  0.7546771E-02  0.8684367E-01
         11   -1    0    0    0    0  0.00000000000E+00  0.00000000000E+00  0.50000000000E+03  0.50000000000E+03  0.00000000000E+00 0. -1.
        -11   -1    0    0    0    0 -0.00000000000E+00 -0.00000000000E+00 -0.50000000000E+03  0.50000000000E+03  0.00000000000E+00 0.  1.
          5    1    1    2  501    0 -0.10002234679E+03  0.50216340310E+02  0.48729022082E+03  0.50000000000E+03  0.47000000000E+01 0. -1.
         -5    1    1    2    0  501  0.10002234679E+03 -0.50216340310E+02 -0.48729022082E+03  0.50000000000E+03  0.47000000000E+01 0.  1.
</event>
<event>
 4    1  0.4838534E-004  0.1000000E+04  0.7546771E-02  0.8684367E-01
         11   -1    0    0    0    0  0.00000000000E+00  0.00000000000E+00  0.50000000000E+03  0.50000000000E+03  0.00000000000E+00 0. -1.
        -11   -1    0    0    0    0 -0.00000000000E+00 -0.00000000000E+00 -0.50000000000E+03  0.50000000000E+03  0.00000000000E+00 0.  1.
          5    1    1    2  501    0  0.31526742690E+03  0.38675145393E+03  0.31743856368E+02  0.50000000000E+03  0.47000000000E+01 0. -1.
         -5    1    1    2    0  501 -0.31526742690E+03 -0.38675145393E+03 -0.31743856368E+02  0.50000000000E+03  0.47000000000E+01 0.  1.
</event>
<event>
 4    1  0.4838534E-004  0.1000000E+04  0.7546771E-02  0.8684367E-01
         11   -1    0    0    0    0  0.00000000000E+00  0.00000000000E+00  0.50000000000E+03  0.50000000000E+03  0.00000000000E+00 0. -1.
        -11   -1    0    0    0    0 -0.00000000000E+00 -0.00000000000E+00 -0.50000000000E+03  0.50000000000E+03  0.00000000000E+00 0.  1.
          5    1    1    2  501    0  0.79986906525E+02  0.36898808050E+03  0.32776180563E+03  0.50000000000E+03  0.47000000000E+01 0. -1.
         -5    1    1    2    0  501 -0.79986906525E+02 -0.36898808050E+03 -0.32776180563E+03  0.50000000000E+03  0.47000000000E+01 0.  1.
</event>
<event>
 4    1  0.4838534E-004  0.1000000E+04  0.7546771E-02  0.8684367E-01
         11   -1    0    0    0    0  0.00000000000E+00  0.00000000000E+00  0.50000000000E+03  0.50000000000E+03  0.00000000000E+00 0.  1.
        -11   -1    0    0    0    0 -0.00000000000E+00 -0.00000000000E+00 -0.50000000000E+03  0.50000000000E+03  0.00000000000E+00 0. -1.
          5    1    1    2  501    0 -0.18174988459E+03 -0.44115281865E+03 -0.14942918070E+03  0.50000000000E+03  0.47000000000E+01 0.  1.
         -5    1    1    2    0  501  0.18174988459E+03  0.44115281865E+03  0.14942918070E+03  0.50000000000E+03  0.47000000000E+01 0. -1.
</event>
<event>
 4    1  0.4838534E-004  0.1000000E+04  0.7546771E-02  0.8684367E-01
         11   -1    0    0    0    0  0.00000000000E+00  0.00000000000E+00  0.50000000000E+03  0.50000000000E+03  0.00000000000E+00 0. -1.
        -11   -1    0    0    0    0 -0.00000000000E+00 -0.00000000000E+00 -0.50000000000E+03  0.50000000000E+03  0.00000000000E+00 0.  1.
          5    1    1    2  501    0  0.32248561407E+03  0.35996722658E+02  0.38037504476E+03  0.50000000000E+03  0.47000000000E+01 0. -1.
         -5    1    1    2    0  501 -0.32248561407E+03 -0.35996722658E+02 -0.38037504476E+03  0.50000000000E+03  0.47000000000E+01 0.  1.
</event>
<event>
 4    1  0.4838534E-004  0.1000000E+04  0.7546771E-02  0.8684367E-01
         11   -1    0    0    0    0  0.00000000000E+00  0.00000000000E+00  0.50000000000E+03  0.50000000000E+03  0.00000000000E+00 0. -1.
        -11   -1    0    0    0    0 -0.00000000000E+00 -0.00000000000E+00 -0.50000000000E+03  0.50000000000E+03  0.00000000000E+00 0.  1.
          5    1    1    2  501    0 -0.36019042548E+03  0.23977750341E+03  0.25049454336E+03  0.50000000000E+03  0.47000000000E+01 0. -1.
         -5    1    1    2    0  501  0.36019042548E+03 -0.23977750341E+03 -0.25049454336E+03  0.50000000000E+03  0.47000000000E+01 0.  1.
</event>
<event>
 4    1  0.4838534E-004  0.1000000E+04  0.7546771E-02  0.8684367E-01
         11   -1    0    0    0    0  0.00000000000E+00  0.00000000000E+00  0.50000000000E+03  0.50000000000E+03  0.00000000000E+00 0. -1.
        -11   -1    0    0    0    0 -0.00000000000E+00 -0.00000000000E+00 -0.50000000000E+03  0.50000000000E+03  0.00000000000E+00 0.  1.
          5    1    1    2  501    0  0.14728545235E+03 -0.38021164724E+03  0.28935101318E+03  0.50000000000E+03  0.47000000000E+01 0. -1.
         -5    1    1    2    0  501 -0.14728545235E+03  0.38021164724E+03 -0.28935101318E+03  0.50000000000E+03  0.47000000000E+01 0.  1.
</event>
<event>
 4    1  0.4838534E-004  0.1000000E+04  0.7546771E-02  0.8684367E-01
         11   -1    0    0    0    0  0.00000000000E+00  0.00000000000E+00  0.50000000000E+03  0.50000000000E+03  0.00000000000E+00 0. -1.
        -11   -1    0    0    0    0 -0.00000000000E+00 -0.00000000000E+00 -0.50000000000E+03  0.50000000000E+03  0.00000000000E+00 0.  1.
          5    1    1    2  501    0 -0.34560981963E+02  0.42071229188E+03  0.26792651229E+03  0.50000000000E+03  0.47000000000E+01 0. -1.
         -5    1    1    2    0  501  0.34560981963E+02 -0.42071229188E+03 -0.26792651229E+03  0.50000000000E+03  0.47000000000E+01 0.  1.
</event>
<event>
 4    1  0.4838534E-004  0.1000000E+04  0.7546771E-02  0.8684367E-01
         11   -1    0    0    0    0  0.00000000000E+00  0.00000000000E+00  0.50000000000E+03  0.50000000000E+03  0.00000000000E+00 0. -1.
        -11   -1    0    0    0    0 -0.00000000000E+00 -0.00000000000E+00 -0.50000000000E+03  0.50000000000E+03  0.00000000000E+00 0.  1.
          5    1    1    2  501    0 -0.18006145258E+03 -0.13843941042E+03  0.44541027485E+03  0.50000000000E+03  0.47000000000E+01 0. -1.
         -5    1    1    2    0  501  0.18006145258E+03  0.13843941042E+03 -0.44541027485E+03  0.50000000000E+03  0.47000000000E+01 0.  1.
</event>
<event>
 4    1  0.4838534E-004  0.1000000E+04  0.7546771E-02  0.8684367E-01
         11   -1    0    0    0    0  0.00000000000E+00  0.00000000000E+00  0.50000000000E+03  0.50000000000E+03  0.00000000000E+00 0. -1.
        -11   -1    0    0    0    0 -0.00000000000E+00 -0.00000000000E+00 -0.50000000000E+03  0.50000000000E+03  0.00000000000E+00 0.  1.
          5    1    1    2  501    0  0.11156861247E+03 -0.27146874205E+03  0.40476545900E+03  0.50000000000E+03  0.47000000000E+01 0. -1.
         -5    1    1    2    0  501 -0.11156861247E+03  0.27146874205E+03 -0.40476545900E+03  0.50000000000E+03  0.47000000000E+01 0.  1.
</event>
<event>
 4    1  0.4838534E-004  0.1000000E+04  0.7546771E-02  0.8684367E-01
         11   -1    0    0    0    0  0.00000000000E+00  0.00000000000E+00  0.50000000000E+03  0.50000000000E+03  0.00000000000E+00 0.  1.
        -11   -1    0    0    0    0 -0.00000000000E+00 -0.00000000000E+00 -0.50000000000E+03  0.50000000000E+03  0.00000000000E+00 0. -1.
          5    1    1    2  501    0  0.38541789584E+03 -0.23415182145E+03  0.21587931831E+03  0.50000000000E+03  0.47000000000E+01 0.  1.
         -5    1    1    2    0  501 -0.38541789584E+03  0.23415182145E+03 -0.21587931831E+03  0.50000000000E+03  0.47000000000E+01 0. -1.
</event>
<event>
 4    1  0.4838534E-004  0.1000000E+04  0.7546771E-02  0.8684367E-01
         11   -1    0    0    0    0  0.00000000000E+00  0.00000000000E+00  0.50000000000E+03  0.50000000000E+03  0.00000000000E+00 0. -1.
        -11   -1    0    0    0    0 -0.00000000000E+00 -0.00000000000E+00 -0.50000000000E+03  0.50000000000E+03  0.00000000000E+00 0.  1.
          5    1    1    2  501    0 -0.20826598124E+02 -0.37654758460E+03  0.32826221126E+03  0.50000000000E+03  0.47000000000E+01 0. -1.
         -5    1    1    2    0  501  0.20826598124E+02  0.37654758460E+03 -0.32826221126E+03  0.50000000000E+03  0.47000000000E+01 0.  1.
</event>
<event>
 4    1  0.4838534E-004  0.1000000E+04  0.7546771E-02  0.8684367E-01
         11   -1    0    0    0    0  0.00000000000E+00  0.00000000000E+00  0.50000000000E+03  0.50000000000E+03  0.00000000000E+00 0. -1.
        -11   -1    0    0    0    0 -0.00000000000E+00 -0.00000000000E+00 -0.50000000000E+03  0.50000000000E+03  0.00000000000E+00 0.  1.
          5    1    1    2  501    0 -0.31738538172E+03  0.16501806838E+03 -0.34930426075E+03  0.50000000000E+03  0.47000000000E+01 0. -1.
         -5    1    1    2    0  501  0.31738538172E+03 -0.16501806838E+03  0.34930426075E+03  0.50000000000E+03  0.47000000000E+01 0.  1.
</event>
<event>
 4    1  0.4838534E-004  0.1000000E+04  0.7546771E-02  0.8684367E-01
         11   -1    0    0    0    0  0.00000000000E+00  0.00000000000E+00  0.50000000000E+03  0.50000000000E+03  0.00000000000E+00 0. -1.
        -11   -1    0    0    0    0 -0.00000000000E+00 -0.00000000000E+00 -0.50000000000E+03  0.50000000000E+03  0.00000000000E+00 0.  1.
          5    1    1    2  501    0 -0.28539827107E+03 -0.35671143540E+03  0.20318141826E+03  0.50000000000E+03  0.47000000000E+01 0. -1.
         -5    1    1    2    0  501  0.28539827107E+03  0.35671143540E+03 -0.20318141826E+03  0.50000000000E+03  0.47000000000E+01 0.  1.
</event>
<event>
 4    1  0.4838534E-004  0.1000000E+04  0.7546771E-02  0.8684367E-01
         11   -1    0    0    0    0  0.00000000000E+00  0.00000000000E+00  0.50000000000E+03  0.50000000000E+03  0.00000000000E+00 0. -1.
        -11   -1    0    0    0    0 -0.00000000000E+00 -0.00000000000E+00 -0.50000000000E+03  0.50000000000E+03  0.00000000000E+00 0.  1.
          5    1    1    2  501    0 -0.35069032024E+03 -0.27631247830E+03  0.22504582562E+03  0.50000000000E+03  0.47000000000E+01 0. -1.
         -5    1    1    2    0  501  0.35069032024E+03  0.27631247830E+03 -0.22504582562E+03  0.50000000000E+03  0.47000000000E+01 0.  1.
</event>
<event>
 4    1  0.4838534E-004  0.1000000E+04  0.7546771E-02  0.8684367E-01
         11   -1    0    0    0    0  0.00000000000E+00  0.00000000000E+00  0.50000000000E+03  0.50000000000E+03  0.00000000000E+00 0. -1.
        -11   -1    0    0    0    0 -0.00000000000E+00 -0.00000000000E+00 -0.50000000000E+03  0.50000000000E+03  0.00000000000E+00 0.  1.
          5    1    1    2  501    0  0.65319426903E+02 -0.48409485540E+03 -0.10659950021E+03  0.50000000000E+03  0.47000000000E+01 0. -1.
         -5    1    1    2    0  501 -0.65319426903E+02  0.48409485540E+03  0.10659950021E+03  0.50000000000E+03  0.47000000000E+01 0.  1.
</event>
<event>
 4    1  0.4838534E-004  0.1000000E+04  0.7546771E-02  0.8684367E-01
         11   -1    0    0    0    0  0.00000000000E+00  0.00000000000E+00  0.50000000000E+03  0.50000000000E+03  0.00000000000E+00 0.  1.
        -11   -1    0    0    0    0 -0.00000000000E+00 -0.00000000000E+00 -0.50000000000E+03  0.50000000000E+03  0.00000000000E+00 0. -1.
          5    1    1    2  501    0  0.29464411075E+03  0.39900367282E+03  0.62919210678E+02  0.50000000000E+03  0.47000000000E+01 0.  1.
         -5    1    1    2    0  501 -0.29464411075E+03 -0.39900367282E+03 -0.62919210678E+02  0.50000000000E+03  0.47000000000E+01 0. -1.
</event>
<event>
 4    1  0.4838534E-004  0.1000000E+04  0.7546771E-02  0.8684367E-01
         11   -1    0    0    0    0  0.00000000000E+00  0.00000000000E+00  0.50000000000E+03  0.50000000000E+03  0.00000000000E+00 0. -1.
        -11   -1    0    0    0    0 -0.00000000000E+00 -0.00000000000E+00 -0.50000000000E+03  0.50000000000E+03  0.00000000000E+00 0.  1.
          5    1    1    2  501    0  0.24047132470E+03 -0.31473842320E+03  0.30510846753E+03  0.50000000000E+03  0.47000000000E+01 0. -1.
         -5    1    1    2    0  501 -0.24047132470E+03  0.31473842320E+03 -0.30510846753E+03  0.50000000000E+03  0.47000000000E+01 0.  1.
</event>
<event>
 4    1  0.4838534E-004  0.1000000E+04  0.7546771E-02  0.8684367E-01
         11   -1    0    0    0    0  0.00000000000E+00  0.00000000000E+00  0.50000000000E+03  0.50000000000E+03  0.00000000000E+00 0. -1.
        -11   -1    0    0    0    0 -0.00000000000E+00 -0.00000000000E+00 -0.50000000000E+03  0.50000000000E+03  0.00000000000E+00 0.  1.
          5    1    1    2  501    0  0.16533413220E+03  0.45761783564E+03  0.11501500437E+03  0.50000000000E+03  0.47000000000E+01 0. -1.
         -5    1    1    2    0  501 -0.16533413220E+03 -0.45761783564E+03 -0.11501500437E+03  0.50000000000E+03  0.47000000000E+01 0.  1.
</event>
<event>
 4    1  0.4838534E-004  0.1000000E+04  0.7546771E-02  0.8684367E-01
         11   -1    0    0    0    0  0.00000000000E+00  0.00000000000E+00  0.50000000000E+03  0.50000000000E+03  0.00000000000E+00 0. -1.
        -11   -1    0    0    0    0 -0.00000000000E+00 -0.00000000000E+00 -0.50000000000E+03  0.50000000000E+03  0.00000000000E+00 0.  1.
          5    1    1    2  501    0  0.36199604135E+03 -0.22194163573E+03  0.26396720701E+03  0.50000000000E+03  0.47000000000E+01 0. -1.
         -5    1    1    2    0  501 -0.36199604135E+03  0.22194163573E+03 -0.26396720701E+03  0.50000000000E+03  0.47000000000E+01 0.  1.
</event>
<event>
 4    1  0.4838534E-004  0.1000000E+04  0.7546771E-02  0.8684367E-01
         11   -1    0    0    0    0  0.00000000000E+00  0.00000000000E+00  0.50000000000E+03  0.50000000000E+03  0.00000000000E+00 0. -1.
        -11   -1    0    0    0    0 -0.00000000000E+00 -0.00000000000E+00 -0.50000000000E+03  0.50000000000E+03  0.00000000000E+00 0.  1.
          5    1    1    2  501    0  0.38924218513E+03  0.16436524887E+03  0.26730599746E+03  0.50000000000E+03  0.47000000000E+01 0. -1.
         -5    1    1    2    0  501 -0.38924218513E+03 -0.16436524887E+03 -0.26730599746E+03  0.50000000000E+03  0.47000000000E+01 0.  1.
</event>
<event>
 4    1  0.4838534E-004  0.1000000E+04  0.7546771E-02  0.8684367E-01
         11   -1    0    0    0    0  0.00000000000E+00  0.00000000000E+00  0.50000000000E+03  0.50000000000E+03  0.00000000000E+00 0. -1.
        -11   -1    0    0    0    0 -0.00000000000E+00 -0.00000000000E+00 -0.50000000000E+03  0.50000000000E+03  0.00000000000E+00 0.  1.
          5    1    1    2  501    0  0.40484504508E+03  0.23204219160E+03  0.17954058258E+03  0.50000000000E+03  0.47000000000E+01 0. -1.
         -5    1    1    2    0  501 -0.40484504508E+03 -0.23204219160E+03 -0.17954058258E+03  0.50000000000E+03  0.47000000000E+01 0.  1.
</event>
<event>
 4    1  0.4838534E-004  0.1000000E+04  0.7546771E-02  0.8684367E-01
         11   -1    0    0    0    0  0.00000000000E+00  0.00000000000E+00  0.50000000000E+03  0.50000000000E+03  0.00000000000E+00 0. -1.
        -11   -1    0    0    0    0 -0.00000000000E+00 -0.00000000000E+00 -0.50000000000E+03  0.50000000000E+03  0.00000000000E+00 0.  1.
          5    1    1    2  501    0  0.22534104673E+03  0.43919975340E+03  0.79390800911E+02  0.50000000000E+03  0.47000000000E+01 0. -1.
         -5    1    1    2    0  501 -0.22534104673E+03 -0.43919975340E+03 -0.79390800911E+02  0.50000000000E+03  0.47000000000E+01 0.  1.
</event>
<event>
 4    1  0.4838534E-004  0.1000000E+04  0.7546771E-02  0.8684367E-01
         11   -1    0    0    0    0  0.00000000000E+00  0.00000000000E+00  0.50000000000E+03  0.50000000000E+03  0.00000000000E+00 0. -1.
        -11   -1    0    0    0    0 -0.00000000000E+00 -0.00000000000E+00 -0.50000000000E+03  0.50000000000E+03  0.00000000000E+00 0.  1.
          5    1    1    2  501    0  0.26639226037E+03 -0.23599523112E+03  0.35116851297E+03  0.50000000000E+03  0.47000000000E+01 0. -1.
         -5    1    1    2    0  501 -0.26639226037E+03  0.23599523112E+03 -0.35116851297E+03  0.50000000000E+03  0.47000000000E+01 0.  1.
</event>
<event>
 4    1  0.4838534E-004  0.1000000E+04  0.7546771E-02  0.8684367E-01
         11   -1    0    0    0    0  0.00000000000E+00  0.00000000000E+00  0.50000000000E+03  0.50000000000E+03  0.00000000000E+00 0. -1.
        -11   -1    0    0    0    0 -0.00000000000E+00 -0.00000000000E+00 -0.50000000000E+03  0.50000000000E+03  0.00000000000E+00 0.  1.
          5    1    1    2  501    0  0.26341199614E+03 -0.34174953530E+03  0.25258520427E+03  0.50000000000E+03  0.47000000000E+01 0. -1.
         -5    1    1    2    0  501 -0.26341199614E+03  0.34174953530E+03 -0.25258520427E+03  0.50000000000E+03  0.47000000000E+01 0.  1.
</event>
<event>
 4    1  0.4838534E-004  0.1000000E+04  0.7546771E-02  0.8684367E-01
         11   -1    0    0    0    0  0.00000000000E+00  0.00000000000E+00  0.50000000000E+03  0.50000000000E+03  0.00000000000E+00 0. -1.
        -11   -1    0    0    0    0 -0.00000000000E+00 -0.00000000000E+00 -0.50000000000E+03  0.50000000000E+03  0.00000000000E+00 0.  1.
          5    1    1    2  501    0 -0.15338891662E+00 -0.36004518823E+03  0.34690827160E+03  0.50000000000E+03  0.47000000000E+01 0. -1.
         -5    1    1    2    0  501  0.15338891662E+00  0.36004518823E+03 -0.34690827160E+03  0.50000000000E+03  0.47000000000E+01 0.  1.
</event>
<event>
 4    1  0.4838534E-004  0.1000000E+04  0.7546771E-02  0.8684367E-01
         11   -1    0    0    0    0  0.00000000000E+00  0.00000000000E+00  0.50000000000E+03  0.50000000000E+03  0.00000000000E+00 0. -1.
        -11   -1    0    0    0    0 -0.00000000000E+00 -0.00000000000E+00 -0.50000000000E+03  0.50000000000E+03  0.00000000000E+00 0.  1.
          5    1    1    2  501    0 -0.25517041290E+03 -0.39782620489E+03  0.16309592601E+03  0.50000000000E+03  0.47000000000E+01 0. -1.
         -5    1    1    2    0  501  0.25517041290E+03  0.39782620489E+03 -0.16309592601E+03  0.50000000000E+03  0.47000000000E+01 0.  1.
</event>
<event>
 4    1  0.4838534E-004  0.1000000E+04  0.7546771E-02  0.8684367E-01
         11   -1    0    0    0    0  0.00000000000E+00  0.00000000000E+00  0.50000000000E+03  0.50000000000E+03  0.00000000000E+00 0. -1.
        -11   -1    0    0    0    0 -0.00000000000E+00 -0.00000000000E+00 -0.50000000000E+03  0.50000000000E+03  0.00000000000E+00 0.  1.
          5    1    1    2  501    0 -0.42392401741E+03 -0.13745634665E+03 -0.22665412026E+03  0.50000000000E+03  0.47000000000E+01 0. -1.
         -5    1    1    2    0  501  0.42392401741E+03  0.13745634665E+03  0.22665412026E+03  0.50000000000E+03  0.47000000000E+01 0.  1.
</event>
<event>
 4    1  0.4838534E-004  0.1000000E+04  0.7546771E-02  0.8684367E-01
         11   -1    0    0    0    0  0.00000000000E+00  0.00000000000E+00  0.50000000000E+03  0.50000000000E+03  0.00000000000E+00 0. -1.
        -11   -1    0    0    0    0 -0.00000000000E+00 -0.00000000000E+00 -0.50000000000E+03  0.50000000000E+03  0.00000000000E+00 0.  1.
          5    1    1    2  501    0  0.20121488172E+03 -0.35540572388E+02  0.45631934990E+03  0.50000000000E+03  0.47000000000E+01 0. -1.
         -5    1    1    2    0  501 -0.20121488172E+03  0.35540572388E+02 -0.45631934990E+03  0.50000000000E+03  0.47000000000E+01 0.  1.
</event>
<event>
 4    1  0.4838534E-004  0.1000000E+04  0.7546771E-02  0.8684367E-01
         11   -1    0    0    0    0  0.00000000000E+00  0.00000000000E+00  0.50000000000E+03  0.50000000000E+03  0.00000000000E+00 0. -1.
        -11   -1    0    0    0    0 -0.00000000000E+00 -0.00000000000E+00 -0.50000000000E+03  0.50000000000E+03  0.00000000000E+00 0.  1.
          5    1    1    2  501    0 -0.30260497950E+03  0.36643312469E+03  0.15535411648E+03  0.50000000000E+03  0.47000000000E+01 0. -1.
         -5    1    1    2    0  501  0.30260497950E+03 -0.36643312469E+03 -0.15535411648E+03  0.50000000000E+03  0.47000000000E+01 0.  1.
</event>
<event>
 4    1  0.4838534E-004  0.1000000E+04  0.7546771E-02  0.8684367E-01
         11   -1    0    0    0    0  0.00000000000E+00  0.00000000000E+00  0.50000000000E+03  0.50000000000E+03  0.00000000000E+00 0. -1.
        -11   -1    0    0    0    0 -0.00000000000E+00 -0.00000000000E+00 -0.50000000000E+03  0.50000000000E+03  0.00000000000E+00 0.  1.
          5    1    1    2  501    0 -0.43455463737E+03  0.24528614072E+03 -0.31223169444E+02  0.50000000000E+03  0.47000000000E+01 0. -1.
         -5    1    1    2    0  501  0.43455463737E+03 -0.24528614072E+03  0.31223169444E+02  0.50000000000E+03  0.47000000000E+01 0.  1.
</event>
<event>
 4    1  0.4838534E-004  0.1000000E+04  0.7546771E-02  0.8684367E-01
         11   -1    0    0    0    0  0.00000000000E+00  0.00000000000E+00  0.50000000000E+03  0.50000000000E+03  0.00000000000E+00 0. -1.
        -11   -1    0    0    0    0 -0.00000000000E+00 -0.00000000000E+00 -0.50000000000E+03  0.50000000000E+03  0.00000000000E+00 0.  1.
          5    1    1    2  501    0 -0.10910555279E+03  0.30167666525E+03  0.38349064916E+03  0.50000000000E+03  0.47000000000E+01 0. -1.
         -5    1    1    2    0  501  0.10910555279E+03 -0.30167666525E+03 -0.38349064916E+03  0.50000000000E+03  0.47000000000E+01 0.  1.
</event>
<event>
 4    1  0.4838534E-004  0.1000000E+04  0.7546771E-02  0.8684367E-01
         11   -1    0    0    0    0  0.00000000000E+00  0.00000000000E+00  0.50000000000E+03  0.50000000000E+03  0.00000000000E+00 0. -1.
        -11   -1    0    0    0    0 -0.00000000000E+00 -0.00000000000E+00 -0.50000000000E+03  0.50000000000E+03  0.00000000000E+00 0.  1.
          5    1    1    2  501    0 -0.40588288425E+02  0.48067807710E+03  0.13144994118E+03  0.50000000000E+03  0.47000000000E+01 0. -1.
         -5    1    1    2    0  501  0.40588288425E+02 -0.48067807710E+03 -0.13144994118E+03  0.50000000000E+03  0.47000000000E+01 0.  1.
</event>
<event>
 4    1  0.4838534E-004  0.1000000E+04  0.7546771E-02  0.8684367E-01
         11   -1    0    0    0    0  0.00000000000E+00  0.00000000000E+00  0.50000000000E+03  0.50000000000E+03  0.00000000000E+00 0. -1.
        -11   -1    0    0    0    0 -0.00000000000E+00 -0.00000000000E+00 -0.50000000000E+03  0.50000000000E+03  0.00000000000E+00 0.  1.
          5    1    1    2  501    0  0.47565833620E+03 -0.33830721550E+02 -0.15027487976E+03  0.50000000000E+03  0.47000000000E+01 0. -1.
         -5    1    1    2    0  501 -0.47565833620E+03  0.33830721550E+02  0.15027487976E+03  0.50000000000E+03  0.47000000000E+01 0.  1.
</event>
<event>
 4    1  0.4838534E-004  0.1000000E+04  0.7546771E-02  0.8684367E-01
         11   -1    0    0    0    0  0.00000000000E+00  0.00000000000E+00  0.50000000000E+03  0.50000000000E+03  0.00000000000E+00 0. -1.
        -11   -1    0    0    0    0 -0.00000000000E+00 -0.00000000000E+00 -0.50000000000E+03  0.50000000000E+03  0.00000000000E+00 0.  1.
          5    1    1    2  501    0  0.28178038896E+03  0.33375710656E+03  0.24327744700E+03  0.50000000000E+03  0.47000000000E+01 0. -1.
         -5    1    1    2    0  501 -0.28178038896E+03 -0.33375710656E+03 -0.24327744700E+03  0.50000000000E+03  0.47000000000E+01 0.  1.
</event>
<event>
 4    1  0.4838534E-004  0.1000000E+04  0.7546771E-02  0.8684367E-01
         11   -1    0    0    0    0  0.00000000000E+00  0.00000000000E+00  0.50000000000E+03  0.50000000000E+03  0.00000000000E+00 0. -1.
        -11   -1    0    0    0    0 -0.00000000000E+00 -0.00000000000E+00 -0.50000000000E+03  0.50000000000E+03  0.00000000000E+00 0.  1.
          5    1    1    2  501    0 -0.30672811979E+03 -0.23714788098E+02  0.39412355849E+03  0.50000000000E+03  0.47000000000E+01 0. -1.
         -5    1    1    2    0  501  0.30672811979E+03  0.23714788098E+02 -0.39412355849E+03  0.50000000000E+03  0.47000000000E+01 0.  1.
</event>
<event>
 4    1  0.4838534E-004  0.1000000E+04  0.7546771E-02  0.8684367E-01
         11   -1    0    0    0    0  0.00000000000E+00  0.00000000000E+00  0.50000000000E+03  0.50000000000E+03  0.00000000000E+00 0. -1.
        -11   -1    0    0    0    0 -0.00000000000E+00 -0.00000000000E+00 -0.50000000000E+03  0.50000000000E+03  0.00000000000E+00 0.  1.
          5    1    1    2  501    0 -0.33792330428E+03  0.22057710967E+03  0.29518043484E+03  0.50000000000E+03  0.47000000000E+01 0. -1.
         -5    1    1    2    0  501  0.33792330428E+03 -0.22057710967E+03 -0.29518043484E+03  0.50000000000E+03  0.47000000000E+01 0.  1.
</event>
<event>
 4    1  0.4838534E-004  0.1000000E+04  0.7546771E-02  0.8684367E-01
         11   -1    0    0    0    0  0.00000000000E+00  0.00000000000E+00  0.50000000000E+03  0.50000000000E+03  0.00000000000E+00 0. -1.
        -11   -1    0    0    0    0 -0.00000000000E+00 -0.00000000000E+00 -0.50000000000E+03  0.50000000000E+03  0.00000000000E+00 0.  1.
          5    1    1    2  501    0 -0.16653821432E+03  0.34663075578E+03  0.31951533973E+03  0.50000000000E+03  0.47000000000E+01 0. -1.
         -5    1    1    2    0  501  0.16653821432E+03 -0.34663075578E+03 -0.31951533973E+03  0.50000000000E+03  0.47000000000E+01 0.  1.
</event>
<event>
 4    1  0.4838534E-004  0.1000000E+04  0.7546771E-02  0.8684367E-01
         11   -1    0    0    0    0  0.00000000000E+00  0.00000000000E+00  0.50000000000E+03  0.50000000000E+03  0.00000000000E+00 0. -1.
        -11   -1    0    0    0    0 -0.00000000000E+00 -0.00000000000E+00 -0.50000000000E+03  0.50000000000E+03  0.00000000000E+00 0.  1.
          5    1    1    2  501    0  0.44350912007E+03 -0.15454379979E+01  0.23081417208E+03  0.50000000000E+03  0.47000000000E+01 0. -1.
         -5    1    1    2    0  501 -0.44350912007E+03  0.15454379979E+01 -0.23081417208E+03  0.50000000000E+03  0.47000000000E+01 0.  1.
</event>
<event>
 4    1  0.4838534E-004  0.1000000E+04  0.7546771E-02  0.8684367E-01
         11   -1    0    0    0    0  0.00000000000E+00  0.00000000000E+00  0.50000000000E+03  0.50000000000E+03  0.00000000000E+00 0. -1.
        -11   -1    0    0    0    0 -0.00000000000E+00 -0.00000000000E+00 -0.50000000000E+03  0.50000000000E+03  0.00000000000E+00 0.  1.
          5    1    1    2  501    0  0.19548056565E+03  0.13939140158E+02  0.45996843242E+03  0.50000000000E+03  0.47000000000E+01 0. -1.
         -5    1    1    2    0  501 -0.19548056565E+03 -0.13939140158E+02 -0.45996843242E+03  0.50000000000E+03  0.47000000000E+01 0.  1.
</event>
<event>
 4    1  0.4838534E-004  0.1000000E+04  0.7546771E-02  0.8684367E-01
         11   -1    0    0    0    0  0.00000000000E+00  0.00000000000E+00  0.50000000000E+03  0.50000000000E+03  0.00000000000E+00 0.  1.
        -11   -1    0    0    0    0 -0.00000000000E+00 -0.00000000000E+00 -0.50000000000E+03  0.50000000000E+03  0.00000000000E+00 0. -1.
          5    1    1    2  501    0 -0.22973367338E+03 -0.35072440377E+02  0.44268529820E+03  0.50000000000E+03  0.47000000000E+01 0.  1.
         -5    1    1    2    0  501  0.22973367338E+03  0.35072440377E+02 -0.44268529820E+03  0.50000000000E+03  0.47000000000E+01 0. -1.
</event>
<event>
 4    1  0.4838534E-004  0.1000000E+04  0.7546771E-02  0.8684367E-01
         11   -1    0    0    0    0  0.00000000000E+00  0.00000000000E+00  0.50000000000E+03  0.50000000000E+03  0.00000000000E+00 0. -1.
        -11   -1    0    0    0    0 -0.00000000000E+00 -0.00000000000E+00 -0.50000000000E+03  0.50000000000E+03  0.00000000000E+00 0.  1.
          5    1    1    2  501    0  0.32849688456E+03  0.72689528659E+02  0.36984312791E+03  0.50000000000E+03  0.47000000000E+01 0. -1.
         -5    1    1    2    0  501 -0.32849688456E+03 -0.72689528659E+02 -0.36984312791E+03  0.50000000000E+03  0.47000000000E+01 0.  1.
</event>
<event>
 4    1  0.4838534E-004  0.1000000E+04  0.7546771E-02  0.8684367E-01
         11   -1    0    0    0    0  0.00000000000E+00  0.00000000000E+00  0.50000000000E+03  0.50000000000E+03  0.00000000000E+00 0. -1.
        -11   -1    0    0    0    0 -0.00000000000E+00 -0.00000000000E+00 -0.50000000000E+03  0.50000000000E+03  0.00000000000E+00 0.  1.
          5    1    1    2  501    0 -0.30817694588E+03 -0.16730569459E+03  0.35638979304E+03  0.50000000000E+03  0.47000000000E+01 0. -1.
         -5    1    1    2    0  501  0.30817694588E+03  0.16730569459E+03 -0.35638979304E+03  0.50000000000E+03  0.47000000000E+01 0.  1.
</event>
<event>
 4    1  0.4838534E-004  0.1000000E+04  0.7546771E-02  0.8684367E-01
         11   -1    0    0    0    0  0.00000000000E+00  0.00000000000E+00  0.50000000000E+03  0.50000000000E+03  0.00000000000E+00 0. -1.
        -11   -1    0    0    0    0 -0.00000000000E+00 -0.00000000000E+00 -0.50000000000E+03  0.50000000000E+03  0.00000000000E+00 0.  1.
          5    1    1    2  501    0  0.27772017728E+03  0.34866646222E+03  0.22645333129E+03  0.50000000000E+03  0.47000000000E+01 0. -1.
         -5    1    1    2    0  501 -0.27772017728E+03 -0.34866646222E+03 -0.22645333129E+03  0.50000000000E+03  0.47000000000E+01 0.  1.
</event>
<event>
 4    1  0.4838534E-004  0.1000000E+04  0.7546771E-02  0.8684367E-01
         11   -1    0    0    0    0  0.00000000000E+00  0.00000000000E+00  0.50000000000E+03  0.50000000000E+03  0.00000000000E+00 0. -1.
        -11   -1    0    0    0    0 -0.00000000000E+00 -0.00000000000E+00 -0.50000000000E+03  0.50000000000E+03  0.00000000000E+00 0.  1.
          5    1    1    2  501    0  0.45342048305E+03  0.15149889588E+03  0.14640990438E+03  0.50000000000E+03  0.47000000000E+01 0. -1.
         -5    1    1    2    0  501 -0.45342048305E+03 -0.15149889588E+03 -0.14640990438E+03  0.50000000000E+03  0.47000000000E+01 0.  1.
</event>
<event>
 4    1  0.4838534E-004  0.1000000E+04  0.7546771E-02  0.8684367E-01
         11   -1    0    0    0    0  0.00000000000E+00  0.00000000000E+00  0.50000000000E+03  0.50000000000E+03  0.00000000000E+00 0.  1.
        -11   -1    0    0    0    0 -0.00000000000E+00 -0.00000000000E+00 -0.50000000000E+03  0.50000000000E+03  0.00000000000E+00 0. -1.
          5    1    1    2  501    0 -0.15569239238E+03 -0.22994007728E+03  0.41577078999E+03  0.50000000000E+03  0.47000000000E+01 0.  1.
         -5    1    1    2    0  501  0.15569239238E+03  0.22994007728E+03 -0.41577078999E+03  0.50000000000E+03  0.47000000000E+01 0. -1.
</event>
<event>
 4    1  0.4838534E-004  0.1000000E+04  0.7546771E-02  0.8684367E-01
         11   -1    0    0    0    0  0.00000000000E+00  0.00000000000E+00  0.50000000000E+03  0.50000000000E+03  0.00000000000E+00 0. -1.
        -11   -1    0    0    0    0 -0.00000000000E+00 -0.00000000000E+00 -0.50000000000E+03  0.50000000000E+03  0.00000000000E+00 0.  1.
          5    1    1    2  501    0  0.56808519489E+02 -0.85784096547E+02  0.48927680396E+03  0.50000000000E+03  0.47000000000E+01 0. -1.
         -5    1    1    2    0  501 -0.56808519489E+02  0.85784096547E+02 -0.48927680396E+03  0.50000000000E+03  0.47000000000E+01 0.  1.
</event>
<event>
 4    1  0.4838534E-004  0.1000000E+04  0.7546771E-02  0.8684367E-01
         11   -1    0    0    0    0  0.00000000000E+00  0.00000000000E+00  0.50000000000E+03  0.50000000000E+03  0.00000000000E+00 0. -1.
        -11   -1    0    0    0    0 -0.00000000000E+00 -0.00000000000E+00 -0.50000000000E+03  0.50000000000E+03  0.00000000000E+00 0.  1.
          5    1    1    2  501    0 -0.43567189327E+02 -0.27867658686E+03  0.41281856783E+03  0.50000000000E+03  0.47000000000E+01 0. -1.
         -5    1    1    2    0  501  0.43567189327E+02  0.27867658686E+03 -0.41281856783E+03  0.50000000000E+03  0.47000000000E+01 0.  1.
</event>
<event>
 4    1  0.4838534E-004  0.1000000E+04  0.7546771E-02  0.8684367E-01
         11   -1    0    0    0    0  0.00000000000E+00  0.00000000000E+00  0.50000000000E+03  0.50000000000E+03  0.00000000000E+00 0. -1.
        -11   -1    0    0    0    0 -0.00000000000E+00 -0.00000000000E+00 -0.50000000000E+03  0.50000000000E+03  0.00000000000E+00 0.  1.
          5    1    1    2  501    0 -0.36126076335E+03 -0.23483989110E+03 -0.25361150686E+03  0.50000000000E+03  0.47000000000E+01 0. -1.
         -5    1    1    2    0  501  0.36126076335E+03  0.23483989110E+03  0.25361150686E+03  0.50000000000E+03  0.47000000000E+01 0.  1.
</event>
<event>
 4    1  0.4838534E-004  0.1000000E+04  0.7546771E-02  0.8684367E-01
         11   -1    0    0    0    0  0.00000000000E+00  0.00000000000E+00  0.50000000000E+03  0.50000000000E+03  0.00000000000E+00 0.  1.
        -11   -1    0    0    0    0 -0.00000000000E+00 -0.00000000000E+00 -0.50000000000E+03  0.50000000000E+03  0.00000000000E+00 0. -1.
          5    1    1    2  501    0  0.42057280529E+03  0.71534145332E+02  0.26072838645E+03  0.50000000000E+03  0.47000000000E+01 0.  1.
         -5    1    1    2    0  501 -0.42057280529E+03 -0.71534145332E+02 -0.26072838645E+03  0.50000000000E+03  0.47000000000E+01 0. -1.
</event>
<event>
 4    1  0.4838534E-004  0.1000000E+04  0.7546771E-02  0.8684367E-01
         11   -1    0    0    0    0  0.00000000000E+00  0.00000000000E+00  0.50000000000E+03  0.50000000000E+03  0.00000000000E+00 0. -1.
        -11   -1    0    0    0    0 -0.00000000000E+00 -0.00000000000E+00 -0.50000000000E+03  0.50000000000E+03  0.00000000000E+00 0.  1.
          5    1    1    2  501    0 -0.34554743443E+03  0.33769041742E+03  0.12860817449E+03  0.50000000000E+03  0.47000000000E+01 0. -1.
         -5    1    1    2    0  501  0.34554743443E+03 -0.33769041742E+03 -0.12860817449E+03  0.50000000000E+03  0.47000000000E+01 0.  1.
</event>
<event>
 4    1  0.4838534E-004  0.1000000E+04  0.7546771E-02  0.8684367E-01
         11   -1    0    0    0    0  0.00000000000E+00  0.00000000000E+00  0.50000000000E+03  0.50000000000E+03  0.00000000000E+00 0. -1.
        -11   -1    0    0    0    0 -0.00000000000E+00 -0.00000000000E+00 -0.50000000000E+03  0.50000000000E+03  0.00000000000E+00 0.  1.
          5    1    1    2  501    0  0.29174980358E+03 -0.30476028179E+03  0.26829299796E+03  0.50000000000E+03  0.47000000000E+01 0. -1.
         -5    1    1    2    0  501 -0.29174980358E+03  0.30476028179E+03 -0.26829299796E+03  0.50000000000E+03  0.47000000000E+01 0.  1.
</event>
<event>
 4    1  0.4838534E-004  0.1000000E+04  0.7546771E-02  0.8684367E-01
         11   -1    0    0    0    0  0.00000000000E+00  0.00000000000E+00  0.50000000000E+03  0.50000000000E+03  0.00000000000E+00 0. -1.
        -11   -1    0    0    0    0 -0.00000000000E+00 -0.00000000000E+00 -0.50000000000E+03  0.50000000000E+03  0.00000000000E+00 0.  1.
          5    1    1    2  501    0 -0.60130473309E+02 -0.15007297321E+03  0.47311767975E+03  0.50000000000E+03  0.47000000000E+01 0. -1.
         -5    1    1    2    0  501  0.60130473309E+02  0.15007297321E+03 -0.47311767975E+03  0.50000000000E+03  0.47000000000E+01 0.  1.
</event>
<event>
 4    1  0.4838534E-004  0.1000000E+04  0.7546771E-02  0.8684367E-01
         11   -1    0    0    0    0  0.00000000000E+00  0.00000000000E+00  0.50000000000E+03  0.50000000000E+03  0.00000000000E+00 0.  1.
        -11   -1    0    0    0    0 -0.00000000000E+00 -0.00000000000E+00 -0.50000000000E+03  0.50000000000E+03  0.00000000000E+00 0. -1.
          5    1    1    2  501    0  0.28244183829E+03  0.10576921036E+03  0.39876984856E+03  0.50000000000E+03  0.47000000000E+01 0.  1.
         -5    1    1    2    0  501 -0.28244183829E+03 -0.10576921036E+03 -0.39876984856E+03  0.50000000000E+03  0.47000000000E+01 0. -1.
</event>
<event>
 4    1  0.4838534E-004  0.1000000E+04  0.7546771E-02  0.8684367E-01
         11   -1    0    0    0    0  0.00000000000E+00  0.00000000000E+00  0.50000000000E+03  0.50000000000E+03  0.00000000000E+00 0. -1.
        -11   -1    0    0    0    0 -0.00000000000E+00 -0.00000000000E+00 -0.50000000000E+03  0.50000000000E+03  0.00000000000E+00 0.  1.
          5    1    1    2  501    0  0.16754232544E+02  0.16710400033E+03  0.47092829472E+03  0.50000000000E+03  0.47000000000E+01 0. -1.
         -5    1    1    2    0  501 -0.16754232544E+02 -0.16710400033E+03 -0.47092829472E+03  0.50000000000E+03  0.47000000000E+01 0.  1.
</event>
<event>
 4    1  0.4838534E-004  0.1000000E+04  0.7546771E-02  0.8684367E-01
         11   -1    0    0    0    0  0.00000000000E+00  0.00000000000E+00  0.50000000000E+03  0.50000000000E+03  0.00000000000E+00 0. -1.
        -11   -1    0    0    0    0 -0.00000000000E+00 -0.00000000000E+00 -0.50000000000E+03  0.50000000000E+03  0.00000000000E+00 0.  1.
          5    1    1    2  501    0  0.94896543414E+02  0.49067968598E+03  0.14352763399E+02  0.50000000000E+03  0.47000000000E+01 0. -1.
         -5    1    1    2    0  501 -0.94896543414E+02 -0.49067968598E+03 -0.14352763399E+02  0.50000000000E+03  0.47000000000E+01 0.  1.
</event>
<event>
 4    1  0.4838534E-004  0.1000000E+04  0.7546771E-02  0.8684367E-01
         11   -1    0    0    0    0  0.00000000000E+00  0.00000000000E+00  0.50000000000E+03  0.50000000000E+03  0.00000000000E+00 0. -1.
        -11   -1    0    0    0    0 -0.00000000000E+00 -0.00000000000E+00 -0.50000000000E+03  0.50000000000E+03  0.00000000000E+00 0.  1.
          5    1    1    2  501    0 -0.47929768351E+03  0.10598150425E+03 -0.94971371155E+02  0.50000000000E+03  0.47000000000E+01 0. -1.
         -5    1    1    2    0  501  0.47929768351E+03 -0.10598150425E+03  0.94971371155E+02  0.50000000000E+03  0.47000000000E+01 0.  1.
</event>
<event>
 4    1  0.4838534E-004  0.1000000E+04  0.7546771E-02  0.8684367E-01
         11   -1    0    0    0    0  0.00000000000E+00  0.00000000000E+00  0.50000000000E+03  0.50000000000E+03  0.00000000000E+00 0. -1.
        -11   -1    0    0    0    0 -0.00000000000E+00 -0.00000000000E+00 -0.50000000000E+03  0.50000000000E+03  0.00000000000E+00 0.  1.
          5    1    1    2  501    0 -0.37877914776E+03 -0.29772723638E+03  0.13365163650E+03  0.50000000000E+03  0.47000000000E+01 0. -1.
         -5    1    1    2    0  501  0.37877914776E+03  0.29772723638E+03 -0.13365163650E+03  0.50000000000E+03  0.47000000000E+01 0.  1.
</event>
<event>
 4    1  0.4838534E-004  0.1000000E+04  0.7546771E-02  0.8684367E-01
         11   -1    0    0    0    0  0.00000000000E+00  0.00000000000E+00  0.50000000000E+03  0.50000000000E+03  0.00000000000E+00 0. -1.
        -11   -1    0    0    0    0 -0.00000000000E+00 -0.00000000000E+00 -0.50000000000E+03  0.50000000000E+03  0.00000000000E+00 0.  1.
          5    1    1    2  501    0 -0.33196678286E+03 -0.24848390107E+03  0.27934157583E+03  0.50000000000E+03  0.47000000000E+01 0. -1.
         -5    1    1    2    0  501  0.33196678286E+03  0.24848390107E+03 -0.27934157583E+03  0.50000000000E+03  0.47000000000E+01 0.  1.
</event>
<event>
 4    1  0.4838534E-004  0.1000000E+04  0.7546771E-02  0.8684367E-01
         11   -1    0    0    0    0  0.00000000000E+00  0.00000000000E+00  0.50000000000E+03  0.50000000000E+03  0.00000000000E+00 0. -1.
        -11   -1    0    0    0    0 -0.00000000000E+00 -0.00000000000E+00 -0.50000000000E+03  0.50000000000E+03  0.00000000000E+00 0.  1.
          5    1    1    2  501    0  0.25744748835E+03 -0.42210256084E+03  0.74351387864E+02  0.50000000000E+03  0.47000000000E+01 0. -1.
         -5    1    1    2    0  501 -0.25744748835E+03  0.42210256084E+03 -0.74351387864E+02  0.50000000000E+03  0.47000000000E+01 0.  1.
</event>
<event>
 4    1  0.4838534E-004  0.1000000E+04  0.7546771E-02  0.8684367E-01
         11   -1    0    0    0    0  0.00000000000E+00  0.00000000000E+00  0.50000000000E+03  0.50000000000E+03  0.00000000000E+00 0. -1.
        -11   -1    0    0    0    0 -0.00000000000E+00 -0.00000000000E+00 -0.50000000000E+03  0.50000000000E+03  0.00000000000E+00 0.  1.
          5    1    1    2  501    0 -0.12687511144E+02 -0.31664677922E+03  0.38671921891E+03  0.50000000000E+03  0.47000000000E+01 0. -1.
         -5    1    1    2    0  501  0.12687511144E+02  0.31664677922E+03 -0.38671921891E+03  0.50000000000E+03  0.47000000000E+01 0.  1.
</event>
<event>
 4    1  0.4838534E-004  0.1000000E+04  0.7546771E-02  0.8684367E-01
         11   -1    0    0    0    0  0.00000000000E+00  0.00000000000E+00  0.50000000000E+03  0.50000000000E+03  0.00000000000E+00 0.  1.
        -11   -1    0    0    0    0 -0.00000000000E+00 -0.00000000000E+00 -0.50000000000E+03  0.50000000000E+03  0.00000000000E+00 0. -1.
          5    1    1    2  501    0  0.18752717364E+03  0.45950823353E+03  0.60528112996E+02  0.50000000000E+03  0.47000000000E+01 0.  1.
         -5    1    1    2    0  501 -0.18752717364E+03 -0.45950823353E+03 -0.60528112996E+02  0.50000000000E+03  0.47000000000E+01 0. -1.
</event>
<event>
 4    1  0.4838534E-004  0.1000000E+04  0.7546771E-02  0.8684367E-01
         11   -1    0    0    0    0  0.00000000000E+00  0.00000000000E+00  0.50000000000E+03  0.50000000000E+03  0.00000000000E+00 0. -1.
        -11   -1    0    0    0    0 -0.00000000000E+00 -0.00000000000E+00 -0.50000000000E+03  0.50000000000E+03  0.00000000000E+00 0.  1.
          5    1    1    2  501    0  0.42481508481E+03  0.26147302088E+03 -0.33792204237E+02  0.50000000000E+03  0.47000000000E+01 0. -1.
         -5    1    1    2    0  501 -0.42481508481E+03 -0.26147302088E+03  0.33792204237E+02  0.50000000000E+03  0.47000000000E+01 0.  1.
</event>
<event>
 4    1  0.4838534E-004  0.1000000E+04  0.7546771E-02  0.8684367E-01
         11   -1    0    0    0    0  0.00000000000E+00  0.00000000000E+00  0.50000000000E+03  0.50000000000E+03  0.00000000000E+00 0. -1.
        -11   -1    0    0    0    0 -0.00000000000E+00 -0.00000000000E+00 -0.50000000000E+03  0.50000000000E+03  0.00000000000E+00 0.  1.
          5    1    1    2  501    0 -0.48363239513E+03 -0.11960141194E+03  0.42108415402E+02  0.50000000000E+03  0.47000000000E+01 0. -1.
         -5    1    1    2    0  501  0.48363239513E+03  0.11960141194E+03 -0.42108415402E+02  0.50000000000E+03  0.47000000000E+01 0.  1.
</event>
<event>
 4    1  0.4838534E-004  0.1000000E+04  0.7546771E-02  0.8684367E-01
         11   -1    0    0    0    0  0.00000000000E+00  0.00000000000E+00  0.50000000000E+03  0.50000000000E+03  0.00000000000E+00 0. -1.
        -11   -1    0    0    0    0 -0.00000000000E+00 -0.00000000000E+00 -0.50000000000E+03  0.50000000000E+03  0.00000000000E+00 0.  1.
          5    1    1    2  501    0 -0.85810147182E+02  0.56662912841E+02  0.48928912000E+03  0.50000000000E+03  0.47000000000E+01 0. -1.
         -5    1    1    2    0  501  0.85810147182E+02 -0.56662912841E+02 -0.48928912000E+03  0.50000000000E+03  0.47000000000E+01 0.  1.
</event>
<event>
 4    1  0.4838534E-004  0.1000000E+04  0.7546771E-02  0.8684367E-01
         11   -1    0    0    0    0  0.00000000000E+00  0.00000000000E+00  0.50000000000E+03  0.50000000000E+03  0.00000000000E+00 0. -1.
        -11   -1    0    0    0    0 -0.00000000000E+00 -0.00000000000E+00 -0.50000000000E+03  0.50000000000E+03  0.00000000000E+00 0.  1.
          5    1    1    2  501    0 -0.15784564797E+03 -0.17634388783E+03  0.44041513898E+03  0.50000000000E+03  0.47000000000E+01 0. -1.
         -5    1    1    2    0  501  0.15784564797E+03  0.17634388783E+03 -0.44041513898E+03  0.50000000000E+03  0.47000000000E+01 0.  1.
</event>
<event>
 4    1  0.4838534E-004  0.1000000E+04  0.7546771E-02  0.8684367E-01
         11   -1    0    0    0    0  0.00000000000E+00  0.00000000000E+00  0.50000000000E+03  0.50000000000E+03  0.00000000000E+00 0. -1.
        -11   -1    0    0    0    0 -0.00000000000E+00 -0.00000000000E+00 -0.50000000000E+03  0.50000000000E+03  0.00000000000E+00 0.  1.
          5    1    1    2  501    0  0.16520767542E+03 -0.38725716089E+03  0.26965946177E+03  0.50000000000E+03  0.47000000000E+01 0. -1.
         -5    1    1    2    0  501 -0.16520767542E+03  0.38725716089E+03 -0.26965946177E+03  0.50000000000E+03  0.47000000000E+01 0.  1.
</event>
<event>
 4    1  0.4838534E-004  0.1000000E+04  0.7546771E-02  0.8684367E-01
         11   -1    0    0    0    0  0.00000000000E+00  0.00000000000E+00  0.50000000000E+03  0.50000000000E+03  0.00000000000E+00 0. -1.
        -11   -1    0    0    0    0 -0.00000000000E+00 -0.00000000000E+00 -0.50000000000E+03  0.50000000000E+03  0.00000000000E+00 0.  1.
          5    1    1    2  501    0 -0.87929553027E+01  0.64803324248E+02  0.49568248214E+03  0.50000000000E+03  0.47000000000E+01 0. -1.
         -5    1    1    2    0  501  0.87929553027E+01 -0.64803324248E+02 -0.49568248214E+03  0.50000000000E+03  0.47000000000E+01 0.  1.
</event>
<event>
 4    1  0.4838534E-004  0.1000000E+04  0.7546771E-02  0.8684367E-01
         11   -1    0    0    0    0  0.00000000000E+00  0.00000000000E+00  0.50000000000E+03  0.50000000000E+03  0.00000000000E+00 0.  1.
        -11   -1    0    0    0    0 -0.00000000000E+00 -0.00000000000E+00 -0.50000000000E+03  0.50000000000E+03  0.00000000000E+00 0. -1.
          5    1    1    2  501    0  0.20741174782E+03 -0.32699372280E+03  0.31628054337E+03  0.50000000000E+03  0.47000000000E+01 0.  1.
         -5    1    1    2    0  501 -0.20741174782E+03  0.32699372280E+03 -0.31628054337E+03  0.50000000000E+03  0.47000000000E+01 0. -1.
</event>
<event>
 4    1  0.4838534E-004  0.1000000E+04  0.7546771E-02  0.8684367E-01
         11   -1    0    0    0    0  0.00000000000E+00  0.00000000000E+00  0.50000000000E+03  0.50000000000E+03  0.00000000000E+00 0. -1.
        -11   -1    0    0    0    0 -0.00000000000E+00 -0.00000000000E+00 -0.50000000000E+03  0.50000000000E+03  0.00000000000E+00 0.  1.
          5    1    1    2  501    0  0.63080316963E+02  0.12113117183E+03  0.48096363981E+03  0.50000000000E+03  0.47000000000E+01 0. -1.
         -5    1    1    2    0  501 -0.63080316963E+02 -0.12113117183E+03 -0.48096363981E+03  0.50000000000E+03  0.47000000000E+01 0.  1.
</event>
<event>
 4    1  0.4838534E-004  0.1000000E+04  0.7546771E-02  0.8684367E-01
         11   -1    0    0    0    0  0.00000000000E+00  0.00000000000E+00  0.50000000000E+03  0.50000000000E+03  0.00000000000E+00 0.  1.
        -11   -1    0    0    0    0 -0.00000000000E+00 -0.00000000000E+00 -0.50000000000E+03  0.50000000000E+03  0.00000000000E+00 0. -1.
          5    1    1    2  501    0  0.10659194862E+03  0.20204110969E+03  0.44474201115E+03  0.50000000000E+03  0.47000000000E+01 0.  1.
         -5    1    1    2    0  501 -0.10659194862E+03 -0.20204110969E+03 -0.44474201115E+03  0.50000000000E+03  0.47000000000E+01 0. -1.
</event>
<event>
 4    1  0.4838534E-004  0.1000000E+04  0.7546771E-02  0.8684367E-01
         11   -1    0    0    0    0  0.00000000000E+00  0.00000000000E+00  0.50000000000E+03  0.50000000000E+03  0.00000000000E+00 0. -1.
        -11   -1    0    0    0    0 -0.00000000000E+00 -0.00000000000E+00 -0.50000000000E+03  0.50000000000E+03  0.00000000000E+00 0.  1.
          5    1    1    2  501    0 -0.58367982130E+02  0.16854132721E+03  0.46708126668E+03  0.50000000000E+03  0.47000000000E+01 0. -1.
         -5    1    1    2    0  501  0.58367982130E+02 -0.16854132721E+03 -0.46708126668E+03  0.50000000000E+03  0.47000000000E+01 0.  1.
</event>
<event>
 4    1  0.4838534E-004  0.1000000E+04  0.7546771E-02  0.8684367E-01
         11   -1    0    0    0    0  0.00000000000E+00  0.00000000000E+00  0.50000000000E+03  0.50000000000E+03  0.00000000000E+00 0.  1.
        -11   -1    0    0    0    0 -0.00000000000E+00 -0.00000000000E+00 -0.50000000000E+03  0.50000000000E+03  0.00000000000E+00 0. -1.
          5    1    1    2  501    0 -0.12930912143E+03  0.47528581795E+03 -0.85793078814E+02  0.50000000000E+03  0.47000000000E+01 0.  1.
         -5    1    1    2    0  501  0.12930912143E+03 -0.47528581795E+03  0.85793078814E+02  0.50000000000E+03  0.47000000000E+01 0. -1.
</event>
<event>
 4    1  0.4838534E-004  0.1000000E+04  0.7546771E-02  0.8684367E-01
         11   -1    0    0    0    0  0.00000000000E+00  0.00000000000E+00  0.50000000000E+03  0.50000000000E+03  0.00000000000E+00 0.  1.
        -11   -1    0    0    0    0 -0.00000000000E+00 -0.00000000000E+00 -0.50000000000E+03  0.50000000000E+03  0.00000000000E+00 0. -1.
          5    1    1    2  501    0 -0.11793982578E+03  0.45184665862E+03 -0.17861328224E+03  0.50000000000E+03  0.47000000000E+01 0.  1.
         -5    1    1    2    0  501  0.11793982578E+03 -0.45184665862E+03  0.17861328224E+03  0.50000000000E+03  0.47000000000E+01 0. -1.
</event>
<event>
 4    1  0.4838534E-004  0.1000000E+04  0.7546771E-02  0.8684367E-01
         11   -1    0    0    0    0  0.00000000000E+00  0.00000000000E+00  0.50000000000E+03  0.50000000000E+03  0.00000000000E+00 0. -1.
        -11   -1    0    0    0    0 -0.00000000000E+00 -0.00000000000E+00 -0.50000000000E+03  0.50000000000E+03  0.00000000000E+00 0.  1.
          5    1    1    2  501    0  0.45043215210E+03 -0.18430609537E+03  0.11454278486E+03  0.50000000000E+03  0.47000000000E+01 0. -1.
         -5    1    1    2    0  501 -0.45043215210E+03  0.18430609537E+03 -0.11454278486E+03  0.50000000000E+03  0.47000000000E+01 0.  1.
</event>
<event>
 4    1  0.4838534E-004  0.1000000E+04  0.7546771E-02  0.8684367E-01
         11   -1    0    0    0    0  0.00000000000E+00  0.00000000000E+00  0.50000000000E+03  0.50000000000E+03  0.00000000000E+00 0. -1.
        -11   -1    0    0    0    0 -0.00000000000E+00 -0.00000000000E+00 -0.50000000000E+03  0.50000000000E+03  0.00000000000E+00 0.  1.
          5    1    1    2  501    0 -0.35225429203E+03  0.94246714940E+02  0.34207072437E+03  0.50000000000E+03  0.47000000000E+01 0. -1.
         -5    1    1    2    0  501  0.35225429203E+03 -0.94246714940E+02 -0.34207072437E+03  0.50000000000E+03  0.47000000000E+01 0.  1.
</event>
<event>
 4    1  0.4838534E-004  0.1000000E+04  0.7546771E-02  0.8684367E-01
         11   -1    0    0    0    0  0.00000000000E+00  0.00000000000E+00  0.50000000000E+03  0.50000000000E+03  0.00000000000E+00 0. -1.
        -11   -1    0    0    0    0 -0.00000000000E+00 -0.00000000000E+00 -0.50000000000E+03  0.50000000000E+03  0.00000000000E+00 0.  1.
          5    1    1    2  501    0  0.21056307474E+03  0.26348076759E+03  0.36907856435E+03  0.50000000000E+03  0.47000000000E+01 0. -1.
         -5    1    1    2    0  501 -0.21056307474E+03 -0.26348076759E+03 -0.36907856435E+03  0.50000000000E+03  0.47000000000E+01 0.  1.
</event>
<event>
 4    1  0.4838534E-004  0.1000000E+04  0.7546771E-02  0.8684367E-01
         11   -1    0    0    0    0  0.00000000000E+00  0.00000000000E+00  0.50000000000E+03  0.50000000000E+03  0.00000000000E+00 0. -1.
        -11   -1    0    0    0    0 -0.00000000000E+00 -0.00000000000E+00 -0.50000000000E+03  0.50000000000E+03  0.00000000000E+00 0.  1.
          5    1    1    2  501    0 -0.31071409415E+03 -0.13662127853E+03  0.36710936783E+03  0.50000000000E+03  0.47000000000E+01 0. -1.
         -5    1    1    2    0  501  0.31071409415E+03  0.13662127853E+03 -0.36710936783E+03  0.50000000000E+03  0.47000000000E+01 0.  1.
</event>
<event>
 4    1  0.4838534E-004  0.1000000E+04  0.7546771E-02  0.8684367E-01
         11   -1    0    0    0    0  0.00000000000E+00  0.00000000000E+00  0.50000000000E+03  0.50000000000E+03  0.00000000000E+00 0. -1.
        -11   -1    0    0    0    0 -0.00000000000E+00 -0.00000000000E+00 -0.50000000000E+03  0.50000000000E+03  0.00000000000E+00 0.  1.
          5    1    1    2  501    0  0.38860387353E+03  0.43679828629E+02  0.31153974393E+03  0.50000000000E+03  0.47000000000E+01 0. -1.
         -5    1    1    2    0  501 -0.38860387353E+03 -0.43679828629E+02 -0.31153974393E+03  0.50000000000E+03  0.47000000000E+01 0.  1.
</event>
<event>
 4    1  0.4838534E-004  0.1000000E+04  0.7546771E-02  0.8684367E-01
         11   -1    0    0    0    0  0.00000000000E+00  0.00000000000E+00  0.50000000000E+03  0.50000000000E+03  0.00000000000E+00 0. -1.
        -11   -1    0    0    0    0 -0.00000000000E+00 -0.00000000000E+00 -0.50000000000E+03  0.50000000000E+03  0.00000000000E+00 0.  1.
          5    1    1    2  501    0  0.44627875136E+03 -0.68593808302E+01  0.22531341499E+03  0.50000000000E+03  0.47000000000E+01 0. -1.
         -5    1    1    2    0  501 -0.44627875136E+03  0.68593808302E+01 -0.22531341499E+03  0.50000000000E+03  0.47000000000E+01 0.  1.
</event>
<event>
 4    1  0.4838534E-004  0.1000000E+04  0.7546771E-02  0.8684367E-01
         11   -1    0    0    0    0  0.00000000000E+00  0.00000000000E+00  0.50000000000E+03  0.50000000000E+03  0.00000000000E+00 0. -1.
        -11   -1    0    0    0    0 -0.00000000000E+00 -0.00000000000E+00 -0.50000000000E+03  0.50000000000E+03  0.00000000000E+00 0.  1.
          5    1    1    2  501    0  0.10867349897E+03  0.46246723800E+03  0.15585902090E+03  0.50000000000E+03  0.47000000000E+01 0. -1.
         -5    1    1    2    0  501 -0.10867349897E+03 -0.46246723800E+03 -0.15585902090E+03  0.50000000000E+03  0.47000000000E+01 0.  1.
</event>
<event>
 4    1  0.4838534E-004  0.1000000E+04  0.7546771E-02  0.8684367E-01
         11   -1    0    0    0    0  0.00000000000E+00  0.00000000000E+00  0.50000000000E+03  0.50000000000E+03  0.00000000000E+00 0.  1.
        -11   -1    0    0    0    0 -0.00000000000E+00 -0.00000000000E+00 -0.50000000000E+03  0.50000000000E+03  0.00000000000E+00 0. -1.
          5    1    1    2  501    0  0.88925126493E+02  0.30601122993E+03  0.38526271431E+03  0.50000000000E+03  0.47000000000E+01 0.  1.
         -5    1    1    2    0  501 -0.88925126493E+02 -0.30601122993E+03 -0.38526271431E+03  0.50000000000E+03  0.47000000000E+01 0. -1.
</event>
<event>
 4    1  0.4838534E-004  0.1000000E+04  0.7546771E-02  0.8684367E-01
         11   -1    0    0    0    0  0.00000000000E+00  0.00000000000E+00  0.50000000000E+03  0.50000000000E+03  0.00000000000E+00 0. -1.
        -11   -1    0    0    0    0 -0.00000000000E+00 -0.00000000000E+00 -0.50000000000E+03  0.50000000000E+03  0.00000000000E+00 0.  1.
          5    1    1    2  501    0 -0.44330648534E+03 -0.22575841310E+03  0.49903997560E+02  0.50000000000E+03  0.47000000000E+01 0. -1.
         -5    1    1    2    0  501  0.44330648534E+03  0.22575841310E+03 -0.49903997560E+02  0.50000000000E+03  0.47000000000E+01 0.  1.
</event>
<event>
 4    1  0.4838534E-004  0.1000000E+04  0.7546771E-02  0.8684367E-01
         11   -1    0    0    0    0  0.00000000000E+00  0.00000000000E+00  0.50000000000E+03  0.50000000000E+03  0.00000000000E+00 0.  1.
        -11   -1    0    0    0    0 -0.00000000000E+00 -0.00000000000E+00 -0.50000000000E+03  0.50000000000E+03  0.00000000000E+00 0. -1.
          5    1    1    2  501    0  0.27121770496E+03 -0.38710140054E+03  0.16300727657E+03  0.50000000000E+03  0.47000000000E+01 0.  1.
         -5    1    1    2    0  501 -0.27121770496E+03  0.38710140054E+03 -0.16300727657E+03  0.50000000000E+03  0.47000000000E+01 0. -1.
</event>
<event>
 4    1  0.4838534E-004  0.1000000E+04  0.7546771E-02  0.8684367E-01
         11   -1    0    0    0    0  0.00000000000E+00  0.00000000000E+00  0.50000000000E+03  0.50000000000E+03  0.00000000000E+00 0. -1.
        -11   -1    0    0    0    0 -0.00000000000E+00 -0.00000000000E+00 -0.50000000000E+03  0.50000000000E+03  0.00000000000E+00 0.  1.
          5    1    1    2  501    0  0.45786748047E+03  0.68784608283E+02  0.18869011101E+03  0.50000000000E+03  0.47000000000E+01 0. -1.
         -5    1    1    2    0  501 -0.45786748047E+03 -0.68784608283E+02 -0.18869011101E+03  0.50000000000E+03  0.47000000000E+01 0.  1.
</event>
<event>
 4    1  0.4838534E-004  0.1000000E+04  0.7546771E-02  0.8684367E-01
         11   -1    0    0    0    0  0.00000000000E+00  0.00000000000E+00  0.50000000000E+03  0.50000000000E+03  0.00000000000E+00 0.  1.
        -11   -1    0    0    0    0 -0.00000000000E+00 -0.00000000000E+00 -0.50000000000E+03  0.50000000000E+03  0.00000000000E+00 0. -1.
          5    1    1    2  501    0  0.13227000677E+03 -0.49112954615E+01 -0.48213943469E+03  0.50000000000E+03  0.47000000000E+01 0. -1.
         -5    1    1    2    0  501 -0.13227000677E+03  0.49112954615E+01  0.48213943469E+03  0.50000000000E+03  0.47000000000E+01 0.  1.
</event>
<event>
 4    1  0.4838534E-004  0.1000000E+04  0.7546771E-02  0.8684367E-01
         11   -1    0    0    0    0  0.00000000000E+00  0.00000000000E+00  0.50000000000E+03  0.50000000000E+03  0.00000000000E+00 0. -1.
        -11   -1    0    0    0    0 -0.00000000000E+00 -0.00000000000E+00 -0.50000000000E+03  0.50000000000E+03  0.00000000000E+00 0.  1.
          5    1    1    2  501    0 -0.98409552105E+02  0.40505281785E+03 -0.27608999403E+03  0.50000000000E+03  0.47000000000E+01 0.  1.
         -5    1    1    2    0  501  0.98409552105E+02 -0.40505281785E+03  0.27608999403E+03  0.50000000000E+03  0.47000000000E+01 0. -1.
</event>
<event>
 4    1  0.4838534E-004  0.1000000E+04  0.7546771E-02  0.8684367E-01
         11   -1    0    0    0    0  0.00000000000E+00  0.00000000000E+00  0.50000000000E+03  0.50000000000E+03  0.00000000000E+00 0.  1.
        -11   -1    0    0    0    0 -0.00000000000E+00 -0.00000000000E+00 -0.50000000000E+03  0.50000000000E+03  0.00000000000E+00 0. -1.
          5    1    1    2  501    0  0.10507481523E+02 -0.49414866114E+03 -0.75396309780E+02  0.50000000000E+03  0.47000000000E+01 0.  1.
         -5    1    1    2    0  501 -0.10507481523E+02  0.49414866114E+03  0.75396309780E+02  0.50000000000E+03  0.47000000000E+01 0. -1.
</event>
<event>
 4    1  0.4838534E-004  0.1000000E+04  0.7546771E-02  0.8684367E-01
         11   -1    0    0    0    0  0.00000000000E+00  0.00000000000E+00  0.50000000000E+03  0.50000000000E+03  0.00000000000E+00 0. -1.
        -11   -1    0    0    0    0 -0.00000000000E+00 -0.00000000000E+00 -0.50000000000E+03  0.50000000000E+03  0.00000000000E+00 0.  1.
          5    1    1    2  501    0 -0.16762102391E+00  0.26587963757E+03  0.42342165772E+03  0.50000000000E+03  0.47000000000E+01 0. -1.
         -5    1    1    2    0  501  0.16762102391E+00 -0.26587963757E+03 -0.42342165772E+03  0.50000000000E+03  0.47000000000E+01 0.  1.
</event>
<event>
 4    1  0.4838534E-004  0.1000000E+04  0.7546771E-02  0.8684367E-01
         11   -1    0    0    0    0  0.00000000000E+00  0.00000000000E+00  0.50000000000E+03  0.50000000000E+03  0.00000000000E+00 0. -1.
        -11   -1    0    0    0    0 -0.00000000000E+00 -0.00000000000E+00 -0.50000000000E+03  0.50000000000E+03  0.00000000000E+00 0.  1.
          5    1    1    2  501    0 -0.18487590109E+03  0.16818544029E+03  0.43302709946E+03  0.50000000000E+03  0.47000000000E+01 0. -1.
         -5    1    1    2    0  501  0.18487590109E+03 -0.16818544029E+03 -0.43302709946E+03  0.50000000000E+03  0.47000000000E+01 0.  1.
</event>
<event>
 4    1  0.4838534E-004  0.1000000E+04  0.7546771E-02  0.8684367E-01
         11   -1    0    0    0    0  0.00000000000E+00  0.00000000000E+00  0.50000000000E+03  0.50000000000E+03  0.00000000000E+00 0. -1.
        -11   -1    0    0    0    0 -0.00000000000E+00 -0.00000000000E+00 -0.50000000000E+03  0.50000000000E+03  0.00000000000E+00 0.  1.
          5    1    1    2  501    0 -0.21067709322E+03 -0.23273983599E+02  0.45282600862E+03  0.50000000000E+03  0.47000000000E+01 0. -1.
         -5    1    1    2    0  501  0.21067709322E+03  0.23273983599E+02 -0.45282600862E+03  0.50000000000E+03  0.47000000000E+01 0.  1.
</event>
<event>
 4    1  0.4838534E-004  0.1000000E+04  0.7546771E-02  0.8684367E-01
         11   -1    0    0    0    0  0.00000000000E+00  0.00000000000E+00  0.50000000000E+03  0.50000000000E+03  0.00000000000E+00 0.  1.
        -11   -1    0    0    0    0 -0.00000000000E+00 -0.00000000000E+00 -0.50000000000E+03  0.50000000000E+03  0.00000000000E+00 0. -1.
          5    1    1    2  501    0 -0.23463420650E+03 -0.44001507834E+03 -0.36213671141E+02  0.50000000000E+03  0.47000000000E+01 0. -1.
         -5    1    1    2    0  501  0.23463420650E+03  0.44001507834E+03  0.36213671141E+02  0.50000000000E+03  0.47000000000E+01 0.  1.
</event>
<event>
 4    1  0.4838534E-004  0.1000000E+04  0.7546771E-02  0.8684367E-01
         11   -1    0    0    0    0  0.00000000000E+00  0.00000000000E+00  0.50000000000E+03  0.50000000000E+03  0.00000000000E+00 0. -1.
        -11   -1    0    0    0    0 -0.00000000000E+00 -0.00000000000E+00 -0.50000000000E+03  0.50000000000E+03  0.00000000000E+00 0.  1.
          5    1    1    2  501    0  0.73428663303E+02 -0.15508316379E+03  0.46961191820E+03  0.50000000000E+03  0.47000000000E+01 0. -1.
         -5    1    1    2    0  501 -0.73428663303E+02  0.15508316379E+03 -0.46961191820E+03  0.50000000000E+03  0.47000000000E+01 0.  1.
</event>
<event>
 4    1  0.4838534E-004  0.1000000E+04  0.7546771E-02  0.8684367E-01
         11   -1    0    0    0    0  0.00000000000E+00  0.00000000000E+00  0.50000000000E+03  0.50000000000E+03  0.00000000000E+00 0. -1.
        -11   -1    0    0    0    0 -0.00000000000E+00 -0.00000000000E+00 -0.50000000000E+03  0.50000000000E+03  0.00000000000E+00 0.  1.
          5    1    1    2  501    0 -0.32122812255E+03  0.31958048295E+03  0.21132609446E+03  0.50000000000E+03  0.47000000000E+01 0. -1.
         -5    1    1    2    0  501  0.32122812255E+03 -0.31958048295E+03 -0.21132609446E+03  0.50000000000E+03  0.47000000000E+01 0.  1.
</event>
<event>
 4    1  0.4838534E-004  0.1000000E+04  0.7546771E-02  0.8684367E-01
         11   -1    0    0    0    0  0.00000000000E+00  0.00000000000E+00  0.50000000000E+03  0.50000000000E+03  0.00000000000E+00 0. -1.
        -11   -1    0    0    0    0 -0.00000000000E+00 -0.00000000000E+00 -0.50000000000E+03  0.50000000000E+03  0.00000000000E+00 0.  1.
          5    1    1    2  501    0 -0.41694083726E+03  0.18215964847E+03  0.20725856000E+03  0.50000000000E+03  0.47000000000E+01 0. -1.
         -5    1    1    2    0  501  0.41694083726E+03 -0.18215964847E+03 -0.20725856000E+03  0.50000000000E+03  0.47000000000E+01 0.  1.
</event>
<event>
 4    1  0.4838534E-004  0.1000000E+04  0.7546771E-02  0.8684367E-01
         11   -1    0    0    0    0  0.00000000000E+00  0.00000000000E+00  0.50000000000E+03  0.50000000000E+03  0.00000000000E+00 0. -1.
        -11   -1    0    0    0    0 -0.00000000000E+00 -0.00000000000E+00 -0.50000000000E+03  0.50000000000E+03  0.00000000000E+00 0.  1.
          5    1    1    2  501    0 -0.38187097193E+03 -0.18271129114E+03  0.26602453813E+03  0.50000000000E+03  0.47000000000E+01 0. -1.
         -5    1    1    2    0  501  0.38187097193E+03  0.18271129114E+03 -0.26602453813E+03  0.50000000000E+03  0.47000000000E+01 0.  1.
</event>
<event>
 4    1  0.4838534E-004  0.1000000E+04  0.7546771E-02  0.8684367E-01
         11   -1    0    0    0    0  0.00000000000E+00  0.00000000000E+00  0.50000000000E+03  0.50000000000E+03  0.00000000000E+00 0. -1.
        -11   -1    0    0    0    0 -0.00000000000E+00 -0.00000000000E+00 -0.50000000000E+03  0.50000000000E+03  0.00000000000E+00 0.  1.
          5    1    1    2  501    0 -0.20571593490E+03 -0.83187439790E+02  0.44803874162E+03  0.50000000000E+03  0.47000000000E+01 0. -1.
         -5    1    1    2    0  501  0.20571593490E+03  0.83187439790E+02 -0.44803874162E+03  0.50000000000E+03  0.47000000000E+01 0.  1.
</event>
<event>
 4    1  0.4838534E-004  0.1000000E+04  0.7546771E-02  0.8684367E-01
         11   -1    0    0    0    0  0.00000000000E+00  0.00000000000E+00  0.50000000000E+03  0.50000000000E+03  0.00000000000E+00 0. -1.
        -11   -1    0    0    0    0 -0.00000000000E+00 -0.00000000000E+00 -0.50000000000E+03  0.50000000000E+03  0.00000000000E+00 0.  1.
          5    1    1    2  501    0 -0.23630968999E+03  0.43884604480E+03 -0.39367364449E+02  0.50000000000E+03  0.47000000000E+01 0. -1.
         -5    1    1    2    0  501  0.23630968999E+03 -0.43884604480E+03  0.39367364449E+02  0.50000000000E+03  0.47000000000E+01 0.  1.
</event>
<event>
 4    1  0.4838534E-004  0.1000000E+04  0.7546771E-02  0.8684367E-01
         11   -1    0    0    0    0  0.00000000000E+00  0.00000000000E+00  0.50000000000E+03  0.50000000000E+03  0.00000000000E+00 0. -1.
        -11   -1    0    0    0    0 -0.00000000000E+00 -0.00000000000E+00 -0.50000000000E+03  0.50000000000E+03  0.00000000000E+00 0.  1.
          5    1    1    2  501    0  0.32727437487E+02  0.30616961288E+03  0.39391241791E+03  0.50000000000E+03  0.47000000000E+01 0. -1.
         -5    1    1    2    0  501 -0.32727437487E+02 -0.30616961288E+03 -0.39391241791E+03  0.50000000000E+03  0.47000000000E+01 0.  1.
</event>
<event>
 4    1  0.4838534E-004  0.1000000E+04  0.7546771E-02  0.8684367E-01
         11   -1    0    0    0    0  0.00000000000E+00  0.00000000000E+00  0.50000000000E+03  0.50000000000E+03  0.00000000000E+00 0. -1.
        -11   -1    0    0    0    0 -0.00000000000E+00 -0.00000000000E+00 -0.50000000000E+03  0.50000000000E+03  0.00000000000E+00 0.  1.
          5    1    1    2  501    0 -0.17042685264E+03  0.80367924045E+02  0.46311293945E+03  0.50000000000E+03  0.47000000000E+01 0. -1.
         -5    1    1    2    0  501  0.17042685264E+03 -0.80367924045E+02 -0.46311293945E+03  0.50000000000E+03  0.47000000000E+01 0.  1.
</event>
<event>
 4    1  0.4838534E-004  0.1000000E+04  0.7546771E-02  0.8684367E-01
         11   -1    0    0    0    0  0.00000000000E+00  0.00000000000E+00  0.50000000000E+03  0.50000000000E+03  0.00000000000E+00 0. -1.
        -11   -1    0    0    0    0 -0.00000000000E+00 -0.00000000000E+00 -0.50000000000E+03  0.50000000000E+03  0.00000000000E+00 0.  1.
          5    1    1    2  501    0  0.40294461285E+03  0.21741951897E+03 -0.20085393138E+03  0.50000000000E+03  0.47000000000E+01 0. -1.
         -5    1    1    2    0  501 -0.40294461285E+03 -0.21741951897E+03  0.20085393138E+03  0.50000000000E+03  0.47000000000E+01 0.  1.
</event>
<event>
 4    1  0.4838534E-004  0.1000000E+04  0.7546771E-02  0.8684367E-01
         11   -1    0    0    0    0  0.00000000000E+00  0.00000000000E+00  0.50000000000E+03  0.50000000000E+03  0.00000000000E+00 0. -1.
        -11   -1    0    0    0    0 -0.00000000000E+00 -0.00000000000E+00 -0.50000000000E+03  0.50000000000E+03  0.00000000000E+00 0.  1.
          5    1    1    2  501    0  0.34638135991E+03 -0.23411922222E+03  0.27420075363E+03  0.50000000000E+03  0.47000000000E+01 0. -1.
         -5    1    1    2    0  501 -0.34638135991E+03  0.23411922222E+03 -0.27420075363E+03  0.50000000000E+03  0.47000000000E+01 0.  1.
</event>
<event>
 4    1  0.4838534E-004  0.1000000E+04  0.7546771E-02  0.8684367E-01
         11   -1    0    0    0    0  0.00000000000E+00  0.00000000000E+00  0.50000000000E+03  0.50000000000E+03  0.00000000000E+00 0. -1.
        -11   -1    0    0    0    0 -0.00000000000E+00 -0.00000000000E+00 -0.50000000000E+03  0.50000000000E+03  0.00000000000E+00 0.  1.
          5    1    1    2  501    0 -0.38056560433E+03 -0.11496277884E+03 -0.30320173199E+03  0.50000000000E+03  0.47000000000E+01 0.  1.
         -5    1    1    2    0  501  0.38056560433E+03  0.11496277884E+03  0.30320173199E+03  0.50000000000E+03  0.47000000000E+01 0. -1.
</event>
<event>
 4    1  0.4838534E-004  0.1000000E+04  0.7546771E-02  0.8684367E-01
         11   -1    0    0    0    0  0.00000000000E+00  0.00000000000E+00  0.50000000000E+03  0.50000000000E+03  0.00000000000E+00 0.  1.
        -11   -1    0    0    0    0 -0.00000000000E+00 -0.00000000000E+00 -0.50000000000E+03  0.50000000000E+03  0.00000000000E+00 0. -1.
          5    1    1    2  501    0  0.42323113410E+03 -0.32655906866E+02  0.26417211979E+03  0.50000000000E+03  0.47000000000E+01 0. -1.
         -5    1    1    2    0  501 -0.42323113410E+03  0.32655906866E+02 -0.26417211979E+03  0.50000000000E+03  0.47000000000E+01 0.  1.
</event>
<event>
 4    1  0.4838534E-004  0.1000000E+04  0.7546771E-02  0.8684367E-01
         11   -1    0    0    0    0  0.00000000000E+00  0.00000000000E+00  0.50000000000E+03  0.50000000000E+03  0.00000000000E+00 0. -1.
        -11   -1    0    0    0    0 -0.00000000000E+00 -0.00000000000E+00 -0.50000000000E+03  0.50000000000E+03  0.00000000000E+00 0.  1.
          5    1    1    2  501    0  0.44707467441E+03 -0.15196136360E+03  0.16434685722E+03  0.50000000000E+03  0.47000000000E+01 0. -1.
         -5    1    1    2    0  501 -0.44707467441E+03  0.15196136360E+03 -0.16434685722E+03  0.50000000000E+03  0.47000000000E+01 0.  1.
</event>
<event>
 4    1  0.4838534E-004  0.1000000E+04  0.7546771E-02  0.8684367E-01
         11   -1    0    0    0    0  0.00000000000E+00  0.00000000000E+00  0.50000000000E+03  0.50000000000E+03  0.00000000000E+00 0.  1.
        -11   -1    0    0    0    0 -0.00000000000E+00 -0.00000000000E+00 -0.50000000000E+03  0.50000000000E+03  0.00000000000E+00 0. -1.
          5    1    1    2  501    0 -0.46078360218E+03  0.67466158829E+02  0.18194696858E+03  0.50000000000E+03  0.47000000000E+01 0.  1.
         -5    1    1    2    0  501  0.46078360218E+03 -0.67466158829E+02 -0.18194696858E+03  0.50000000000E+03  0.47000000000E+01 0. -1.
</event>
<event>
 4    1  0.4838534E-004  0.1000000E+04  0.7546771E-02  0.8684367E-01
         11   -1    0    0    0    0  0.00000000000E+00  0.00000000000E+00  0.50000000000E+03  0.50000000000E+03  0.00000000000E+00 0. -1.
        -11   -1    0    0    0    0 -0.00000000000E+00 -0.00000000000E+00 -0.50000000000E+03  0.50000000000E+03  0.00000000000E+00 0.  1.
          5    1    1    2  501    0 -0.28293802989E+03 -0.33534218311E+03  0.23972818247E+03  0.50000000000E+03  0.47000000000E+01 0. -1.
         -5    1    1    2    0  501  0.28293802989E+03  0.33534218311E+03 -0.23972818247E+03  0.50000000000E+03  0.47000000000E+01 0.  1.
</event>
<event>
 4    1  0.4838534E-004  0.1000000E+04  0.7546771E-02  0.8684367E-01
         11   -1    0    0    0    0  0.00000000000E+00  0.00000000000E+00  0.50000000000E+03  0.50000000000E+03  0.00000000000E+00 0.  1.
        -11   -1    0    0    0    0 -0.00000000000E+00 -0.00000000000E+00 -0.50000000000E+03  0.50000000000E+03  0.00000000000E+00 0. -1.
          5    1    1    2  501    0  0.49759388885E+03 -0.21268677550E+02  0.43884793850E+02  0.50000000000E+03  0.47000000000E+01 0.  1.
         -5    1    1    2    0  501 -0.49759388885E+03  0.21268677550E+02 -0.43884793850E+02  0.50000000000E+03  0.47000000000E+01 0. -1.
</event>
<event>
 4    1  0.4838534E-004  0.1000000E+04  0.7546771E-02  0.8684367E-01
         11   -1    0    0    0    0  0.00000000000E+00  0.00000000000E+00  0.50000000000E+03  0.50000000000E+03  0.00000000000E+00 0. -1.
        -11   -1    0    0    0    0 -0.00000000000E+00 -0.00000000000E+00 -0.50000000000E+03  0.50000000000E+03  0.00000000000E+00 0.  1.
          5    1    1    2  501    0  0.28397644859E+02 -0.20025386371E+03  0.45724159241E+03  0.50000000000E+03  0.47000000000E+01 0. -1.
         -5    1    1    2    0  501 -0.28397644859E+02  0.20025386371E+03 -0.45724159241E+03  0.50000000000E+03  0.47000000000E+01 0.  1.
</event>
<event>
 4    1  0.4838534E-004  0.1000000E+04  0.7546771E-02  0.8684367E-01
         11   -1    0    0    0    0  0.00000000000E+00  0.00000000000E+00  0.50000000000E+03  0.50000000000E+03  0.00000000000E+00 0. -1.
        -11   -1    0    0    0    0 -0.00000000000E+00 -0.00000000000E+00 -0.50000000000E+03  0.50000000000E+03  0.00000000000E+00 0.  1.
          5    1    1    2  501    0 -0.40349176952E+03  0.26830815252E+03  0.12321946769E+03  0.50000000000E+03  0.47000000000E+01 0. -1.
         -5    1    1    2    0  501  0.40349176952E+03 -0.26830815252E+03 -0.12321946769E+03  0.50000000000E+03  0.47000000000E+01 0.  1.
</event>
<event>
 4    1  0.4838534E-004  0.1000000E+04  0.7546771E-02  0.8684367E-01
         11   -1    0    0    0    0  0.00000000000E+00  0.00000000000E+00  0.50000000000E+03  0.50000000000E+03  0.00000000000E+00 0.  1.
        -11   -1    0    0    0    0 -0.00000000000E+00 -0.00000000000E+00 -0.50000000000E+03  0.50000000000E+03  0.00000000000E+00 0. -1.
          5    1    1    2  501    0  0.24553753107E+03  0.27845993287E+02  0.43464218789E+03  0.50000000000E+03  0.47000000000E+01 0.  1.
         -5    1    1    2    0  501 -0.24553753107E+03 -0.27845993287E+02 -0.43464218789E+03  0.50000000000E+03  0.47000000000E+01 0. -1.
</event>
<event>
 4    1  0.4838534E-004  0.1000000E+04  0.7546771E-02  0.8684367E-01
         11   -1    0    0    0    0  0.00000000000E+00  0.00000000000E+00  0.50000000000E+03  0.50000000000E+03  0.00000000000E+00 0. -1.
        -11   -1    0    0    0    0 -0.00000000000E+00 -0.00000000000E+00 -0.50000000000E+03  0.50000000000E+03  0.00000000000E+00 0.  1.
          5    1    1    2  501    0 -0.14412136694E+03 -0.39998781892E+03  0.26309064275E+03  0.50000000000E+03  0.47000000000E+01 0. -1.
         -5    1    1    2    0  501  0.14412136694E+03  0.39998781892E+03 -0.26309064275E+03  0.50000000000E+03  0.47000000000E+01 0.  1.
</event>
<event>
 4    1  0.4838534E-004  0.1000000E+04  0.7546771E-02  0.8684367E-01
         11   -1    0    0    0    0  0.00000000000E+00  0.00000000000E+00  0.50000000000E+03  0.50000000000E+03  0.00000000000E+00 0. -1.
        -11   -1    0    0    0    0 -0.00000000000E+00 -0.00000000000E+00 -0.50000000000E+03  0.50000000000E+03  0.00000000000E+00 0.  1.
          5    1    1    2  501    0 -0.42622507605E+03  0.16169197510E+03  0.20534312682E+03  0.50000000000E+03  0.47000000000E+01 0. -1.
         -5    1    1    2    0  501  0.42622507605E+03 -0.16169197510E+03 -0.20534312682E+03  0.50000000000E+03  0.47000000000E+01 0.  1.
</event>
<event>
 4    1  0.4838534E-004  0.1000000E+04  0.7546771E-02  0.8684367E-01
         11   -1    0    0    0    0  0.00000000000E+00  0.00000000000E+00  0.50000000000E+03  0.50000000000E+03  0.00000000000E+00 0. -1.
        -11   -1    0    0    0    0 -0.00000000000E+00 -0.00000000000E+00 -0.50000000000E+03  0.50000000000E+03  0.00000000000E+00 0.  1.
          5    1    1    2  501    0  0.34389657389E+03  0.32408797245E+03 -0.16334026625E+03  0.50000000000E+03  0.47000000000E+01 0. -1.
         -5    1    1    2    0  501 -0.34389657389E+03 -0.32408797245E+03  0.16334026625E+03  0.50000000000E+03  0.47000000000E+01 0.  1.
</event>
<event>
 4    1  0.4838534E-004  0.1000000E+04  0.7546771E-02  0.8684367E-01
         11   -1    0    0    0    0  0.00000000000E+00  0.00000000000E+00  0.50000000000E+03  0.50000000000E+03  0.00000000000E+00 0. -1.
        -11   -1    0    0    0    0 -0.00000000000E+00 -0.00000000000E+00 -0.50000000000E+03  0.50000000000E+03  0.00000000000E+00 0.  1.
          5    1    1    2  501    0  0.48854998700E+03  0.83821945120E+02  0.65350606113E+02  0.50000000000E+03  0.47000000000E+01 0. -1.
         -5    1    1    2    0  501 -0.48854998700E+03 -0.83821945120E+02 -0.65350606113E+02  0.50000000000E+03  0.47000000000E+01 0.  1.
</event>
<event>
 4    1  0.4838534E-004  0.1000000E+04  0.7546771E-02  0.8684367E-01
         11   -1    0    0    0    0  0.00000000000E+00  0.00000000000E+00  0.50000000000E+03  0.50000000000E+03  0.00000000000E+00 0. -1.
        -11   -1    0    0    0    0 -0.00000000000E+00 -0.00000000000E+00 -0.50000000000E+03  0.50000000000E+03  0.00000000000E+00 0.  1.
          5    1    1    2  501    0 -0.35176641436E+03  0.33324317673E+03  0.12323670269E+03  0.50000000000E+03  0.47000000000E+01 0. -1.
         -5    1    1    2    0  501  0.35176641436E+03 -0.33324317673E+03 -0.12323670269E+03  0.50000000000E+03  0.47000000000E+01 0.  1.
</event>
<event>
 4    1  0.4838534E-004  0.1000000E+04  0.7546771E-02  0.8684367E-01
         11   -1    0    0    0    0  0.00000000000E+00  0.00000000000E+00  0.50000000000E+03  0.50000000000E+03  0.00000000000E+00 0. -1.
        -11   -1    0    0    0    0 -0.00000000000E+00 -0.00000000000E+00 -0.50000000000E+03  0.50000000000E+03  0.00000000000E+00 0.  1.
          5    1    1    2  501    0  0.46059548943E+03 -0.10816986705E+03  0.16164462559E+03  0.50000000000E+03  0.47000000000E+01 0. -1.
         -5    1    1    2    0  501 -0.46059548943E+03  0.10816986705E+03 -0.16164462559E+03  0.50000000000E+03  0.47000000000E+01 0.  1.
</event>
<event>
 4    1  0.4838534E-004  0.1000000E+04  0.7546771E-02  0.8684367E-01
         11   -1    0    0    0    0  0.00000000000E+00  0.00000000000E+00  0.50000000000E+03  0.50000000000E+03  0.00000000000E+00 0. -1.
        -11   -1    0    0    0    0 -0.00000000000E+00 -0.00000000000E+00 -0.50000000000E+03  0.50000000000E+03  0.00000000000E+00 0.  1.
          5    1    1    2  501    0 -0.20876925925E+03 -0.31911660313E+03  0.32335414022E+03  0.50000000000E+03  0.47000000000E+01 0. -1.
         -5    1    1    2    0  501  0.20876925925E+03  0.31911660313E+03 -0.32335414022E+03  0.50000000000E+03  0.47000000000E+01 0.  1.
</event>
<event>
 4    1  0.4838534E-004  0.1000000E+04  0.7546771E-02  0.8684367E-01
         11   -1    0    0    0    0  0.00000000000E+00  0.00000000000E+00  0.50000000000E+03  0.50000000000E+03  0.00000000000E+00 0. -1.
        -11   -1    0    0    0    0 -0.00000000000E+00 -0.00000000000E+00 -0.50000000000E+03  0.50000000000E+03  0.00000000000E+00 0.  1.
          5    1    1    2  501    0  0.37383112462E+03  0.19665227326E+03  0.26749968913E+03  0.50000000000E+03  0.47000000000E+01 0. -1.
         -5    1    1    2    0  501 -0.37383112462E+03 -0.19665227326E+03 -0.26749968913E+03  0.50000000000E+03  0.47000000000E+01 0.  1.
</event>
<event>
 4    1  0.4838534E-004  0.1000000E+04  0.7546771E-02  0.8684367E-01
         11   -1    0    0    0    0  0.00000000000E+00  0.00000000000E+00  0.50000000000E+03  0.50000000000E+03  0.00000000000E+00 0. -1.
        -11   -1    0    0    0    0 -0.00000000000E+00 -0.00000000000E+00 -0.50000000000E+03  0.50000000000E+03  0.00000000000E+00 0.  1.
          5    1    1    2  501    0 -0.24174481776E+02 -0.19686163860E+03  0.45895424574E+03  0.50000000000E+03  0.47000000000E+01 0. -1.
         -5    1    1    2    0  501  0.24174481776E+02  0.19686163860E+03 -0.45895424574E+03  0.50000000000E+03  0.47000000000E+01 0.  1.
</event>
<event>
 4    1  0.4838534E-004  0.1000000E+04  0.7546771E-02  0.8684367E-01
         11   -1    0    0    0    0  0.00000000000E+00  0.00000000000E+00  0.50000000000E+03  0.50000000000E+03  0.00000000000E+00 0. -1.
        -11   -1    0    0    0    0 -0.00000000000E+00 -0.00000000000E+00 -0.50000000000E+03  0.50000000000E+03  0.00000000000E+00 0.  1.
          5    1    1    2  501    0 -0.22224650185E+03  0.25375408825E+03 -0.36904371707E+03  0.50000000000E+03  0.47000000000E+01 0.  1.
         -5    1    1    2    0  501  0.22224650185E+03 -0.25375408825E+03  0.36904371707E+03  0.50000000000E+03  0.47000000000E+01 0. -1.
</event>
<event>
 4    1  0.4838534E-004  0.1000000E+04  0.7546771E-02  0.8684367E-01
         11   -1    0    0    0    0  0.00000000000E+00  0.00000000000E+00  0.50000000000E+03  0.50000000000E+03  0.00000000000E+00 0. -1.
        -11   -1    0    0    0    0 -0.00000000000E+00 -0.00000000000E+00 -0.50000000000E+03  0.50000000000E+03  0.00000000000E+00 0.  1.
          5    1    1    2  501    0 -0.30949217385E+03 -0.34004071970E+03  0.19637925876E+03  0.50000000000E+03  0.47000000000E+01 0. -1.
         -5    1    1    2    0  501  0.30949217385E+03  0.34004071970E+03 -0.19637925876E+03  0.50000000000E+03  0.47000000000E+01 0.  1.
</event>
<event>
 4    1  0.4838534E-004  0.1000000E+04  0.7546771E-02  0.8684367E-01
         11   -1    0    0    0    0  0.00000000000E+00  0.00000000000E+00  0.50000000000E+03  0.50000000000E+03  0.00000000000E+00 0. -1.
        -11   -1    0    0    0    0 -0.00000000000E+00 -0.00000000000E+00 -0.50000000000E+03  0.50000000000E+03  0.00000000000E+00 0.  1.
          5    1    1    2  501    0  0.44669390126E+03 -0.12810865502E+03  0.18447395775E+03  0.50000000000E+03  0.47000000000E+01 0. -1.
         -5    1    1    2    0  501 -0.44669390126E+03  0.12810865502E+03 -0.18447395775E+03  0.50000000000E+03  0.47000000000E+01 0.  1.
</event>
<event>
 4    1  0.4838534E-004  0.1000000E+04  0.7546771E-02  0.8684367E-01
         11   -1    0    0    0    0  0.00000000000E+00  0.00000000000E+00  0.50000000000E+03  0.50000000000E+03  0.00000000000E+00 0. -1.
        -11   -1    0    0    0    0 -0.00000000000E+00 -0.00000000000E+00 -0.50000000000E+03  0.50000000000E+03  0.00000000000E+00 0.  1.
          5    1    1    2  501    0 -0.37404495328E+03 -0.30519552861E+03  0.13009216823E+03  0.50000000000E+03  0.47000000000E+01 0. -1.
         -5    1    1    2    0  501  0.37404495328E+03  0.30519552861E+03 -0.13009216823E+03  0.50000000000E+03  0.47000000000E+01 0.  1.
</event>
<event>
 4    1  0.4838534E-004  0.1000000E+04  0.7546771E-02  0.8684367E-01
         11   -1    0    0    0    0  0.00000000000E+00  0.00000000000E+00  0.50000000000E+03  0.50000000000E+03  0.00000000000E+00 0. -1.
        -11   -1    0    0    0    0 -0.00000000000E+00 -0.00000000000E+00 -0.50000000000E+03  0.50000000000E+03  0.00000000000E+00 0.  1.
          5    1    1    2  501    0 -0.14940029641E+02 -0.54858046359E+02  0.49673463767E+03  0.50000000000E+03  0.47000000000E+01 0. -1.
         -5    1    1    2    0  501  0.14940029641E+02  0.54858046359E+02 -0.49673463767E+03  0.50000000000E+03  0.47000000000E+01 0.  1.
</event>
<event>
 4    1  0.4838534E-004  0.1000000E+04  0.7546771E-02  0.8684367E-01
         11   -1    0    0    0    0  0.00000000000E+00  0.00000000000E+00  0.50000000000E+03  0.50000000000E+03  0.00000000000E+00 0. -1.
        -11   -1    0    0    0    0 -0.00000000000E+00 -0.00000000000E+00 -0.50000000000E+03  0.50000000000E+03  0.00000000000E+00 0.  1.
          5    1    1    2  501    0  0.89673110524E+01 -0.21620261135E+03  0.45072600122E+03  0.50000000000E+03  0.47000000000E+01 0. -1.
         -5    1    1    2    0  501 -0.89673110524E+01  0.21620261135E+03 -0.45072600122E+03  0.50000000000E+03  0.47000000000E+01 0.  1.
</event>
<event>
 4    1  0.4838534E-004  0.1000000E+04  0.7546771E-02  0.8684367E-01
         11   -1    0    0    0    0  0.00000000000E+00  0.00000000000E+00  0.50000000000E+03  0.50000000000E+03  0.00000000000E+00 0. -1.
        -11   -1    0    0    0    0 -0.00000000000E+00 -0.00000000000E+00 -0.50000000000E+03  0.50000000000E+03  0.00000000000E+00 0.  1.
          5    1    1    2  501    0 -0.79167287449E+02  0.25316044910E+03  0.42381627813E+03  0.50000000000E+03  0.47000000000E+01 0. -1.
         -5    1    1    2    0  501  0.79167287449E+02 -0.25316044910E+03 -0.42381627813E+03  0.50000000000E+03  0.47000000000E+01 0.  1.
</event>
<event>
 4    1  0.4838534E-004  0.1000000E+04  0.7546771E-02  0.8684367E-01
         11   -1    0    0    0    0  0.00000000000E+00  0.00000000000E+00  0.50000000000E+03  0.50000000000E+03  0.00000000000E+00 0.  1.
        -11   -1    0    0    0    0 -0.00000000000E+00 -0.00000000000E+00 -0.50000000000E+03  0.50000000000E+03  0.00000000000E+00 0. -1.
          5    1    1    2  501    0  0.35246119192E+03 -0.41075619317E+02 -0.35222409300E+03  0.50000000000E+03  0.47000000000E+01 0. -1.
         -5    1    1    2    0  501 -0.35246119192E+03  0.41075619317E+02  0.35222409300E+03  0.50000000000E+03  0.47000000000E+01 0.  1.
</event>
<event>
 4    1  0.4838534E-004  0.1000000E+04  0.7546771E-02  0.8684367E-01
         11   -1    0    0    0    0  0.00000000000E+00  0.00000000000E+00  0.50000000000E+03  0.50000000000E+03  0.00000000000E+00 0. -1.
        -11   -1    0    0    0    0 -0.00000000000E+00 -0.00000000000E+00 -0.50000000000E+03  0.50000000000E+03  0.00000000000E+00 0.  1.
          5    1    1    2  501    0 -0.28111709204E+03 -0.29254538355E+03  0.29217852269E+03  0.50000000000E+03  0.47000000000E+01 0. -1.
         -5    1    1    2    0  501  0.28111709204E+03  0.29254538355E+03 -0.29217852269E+03  0.50000000000E+03  0.47000000000E+01 0.  1.
</event>
<event>
 4    1  0.4838534E-004  0.1000000E+04  0.7546771E-02  0.8684367E-01
         11   -1    0    0    0    0  0.00000000000E+00  0.00000000000E+00  0.50000000000E+03  0.50000000000E+03  0.00000000000E+00 0. -1.
        -11   -1    0    0    0    0 -0.00000000000E+00 -0.00000000000E+00 -0.50000000000E+03  0.50000000000E+03  0.00000000000E+00 0.  1.
          5    1    1    2  501    0  0.41236719148E+03  0.81881557518E+02 -0.27060417575E+03  0.50000000000E+03  0.47000000000E+01 0.  1.
         -5    1    1    2    0  501 -0.41236719148E+03 -0.81881557518E+02  0.27060417575E+03  0.50000000000E+03  0.47000000000E+01 0. -1.
</event>
<event>
 4    1  0.4838534E-004  0.1000000E+04  0.7546771E-02  0.8684367E-01
         11   -1    0    0    0    0  0.00000000000E+00  0.00000000000E+00  0.50000000000E+03  0.50000000000E+03  0.00000000000E+00 0. -1.
        -11   -1    0    0    0    0 -0.00000000000E+00 -0.00000000000E+00 -0.50000000000E+03  0.50000000000E+03  0.00000000000E+00 0.  1.
          5    1    1    2  501    0  0.31904900270E+03 -0.38055478404E+03 -0.57997415583E+02  0.50000000000E+03  0.47000000000E+01 0. -1.
         -5    1    1    2    0  501 -0.31904900270E+03  0.38055478404E+03  0.57997415583E+02  0.50000000000E+03  0.47000000000E+01 0.  1.
</event>
<event>
 4    1  0.4838534E-004  0.1000000E+04  0.7546771E-02  0.8684367E-01
         11   -1    0    0    0    0  0.00000000000E+00  0.00000000000E+00  0.50000000000E+03  0.50000000000E+03  0.00000000000E+00 0.  1.
        -11   -1    0    0    0    0 -0.00000000000E+00 -0.00000000000E+00 -0.50000000000E+03  0.50000000000E+03  0.00000000000E+00 0. -1.
          5    1    1    2  501    0 -0.24980233227E+03  0.17267820612E+03  0.39718879884E+03  0.50000000000E+03  0.47000000000E+01 0.  1.
         -5    1    1    2    0  501  0.24980233227E+03 -0.17267820612E+03 -0.39718879884E+03  0.50000000000E+03  0.47000000000E+01 0. -1.
</event>
<event>
 4    1  0.4838534E-004  0.1000000E+04  0.7546771E-02  0.8684367E-01
         11   -1    0    0    0    0  0.00000000000E+00  0.00000000000E+00  0.50000000000E+03  0.50000000000E+03  0.00000000000E+00 0. -1.
        -11   -1    0    0    0    0 -0.00000000000E+00 -0.00000000000E+00 -0.50000000000E+03  0.50000000000E+03  0.00000000000E+00 0.  1.
          5    1    1    2  501    0 -0.41779574296E+03 -0.24971613725E+03  0.11430869591E+03  0.50000000000E+03  0.47000000000E+01 0. -1.
         -5    1    1    2    0  501  0.41779574296E+03  0.24971613725E+03 -0.11430869591E+03  0.50000000000E+03  0.47000000000E+01 0.  1.
</event>
<event>
 4    1  0.4838534E-004  0.1000000E+04  0.7546771E-02  0.8684367E-01
         11   -1    0    0    0    0  0.00000000000E+00  0.00000000000E+00  0.50000000000E+03  0.50000000000E+03  0.00000000000E+00 0. -1.
        -11   -1    0    0    0    0 -0.00000000000E+00 -0.00000000000E+00 -0.50000000000E+03  0.50000000000E+03  0.00000000000E+00 0.  1.
          5    1    1    2  501    0  0.69967575429E+02  0.31714171006E+03  0.38013627047E+03  0.50000000000E+03  0.47000000000E+01 0. -1.
         -5    1    1    2    0  501 -0.69967575429E+02 -0.31714171006E+03 -0.38013627047E+03  0.50000000000E+03  0.47000000000E+01 0.  1.
</event>
<event>
 4    1  0.4838534E-004  0.1000000E+04  0.7546771E-02  0.8684367E-01
         11   -1    0    0    0    0  0.00000000000E+00  0.00000000000E+00  0.50000000000E+03  0.50000000000E+03  0.00000000000E+00 0. -1.
        -11   -1    0    0    0    0 -0.00000000000E+00 -0.00000000000E+00 -0.50000000000E+03  0.50000000000E+03  0.00000000000E+00 0.  1.
          5    1    1    2  501    0 -0.18655416136E+03 -0.50991098535E+01  0.46384205713E+03  0.50000000000E+03  0.47000000000E+01 0. -1.
         -5    1    1    2    0  501  0.18655416136E+03  0.50991098535E+01 -0.46384205713E+03  0.50000000000E+03  0.47000000000E+01 0.  1.
</event>
<event>
 4    1  0.4838534E-004  0.1000000E+04  0.7546771E-02  0.8684367E-01
         11   -1    0    0    0    0  0.00000000000E+00  0.00000000000E+00  0.50000000000E+03  0.50000000000E+03  0.00000000000E+00 0. -1.
        -11   -1    0    0    0    0 -0.00000000000E+00 -0.00000000000E+00 -0.50000000000E+03  0.50000000000E+03  0.00000000000E+00 0.  1.
          5    1    1    2  501    0 -0.42008793653E+02 -0.50793218991E+02  0.49561398302E+03  0.50000000000E+03  0.47000000000E+01 0. -1.
         -5    1    1    2    0  501  0.42008793653E+02  0.50793218991E+02 -0.49561398302E+03  0.50000000000E+03  0.47000000000E+01 0.  1.
</event>
<event>
 4    1  0.4838534E-004  0.1000000E+04  0.7546771E-02  0.8684367E-01
         11   -1    0    0    0    0  0.00000000000E+00  0.00000000000E+00  0.50000000000E+03  0.50000000000E+03  0.00000000000E+00 0. -1.
        -11   -1    0    0    0    0 -0.00000000000E+00 -0.00000000000E+00 -0.50000000000E+03  0.50000000000E+03  0.00000000000E+00 0.  1.
          5    1    1    2  501    0  0.16491521913E+03 -0.14800025747E+03  0.44819282043E+03  0.50000000000E+03  0.47000000000E+01 0. -1.
         -5    1    1    2    0  501 -0.16491521913E+03  0.14800025747E+03 -0.44819282043E+03  0.50000000000E+03  0.47000000000E+01 0.  1.
</event>
<event>
 4    1  0.4838534E-004  0.1000000E+04  0.7546771E-02  0.8684367E-01
         11   -1    0    0    0    0  0.00000000000E+00  0.00000000000E+00  0.50000000000E+03  0.50000000000E+03  0.00000000000E+00 0. -1.
        -11   -1    0    0    0    0 -0.00000000000E+00 -0.00000000000E+00 -0.50000000000E+03  0.50000000000E+03  0.00000000000E+00 0.  1.
          5    1    1    2  501    0 -0.32391794810E+03 -0.11036661239E+03  0.36451925021E+03  0.50000000000E+03  0.47000000000E+01 0. -1.
         -5    1    1    2    0  501  0.32391794810E+03  0.11036661239E+03 -0.36451925021E+03  0.50000000000E+03  0.47000000000E+01 0.  1.
</event>
<event>
 4    1  0.4838534E-004  0.1000000E+04  0.7546771E-02  0.8684367E-01
         11   -1    0    0    0    0  0.00000000000E+00  0.00000000000E+00  0.50000000000E+03  0.50000000000E+03  0.00000000000E+00 0. -1.
        -11   -1    0    0    0    0 -0.00000000000E+00 -0.00000000000E+00 -0.50000000000E+03  0.50000000000E+03  0.00000000000E+00 0.  1.
          5    1    1    2  501    0  0.24934321668E+03  0.24417561442E+03  0.35802812685E+03  0.50000000000E+03  0.47000000000E+01 0. -1.
         -5    1    1    2    0  501 -0.24934321668E+03 -0.24417561442E+03 -0.35802812685E+03  0.50000000000E+03  0.47000000000E+01 0.  1.
</event>
<event>
 4    1  0.4838534E-004  0.1000000E+04  0.7546771E-02  0.8684367E-01
         11   -1    0    0    0    0  0.00000000000E+00  0.00000000000E+00  0.50000000000E+03  0.50000000000E+03  0.00000000000E+00 0. -1.
        -11   -1    0    0    0    0 -0.00000000000E+00 -0.00000000000E+00 -0.50000000000E+03  0.50000000000E+03  0.00000000000E+00 0.  1.
          5    1    1    2  501    0 -0.37833559730E+03 -0.18202847519E+03 -0.27148797402E+03  0.50000000000E+03  0.47000000000E+01 0.  1.
         -5    1    1    2    0  501  0.37833559730E+03  0.18202847519E+03  0.27148797402E+03  0.50000000000E+03  0.47000000000E+01 0. -1.
</event>
<event>
 4    1  0.4838534E-004  0.1000000E+04  0.7546771E-02  0.8684367E-01
         11   -1    0    0    0    0  0.00000000000E+00  0.00000000000E+00  0.50000000000E+03  0.50000000000E+03  0.00000000000E+00 0. -1.
        -11   -1    0    0    0    0 -0.00000000000E+00 -0.00000000000E+00 -0.50000000000E+03  0.50000000000E+03  0.00000000000E+00 0.  1.
          5    1    1    2  501    0  0.38044311836E+03 -0.18513100814E+03  0.26639717251E+03  0.50000000000E+03  0.47000000000E+01 0. -1.
         -5    1    1    2    0  501 -0.38044311836E+03  0.18513100814E+03 -0.26639717251E+03  0.50000000000E+03  0.47000000000E+01 0.  1.
</event>
<event>
 4    1  0.4838534E-004  0.1000000E+04  0.7546771E-02  0.8684367E-01
         11   -1    0    0    0    0  0.00000000000E+00  0.00000000000E+00  0.50000000000E+03  0.50000000000E+03  0.00000000000E+00 0. -1.
        -11   -1    0    0    0    0 -0.00000000000E+00 -0.00000000000E+00 -0.50000000000E+03  0.50000000000E+03  0.00000000000E+00 0.  1.
          5    1    1    2  501    0 -0.29963084349E+03 -0.31263362956E+03  0.24991894946E+03  0.50000000000E+03  0.47000000000E+01 0. -1.
         -5    1    1    2    0  501  0.29963084349E+03  0.31263362956E+03 -0.24991894946E+03  0.50000000000E+03  0.47000000000E+01 0.  1.
</event>
<event>
 4    1  0.4838534E-004  0.1000000E+04  0.7546771E-02  0.8684367E-01
         11   -1    0    0    0    0  0.00000000000E+00  0.00000000000E+00  0.50000000000E+03  0.50000000000E+03  0.00000000000E+00 0. -1.
        -11   -1    0    0    0    0 -0.00000000000E+00 -0.00000000000E+00 -0.50000000000E+03  0.50000000000E+03  0.00000000000E+00 0.  1.
          5    1    1    2  501    0  0.18031587376E+02  0.12877618408E+03  0.48277268592E+03  0.50000000000E+03  0.47000000000E+01 0. -1.
         -5    1    1    2    0  501 -0.18031587376E+02 -0.12877618408E+03 -0.48277268592E+03  0.50000000000E+03  0.47000000000E+01 0.  1.
</event>
<event>
 4    1  0.4838534E-004  0.1000000E+04  0.7546771E-02  0.8684367E-01
         11   -1    0    0    0    0  0.00000000000E+00  0.00000000000E+00  0.50000000000E+03  0.50000000000E+03  0.00000000000E+00 0. -1.
        -11   -1    0    0    0    0 -0.00000000000E+00 -0.00000000000E+00 -0.50000000000E+03  0.50000000000E+03  0.00000000000E+00 0.  1.
          5    1    1    2  501    0  0.43279631661E+02 -0.27476049477E+03  0.41546534633E+03  0.50000000000E+03  0.47000000000E+01 0. -1.
         -5    1    1    2    0  501 -0.43279631661E+02  0.27476049477E+03 -0.41546534633E+03  0.50000000000E+03  0.47000000000E+01 0.  1.
</event>
<event>
 4    1  0.4838534E-004  0.1000000E+04  0.7546771E-02  0.8684367E-01
         11   -1    0    0    0    0  0.00000000000E+00  0.00000000000E+00  0.50000000000E+03  0.50000000000E+03  0.00000000000E+00 0. -1.
        -11   -1    0    0    0    0 -0.00000000000E+00 -0.00000000000E+00 -0.50000000000E+03  0.50000000000E+03  0.00000000000E+00 0.  1.
          5    1    1    2  501    0  0.20201015826E+03  0.28445857081E+03  0.35812445805E+03  0.50000000000E+03  0.47000000000E+01 0. -1.
         -5    1    1    2    0  501 -0.20201015826E+03 -0.28445857081E+03 -0.35812445805E+03  0.50000000000E+03  0.47000000000E+01 0.  1.
</event>
<event>
 4    1  0.4838534E-004  0.1000000E+04  0.7546771E-02  0.8684367E-01
         11   -1    0    0    0    0  0.00000000000E+00  0.00000000000E+00  0.50000000000E+03  0.50000000000E+03  0.00000000000E+00 0.  1.
        -11   -1    0    0    0    0 -0.00000000000E+00 -0.00000000000E+00 -0.50000000000E+03  0.50000000000E+03  0.00000000000E+00 0. -1.
          5    1    1    2  501    0  0.85798469543E+02 -0.41328331279E+03  0.26798029030E+03  0.50000000000E+03  0.47000000000E+01 0.  1.
         -5    1    1    2    0  501 -0.85798469543E+02  0.41328331279E+03 -0.26798029030E+03  0.50000000000E+03  0.47000000000E+01 0. -1.
</event>
<event>
 4    1  0.4838534E-004  0.1000000E+04  0.7546771E-02  0.8684367E-01
         11   -1    0    0    0    0  0.00000000000E+00  0.00000000000E+00  0.50000000000E+03  0.50000000000E+03  0.00000000000E+00 0. -1.
        -11   -1    0    0    0    0 -0.00000000000E+00 -0.00000000000E+00 -0.50000000000E+03  0.50000000000E+03  0.00000000000E+00 0.  1.
          5    1    1    2  501    0 -0.88838961993E+02 -0.31004777584E+03  0.38204178505E+03  0.50000000000E+03  0.47000000000E+01 0. -1.
         -5    1    1    2    0  501  0.88838961993E+02  0.31004777584E+03 -0.38204178505E+03  0.50000000000E+03  0.47000000000E+01 0.  1.
</event>
<event>
 4    1  0.4838534E-004  0.1000000E+04  0.7546771E-02  0.8684367E-01
         11   -1    0    0    0    0  0.00000000000E+00  0.00000000000E+00  0.50000000000E+03  0.50000000000E+03  0.00000000000E+00 0. -1.
        -11   -1    0    0    0    0 -0.00000000000E+00 -0.00000000000E+00 -0.50000000000E+03  0.50000000000E+03  0.00000000000E+00 0.  1.
          5    1    1    2  501    0  0.48268431185E+03 -0.11230995770E+02  0.12987543966E+03  0.50000000000E+03  0.47000000000E+01 0. -1.
         -5    1    1    2    0  501 -0.48268431185E+03  0.11230995770E+02 -0.12987543966E+03  0.50000000000E+03  0.47000000000E+01 0.  1.
</event>
<event>
 4    1  0.4838534E-004  0.1000000E+04  0.7546771E-02  0.8684367E-01
         11   -1    0    0    0    0  0.00000000000E+00  0.00000000000E+00  0.50000000000E+03  0.50000000000E+03  0.00000000000E+00 0. -1.
        -11   -1    0    0    0    0 -0.00000000000E+00 -0.00000000000E+00 -0.50000000000E+03  0.50000000000E+03  0.00000000000E+00 0.  1.
          5    1    1    2  501    0  0.46090529658E+02  0.16286320433E+03  0.47045632077E+03  0.50000000000E+03  0.47000000000E+01 0. -1.
         -5    1    1    2    0  501 -0.46090529658E+02 -0.16286320433E+03 -0.47045632077E+03  0.50000000000E+03  0.47000000000E+01 0.  1.
</event>
<event>
 4    1  0.4838534E-004  0.1000000E+04  0.7546771E-02  0.8684367E-01
         11   -1    0    0    0    0  0.00000000000E+00  0.00000000000E+00  0.50000000000E+03  0.50000000000E+03  0.00000000000E+00 0. -1.
        -11   -1    0    0    0    0 -0.00000000000E+00 -0.00000000000E+00 -0.50000000000E+03  0.50000000000E+03  0.00000000000E+00 0.  1.
          5    1    1    2  501    0 -0.95095398695E+02  0.10863053407E+03  0.47867962377E+03  0.50000000000E+03  0.47000000000E+01 0. -1.
         -5    1    1    2    0  501  0.95095398695E+02 -0.10863053407E+03 -0.47867962377E+03  0.50000000000E+03  0.47000000000E+01 0.  1.
</event>
<event>
 4    1  0.4838534E-004  0.1000000E+04  0.7546771E-02  0.8684367E-01
         11   -1    0    0    0    0  0.00000000000E+00  0.00000000000E+00  0.50000000000E+03  0.50000000000E+03  0.00000000000E+00 0. -1.
        -11   -1    0    0    0    0 -0.00000000000E+00 -0.00000000000E+00 -0.50000000000E+03  0.50000000000E+03  0.00000000000E+00 0.  1.
          5    1    1    2  501    0 -0.31920826135E+03  0.17227886777E+03  0.34409880501E+03  0.50000000000E+03  0.47000000000E+01 0. -1.
         -5    1    1    2    0  501  0.31920826135E+03 -0.17227886777E+03 -0.34409880501E+03  0.50000000000E+03  0.47000000000E+01 0.  1.
</event>
<event>
 4    1  0.4838534E-004  0.1000000E+04  0.7546771E-02  0.8684367E-01
         11   -1    0    0    0    0  0.00000000000E+00  0.00000000000E+00  0.50000000000E+03  0.50000000000E+03  0.00000000000E+00 0. -1.
        -11   -1    0    0    0    0 -0.00000000000E+00 -0.00000000000E+00 -0.50000000000E+03  0.50000000000E+03  0.00000000000E+00 0.  1.
          5    1    1    2  501    0  0.42876721069E+03 -0.24677354138E+03  0.72383757263E+02  0.50000000000E+03  0.47000000000E+01 0. -1.
         -5    1    1    2    0  501 -0.42876721069E+03  0.24677354138E+03 -0.72383757263E+02  0.50000000000E+03  0.47000000000E+01 0.  1.
</event>
<event>
 4    1  0.4838534E-004  0.1000000E+04  0.7546771E-02  0.8684367E-01
         11   -1    0    0    0    0  0.00000000000E+00  0.00000000000E+00  0.50000000000E+03  0.50000000000E+03  0.00000000000E+00 0. -1.
        -11   -1    0    0    0    0 -0.00000000000E+00 -0.00000000000E+00 -0.50000000000E+03  0.50000000000E+03  0.00000000000E+00 0.  1.
          5    1    1    2  501    0 -0.20765784225E+03 -0.31643798891E+03  0.32668506199E+03  0.50000000000E+03  0.47000000000E+01 0. -1.
         -5    1    1    2    0  501  0.20765784225E+03  0.31643798891E+03 -0.32668506199E+03  0.50000000000E+03  0.47000000000E+01 0.  1.
</event>
<event>
 4    1  0.4838534E-004  0.1000000E+04  0.7546771E-02  0.8684367E-01
         11   -1    0    0    0    0  0.00000000000E+00  0.00000000000E+00  0.50000000000E+03  0.50000000000E+03  0.00000000000E+00 0. -1.
        -11   -1    0    0    0    0 -0.00000000000E+00 -0.00000000000E+00 -0.50000000000E+03  0.50000000000E+03  0.00000000000E+00 0.  1.
          5    1    1    2  501    0  0.29356761175E+03  0.22050010838E+03  0.33937541091E+03  0.50000000000E+03  0.47000000000E+01 0. -1.
         -5    1    1    2    0  501 -0.29356761175E+03 -0.22050010838E+03 -0.33937541091E+03  0.50000000000E+03  0.47000000000E+01 0.  1.
</event>
<event>
 4    1  0.4838534E-004  0.1000000E+04  0.7546771E-02  0.8684367E-01
         11   -1    0    0    0    0  0.00000000000E+00  0.00000000000E+00  0.50000000000E+03  0.50000000000E+03  0.00000000000E+00 0. -1.
        -11   -1    0    0    0    0 -0.00000000000E+00 -0.00000000000E+00 -0.50000000000E+03  0.50000000000E+03  0.00000000000E+00 0.  1.
          5    1    1    2  501    0  0.13812541887E+03  0.41262972378E+03  0.24624376076E+03  0.50000000000E+03  0.47000000000E+01 0. -1.
         -5    1    1    2    0  501 -0.13812541887E+03 -0.41262972378E+03 -0.24624376076E+03  0.50000000000E+03  0.47000000000E+01 0.  1.
</event>
<event>
 4    1  0.4838534E-004  0.1000000E+04  0.7546771E-02  0.8684367E-01
         11   -1    0    0    0    0  0.00000000000E+00  0.00000000000E+00  0.50000000000E+03  0.50000000000E+03  0.00000000000E+00 0. -1.
        -11   -1    0    0    0    0 -0.00000000000E+00 -0.00000000000E+00 -0.50000000000E+03  0.50000000000E+03  0.00000000000E+00 0.  1.
          5    1    1    2  501    0 -0.11400745718E+03  0.51463431269E+02  0.48407822193E+03  0.50000000000E+03  0.47000000000E+01 0. -1.
         -5    1    1    2    0  501  0.11400745718E+03 -0.51463431269E+02 -0.48407822193E+03  0.50000000000E+03  0.47000000000E+01 0.  1.
</event>
<event>
 4    1  0.4838534E-004  0.1000000E+04  0.7546771E-02  0.8684367E-01
         11   -1    0    0    0    0  0.00000000000E+00  0.00000000000E+00  0.50000000000E+03  0.50000000000E+03  0.00000000000E+00 0. -1.
        -11   -1    0    0    0    0 -0.00000000000E+00 -0.00000000000E+00 -0.50000000000E+03  0.50000000000E+03  0.00000000000E+00 0.  1.
          5    1    1    2  501    0 -0.36702611567E+03  0.43810892025E+02 -0.33667543147E+03  0.50000000000E+03  0.47000000000E+01 0.  1.
         -5    1    1    2    0  501  0.36702611567E+03 -0.43810892025E+02  0.33667543147E+03  0.50000000000E+03  0.47000000000E+01 0. -1.
</event>
<event>
 4    1  0.4838534E-004  0.1000000E+04  0.7546771E-02  0.8684367E-01
         11   -1    0    0    0    0  0.00000000000E+00  0.00000000000E+00  0.50000000000E+03  0.50000000000E+03  0.00000000000E+00 0. -1.
        -11   -1    0    0    0    0 -0.00000000000E+00 -0.00000000000E+00 -0.50000000000E+03  0.50000000000E+03  0.00000000000E+00 0.  1.
          5    1    1    2  501    0  0.46362653618E+03 -0.10912132673E+03  0.15205551948E+03  0.50000000000E+03  0.47000000000E+01 0. -1.
         -5    1    1    2    0  501 -0.46362653618E+03  0.10912132673E+03 -0.15205551948E+03  0.50000000000E+03  0.47000000000E+01 0.  1.
</event>
<event>
 4    1  0.4838534E-004  0.1000000E+04  0.7546771E-02  0.8684367E-01
         11   -1    0    0    0    0  0.00000000000E+00  0.00000000000E+00  0.50000000000E+03  0.50000000000E+03  0.00000000000E+00 0.  1.
        -11   -1    0    0    0    0 -0.00000000000E+00 -0.00000000000E+00 -0.50000000000E+03  0.50000000000E+03  0.00000000000E+00 0. -1.
          5    1    1    2  501    0 -0.26981969523E+03 -0.35881237904E+01  0.42090660179E+03  0.50000000000E+03  0.47000000000E+01 0.  1.
         -5    1    1    2    0  501  0.26981969523E+03  0.35881237904E+01 -0.42090660179E+03  0.50000000000E+03  0.47000000000E+01 0. -1.
</event>
<event>
 4    1  0.4838534E-004  0.1000000E+04  0.7546771E-02  0.8684367E-01
         11   -1    0    0    0    0  0.00000000000E+00  0.00000000000E+00  0.50000000000E+03  0.50000000000E+03  0.00000000000E+00 0. -1.
        -11   -1    0    0    0    0 -0.00000000000E+00 -0.00000000000E+00 -0.50000000000E+03  0.50000000000E+03  0.00000000000E+00 0.  1.
          5    1    1    2  501    0 -0.24358863947E+03  0.64684659398E+01  0.43657833624E+03  0.50000000000E+03  0.47000000000E+01 0. -1.
         -5    1    1    2    0  501  0.24358863947E+03 -0.64684659398E+01 -0.43657833624E+03  0.50000000000E+03  0.47000000000E+01 0.  1.
</event>
<event>
 4    1  0.4838534E-004  0.1000000E+04  0.7546771E-02  0.8684367E-01
         11   -1    0    0    0    0  0.00000000000E+00  0.00000000000E+00  0.50000000000E+03  0.50000000000E+03  0.00000000000E+00 0.  1.
        -11   -1    0    0    0    0 -0.00000000000E+00 -0.00000000000E+00 -0.50000000000E+03  0.50000000000E+03  0.00000000000E+00 0. -1.
          5    1    1    2  501    0  0.44545820464E+03  0.18061197446E+03 -0.13756530303E+03  0.50000000000E+03  0.47000000000E+01 0.  1.
         -5    1    1    2    0  501 -0.44545820464E+03 -0.18061197446E+03  0.13756530303E+03  0.50000000000E+03  0.47000000000E+01 0. -1.
</event>
<event>
 4    1  0.4838534E-004  0.1000000E+04  0.7546771E-02  0.8684367E-01
         11   -1    0    0    0    0  0.00000000000E+00  0.00000000000E+00  0.50000000000E+03  0.50000000000E+03  0.00000000000E+00 0. -1.
        -11   -1    0    0    0    0 -0.00000000000E+00 -0.00000000000E+00 -0.50000000000E+03  0.50000000000E+03  0.00000000000E+00 0.  1.
          5    1    1    2  501    0 -0.38452579409E+03 -0.31950160859E+03 -0.60453110773E+01  0.50000000000E+03  0.47000000000E+01 0. -1.
         -5    1    1    2    0  501  0.38452579409E+03  0.31950160859E+03  0.60453110773E+01  0.50000000000E+03  0.47000000000E+01 0.  1.
</event>
<event>
 4    1  0.4838534E-004  0.1000000E+04  0.7546771E-02  0.8684367E-01
         11   -1    0    0    0    0  0.00000000000E+00  0.00000000000E+00  0.50000000000E+03  0.50000000000E+03  0.00000000000E+00 0. -1.
        -11   -1    0    0    0    0 -0.00000000000E+00 -0.00000000000E+00 -0.50000000000E+03  0.50000000000E+03  0.00000000000E+00 0.  1.
          5    1    1    2  501    0 -0.16706383148E+03 -0.12864821513E+03  0.45334007429E+03  0.50000000000E+03  0.47000000000E+01 0. -1.
         -5    1    1    2    0  501  0.16706383148E+03  0.12864821513E+03 -0.45334007429E+03  0.50000000000E+03  0.47000000000E+01 0.  1.
</event>
<event>
 4    1  0.4838534E-004  0.1000000E+04  0.7546771E-02  0.8684367E-01
         11   -1    0    0    0    0  0.00000000000E+00  0.00000000000E+00  0.50000000000E+03  0.50000000000E+03  0.00000000000E+00 0.  1.
        -11   -1    0    0    0    0 -0.00000000000E+00 -0.00000000000E+00 -0.50000000000E+03  0.50000000000E+03  0.00000000000E+00 0. -1.
          5    1    1    2  501    0 -0.38646062039E+03  0.31380183422E+03  0.46416675089E+02  0.50000000000E+03  0.47000000000E+01 0.  1.
         -5    1    1    2    0  501  0.38646062039E+03 -0.31380183422E+03 -0.46416675089E+02  0.50000000000E+03  0.47000000000E+01 0. -1.
</event>
<event>
 4    1  0.4838534E-004  0.1000000E+04  0.7546771E-02  0.8684367E-01
         11   -1    0    0    0    0  0.00000000000E+00  0.00000000000E+00  0.50000000000E+03  0.50000000000E+03  0.00000000000E+00 0. -1.
        -11   -1    0    0    0    0 -0.00000000000E+00 -0.00000000000E+00 -0.50000000000E+03  0.50000000000E+03  0.00000000000E+00 0.  1.
          5    1    1    2  501    0 -0.44687664270E+03 -0.20494327391E+03 -0.90980386279E+02  0.50000000000E+03  0.47000000000E+01 0. -1.
         -5    1    1    2    0  501  0.44687664270E+03  0.20494327391E+03  0.90980386279E+02  0.50000000000E+03  0.47000000000E+01 0.  1.
</event>
<event>
 4    1  0.4838534E-004  0.1000000E+04  0.7546771E-02  0.8684367E-01
         11   -1    0    0    0    0  0.00000000000E+00  0.00000000000E+00  0.50000000000E+03  0.50000000000E+03  0.00000000000E+00 0. -1.
        -11   -1    0    0    0    0 -0.00000000000E+00 -0.00000000000E+00 -0.50000000000E+03  0.50000000000E+03  0.00000000000E+00 0.  1.
          5    1    1    2  501    0 -0.97720166130E+02  0.58543065250E+02  0.48682788400E+03  0.50000000000E+03  0.47000000000E+01 0. -1.
         -5    1    1    2    0  501  0.97720166130E+02 -0.58543065250E+02 -0.48682788400E+03  0.50000000000E+03  0.47000000000E+01 0.  1.
</event>
<event>
 4    1  0.4838534E-004  0.1000000E+04  0.7546771E-02  0.8684367E-01
         11   -1    0    0    0    0  0.00000000000E+00  0.00000000000E+00  0.50000000000E+03  0.50000000000E+03  0.00000000000E+00 0.  1.
        -11   -1    0    0    0    0 -0.00000000000E+00 -0.00000000000E+00 -0.50000000000E+03  0.50000000000E+03  0.00000000000E+00 0. -1.
          5    1    1    2  501    0 -0.23791721139E+03 -0.18455429199E+03  0.39914035606E+03  0.50000000000E+03  0.47000000000E+01 0.  1.
         -5    1    1    2    0  501  0.23791721139E+03  0.18455429199E+03 -0.39914035606E+03  0.50000000000E+03  0.47000000000E+01 0. -1.
</event>
<event>
 4    1  0.4838534E-004  0.1000000E+04  0.7546771E-02  0.8684367E-01
         11   -1    0    0    0    0  0.00000000000E+00  0.00000000000E+00  0.50000000000E+03  0.50000000000E+03  0.00000000000E+00 0.  1.
        -11   -1    0    0    0    0 -0.00000000000E+00 -0.00000000000E+00 -0.50000000000E+03  0.50000000000E+03  0.00000000000E+00 0. -1.
          5    1    1    2  501    0  0.39026241718E+03  0.60898539366E+02  0.30653633330E+03  0.50000000000E+03  0.47000000000E+01 0.  1.
         -5    1    1    2    0  501 -0.39026241718E+03 -0.60898539366E+02 -0.30653633330E+03  0.50000000000E+03  0.47000000000E+01 0. -1.
</event>
<event>
 4    1  0.4838534E-004  0.1000000E+04  0.7546771E-02  0.8684367E-01
         11   -1    0    0    0    0  0.00000000000E+00  0.00000000000E+00  0.50000000000E+03  0.50000000000E+03  0.00000000000E+00 0.  1.
        -11   -1    0    0    0    0 -0.00000000000E+00 -0.00000000000E+00 -0.50000000000E+03  0.50000000000E+03  0.00000000000E+00 0. -1.
          5    1    1    2  501    0 -0.81086701535E+02 -0.36059877529E+03  0.33670666773E+03  0.50000000000E+03  0.47000000000E+01 0.  1.
         -5    1    1    2    0  501  0.81086701535E+02  0.36059877529E+03 -0.33670666773E+03  0.50000000000E+03  0.47000000000E+01 0. -1.
</event>
<event>
 4    1  0.4838534E-004  0.1000000E+04  0.7546771E-02  0.8684367E-01
         11   -1    0    0    0    0  0.00000000000E+00  0.00000000000E+00  0.50000000000E+03  0.50000000000E+03  0.00000000000E+00 0.  1.
        -11   -1    0    0    0    0 -0.00000000000E+00 -0.00000000000E+00 -0.50000000000E+03  0.50000000000E+03  0.00000000000E+00 0. -1.
          5    1    1    2  501    0 -0.31548120427E+03  0.38731234423E+03 -0.20944396729E+02  0.50000000000E+03  0.47000000000E+01 0.  1.
         -5    1    1    2    0  501  0.31548120427E+03 -0.38731234423E+03  0.20944396729E+02  0.50000000000E+03  0.47000000000E+01 0. -1.
</event>
<event>
 4    1  0.4838534E-004  0.1000000E+04  0.7546771E-02  0.8684367E-01
         11   -1    0    0    0    0  0.00000000000E+00  0.00000000000E+00  0.50000000000E+03  0.50000000000E+03  0.00000000000E+00 0. -1.
        -11   -1    0    0    0    0 -0.00000000000E+00 -0.00000000000E+00 -0.50000000000E+03  0.50000000000E+03  0.00000000000E+00 0.  1.
          5    1    1    2  501    0 -0.21872952224E+03 -0.10391942827E+03  0.43741977382E+03  0.50000000000E+03  0.47000000000E+01 0. -1.
         -5    1    1    2    0  501  0.21872952224E+03  0.10391942827E+03 -0.43741977382E+03  0.50000000000E+03  0.47000000000E+01 0.  1.
</event>
<event>
 4    1  0.4838534E-004  0.1000000E+04  0.7546771E-02  0.8684367E-01
         11   -1    0    0    0    0  0.00000000000E+00  0.00000000000E+00  0.50000000000E+03  0.50000000000E+03  0.00000000000E+00 0. -1.
        -11   -1    0    0    0    0 -0.00000000000E+00 -0.00000000000E+00 -0.50000000000E+03  0.50000000000E+03  0.00000000000E+00 0.  1.
          5    1    1    2  501    0 -0.22542418758E+03 -0.14757864002E+03  0.42116788893E+03  0.50000000000E+03  0.47000000000E+01 0. -1.
         -5    1    1    2    0  501  0.22542418758E+03  0.14757864002E+03 -0.42116788893E+03  0.50000000000E+03  0.47000000000E+01 0.  1.
</event>
<event>
 4    1  0.4838534E-004  0.1000000E+04  0.7546771E-02  0.8684367E-01
         11   -1    0    0    0    0  0.00000000000E+00  0.00000000000E+00  0.50000000000E+03  0.50000000000E+03  0.00000000000E+00 0.  1.
        -11   -1    0    0    0    0 -0.00000000000E+00 -0.00000000000E+00 -0.50000000000E+03  0.50000000000E+03  0.00000000000E+00 0. -1.
          5    1    1    2  501    0 -0.11294712998E+03 -0.26009130056E+03  0.41179287415E+03  0.50000000000E+03  0.47000000000E+01 0.  1.
         -5    1    1    2    0  501  0.11294712998E+03  0.26009130056E+03 -0.41179287415E+03  0.50000000000E+03  0.47000000000E+01 0. -1.
</event>
<event>
 4    1  0.4838534E-004  0.1000000E+04  0.7546771E-02  0.8684367E-01
         11   -1    0    0    0    0  0.00000000000E+00  0.00000000000E+00  0.50000000000E+03  0.50000000000E+03  0.00000000000E+00 0. -1.
        -11   -1    0    0    0    0 -0.00000000000E+00 -0.00000000000E+00 -0.50000000000E+03  0.50000000000E+03  0.00000000000E+00 0.  1.
          5    1    1    2  501    0 -0.32285230137E+03  0.21785244657E+03  0.31350376876E+03  0.50000000000E+03  0.47000000000E+01 0. -1.
         -5    1    1    2    0  501  0.32285230137E+03 -0.21785244657E+03 -0.31350376876E+03  0.50000000000E+03  0.47000000000E+01 0.  1.
</event>
<event>
 4    1  0.4838534E-004  0.1000000E+04  0.7546771E-02  0.8684367E-01
         11   -1    0    0    0    0  0.00000000000E+00  0.00000000000E+00  0.50000000000E+03  0.50000000000E+03  0.00000000000E+00 0. -1.
        -11   -1    0    0    0    0 -0.00000000000E+00 -0.00000000000E+00 -0.50000000000E+03  0.50000000000E+03  0.00000000000E+00 0.  1.
          5    1    1    2  501    0 -0.22736091601E+03 -0.12892495278E+03  0.42621975602E+03  0.50000000000E+03  0.47000000000E+01 0. -1.
         -5    1    1    2    0  501  0.22736091601E+03  0.12892495278E+03 -0.42621975602E+03  0.50000000000E+03  0.47000000000E+01 0.  1.
</event>
<event>
 4    1  0.4838534E-004  0.1000000E+04  0.7546771E-02  0.8684367E-01
         11   -1    0    0    0    0  0.00000000000E+00  0.00000000000E+00  0.50000000000E+03  0.50000000000E+03  0.00000000000E+00 0. -1.
        -11   -1    0    0    0    0 -0.00000000000E+00 -0.00000000000E+00 -0.50000000000E+03  0.50000000000E+03  0.00000000000E+00 0.  1.
          5    1    1    2  501    0  0.13121575874E+03  0.44189287005E+03  0.19362599530E+03  0.50000000000E+03  0.47000000000E+01 0. -1.
         -5    1    1    2    0  501 -0.13121575874E+03 -0.44189287005E+03 -0.19362599530E+03  0.50000000000E+03  0.47000000000E+01 0.  1.
</event>
<event>
 4    1  0.4838534E-004  0.1000000E+04  0.7546771E-02  0.8684367E-01
         11   -1    0    0    0    0  0.00000000000E+00  0.00000000000E+00  0.50000000000E+03  0.50000000000E+03  0.00000000000E+00 0. -1.
        -11   -1    0    0    0    0 -0.00000000000E+00 -0.00000000000E+00 -0.50000000000E+03  0.50000000000E+03  0.00000000000E+00 0.  1.
          5    1    1    2  501    0  0.20349598679E+03  0.33368384213E+03 -0.31180504624E+03  0.50000000000E+03  0.47000000000E+01 0. -1.
         -5    1    1    2    0  501 -0.20349598679E+03 -0.33368384213E+03  0.31180504624E+03  0.50000000000E+03  0.47000000000E+01 0.  1.
</event>
<event>
 4    1  0.4838534E-004  0.1000000E+04  0.7546771E-02  0.8684367E-01
         11   -1    0    0    0    0  0.00000000000E+00  0.00000000000E+00  0.50000000000E+03  0.50000000000E+03  0.00000000000E+00 0. -1.
        -11   -1    0    0    0    0 -0.00000000000E+00 -0.00000000000E+00 -0.50000000000E+03  0.50000000000E+03  0.00000000000E+00 0.  1.
          5    1    1    2  501    0 -0.35754380463E+02  0.30791217849E+03  0.39228768094E+03  0.50000000000E+03  0.47000000000E+01 0. -1.
         -5    1    1    2    0  501  0.35754380463E+02 -0.30791217849E+03 -0.39228768094E+03  0.50000000000E+03  0.47000000000E+01 0.  1.
</event>
<event>
 4    1  0.4838534E-004  0.1000000E+04  0.7546771E-02  0.8684367E-01
         11   -1    0    0    0    0  0.00000000000E+00  0.00000000000E+00  0.50000000000E+03  0.50000000000E+03  0.00000000000E+00 0. -1.
        -11   -1    0    0    0    0 -0.00000000000E+00 -0.00000000000E+00 -0.50000000000E+03  0.50000000000E+03  0.00000000000E+00 0.  1.
          5    1    1    2  501    0  0.34350517298E+03  0.36112976860E+03  0.39590356935E+02  0.50000000000E+03  0.47000000000E+01 0. -1.
         -5    1    1    2    0  501 -0.34350517298E+03 -0.36112976860E+03 -0.39590356935E+02  0.50000000000E+03  0.47000000000E+01 0.  1.
</event>
<event>
 4    1  0.4838534E-004  0.1000000E+04  0.7546771E-02  0.8684367E-01
         11   -1    0    0    0    0  0.00000000000E+00  0.00000000000E+00  0.50000000000E+03  0.50000000000E+03  0.00000000000E+00 0.  1.
        -11   -1    0    0    0    0 -0.00000000000E+00 -0.00000000000E+00 -0.50000000000E+03  0.50000000000E+03  0.00000000000E+00 0. -1.
          5    1    1    2  501    0 -0.12724858998E+03 -0.48117995161E+03  0.47450611345E+02  0.50000000000E+03  0.47000000000E+01 0.  1.
         -5    1    1    2    0  501  0.12724858998E+03  0.48117995161E+03 -0.47450611345E+02  0.50000000000E+03  0.47000000000E+01 0. -1.
</event>
<event>
 4    1  0.4838534E-004  0.1000000E+04  0.7546771E-02  0.8684367E-01
         11   -1    0    0    0    0  0.00000000000E+00  0.00000000000E+00  0.50000000000E+03  0.50000000000E+03  0.00000000000E+00 0. -1.
        -11   -1    0    0    0    0 -0.00000000000E+00 -0.00000000000E+00 -0.50000000000E+03  0.50000000000E+03  0.00000000000E+00 0.  1.
          5    1    1    2  501    0 -0.50713439134E+02  0.22566119742E+03  0.44326412112E+03  0.50000000000E+03  0.47000000000E+01 0. -1.
         -5    1    1    2    0  501  0.50713439134E+02 -0.22566119742E+03 -0.44326412112E+03  0.50000000000E+03  0.47000000000E+01 0.  1.
</event>
<event>
 4    1  0.4838534E-004  0.1000000E+04  0.7546771E-02  0.8684367E-01
         11   -1    0    0    0    0  0.00000000000E+00  0.00000000000E+00  0.50000000000E+03  0.50000000000E+03  0.00000000000E+00 0. -1.
        -11   -1    0    0    0    0 -0.00000000000E+00 -0.00000000000E+00 -0.50000000000E+03  0.50000000000E+03  0.00000000000E+00 0.  1.
          5    1    1    2  501    0  0.31908911043E+03 -0.26636199774E+03  0.27786927819E+03  0.50000000000E+03  0.47000000000E+01 0. -1.
         -5    1    1    2    0  501 -0.31908911043E+03  0.26636199774E+03 -0.27786927819E+03  0.50000000000E+03  0.47000000000E+01 0.  1.
</event>
<event>
 4    1  0.4838534E-004  0.1000000E+04  0.7546771E-02  0.8684367E-01
         11   -1    0    0    0    0  0.00000000000E+00  0.00000000000E+00  0.50000000000E+03  0.50000000000E+03  0.00000000000E+00 0. -1.
        -11   -1    0    0    0    0 -0.00000000000E+00 -0.00000000000E+00 -0.50000000000E+03  0.50000000000E+03  0.00000000000E+00 0.  1.
          5    1    1    2  501    0  0.22064396278E+03 -0.40853491052E+03  0.18545451889E+03  0.50000000000E+03  0.47000000000E+01 0. -1.
         -5    1    1    2    0  501 -0.22064396278E+03  0.40853491052E+03 -0.18545451889E+03  0.50000000000E+03  0.47000000000E+01 0.  1.
</event>
<event>
 4    1  0.4838534E-004  0.1000000E+04  0.7546771E-02  0.8684367E-01
         11   -1    0    0    0    0  0.00000000000E+00  0.00000000000E+00  0.50000000000E+03  0.50000000000E+03  0.00000000000E+00 0. -1.
        -11   -1    0    0    0    0 -0.00000000000E+00 -0.00000000000E+00 -0.50000000000E+03  0.50000000000E+03  0.00000000000E+00 0.  1.
          5    1    1    2  501    0 -0.14743634325E+03  0.43344241080E+03 -0.20091817044E+03  0.50000000000E+03  0.47000000000E+01 0. -1.
         -5    1    1    2    0  501  0.14743634325E+03 -0.43344241080E+03  0.20091817044E+03  0.50000000000E+03  0.47000000000E+01 0.  1.
</event>
<event>
 4    1  0.4838534E-004  0.1000000E+04  0.7546771E-02  0.8684367E-01
         11   -1    0    0    0    0  0.00000000000E+00  0.00000000000E+00  0.50000000000E+03  0.50000000000E+03  0.00000000000E+00 0.  1.
        -11   -1    0    0    0    0 -0.00000000000E+00 -0.00000000000E+00 -0.50000000000E+03  0.50000000000E+03  0.00000000000E+00 0. -1.
          5    1    1    2  501    0 -0.23940347223E+03  0.37607981121E+03  0.22633573090E+03  0.50000000000E+03  0.47000000000E+01 0.  1.
         -5    1    1    2    0  501  0.23940347223E+03 -0.37607981121E+03 -0.22633573090E+03  0.50000000000E+03  0.47000000000E+01 0. -1.
</event>
<event>
 4    1  0.4838534E-004  0.1000000E+04  0.7546771E-02  0.8684367E-01
         11   -1    0    0    0    0  0.00000000000E+00  0.00000000000E+00  0.50000000000E+03  0.50000000000E+03  0.00000000000E+00 0. -1.
        -11   -1    0    0    0    0 -0.00000000000E+00 -0.00000000000E+00 -0.50000000000E+03  0.50000000000E+03  0.00000000000E+00 0.  1.
          5    1    1    2  501    0 -0.37680524132E+03  0.22174698740E+03  0.24253658217E+03  0.50000000000E+03  0.47000000000E+01 0. -1.
         -5    1    1    2    0  501  0.37680524132E+03 -0.22174698740E+03 -0.24253658217E+03  0.50000000000E+03  0.47000000000E+01 0.  1.
</event>
<event>
 4    1  0.4838534E-004  0.1000000E+04  0.7546771E-02  0.8684367E-01
         11   -1    0    0    0    0  0.00000000000E+00  0.00000000000E+00  0.50000000000E+03  0.50000000000E+03  0.00000000000E+00 0. -1.
        -11   -1    0    0    0    0 -0.00000000000E+00 -0.00000000000E+00 -0.50000000000E+03  0.50000000000E+03  0.00000000000E+00 0.  1.
          5    1    1    2  501    0 -0.21980012599E+03 -0.11359111601E+03  0.43446849481E+03  0.50000000000E+03  0.47000000000E+01 0. -1.
         -5    1    1    2    0  501  0.21980012599E+03  0.11359111601E+03 -0.43446849481E+03  0.50000000000E+03  0.47000000000E+01 0.  1.
</event>
<event>
 4    1  0.4838534E-004  0.1000000E+04  0.7546771E-02  0.8684367E-01
         11   -1    0    0    0    0  0.00000000000E+00  0.00000000000E+00  0.50000000000E+03  0.50000000000E+03  0.00000000000E+00 0. -1.
        -11   -1    0    0    0    0 -0.00000000000E+00 -0.00000000000E+00 -0.50000000000E+03  0.50000000000E+03  0.00000000000E+00 0.  1.
          5    1    1    2  501    0 -0.13634015495E+03 -0.25782835486E+03  0.40609581576E+03  0.50000000000E+03  0.47000000000E+01 0. -1.
         -5    1    1    2    0  501  0.13634015495E+03  0.25782835486E+03 -0.40609581576E+03  0.50000000000E+03  0.47000000000E+01 0.  1.
</event>
<event>
 4    1  0.4838534E-004  0.1000000E+04  0.7546771E-02  0.8684367E-01
         11   -1    0    0    0    0  0.00000000000E+00  0.00000000000E+00  0.50000000000E+03  0.50000000000E+03  0.00000000000E+00 0. -1.
        -11   -1    0    0    0    0 -0.00000000000E+00 -0.00000000000E+00 -0.50000000000E+03  0.50000000000E+03  0.00000000000E+00 0.  1.
          5    1    1    2  501    0  0.60546385500E+01 -0.48174289799E+03  0.13366013464E+03  0.50000000000E+03  0.47000000000E+01 0. -1.
         -5    1    1    2    0  501 -0.60546385500E+01  0.48174289799E+03 -0.13366013464E+03  0.50000000000E+03  0.47000000000E+01 0.  1.
</event>
<event>
 4    1  0.4838534E-004  0.1000000E+04  0.7546771E-02  0.8684367E-01
         11   -1    0    0    0    0  0.00000000000E+00  0.00000000000E+00  0.50000000000E+03  0.50000000000E+03  0.00000000000E+00 0. -1.
        -11   -1    0    0    0    0 -0.00000000000E+00 -0.00000000000E+00 -0.50000000000E+03  0.50000000000E+03  0.00000000000E+00 0.  1.
          5    1    1    2  501    0 -0.25903555144E+03  0.42361044984E+03  0.58589076453E+02  0.50000000000E+03  0.47000000000E+01 0. -1.
         -5    1    1    2    0  501  0.25903555144E+03 -0.42361044984E+03 -0.58589076453E+02  0.50000000000E+03  0.47000000000E+01 0.  1.
</event>
<event>
 4    1  0.4838534E-004  0.1000000E+04  0.7546771E-02  0.8684367E-01
         11   -1    0    0    0    0  0.00000000000E+00  0.00000000000E+00  0.50000000000E+03  0.50000000000E+03  0.00000000000E+00 0. -1.
        -11   -1    0    0    0    0 -0.00000000000E+00 -0.00000000000E+00 -0.50000000000E+03  0.50000000000E+03  0.00000000000E+00 0.  1.
          5    1    1    2  501    0 -0.31323013198E+03 -0.57732866068E+02  0.38539811961E+03  0.50000000000E+03  0.47000000000E+01 0. -1.
         -5    1    1    2    0  501  0.31323013198E+03  0.57732866068E+02 -0.38539811961E+03  0.50000000000E+03  0.47000000000E+01 0.  1.
</event>
<event>
 4    1  0.4838534E-004  0.1000000E+04  0.7546771E-02  0.8684367E-01
         11   -1    0    0    0    0  0.00000000000E+00  0.00000000000E+00  0.50000000000E+03  0.50000000000E+03  0.00000000000E+00 0. -1.
        -11   -1    0    0    0    0 -0.00000000000E+00 -0.00000000000E+00 -0.50000000000E+03  0.50000000000E+03  0.00000000000E+00 0.  1.
          5    1    1    2  501    0  0.10601885493E+02 -0.24018290798E+03  0.43838074859E+03  0.50000000000E+03  0.47000000000E+01 0. -1.
         -5    1    1    2    0  501 -0.10601885493E+02  0.24018290798E+03 -0.43838074859E+03  0.50000000000E+03  0.47000000000E+01 0.  1.
</event>
<event>
 4    1  0.4838534E-004  0.1000000E+04  0.7546771E-02  0.8684367E-01
         11   -1    0    0    0    0  0.00000000000E+00  0.00000000000E+00  0.50000000000E+03  0.50000000000E+03  0.00000000000E+00 0. -1.
        -11   -1    0    0    0    0 -0.00000000000E+00 -0.00000000000E+00 -0.50000000000E+03  0.50000000000E+03  0.00000000000E+00 0.  1.
          5    1    1    2  501    0 -0.39578024628E+03 -0.22581651943E+03 -0.20577367714E+03  0.50000000000E+03  0.47000000000E+01 0. -1.
         -5    1    1    2    0  501  0.39578024628E+03  0.22581651943E+03  0.20577367714E+03  0.50000000000E+03  0.47000000000E+01 0.  1.
</event>
<event>
 4    1  0.4838534E-004  0.1000000E+04  0.7546771E-02  0.8684367E-01
         11   -1    0    0    0    0  0.00000000000E+00  0.00000000000E+00  0.50000000000E+03  0.50000000000E+03  0.00000000000E+00 0. -1.
        -11   -1    0    0    0    0 -0.00000000000E+00 -0.00000000000E+00 -0.50000000000E+03  0.50000000000E+03  0.00000000000E+00 0.  1.
          5    1    1    2  501    0 -0.12910426589E+03 -0.16957055152E+03  0.45227848344E+03  0.50000000000E+03  0.47000000000E+01 0. -1.
         -5    1    1    2    0  501  0.12910426589E+03  0.16957055152E+03 -0.45227848344E+03  0.50000000000E+03  0.47000000000E+01 0.  1.
</event>
<event>
 4    1  0.4838534E-004  0.1000000E+04  0.7546771E-02  0.8684367E-01
         11   -1    0    0    0    0  0.00000000000E+00  0.00000000000E+00  0.50000000000E+03  0.50000000000E+03  0.00000000000E+00 0. -1.
        -11   -1    0    0    0    0 -0.00000000000E+00 -0.00000000000E+00 -0.50000000000E+03  0.50000000000E+03  0.00000000000E+00 0.  1.
          5    1    1    2  501    0  0.13865992314E+03 -0.44536266313E+03  0.18000953866E+03  0.50000000000E+03  0.47000000000E+01 0. -1.
         -5    1    1    2    0  501 -0.13865992314E+03  0.44536266313E+03 -0.18000953866E+03  0.50000000000E+03  0.47000000000E+01 0.  1.
</event>
<event>
 4    1  0.4838534E-004  0.1000000E+04  0.7546771E-02  0.8684367E-01
         11   -1    0    0    0    0  0.00000000000E+00  0.00000000000E+00  0.50000000000E+03  0.50000000000E+03  0.00000000000E+00 0. -1.
        -11   -1    0    0    0    0 -0.00000000000E+00 -0.00000000000E+00 -0.50000000000E+03  0.50000000000E+03  0.00000000000E+00 0.  1.
          5    1    1    2  501    0 -0.12718468195E+03  0.46310840228E+03 -0.13904162834E+03  0.50000000000E+03  0.47000000000E+01 0. -1.
         -5    1    1    2    0  501  0.12718468195E+03 -0.46310840228E+03  0.13904162834E+03  0.50000000000E+03  0.47000000000E+01 0.  1.
</event>
<event>
 4    1  0.4838534E-004  0.1000000E+04  0.7546771E-02  0.8684367E-01
         11   -1    0    0    0    0  0.00000000000E+00  0.00000000000E+00  0.50000000000E+03  0.50000000000E+03  0.00000000000E+00 0. -1.
        -11   -1    0    0    0    0 -0.00000000000E+00 -0.00000000000E+00 -0.50000000000E+03  0.50000000000E+03  0.00000000000E+00 0.  1.
          5    1    1    2  501    0  0.18742409076E+03 -0.39846175193E+03  0.23680868323E+03  0.50000000000E+03  0.47000000000E+01 0. -1.
         -5    1    1    2    0  501 -0.18742409076E+03  0.39846175193E+03 -0.23680868323E+03  0.50000000000E+03  0.47000000000E+01 0.  1.
</event>
<event>
 4    1  0.4838534E-004  0.1000000E+04  0.7546771E-02  0.8684367E-01
         11   -1    0    0    0    0  0.00000000000E+00  0.00000000000E+00  0.50000000000E+03  0.50000000000E+03  0.00000000000E+00 0. -1.
        -11   -1    0    0    0    0 -0.00000000000E+00 -0.00000000000E+00 -0.50000000000E+03  0.50000000000E+03  0.00000000000E+00 0.  1.
          5    1    1    2  501    0 -0.43578045896E+03 -0.18749319481E+03  0.15785944219E+03  0.50000000000E+03  0.47000000000E+01 0. -1.
         -5    1    1    2    0  501  0.43578045896E+03  0.18749319481E+03 -0.15785944219E+03  0.50000000000E+03  0.47000000000E+01 0.  1.
</event>
<event>
 4    1  0.4838534E-004  0.1000000E+04  0.7546771E-02  0.8684367E-01
         11   -1    0    0    0    0  0.00000000000E+00  0.00000000000E+00  0.50000000000E+03  0.50000000000E+03  0.00000000000E+00 0. -1.
        -11   -1    0    0    0    0 -0.00000000000E+00 -0.00000000000E+00 -0.50000000000E+03  0.50000000000E+03  0.00000000000E+00 0.  1.
          5    1    1    2  501    0  0.39239999541E+03 -0.10873454682E+03  0.29013264541E+03  0.50000000000E+03  0.47000000000E+01 0. -1.
         -5    1    1    2    0  501 -0.39239999541E+03  0.10873454682E+03 -0.29013264541E+03  0.50000000000E+03  0.47000000000E+01 0.  1.
</event>
<event>
 4    1  0.4838534E-004  0.1000000E+04  0.7546771E-02  0.8684367E-01
         11   -1    0    0    0    0  0.00000000000E+00  0.00000000000E+00  0.50000000000E+03  0.50000000000E+03  0.00000000000E+00 0. -1.
        -11   -1    0    0    0    0 -0.00000000000E+00 -0.00000000000E+00 -0.50000000000E+03  0.50000000000E+03  0.00000000000E+00 0.  1.
          5    1    1    2  501    0  0.17047644173E+03 -0.43270386797E+03  0.18352944031E+03  0.50000000000E+03  0.47000000000E+01 0. -1.
         -5    1    1    2    0  501 -0.17047644173E+03  0.43270386797E+03 -0.18352944031E+03  0.50000000000E+03  0.47000000000E+01 0.  1.
</event>
<event>
 4    1  0.4838534E-004  0.1000000E+04  0.7546771E-02  0.8684367E-01
         11   -1    0    0    0    0  0.00000000000E+00  0.00000000000E+00  0.50000000000E+03  0.50000000000E+03  0.00000000000E+00 0. -1.
        -11   -1    0    0    0    0 -0.00000000000E+00 -0.00000000000E+00 -0.50000000000E+03  0.50000000000E+03  0.00000000000E+00 0.  1.
          5    1    1    2  501    0  0.33220554600E+03 -0.11002823806E+03  0.35708706507E+03  0.50000000000E+03  0.47000000000E+01 0. -1.
         -5    1    1    2    0  501 -0.33220554600E+03  0.11002823806E+03 -0.35708706507E+03  0.50000000000E+03  0.47000000000E+01 0.  1.
</event>
<event>
 4    1  0.4838534E-004  0.1000000E+04  0.7546771E-02  0.8684367E-01
         11   -1    0    0    0    0  0.00000000000E+00  0.00000000000E+00  0.50000000000E+03  0.50000000000E+03  0.00000000000E+00 0. -1.
        -11   -1    0    0    0    0 -0.00000000000E+00 -0.00000000000E+00 -0.50000000000E+03  0.50000000000E+03  0.00000000000E+00 0.  1.
          5    1    1    2  501    0 -0.48549666421E+03  0.11006572233E+03  0.46437439694E+02  0.50000000000E+03  0.47000000000E+01 0. -1.
         -5    1    1    2    0  501  0.48549666421E+03 -0.11006572233E+03 -0.46437439694E+02  0.50000000000E+03  0.47000000000E+01 0.  1.
</event>
<event>
 4    1  0.4838534E-004  0.1000000E+04  0.7546771E-02  0.8684367E-01
         11   -1    0    0    0    0  0.00000000000E+00  0.00000000000E+00  0.50000000000E+03  0.50000000000E+03  0.00000000000E+00 0. -1.
        -11   -1    0    0    0    0 -0.00000000000E+00 -0.00000000000E+00 -0.50000000000E+03  0.50000000000E+03  0.00000000000E+00 0.  1.
          5    1    1    2  501    0  0.23569879436E+03  0.57693013912E+02  0.43714471801E+03  0.50000000000E+03  0.47000000000E+01 0. -1.
         -5    1    1    2    0  501 -0.23569879436E+03 -0.57693013912E+02 -0.43714471801E+03  0.50000000000E+03  0.47000000000E+01 0.  1.
</event>
<event>
 4    1  0.4838534E-004  0.1000000E+04  0.7546771E-02  0.8684367E-01
         11   -1    0    0    0    0  0.00000000000E+00  0.00000000000E+00  0.50000000000E+03  0.50000000000E+03  0.00000000000E+00 0. -1.
        -11   -1    0    0    0    0 -0.00000000000E+00 -0.00000000000E+00 -0.50000000000E+03  0.50000000000E+03  0.00000000000E+00 0.  1.
          5    1    1    2  501    0  0.20664747583E+03  0.46131165270E+02  0.45293117173E+03  0.50000000000E+03  0.47000000000E+01 0. -1.
         -5    1    1    2    0  501 -0.20664747583E+03 -0.46131165270E+02 -0.45293117173E+03  0.50000000000E+03  0.47000000000E+01 0.  1.
</event>
<event>
 4    1  0.4838534E-004  0.1000000E+04  0.7546771E-02  0.8684367E-01
         11   -1    0    0    0    0  0.00000000000E+00  0.00000000000E+00  0.50000000000E+03  0.50000000000E+03  0.00000000000E+00 0. -1.
        -11   -1    0    0    0    0 -0.00000000000E+00 -0.00000000000E+00 -0.50000000000E+03  0.50000000000E+03  0.00000000000E+00 0.  1.
          5    1    1    2  501    0 -0.10428145085E+03  0.48006134625E+03  0.92975227043E+02  0.50000000000E+03  0.47000000000E+01 0. -1.
         -5    1    1    2    0  501  0.10428145085E+03 -0.48006134625E+03 -0.92975227043E+02  0.50000000000E+03  0.47000000000E+01 0.  1.
</event>
<event>
 4    1  0.4838534E-004  0.1000000E+04  0.7546771E-02  0.8684367E-01
         11   -1    0    0    0    0  0.00000000000E+00  0.00000000000E+00  0.50000000000E+03  0.50000000000E+03  0.00000000000E+00 0. -1.
        -11   -1    0    0    0    0 -0.00000000000E+00 -0.00000000000E+00 -0.50000000000E+03  0.50000000000E+03  0.00000000000E+00 0.  1.
          5    1    1    2  501    0  0.84744131359E+02 -0.35441289822E+03  0.34232709472E+03  0.50000000000E+03  0.47000000000E+01 0. -1.
         -5    1    1    2    0  501 -0.84744131359E+02  0.35441289822E+03 -0.34232709472E+03  0.50000000000E+03  0.47000000000E+01 0.  1.
</event>
<event>
 4    1  0.4838534E-004  0.1000000E+04  0.7546771E-02  0.8684367E-01
         11   -1    0    0    0    0  0.00000000000E+00  0.00000000000E+00  0.50000000000E+03  0.50000000000E+03  0.00000000000E+00 0. -1.
        -11   -1    0    0    0    0 -0.00000000000E+00 -0.00000000000E+00 -0.50000000000E+03  0.50000000000E+03  0.00000000000E+00 0.  1.
          5    1    1    2  501    0 -0.42878533391E+03 -0.25503032681E+03 -0.32872174044E+02  0.50000000000E+03  0.47000000000E+01 0. -1.
         -5    1    1    2    0  501  0.42878533391E+03  0.25503032681E+03  0.32872174044E+02  0.50000000000E+03  0.47000000000E+01 0.  1.
</event>
<event>
 4    1  0.4838534E-004  0.1000000E+04  0.7546771E-02  0.8684367E-01
         11   -1    0    0    0    0  0.00000000000E+00  0.00000000000E+00  0.50000000000E+03  0.50000000000E+03  0.00000000000E+00 0.  1.
        -11   -1    0    0    0    0 -0.00000000000E+00 -0.00000000000E+00 -0.50000000000E+03  0.50000000000E+03  0.00000000000E+00 0. -1.
          5    1    1    2  501    0  0.29204118270E+03 -0.40404545600E+03  0.37909459133E+02  0.50000000000E+03  0.47000000000E+01 0.  1.
         -5    1    1    2    0  501 -0.29204118270E+03  0.40404545600E+03 -0.37909459133E+02  0.50000000000E+03  0.47000000000E+01 0. -1.
</event>
<event>
 4    1  0.4838534E-004  0.1000000E+04  0.7546771E-02  0.8684367E-01
         11   -1    0    0    0    0  0.00000000000E+00  0.00000000000E+00  0.50000000000E+03  0.50000000000E+03  0.00000000000E+00 0. -1.
        -11   -1    0    0    0    0 -0.00000000000E+00 -0.00000000000E+00 -0.50000000000E+03  0.50000000000E+03  0.00000000000E+00 0.  1.
          5    1    1    2  501    0  0.36441975210E+03  0.33760259392E+03 -0.56574224268E+02  0.50000000000E+03  0.47000000000E+01 0. -1.
         -5    1    1    2    0  501 -0.36441975210E+03 -0.33760259392E+03  0.56574224268E+02  0.50000000000E+03  0.47000000000E+01 0.  1.
</event>
<event>
 4    1  0.4838534E-004  0.1000000E+04  0.7546771E-02  0.8684367E-01
         11   -1    0    0    0    0  0.00000000000E+00  0.00000000000E+00  0.50000000000E+03  0.50000000000E+03  0.00000000000E+00 0.  1.
        -11   -1    0    0    0    0 -0.00000000000E+00 -0.00000000000E+00 -0.50000000000E+03  0.50000000000E+03  0.00000000000E+00 0. -1.
          5    1    1    2  501    0  0.20476266440E+03 -0.34833664396E+03  0.29446857853E+03  0.50000000000E+03  0.47000000000E+01 0.  1.
         -5    1    1    2    0  501 -0.20476266440E+03  0.34833664396E+03 -0.29446857853E+03  0.50000000000E+03  0.47000000000E+01 0. -1.
</event>
<event>
 4    1  0.4838534E-004  0.1000000E+04  0.7546771E-02  0.8684367E-01
         11   -1    0    0    0    0  0.00000000000E+00  0.00000000000E+00  0.50000000000E+03  0.50000000000E+03  0.00000000000E+00 0. -1.
        -11   -1    0    0    0    0 -0.00000000000E+00 -0.00000000000E+00 -0.50000000000E+03  0.50000000000E+03  0.00000000000E+00 0.  1.
          5    1    1    2  501    0 -0.20152494998E+03  0.21891427660E+03  0.40179863618E+03  0.50000000000E+03  0.47000000000E+01 0. -1.
         -5    1    1    2    0  501  0.20152494998E+03 -0.21891427660E+03 -0.40179863618E+03  0.50000000000E+03  0.47000000000E+01 0.  1.
</event>
<event>
 4    1  0.4838534E-004  0.1000000E+04  0.7546771E-02  0.8684367E-01
         11   -1    0    0    0    0  0.00000000000E+00  0.00000000000E+00  0.50000000000E+03  0.50000000000E+03  0.00000000000E+00 0. -1.
        -11   -1    0    0    0    0 -0.00000000000E+00 -0.00000000000E+00 -0.50000000000E+03  0.50000000000E+03  0.00000000000E+00 0.  1.
          5    1    1    2  501    0 -0.14297189522E+02  0.46716487786E+03  0.17756823271E+03  0.50000000000E+03  0.47000000000E+01 0. -1.
         -5    1    1    2    0  501  0.14297189522E+02 -0.46716487786E+03 -0.17756823271E+03  0.50000000000E+03  0.47000000000E+01 0.  1.
</event>
<event>
 4    1  0.4838534E-004  0.1000000E+04  0.7546771E-02  0.8684367E-01
         11   -1    0    0    0    0  0.00000000000E+00  0.00000000000E+00  0.50000000000E+03  0.50000000000E+03  0.00000000000E+00 0. -1.
        -11   -1    0    0    0    0 -0.00000000000E+00 -0.00000000000E+00 -0.50000000000E+03  0.50000000000E+03  0.00000000000E+00 0.  1.
          5    1    1    2  501    0 -0.16550691033E+03  0.84079447449E+02  0.46423702906E+03  0.50000000000E+03  0.47000000000E+01 0. -1.
         -5    1    1    2    0  501  0.16550691033E+03 -0.84079447449E+02 -0.46423702906E+03  0.50000000000E+03  0.47000000000E+01 0.  1.
</event>
<event>
 4    1  0.4838534E-004  0.1000000E+04  0.7546771E-02  0.8684367E-01
         11   -1    0    0    0    0  0.00000000000E+00  0.00000000000E+00  0.50000000000E+03  0.50000000000E+03  0.00000000000E+00 0. -1.
        -11   -1    0    0    0    0 -0.00000000000E+00 -0.00000000000E+00 -0.50000000000E+03  0.50000000000E+03  0.00000000000E+00 0.  1.
          5    1    1    2  501    0 -0.96734290658E+01  0.49173918519E+03 -0.89871622453E+02  0.50000000000E+03  0.47000000000E+01 0. -1.
         -5    1    1    2    0  501  0.96734290658E+01 -0.49173918519E+03  0.89871622453E+02  0.50000000000E+03  0.47000000000E+01 0.  1.
</event>
<event>
 4    1  0.4838534E-004  0.1000000E+04  0.7546771E-02  0.8684367E-01
         11   -1    0    0    0    0  0.00000000000E+00  0.00000000000E+00  0.50000000000E+03  0.50000000000E+03  0.00000000000E+00 0. -1.
        -11   -1    0    0    0    0 -0.00000000000E+00 -0.00000000000E+00 -0.50000000000E+03  0.50000000000E+03  0.00000000000E+00 0.  1.
          5    1    1    2  501    0 -0.41286891027E+03  0.16871569588E+03 -0.22594730999E+03  0.50000000000E+03  0.47000000000E+01 0. -1.
         -5    1    1    2    0  501  0.41286891027E+03 -0.16871569588E+03  0.22594730999E+03  0.50000000000E+03  0.47000000000E+01 0.  1.
</event>
<event>
 4    1  0.4838534E-004  0.1000000E+04  0.7546771E-02  0.8684367E-01
         11   -1    0    0    0    0  0.00000000000E+00  0.00000000000E+00  0.50000000000E+03  0.50000000000E+03  0.00000000000E+00 0. -1.
        -11   -1    0    0    0    0 -0.00000000000E+00 -0.00000000000E+00 -0.50000000000E+03  0.50000000000E+03  0.00000000000E+00 0.  1.
          5    1    1    2  501    0  0.11612384818E+03  0.42701366908E+03  0.23270687206E+03  0.50000000000E+03  0.47000000000E+01 0. -1.
         -5    1    1    2    0  501 -0.11612384818E+03 -0.42701366908E+03 -0.23270687206E+03  0.50000000000E+03  0.47000000000E+01 0.  1.
</event>
<event>
 4    1  0.4838534E-004  0.1000000E+04  0.7546771E-02  0.8684367E-01
         11   -1    0    0    0    0  0.00000000000E+00  0.00000000000E+00  0.50000000000E+03  0.50000000000E+03  0.00000000000E+00 0. -1.
        -11   -1    0    0    0    0 -0.00000000000E+00 -0.00000000000E+00 -0.50000000000E+03  0.50000000000E+03  0.00000000000E+00 0.  1.
          5    1    1    2  501    0  0.28484091297E+03  0.14343512725E+03  0.38505834437E+03  0.50000000000E+03  0.47000000000E+01 0. -1.
         -5    1    1    2    0  501 -0.28484091297E+03 -0.14343512725E+03 -0.38505834437E+03  0.50000000000E+03  0.47000000000E+01 0.  1.
</event>
<event>
 4    1  0.4838534E-004  0.1000000E+04  0.7546771E-02  0.8684367E-01
         11   -1    0    0    0    0  0.00000000000E+00  0.00000000000E+00  0.50000000000E+03  0.50000000000E+03  0.00000000000E+00 0. -1.
        -11   -1    0    0    0    0 -0.00000000000E+00 -0.00000000000E+00 -0.50000000000E+03  0.50000000000E+03  0.00000000000E+00 0.  1.
          5    1    1    2  501    0  0.22456429057E+03 -0.30932616591E+03  0.32228265930E+03  0.50000000000E+03  0.47000000000E+01 0. -1.
         -5    1    1    2    0  501 -0.22456429057E+03  0.30932616591E+03 -0.32228265930E+03  0.50000000000E+03  0.47000000000E+01 0.  1.
</event>
<event>
 4    1  0.4838534E-004  0.1000000E+04  0.7546771E-02  0.8684367E-01
         11   -1    0    0    0    0  0.00000000000E+00  0.00000000000E+00  0.50000000000E+03  0.50000000000E+03  0.00000000000E+00 0. -1.
        -11   -1    0    0    0    0 -0.00000000000E+00 -0.00000000000E+00 -0.50000000000E+03  0.50000000000E+03  0.00000000000E+00 0.  1.
          5    1    1    2  501    0 -0.40362923402E+03  0.15114758944E+03  0.25340828253E+03  0.50000000000E+03  0.47000000000E+01 0. -1.
         -5    1    1    2    0  501  0.40362923402E+03 -0.15114758944E+03 -0.25340828253E+03  0.50000000000E+03  0.47000000000E+01 0.  1.
</event>
<event>
 4    1  0.4838534E-004  0.1000000E+04  0.7546771E-02  0.8684367E-01
         11   -1    0    0    0    0  0.00000000000E+00  0.00000000000E+00  0.50000000000E+03  0.50000000000E+03  0.00000000000E+00 0.  1.
        -11   -1    0    0    0    0 -0.00000000000E+00 -0.00000000000E+00 -0.50000000000E+03  0.50000000000E+03  0.00000000000E+00 0. -1.
          5    1    1    2  501    0  0.35092948599E+03  0.89194649128E+02 -0.34477633392E+03  0.50000000000E+03  0.47000000000E+01 0. -1.
         -5    1    1    2    0  501 -0.35092948599E+03 -0.89194649128E+02  0.34477633392E+03  0.50000000000E+03  0.47000000000E+01 0.  1.
</event>
<event>
 4    1  0.4838534E-004  0.1000000E+04  0.7546771E-02  0.8684367E-01
         11   -1    0    0    0    0  0.00000000000E+00  0.00000000000E+00  0.50000000000E+03  0.50000000000E+03  0.00000000000E+00 0. -1.
        -11   -1    0    0    0    0 -0.00000000000E+00 -0.00000000000E+00 -0.50000000000E+03  0.50000000000E+03  0.00000000000E+00 0.  1.
          5    1    1    2  501    0 -0.56437411449E+02 -0.39747771266E+03  0.29800032974E+03  0.50000000000E+03  0.47000000000E+01 0. -1.
         -5    1    1    2    0  501  0.56437411449E+02  0.39747771266E+03 -0.29800032974E+03  0.50000000000E+03  0.47000000000E+01 0.  1.
</event>
<event>
 4    1  0.4838534E-004  0.1000000E+04  0.7546771E-02  0.8684367E-01
         11   -1    0    0    0    0  0.00000000000E+00  0.00000000000E+00  0.50000000000E+03  0.50000000000E+03  0.00000000000E+00 0. -1.
        -11   -1    0    0    0    0 -0.00000000000E+00 -0.00000000000E+00 -0.50000000000E+03  0.50000000000E+03  0.00000000000E+00 0.  1.
          5    1    1    2  501    0  0.37935678326E+03  0.28581381953E+03  0.15613071946E+03  0.50000000000E+03  0.47000000000E+01 0. -1.
         -5    1    1    2    0  501 -0.37935678326E+03 -0.28581381953E+03 -0.15613071946E+03  0.50000000000E+03  0.47000000000E+01 0.  1.
</event>
<event>
 4    1  0.4838534E-004  0.1000000E+04  0.7546771E-02  0.8684367E-01
         11   -1    0    0    0    0  0.00000000000E+00  0.00000000000E+00  0.50000000000E+03  0.50000000000E+03  0.00000000000E+00 0. -1.
        -11   -1    0    0    0    0 -0.00000000000E+00 -0.00000000000E+00 -0.50000000000E+03  0.50000000000E+03  0.00000000000E+00 0.  1.
          5    1    1    2  501    0 -0.26952924571E+03 -0.16989277957E+03  0.38531589528E+03  0.50000000000E+03  0.47000000000E+01 0. -1.
         -5    1    1    2    0  501  0.26952924571E+03  0.16989277957E+03 -0.38531589528E+03  0.50000000000E+03  0.47000000000E+01 0.  1.
</event>
<event>
 4    1  0.4838534E-004  0.1000000E+04  0.7546771E-02  0.8684367E-01
         11   -1    0    0    0    0  0.00000000000E+00  0.00000000000E+00  0.50000000000E+03  0.50000000000E+03  0.00000000000E+00 0.  1.
        -11   -1    0    0    0    0 -0.00000000000E+00 -0.00000000000E+00 -0.50000000000E+03  0.50000000000E+03  0.00000000000E+00 0. -1.
          5    1    1    2  501    0  0.31514512844E+03  0.15986772952E+03  0.35370010896E+03  0.50000000000E+03  0.47000000000E+01 0.  1.
         -5    1    1    2    0  501 -0.31514512844E+03 -0.15986772952E+03 -0.35370010896E+03  0.50000000000E+03  0.47000000000E+01 0. -1.
</event>
<event>
 4    1  0.4838534E-004  0.1000000E+04  0.7546771E-02  0.8684367E-01
         11   -1    0    0    0    0  0.00000000000E+00  0.00000000000E+00  0.50000000000E+03  0.50000000000E+03  0.00000000000E+00 0. -1.
        -11   -1    0    0    0    0 -0.00000000000E+00 -0.00000000000E+00 -0.50000000000E+03  0.50000000000E+03  0.00000000000E+00 0.  1.
          5    1    1    2  501    0  0.21689003993E+03 -0.17972145939E+03  0.41308209549E+03  0.50000000000E+03  0.47000000000E+01 0. -1.
         -5    1    1    2    0  501 -0.21689003993E+03  0.17972145939E+03 -0.41308209549E+03  0.50000000000E+03  0.47000000000E+01 0.  1.
</event>
<event>
 4    1  0.4838534E-004  0.1000000E+04  0.7546771E-02  0.8684367E-01
         11   -1    0    0    0    0  0.00000000000E+00  0.00000000000E+00  0.50000000000E+03  0.50000000000E+03  0.00000000000E+00 0. -1.
        -11   -1    0    0    0    0 -0.00000000000E+00 -0.00000000000E+00 -0.50000000000E+03  0.50000000000E+03  0.00000000000E+00 0.  1.
          5    1    1    2  501    0  0.20972513138E+03  0.25137256731E+03  0.37789563595E+03  0.50000000000E+03  0.47000000000E+01 0. -1.
         -5    1    1    2    0  501 -0.20972513138E+03 -0.25137256731E+03 -0.37789563595E+03  0.50000000000E+03  0.47000000000E+01 0.  1.
</event>
<event>
 4    1  0.4838534E-004  0.1000000E+04  0.7546771E-02  0.8684367E-01
         11   -1    0    0    0    0  0.00000000000E+00  0.00000000000E+00  0.50000000000E+03  0.50000000000E+03  0.00000000000E+00 0. -1.
        -11   -1    0    0    0    0 -0.00000000000E+00 -0.00000000000E+00 -0.50000000000E+03  0.50000000000E+03  0.00000000000E+00 0.  1.
          5    1    1    2  501    0 -0.21111668089E+02  0.41486471871E+03  0.27824354914E+03  0.50000000000E+03  0.47000000000E+01 0. -1.
         -5    1    1    2    0  501  0.21111668089E+02 -0.41486471871E+03 -0.27824354914E+03  0.50000000000E+03  0.47000000000E+01 0.  1.
</event>
<event>
 4    1  0.4838534E-004  0.1000000E+04  0.7546771E-02  0.8684367E-01
         11   -1    0    0    0    0  0.00000000000E+00  0.00000000000E+00  0.50000000000E+03  0.50000000000E+03  0.00000000000E+00 0. -1.
        -11   -1    0    0    0    0 -0.00000000000E+00 -0.00000000000E+00 -0.50000000000E+03  0.50000000000E+03  0.00000000000E+00 0.  1.
          5    1    1    2  501    0 -0.24234475094E+03 -0.39163371391E+03 -0.19460207044E+03  0.50000000000E+03  0.47000000000E+01 0. -1.
         -5    1    1    2    0  501  0.24234475094E+03  0.39163371391E+03  0.19460207044E+03  0.50000000000E+03  0.47000000000E+01 0.  1.
</event>
<event>
 4    1  0.4838534E-004  0.1000000E+04  0.7546771E-02  0.8684367E-01
         11   -1    0    0    0    0  0.00000000000E+00  0.00000000000E+00  0.50000000000E+03  0.50000000000E+03  0.00000000000E+00 0. -1.
        -11   -1    0    0    0    0 -0.00000000000E+00 -0.00000000000E+00 -0.50000000000E+03  0.50000000000E+03  0.00000000000E+00 0.  1.
          5    1    1    2  501    0  0.40257489751E+03 -0.20939750910E+02  0.29575815918E+03  0.50000000000E+03  0.47000000000E+01 0. -1.
         -5    1    1    2    0  501 -0.40257489751E+03  0.20939750910E+02 -0.29575815918E+03  0.50000000000E+03  0.47000000000E+01 0.  1.
</event>
<event>
 4    1  0.4838534E-004  0.1000000E+04  0.7546771E-02  0.8684367E-01
         11   -1    0    0    0    0  0.00000000000E+00  0.00000000000E+00  0.50000000000E+03  0.50000000000E+03  0.00000000000E+00 0.  1.
        -11   -1    0    0    0    0 -0.00000000000E+00 -0.00000000000E+00 -0.50000000000E+03  0.50000000000E+03  0.00000000000E+00 0. -1.
          5    1    1    2  501    0  0.23719424326E+03 -0.30162170128E+02 -0.43909798958E+03  0.50000000000E+03  0.47000000000E+01 0. -1.
         -5    1    1    2    0  501 -0.23719424326E+03  0.30162170128E+02  0.43909798958E+03  0.50000000000E+03  0.47000000000E+01 0.  1.
</event>
<event>
 4    1  0.4838534E-004  0.1000000E+04  0.7546771E-02  0.8684367E-01
         11   -1    0    0    0    0  0.00000000000E+00  0.00000000000E+00  0.50000000000E+03  0.50000000000E+03  0.00000000000E+00 0. -1.
        -11   -1    0    0    0    0 -0.00000000000E+00 -0.00000000000E+00 -0.50000000000E+03  0.50000000000E+03  0.00000000000E+00 0.  1.
          5    1    1    2  501    0 -0.38236410096E+03  0.25860071992E+02  0.32110257080E+03  0.50000000000E+03  0.47000000000E+01 0. -1.
         -5    1    1    2    0  501  0.38236410096E+03 -0.25860071992E+02 -0.32110257080E+03  0.50000000000E+03  0.47000000000E+01 0.  1.
</event>
<event>
 4    1  0.4838534E-004  0.1000000E+04  0.7546771E-02  0.8684367E-01
         11   -1    0    0    0    0  0.00000000000E+00  0.00000000000E+00  0.50000000000E+03  0.50000000000E+03  0.00000000000E+00 0. -1.
        -11   -1    0    0    0    0 -0.00000000000E+00 -0.00000000000E+00 -0.50000000000E+03  0.50000000000E+03  0.00000000000E+00 0.  1.
          5    1    1    2  501    0  0.14807118987E+03 -0.35397401593E+03  0.32055456443E+03  0.50000000000E+03  0.47000000000E+01 0. -1.
         -5    1    1    2    0  501 -0.14807118987E+03  0.35397401593E+03 -0.32055456443E+03  0.50000000000E+03  0.47000000000E+01 0.  1.
</event>
<event>
 4    1  0.4838534E-004  0.1000000E+04  0.7546771E-02  0.8684367E-01
         11   -1    0    0    0    0  0.00000000000E+00  0.00000000000E+00  0.50000000000E+03  0.50000000000E+03  0.00000000000E+00 0.  1.
        -11   -1    0    0    0    0 -0.00000000000E+00 -0.00000000000E+00 -0.50000000000E+03  0.50000000000E+03  0.00000000000E+00 0. -1.
          5    1    1    2  501    0 -0.19199300041E+03 -0.85922218102E+02 -0.45357906723E+03  0.50000000000E+03  0.47000000000E+01 0. -1.
         -5    1    1    2    0  501  0.19199300041E+03  0.85922218102E+02  0.45357906723E+03  0.50000000000E+03  0.47000000000E+01 0.  1.
</event>
<event>
 4    1  0.4838534E-004  0.1000000E+04  0.7546771E-02  0.8684367E-01
         11   -1    0    0    0    0  0.00000000000E+00  0.00000000000E+00  0.50000000000E+03  0.50000000000E+03  0.00000000000E+00 0. -1.
        -11   -1    0    0    0    0 -0.00000000000E+00 -0.00000000000E+00 -0.50000000000E+03  0.50000000000E+03  0.00000000000E+00 0.  1.
          5    1    1    2  501    0 -0.30922204995E+03 -0.29248259629E+01  0.39287539910E+03  0.50000000000E+03  0.47000000000E+01 0. -1.
         -5    1    1    2    0  501  0.30922204995E+03  0.29248259629E+01 -0.39287539910E+03  0.50000000000E+03  0.47000000000E+01 0.  1.
</event>
<event>
 4    1  0.4838534E-004  0.1000000E+04  0.7546771E-02  0.8684367E-01
         11   -1    0    0    0    0  0.00000000000E+00  0.00000000000E+00  0.50000000000E+03  0.50000000000E+03  0.00000000000E+00 0. -1.
        -11   -1    0    0    0    0 -0.00000000000E+00 -0.00000000000E+00 -0.50000000000E+03  0.50000000000E+03  0.00000000000E+00 0.  1.
          5    1    1    2  501    0 -0.31929137339E+03 -0.92938096267E+02  0.37335430778E+03  0.50000000000E+03  0.47000000000E+01 0. -1.
         -5    1    1    2    0  501  0.31929137339E+03  0.92938096267E+02 -0.37335430778E+03  0.50000000000E+03  0.47000000000E+01 0.  1.
</event>
<event>
 4    1  0.4838534E-004  0.1000000E+04  0.7546771E-02  0.8684367E-01
         11   -1    0    0    0    0  0.00000000000E+00  0.00000000000E+00  0.50000000000E+03  0.50000000000E+03  0.00000000000E+00 0. -1.
        -11   -1    0    0    0    0 -0.00000000000E+00 -0.00000000000E+00 -0.50000000000E+03  0.50000000000E+03  0.00000000000E+00 0.  1.
          5    1    1    2  501    0 -0.19915598558E+03  0.41493617795E+03  0.19530174509E+03  0.50000000000E+03  0.47000000000E+01 0. -1.
         -5    1    1    2    0  501  0.19915598558E+03 -0.41493617795E+03 -0.19530174509E+03  0.50000000000E+03  0.47000000000E+01 0.  1.
</event>
<event>
 4    1  0.4838534E-004  0.1000000E+04  0.7546771E-02  0.8684367E-01
         11   -1    0    0    0    0  0.00000000000E+00  0.00000000000E+00  0.50000000000E+03  0.50000000000E+03  0.00000000000E+00 0. -1.
        -11   -1    0    0    0    0 -0.00000000000E+00 -0.00000000000E+00 -0.50000000000E+03  0.50000000000E+03  0.00000000000E+00 0.  1.
          5    1    1    2  501    0 -0.84043894071E+02  0.48421199353E+02  0.49047927716E+03  0.50000000000E+03  0.47000000000E+01 0. -1.
         -5    1    1    2    0  501  0.84043894071E+02 -0.48421199353E+02 -0.49047927716E+03  0.50000000000E+03  0.47000000000E+01 0.  1.
</event>
<event>
 4    1  0.4838534E-004  0.1000000E+04  0.7546771E-02  0.8684367E-01
         11   -1    0    0    0    0  0.00000000000E+00  0.00000000000E+00  0.50000000000E+03  0.50000000000E+03  0.00000000000E+00 0. -1.
        -11   -1    0    0    0    0 -0.00000000000E+00 -0.00000000000E+00 -0.50000000000E+03  0.50000000000E+03  0.00000000000E+00 0.  1.
          5    1    1    2  501    0 -0.24596029450E+03 -0.15808746769E+03  0.40557341640E+03  0.50000000000E+03  0.47000000000E+01 0. -1.
         -5    1    1    2    0  501  0.24596029450E+03  0.15808746769E+03 -0.40557341640E+03  0.50000000000E+03  0.47000000000E+01 0.  1.
</event>
<event>
 4    1  0.4838534E-004  0.1000000E+04  0.7546771E-02  0.8684367E-01
         11   -1    0    0    0    0  0.00000000000E+00  0.00000000000E+00  0.50000000000E+03  0.50000000000E+03  0.00000000000E+00 0. -1.
        -11   -1    0    0    0    0 -0.00000000000E+00 -0.00000000000E+00 -0.50000000000E+03  0.50000000000E+03  0.00000000000E+00 0.  1.
          5    1    1    2  501    0 -0.30683651273E+03  0.28361165110E+03  0.27457912487E+03  0.50000000000E+03  0.47000000000E+01 0. -1.
         -5    1    1    2    0  501  0.30683651273E+03 -0.28361165110E+03 -0.27457912487E+03  0.50000000000E+03  0.47000000000E+01 0.  1.
</event>
<event>
 4    1  0.4838534E-004  0.1000000E+04  0.7546771E-02  0.8684367E-01
         11   -1    0    0    0    0  0.00000000000E+00  0.00000000000E+00  0.50000000000E+03  0.50000000000E+03  0.00000000000E+00 0. -1.
        -11   -1    0    0    0    0 -0.00000000000E+00 -0.00000000000E+00 -0.50000000000E+03  0.50000000000E+03  0.00000000000E+00 0.  1.
          5    1    1    2  501    0 -0.33708426202E+03 -0.57851803499E+02  0.36469888831E+03  0.50000000000E+03  0.47000000000E+01 0. -1.
         -5    1    1    2    0  501  0.33708426202E+03  0.57851803499E+02 -0.36469888831E+03  0.50000000000E+03  0.47000000000E+01 0.  1.
</event>
<event>
 4    1  0.4838534E-004  0.1000000E+04  0.7546771E-02  0.8684367E-01
         11   -1    0    0    0    0  0.00000000000E+00  0.00000000000E+00  0.50000000000E+03  0.50000000000E+03  0.00000000000E+00 0. -1.
        -11   -1    0    0    0    0 -0.00000000000E+00 -0.00000000000E+00 -0.50000000000E+03  0.50000000000E+03  0.00000000000E+00 0.  1.
          5    1    1    2  501    0  0.19895340439E+03 -0.18719666398E+03  0.41875155149E+03  0.50000000000E+03  0.47000000000E+01 0. -1.
         -5    1    1    2    0  501 -0.19895340439E+03  0.18719666398E+03 -0.41875155149E+03  0.50000000000E+03  0.47000000000E+01 0.  1.
</event>
<event>
 4    1  0.4838534E-004  0.1000000E+04  0.7546771E-02  0.8684367E-01
         11   -1    0    0    0    0  0.00000000000E+00  0.00000000000E+00  0.50000000000E+03  0.50000000000E+03  0.00000000000E+00 0.  1.
        -11   -1    0    0    0    0 -0.00000000000E+00 -0.00000000000E+00 -0.50000000000E+03  0.50000000000E+03  0.00000000000E+00 0. -1.
          5    1    1    2  501    0  0.38101441881E+03 -0.32368897286E+03 -0.56010273916E+01  0.50000000000E+03  0.47000000000E+01 0. -1.
         -5    1    1    2    0  501 -0.38101441881E+03  0.32368897286E+03  0.56010273916E+01  0.50000000000E+03  0.47000000000E+01 0.  1.
</event>
<event>
 4    1  0.4838534E-004  0.1000000E+04  0.7546771E-02  0.8684367E-01
         11   -1    0    0    0    0  0.00000000000E+00  0.00000000000E+00  0.50000000000E+03  0.50000000000E+03  0.00000000000E+00 0. -1.
        -11   -1    0    0    0    0 -0.00000000000E+00 -0.00000000000E+00 -0.50000000000E+03  0.50000000000E+03  0.00000000000E+00 0.  1.
          5    1    1    2  501    0 -0.40047913511E+03  0.75127308322E+02 -0.28974171237E+03  0.50000000000E+03  0.47000000000E+01 0. -1.
         -5    1    1    2    0  501  0.40047913511E+03 -0.75127308322E+02  0.28974171237E+03  0.50000000000E+03  0.47000000000E+01 0.  1.
</event>
<event>
 4    1  0.4838534E-004  0.1000000E+04  0.7546771E-02  0.8684367E-01
         11   -1    0    0    0    0  0.00000000000E+00  0.00000000000E+00  0.50000000000E+03  0.50000000000E+03  0.00000000000E+00 0. -1.
        -11   -1    0    0    0    0 -0.00000000000E+00 -0.00000000000E+00 -0.50000000000E+03  0.50000000000E+03  0.00000000000E+00 0.  1.
          5    1    1    2  501    0 -0.66857203807E+02 -0.18894230784E+03  0.45804893691E+03  0.50000000000E+03  0.47000000000E+01 0. -1.
         -5    1    1    2    0  501  0.66857203807E+02  0.18894230784E+03 -0.45804893691E+03  0.50000000000E+03  0.47000000000E+01 0.  1.
</event>
<event>
 4    1  0.4838534E-004  0.1000000E+04  0.7546771E-02  0.8684367E-01
         11   -1    0    0    0    0  0.00000000000E+00  0.00000000000E+00  0.50000000000E+03  0.50000000000E+03  0.00000000000E+00 0.  1.
        -11   -1    0    0    0    0 -0.00000000000E+00 -0.00000000000E+00 -0.50000000000E+03  0.50000000000E+03  0.00000000000E+00 0. -1.
          5    1    1    2  501    0  0.26608683831E+03 -0.42212482640E+03 -0.31405977333E+02  0.50000000000E+03  0.47000000000E+01 0.  1.
         -5    1    1    2    0  501 -0.26608683831E+03  0.42212482640E+03  0.31405977333E+02  0.50000000000E+03  0.47000000000E+01 0. -1.
</event>
<event>
 4    1  0.4838534E-004  0.1000000E+04  0.7546771E-02  0.8684367E-01
         11   -1    0    0    0    0  0.00000000000E+00  0.00000000000E+00  0.50000000000E+03  0.50000000000E+03  0.00000000000E+00 0. -1.
        -11   -1    0    0    0    0 -0.00000000000E+00 -0.00000000000E+00 -0.50000000000E+03  0.50000000000E+03  0.00000000000E+00 0.  1.
          5    1    1    2  501    0 -0.89029776803E+01 -0.49754392122E+03  0.48463320579E+02  0.50000000000E+03  0.47000000000E+01 0. -1.
         -5    1    1    2    0  501  0.89029776803E+01  0.49754392122E+03 -0.48463320579E+02  0.50000000000E+03  0.47000000000E+01 0.  1.
</event>
<event>
 4    1  0.4838534E-004  0.1000000E+04  0.7546771E-02  0.8684367E-01
         11   -1    0    0    0    0  0.00000000000E+00  0.00000000000E+00  0.50000000000E+03  0.50000000000E+03  0.00000000000E+00 0. -1.
        -11   -1    0    0    0    0 -0.00000000000E+00 -0.00000000000E+00 -0.50000000000E+03  0.50000000000E+03  0.00000000000E+00 0.  1.
          5    1    1    2  501    0  0.41244569107E+03  0.10810516105E+03  0.26111249697E+03  0.50000000000E+03  0.47000000000E+01 0. -1.
         -5    1    1    2    0  501 -0.41244569107E+03 -0.10810516105E+03 -0.26111249697E+03  0.50000000000E+03  0.47000000000E+01 0.  1.
</event>
<event>
 4    1  0.4838534E-004  0.1000000E+04  0.7546771E-02  0.8684367E-01
         11   -1    0    0    0    0  0.00000000000E+00  0.00000000000E+00  0.50000000000E+03  0.50000000000E+03  0.00000000000E+00 0. -1.
        -11   -1    0    0    0    0 -0.00000000000E+00 -0.00000000000E+00 -0.50000000000E+03  0.50000000000E+03  0.00000000000E+00 0.  1.
          5    1    1    2  501    0 -0.19154214341E+03 -0.42339882882E+03  0.18445310800E+03  0.50000000000E+03  0.47000000000E+01 0. -1.
         -5    1    1    2    0  501  0.19154214341E+03  0.42339882882E+03 -0.18445310800E+03  0.50000000000E+03  0.47000000000E+01 0.  1.
</event>
<event>
 4    1  0.4838534E-004  0.1000000E+04  0.7546771E-02  0.8684367E-01
         11   -1    0    0    0    0  0.00000000000E+00  0.00000000000E+00  0.50000000000E+03  0.50000000000E+03  0.00000000000E+00 0. -1.
        -11   -1    0    0    0    0 -0.00000000000E+00 -0.00000000000E+00 -0.50000000000E+03  0.50000000000E+03  0.00000000000E+00 0.  1.
          5    1    1    2  501    0 -0.19854731116E+03 -0.81159220048E+01  0.45879298931E+03  0.50000000000E+03  0.47000000000E+01 0. -1.
         -5    1    1    2    0  501  0.19854731116E+03  0.81159220048E+01 -0.45879298931E+03  0.50000000000E+03  0.47000000000E+01 0.  1.
</event>
<event>
 4    1  0.4838534E-004  0.1000000E+04  0.7546771E-02  0.8684367E-01
         11   -1    0    0    0    0  0.00000000000E+00  0.00000000000E+00  0.50000000000E+03  0.50000000000E+03  0.00000000000E+00 0. -1.
        -11   -1    0    0    0    0 -0.00000000000E+00 -0.00000000000E+00 -0.50000000000E+03  0.50000000000E+03  0.00000000000E+00 0.  1.
          5    1    1    2  501    0 -0.26086130978E+03  0.42187796790E+03 -0.62835239013E+02  0.50000000000E+03  0.47000000000E+01 0. -1.
         -5    1    1    2    0  501  0.26086130978E+03 -0.42187796790E+03  0.62835239013E+02  0.50000000000E+03  0.47000000000E+01 0.  1.
</event>
<event>
 4    1  0.4838534E-004  0.1000000E+04  0.7546771E-02  0.8684367E-01
         11   -1    0    0    0    0  0.00000000000E+00  0.00000000000E+00  0.50000000000E+03  0.50000000000E+03  0.00000000000E+00 0. -1.
        -11   -1    0    0    0    0 -0.00000000000E+00 -0.00000000000E+00 -0.50000000000E+03  0.50000000000E+03  0.00000000000E+00 0.  1.
          5    1    1    2  501    0  0.32130034390E+03  0.68472833507E+02  0.37690246759E+03  0.50000000000E+03  0.47000000000E+01 0. -1.
         -5    1    1    2    0  501 -0.32130034390E+03 -0.68472833507E+02 -0.37690246759E+03  0.50000000000E+03  0.47000000000E+01 0.  1.
</event>
<event>
 4    1  0.4838534E-004  0.1000000E+04  0.7546771E-02  0.8684367E-01
         11   -1    0    0    0    0  0.00000000000E+00  0.00000000000E+00  0.50000000000E+03  0.50000000000E+03  0.00000000000E+00 0. -1.
        -11   -1    0    0    0    0 -0.00000000000E+00 -0.00000000000E+00 -0.50000000000E+03  0.50000000000E+03  0.00000000000E+00 0.  1.
          5    1    1    2  501    0 -0.16020313120E+03 -0.25225833427E+03  0.40084735193E+03  0.50000000000E+03  0.47000000000E+01 0. -1.
         -5    1    1    2    0  501  0.16020313120E+03  0.25225833427E+03 -0.40084735193E+03  0.50000000000E+03  0.47000000000E+01 0.  1.
</event>
<event>
 4    1  0.4838534E-004  0.1000000E+04  0.7546771E-02  0.8684367E-01
         11   -1    0    0    0    0  0.00000000000E+00  0.00000000000E+00  0.50000000000E+03  0.50000000000E+03  0.00000000000E+00 0. -1.
        -11   -1    0    0    0    0 -0.00000000000E+00 -0.00000000000E+00 -0.50000000000E+03  0.50000000000E+03  0.00000000000E+00 0.  1.
          5    1    1    2  501    0  0.10278936631E+03  0.23447378263E+03  0.42945814864E+03  0.50000000000E+03  0.47000000000E+01 0. -1.
         -5    1    1    2    0  501 -0.10278936631E+03 -0.23447378263E+03 -0.42945814864E+03  0.50000000000E+03  0.47000000000E+01 0.  1.
</event>
<event>
 4    1  0.4838534E-004  0.1000000E+04  0.7546771E-02  0.8684367E-01
         11   -1    0    0    0    0  0.00000000000E+00  0.00000000000E+00  0.50000000000E+03  0.50000000000E+03  0.00000000000E+00 0. -1.
        -11   -1    0    0    0    0 -0.00000000000E+00 -0.00000000000E+00 -0.50000000000E+03  0.50000000000E+03  0.00000000000E+00 0.  1.
          5    1    1    2  501    0  0.36470257677E+03 -0.72012580877E+02  0.33434133561E+03  0.50000000000E+03  0.47000000000E+01 0. -1.
         -5    1    1    2    0  501 -0.36470257677E+03  0.72012580877E+02 -0.33434133561E+03  0.50000000000E+03  0.47000000000E+01 0.  1.
</event>
<event>
 4    1  0.4838534E-004  0.1000000E+04  0.7546771E-02  0.8684367E-01
         11   -1    0    0    0    0  0.00000000000E+00  0.00000000000E+00  0.50000000000E+03  0.50000000000E+03  0.00000000000E+00 0. -1.
        -11   -1    0    0    0    0 -0.00000000000E+00 -0.00000000000E+00 -0.50000000000E+03  0.50000000000E+03  0.00000000000E+00 0.  1.
          5    1    1    2  501    0 -0.21331955849E+03  0.17903883849E+03  0.41523218839E+03  0.50000000000E+03  0.47000000000E+01 0. -1.
         -5    1    1    2    0  501  0.21331955849E+03 -0.17903883849E+03 -0.41523218839E+03  0.50000000000E+03  0.47000000000E+01 0.  1.
</event>
<event>
 4    1  0.4838534E-004  0.1000000E+04  0.7546771E-02  0.8684367E-01
         11   -1    0    0    0    0  0.00000000000E+00  0.00000000000E+00  0.50000000000E+03  0.50000000000E+03  0.00000000000E+00 0. -1.
        -11   -1    0    0    0    0 -0.00000000000E+00 -0.00000000000E+00 -0.50000000000E+03  0.50000000000E+03  0.00000000000E+00 0.  1.
          5    1    1    2  501    0 -0.52910329830E+02  0.21013006399E+03 -0.45058158330E+03  0.50000000000E+03  0.47000000000E+01 0. -1.
         -5    1    1    2    0  501  0.52910329830E+02 -0.21013006399E+03  0.45058158330E+03  0.50000000000E+03  0.47000000000E+01 0.  1.
</event>
<event>
 4    1  0.4838534E-004  0.1000000E+04  0.7546771E-02  0.8684367E-01
         11   -1    0    0    0    0  0.00000000000E+00  0.00000000000E+00  0.50000000000E+03  0.50000000000E+03  0.00000000000E+00 0. -1.
        -11   -1    0    0    0    0 -0.00000000000E+00 -0.00000000000E+00 -0.50000000000E+03  0.50000000000E+03  0.00000000000E+00 0.  1.
          5    1    1    2  501    0  0.12058829709E+03 -0.98789950233E+02  0.47505464774E+03  0.50000000000E+03  0.47000000000E+01 0. -1.
         -5    1    1    2    0  501 -0.12058829709E+03  0.98789950233E+02 -0.47505464774E+03  0.50000000000E+03  0.47000000000E+01 0.  1.
</event>
<event>
 4    1  0.4838534E-004  0.1000000E+04  0.7546771E-02  0.8684367E-01
         11   -1    0    0    0    0  0.00000000000E+00  0.00000000000E+00  0.50000000000E+03  0.50000000000E+03  0.00000000000E+00 0. -1.
        -11   -1    0    0    0    0 -0.00000000000E+00 -0.00000000000E+00 -0.50000000000E+03  0.50000000000E+03  0.00000000000E+00 0.  1.
          5    1    1    2  501    0  0.43658119276E+03 -0.91220424540E+02  0.22595045092E+03  0.50000000000E+03  0.47000000000E+01 0. -1.
         -5    1    1    2    0  501 -0.43658119276E+03  0.91220424540E+02 -0.22595045092E+03  0.50000000000E+03  0.47000000000E+01 0.  1.
</event>
<event>
 4    1  0.4838534E-004  0.1000000E+04  0.7546771E-02  0.8684367E-01
         11   -1    0    0    0    0  0.00000000000E+00  0.00000000000E+00  0.50000000000E+03  0.50000000000E+03  0.00000000000E+00 0. -1.
        -11   -1    0    0    0    0 -0.00000000000E+00 -0.00000000000E+00 -0.50000000000E+03  0.50000000000E+03  0.00000000000E+00 0.  1.
          5    1    1    2  501    0 -0.20929498471E+03  0.45292959044E+03  0.32067202558E+02  0.50000000000E+03  0.47000000000E+01 0. -1.
         -5    1    1    2    0  501  0.20929498471E+03 -0.45292959044E+03 -0.32067202558E+02  0.50000000000E+03  0.47000000000E+01 0.  1.
</event>
<event>
 4    1  0.4838534E-004  0.1000000E+04  0.7546771E-02  0.8684367E-01
         11   -1    0    0    0    0  0.00000000000E+00  0.00000000000E+00  0.50000000000E+03  0.50000000000E+03  0.00000000000E+00 0. -1.
        -11   -1    0    0    0    0 -0.00000000000E+00 -0.00000000000E+00 -0.50000000000E+03  0.50000000000E+03  0.00000000000E+00 0.  1.
          5    1    1    2  501    0 -0.24506641969E+03  0.98425233865E+02  0.42453837669E+03  0.50000000000E+03  0.47000000000E+01 0. -1.
         -5    1    1    2    0  501  0.24506641969E+03 -0.98425233865E+02 -0.42453837669E+03  0.50000000000E+03  0.47000000000E+01 0.  1.
</event>
<event>
 4    1  0.4838534E-004  0.1000000E+04  0.7546771E-02  0.8684367E-01
         11   -1    0    0    0    0  0.00000000000E+00  0.00000000000E+00  0.50000000000E+03  0.50000000000E+03  0.00000000000E+00 0. -1.
        -11   -1    0    0    0    0 -0.00000000000E+00 -0.00000000000E+00 -0.50000000000E+03  0.50000000000E+03  0.00000000000E+00 0.  1.
          5    1    1    2  501    0  0.18279444071E+02 -0.10459680702E+03  0.48857269662E+03  0.50000000000E+03  0.47000000000E+01 0. -1.
         -5    1    1    2    0  501 -0.18279444071E+02  0.10459680702E+03 -0.48857269662E+03  0.50000000000E+03  0.47000000000E+01 0.  1.
</event>
<event>
 4    1  0.4838534E-004  0.1000000E+04  0.7546771E-02  0.8684367E-01
         11   -1    0    0    0    0  0.00000000000E+00  0.00000000000E+00  0.50000000000E+03  0.50000000000E+03  0.00000000000E+00 0.  1.
        -11   -1    0    0    0    0 -0.00000000000E+00 -0.00000000000E+00 -0.50000000000E+03  0.50000000000E+03  0.00000000000E+00 0. -1.
          5    1    1    2  501    0 -0.19473634164E+03 -0.49462903942E+02 -0.45783085128E+03  0.50000000000E+03  0.47000000000E+01 0. -1.
         -5    1    1    2    0  501  0.19473634164E+03  0.49462903942E+02  0.45783085128E+03  0.50000000000E+03  0.47000000000E+01 0.  1.
</event>
<event>
 4    1  0.4838534E-004  0.1000000E+04  0.7546771E-02  0.8684367E-01
         11   -1    0    0    0    0  0.00000000000E+00  0.00000000000E+00  0.50000000000E+03  0.50000000000E+03  0.00000000000E+00 0. -1.
        -11   -1    0    0    0    0 -0.00000000000E+00 -0.00000000000E+00 -0.50000000000E+03  0.50000000000E+03  0.00000000000E+00 0.  1.
          5    1    1    2  501    0  0.25964663441E+03 -0.39780345181E+03  0.15592930759E+03  0.50000000000E+03  0.47000000000E+01 0. -1.
         -5    1    1    2    0  501 -0.25964663441E+03  0.39780345181E+03 -0.15592930759E+03  0.50000000000E+03  0.47000000000E+01 0.  1.
</event>
<event>
 4    1  0.4838534E-004  0.1000000E+04  0.7546771E-02  0.8684367E-01
         11   -1    0    0    0    0  0.00000000000E+00  0.00000000000E+00  0.50000000000E+03  0.50000000000E+03  0.00000000000E+00 0. -1.
        -11   -1    0    0    0    0 -0.00000000000E+00 -0.00000000000E+00 -0.50000000000E+03  0.50000000000E+03  0.00000000000E+00 0.  1.
          5    1    1    2  501    0 -0.49654462764E+03 -0.37869310878E+02  0.44578672652E+02  0.50000000000E+03  0.47000000000E+01 0. -1.
         -5    1    1    2    0  501  0.49654462764E+03  0.37869310878E+02 -0.44578672652E+02  0.50000000000E+03  0.47000000000E+01 0.  1.
</event>
<event>
 4    1  0.4838534E-004  0.1000000E+04  0.7546771E-02  0.8684367E-01
         11   -1    0    0    0    0  0.00000000000E+00  0.00000000000E+00  0.50000000000E+03  0.50000000000E+03  0.00000000000E+00 0. -1.
        -11   -1    0    0    0    0 -0.00000000000E+00 -0.00000000000E+00 -0.50000000000E+03  0.50000000000E+03  0.00000000000E+00 0.  1.
          5    1    1    2  501    0  0.21196459016E+03 -0.43927723949E+03 -0.10992920170E+03  0.50000000000E+03  0.47000000000E+01 0. -1.
         -5    1    1    2    0  501 -0.21196459016E+03  0.43927723949E+03  0.10992920170E+03  0.50000000000E+03  0.47000000000E+01 0.  1.
</event>
<event>
 4    1  0.4838534E-004  0.1000000E+04  0.7546771E-02  0.8684367E-01
         11   -1    0    0    0    0  0.00000000000E+00  0.00000000000E+00  0.50000000000E+03  0.50000000000E+03  0.00000000000E+00 0. -1.
        -11   -1    0    0    0    0 -0.00000000000E+00 -0.00000000000E+00 -0.50000000000E+03  0.50000000000E+03  0.00000000000E+00 0.  1.
          5    1    1    2  501    0 -0.40139171577E+03 -0.83502845858E+02 -0.28616407049E+03  0.50000000000E+03  0.47000000000E+01 0.  1.
         -5    1    1    2    0  501  0.40139171577E+03  0.83502845858E+02  0.28616407049E+03  0.50000000000E+03  0.47000000000E+01 0. -1.
</event>
<event>
 4    1  0.4838534E-004  0.1000000E+04  0.7546771E-02  0.8684367E-01
         11   -1    0    0    0    0  0.00000000000E+00  0.00000000000E+00  0.50000000000E+03  0.50000000000E+03  0.00000000000E+00 0. -1.
        -11   -1    0    0    0    0 -0.00000000000E+00 -0.00000000000E+00 -0.50000000000E+03  0.50000000000E+03  0.00000000000E+00 0.  1.
          5    1    1    2  501    0 -0.41674687692E+03 -0.20306739605E+03  0.18725272557E+03  0.50000000000E+03  0.47000000000E+01 0. -1.
         -5    1    1    2    0  501  0.41674687692E+03  0.20306739605E+03 -0.18725272557E+03  0.50000000000E+03  0.47000000000E+01 0.  1.
</event>
<event>
 4    1  0.4838534E-004  0.1000000E+04  0.7546771E-02  0.8684367E-01
         11   -1    0    0    0    0  0.00000000000E+00  0.00000000000E+00  0.50000000000E+03  0.50000000000E+03  0.00000000000E+00 0. -1.
        -11   -1    0    0    0    0 -0.00000000000E+00 -0.00000000000E+00 -0.50000000000E+03  0.50000000000E+03  0.00000000000E+00 0.  1.
          5    1    1    2  501    0  0.24985591700E+03  0.43006520848E+03  0.50929826186E+02  0.50000000000E+03  0.47000000000E+01 0. -1.
         -5    1    1    2    0  501 -0.24985591700E+03 -0.43006520848E+03 -0.50929826186E+02  0.50000000000E+03  0.47000000000E+01 0.  1.
</event>
<event>
 4    1  0.4838534E-004  0.1000000E+04  0.7546771E-02  0.8684367E-01
         11   -1    0    0    0    0  0.00000000000E+00  0.00000000000E+00  0.50000000000E+03  0.50000000000E+03  0.00000000000E+00 0. -1.
        -11   -1    0    0    0    0 -0.00000000000E+00 -0.00000000000E+00 -0.50000000000E+03  0.50000000000E+03  0.00000000000E+00 0.  1.
          5    1    1    2  501    0 -0.17595960260E+03  0.81450739626E+02  0.46084911334E+03  0.50000000000E+03  0.47000000000E+01 0. -1.
         -5    1    1    2    0  501  0.17595960260E+03 -0.81450739626E+02 -0.46084911334E+03  0.50000000000E+03  0.47000000000E+01 0.  1.
</event>
<event>
 4    1  0.4838534E-004  0.1000000E+04  0.7546771E-02  0.8684367E-01
         11   -1    0    0    0    0  0.00000000000E+00  0.00000000000E+00  0.50000000000E+03  0.50000000000E+03  0.00000000000E+00 0. -1.
        -11   -1    0    0    0    0 -0.00000000000E+00 -0.00000000000E+00 -0.50000000000E+03  0.50000000000E+03  0.00000000000E+00 0.  1.
          5    1    1    2  501    0 -0.27681849265E+03 -0.26051546683E+03  0.32477857637E+03  0.50000000000E+03  0.47000000000E+01 0. -1.
         -5    1    1    2    0  501  0.27681849265E+03  0.26051546683E+03 -0.32477857637E+03  0.50000000000E+03  0.47000000000E+01 0.  1.
</event>
<event>
 4    1  0.4838534E-004  0.1000000E+04  0.7546771E-02  0.8684367E-01
         11   -1    0    0    0    0  0.00000000000E+00  0.00000000000E+00  0.50000000000E+03  0.50000000000E+03  0.00000000000E+00 0. -1.
        -11   -1    0    0    0    0 -0.00000000000E+00 -0.00000000000E+00 -0.50000000000E+03  0.50000000000E+03  0.00000000000E+00 0.  1.
          5    1    1    2  501    0  0.20728037662E+03  0.44647652153E+03 -0.87586935035E+02  0.50000000000E+03  0.47000000000E+01 0. -1.
         -5    1    1    2    0  501 -0.20728037662E+03 -0.44647652153E+03  0.87586935035E+02  0.50000000000E+03  0.47000000000E+01 0.  1.
</event>
<event>
 4    1  0.4838534E-004  0.1000000E+04  0.7546771E-02  0.8684367E-01
         11   -1    0    0    0    0  0.00000000000E+00  0.00000000000E+00  0.50000000000E+03  0.50000000000E+03  0.00000000000E+00 0. -1.
        -11   -1    0    0    0    0 -0.00000000000E+00 -0.00000000000E+00 -0.50000000000E+03  0.50000000000E+03  0.00000000000E+00 0.  1.
          5    1    1    2  501    0 -0.72443272135E+02 -0.21808368086E+03  0.44403760028E+03  0.50000000000E+03  0.47000000000E+01 0. -1.
         -5    1    1    2    0  501  0.72443272135E+02  0.21808368086E+03 -0.44403760028E+03  0.50000000000E+03  0.47000000000E+01 0.  1.
</event>
<event>
 4    1  0.4838534E-004  0.1000000E+04  0.7546771E-02  0.8684367E-01
         11   -1    0    0    0    0  0.00000000000E+00  0.00000000000E+00  0.50000000000E+03  0.50000000000E+03  0.00000000000E+00 0. -1.
        -11   -1    0    0    0    0 -0.00000000000E+00 -0.00000000000E+00 -0.50000000000E+03  0.50000000000E+03  0.00000000000E+00 0.  1.
          5    1    1    2  501    0 -0.12110199777E+03 -0.51791043883E+02  0.48231722332E+03  0.50000000000E+03  0.47000000000E+01 0. -1.
         -5    1    1    2    0  501  0.12110199777E+03  0.51791043883E+02 -0.48231722332E+03  0.50000000000E+03  0.47000000000E+01 0.  1.
</event>
<event>
 4    1  0.4838534E-004  0.1000000E+04  0.7546771E-02  0.8684367E-01
         11   -1    0    0    0    0  0.00000000000E+00  0.00000000000E+00  0.50000000000E+03  0.50000000000E+03  0.00000000000E+00 0. -1.
        -11   -1    0    0    0    0 -0.00000000000E+00 -0.00000000000E+00 -0.50000000000E+03  0.50000000000E+03  0.00000000000E+00 0.  1.
          5    1    1    2  501    0  0.16057098278E+03  0.28550521196E+03  0.37773223775E+03  0.50000000000E+03  0.47000000000E+01 0. -1.
         -5    1    1    2    0  501 -0.16057098278E+03 -0.28550521196E+03 -0.37773223775E+03  0.50000000000E+03  0.47000000000E+01 0.  1.
</event>
<event>
 4    1  0.4838534E-004  0.1000000E+04  0.7546771E-02  0.8684367E-01
         11   -1    0    0    0    0  0.00000000000E+00  0.00000000000E+00  0.50000000000E+03  0.50000000000E+03  0.00000000000E+00 0. -1.
        -11   -1    0    0    0    0 -0.00000000000E+00 -0.00000000000E+00 -0.50000000000E+03  0.50000000000E+03  0.00000000000E+00 0.  1.
          5    1    1    2  501    0 -0.64668984301E+02  0.47411575024E+03  0.14494856965E+03  0.50000000000E+03  0.47000000000E+01 0. -1.
         -5    1    1    2    0  501  0.64668984301E+02 -0.47411575024E+03 -0.14494856965E+03  0.50000000000E+03  0.47000000000E+01 0.  1.
</event>
<event>
 4    1  0.4838534E-004  0.1000000E+04  0.7546771E-02  0.8684367E-01
         11   -1    0    0    0    0  0.00000000000E+00  0.00000000000E+00  0.50000000000E+03  0.50000000000E+03  0.00000000000E+00 0. -1.
        -11   -1    0    0    0    0 -0.00000000000E+00 -0.00000000000E+00 -0.50000000000E+03  0.50000000000E+03  0.00000000000E+00 0.  1.
          5    1    1    2  501    0  0.43352237022E+03  0.22898585512E+03  0.97988482366E+02  0.50000000000E+03  0.47000000000E+01 0. -1.
         -5    1    1    2    0  501 -0.43352237022E+03 -0.22898585512E+03 -0.97988482366E+02  0.50000000000E+03  0.47000000000E+01 0.  1.
</event>
<event>
 4    1  0.4838534E-004  0.1000000E+04  0.7546771E-02  0.8684367E-01
         11   -1    0    0    0    0  0.00000000000E+00  0.00000000000E+00  0.50000000000E+03  0.50000000000E+03  0.00000000000E+00 0. -1.
        -11   -1    0    0    0    0 -0.00000000000E+00 -0.00000000000E+00 -0.50000000000E+03  0.50000000000E+03  0.00000000000E+00 0.  1.
          5    1    1    2  501    0  0.15905431597E+03 -0.46648054728E+03  0.84116190953E+02  0.50000000000E+03  0.47000000000E+01 0. -1.
         -5    1    1    2    0  501 -0.15905431597E+03  0.46648054728E+03 -0.84116190953E+02  0.50000000000E+03  0.47000000000E+01 0.  1.
</event>
<event>
 4    1  0.4838534E-004  0.1000000E+04  0.7546771E-02  0.8684367E-01
         11   -1    0    0    0    0  0.00000000000E+00  0.00000000000E+00  0.50000000000E+03  0.50000000000E+03  0.00000000000E+00 0. -1.
        -11   -1    0    0    0    0 -0.00000000000E+00 -0.00000000000E+00 -0.50000000000E+03  0.50000000000E+03  0.00000000000E+00 0.  1.
          5    1    1    2  501    0  0.37667957482E+03 -0.22293205028E+02  0.32801436085E+03  0.50000000000E+03  0.47000000000E+01 0. -1.
         -5    1    1    2    0  501 -0.37667957482E+03  0.22293205028E+02 -0.32801436085E+03  0.50000000000E+03  0.47000000000E+01 0.  1.
</event>
<event>
 4    1  0.4838534E-004  0.1000000E+04  0.7546771E-02  0.8684367E-01
         11   -1    0    0    0    0  0.00000000000E+00  0.00000000000E+00  0.50000000000E+03  0.50000000000E+03  0.00000000000E+00 0. -1.
        -11   -1    0    0    0    0 -0.00000000000E+00 -0.00000000000E+00 -0.50000000000E+03  0.50000000000E+03  0.00000000000E+00 0.  1.
          5    1    1    2  501    0  0.19201738912E+03 -0.46138481622E+03 -0.15208012159E+02  0.50000000000E+03  0.47000000000E+01 0.  1.
         -5    1    1    2    0  501 -0.19201738912E+03  0.46138481622E+03  0.15208012159E+02  0.50000000000E+03  0.47000000000E+01 0. -1.
</event>
<event>
 4    1  0.4838534E-004  0.1000000E+04  0.7546771E-02  0.8684367E-01
         11   -1    0    0    0    0  0.00000000000E+00  0.00000000000E+00  0.50000000000E+03  0.50000000000E+03  0.00000000000E+00 0. -1.
        -11   -1    0    0    0    0 -0.00000000000E+00 -0.00000000000E+00 -0.50000000000E+03  0.50000000000E+03  0.00000000000E+00 0.  1.
          5    1    1    2  501    0 -0.24965791716E+03 -0.17975640384E+03  0.39412747897E+03  0.50000000000E+03  0.47000000000E+01 0. -1.
         -5    1    1    2    0  501  0.24965791716E+03  0.17975640384E+03 -0.39412747897E+03  0.50000000000E+03  0.47000000000E+01 0.  1.
</event>
<event>
 4    1  0.4838534E-004  0.1000000E+04  0.7546771E-02  0.8684367E-01
         11   -1    0    0    0    0  0.00000000000E+00  0.00000000000E+00  0.50000000000E+03  0.50000000000E+03  0.00000000000E+00 0. -1.
        -11   -1    0    0    0    0 -0.00000000000E+00 -0.00000000000E+00 -0.50000000000E+03  0.50000000000E+03  0.00000000000E+00 0.  1.
          5    1    1    2  501    0  0.18008429796E+03 -0.34713772367E+03 -0.31151718481E+03  0.50000000000E+03  0.47000000000E+01 0. -1.
         -5    1    1    2    0  501 -0.18008429796E+03  0.34713772367E+03  0.31151718481E+03  0.50000000000E+03  0.47000000000E+01 0.  1.
</event>
<event>
 4    1  0.4838534E-004  0.1000000E+04  0.7546771E-02  0.8684367E-01
         11   -1    0    0    0    0  0.00000000000E+00  0.00000000000E+00  0.50000000000E+03  0.50000000000E+03  0.00000000000E+00 0. -1.
        -11   -1    0    0    0    0 -0.00000000000E+00 -0.00000000000E+00 -0.50000000000E+03  0.50000000000E+03  0.00000000000E+00 0.  1.
          5    1    1    2  501    0 -0.14124162859E+03  0.70692944418E+02  0.47437455662E+03  0.50000000000E+03  0.47000000000E+01 0. -1.
         -5    1    1    2    0  501  0.14124162859E+03 -0.70692944418E+02 -0.47437455662E+03  0.50000000000E+03  0.47000000000E+01 0.  1.
</event>
<event>
 4    1  0.4838534E-004  0.1000000E+04  0.7546771E-02  0.8684367E-01
         11   -1    0    0    0    0  0.00000000000E+00  0.00000000000E+00  0.50000000000E+03  0.50000000000E+03  0.00000000000E+00 0. -1.
        -11   -1    0    0    0    0 -0.00000000000E+00 -0.00000000000E+00 -0.50000000000E+03  0.50000000000E+03  0.00000000000E+00 0.  1.
          5    1    1    2  501    0  0.24956096722E+03  0.40388067774E+03  0.15677254795E+03  0.50000000000E+03  0.47000000000E+01 0. -1.
         -5    1    1    2    0  501 -0.24956096722E+03 -0.40388067774E+03 -0.15677254795E+03  0.50000000000E+03  0.47000000000E+01 0.  1.
</event>
<event>
 4    1  0.4838534E-004  0.1000000E+04  0.7546771E-02  0.8684367E-01
         11   -1    0    0    0    0  0.00000000000E+00  0.00000000000E+00  0.50000000000E+03  0.50000000000E+03  0.00000000000E+00 0. -1.
        -11   -1    0    0    0    0 -0.00000000000E+00 -0.00000000000E+00 -0.50000000000E+03  0.50000000000E+03  0.00000000000E+00 0.  1.
          5    1    1    2  501    0  0.30461545125E+03  0.59423423979E+02  0.39199004266E+03  0.50000000000E+03  0.47000000000E+01 0. -1.
         -5    1    1    2    0  501 -0.30461545125E+03 -0.59423423979E+02 -0.39199004266E+03  0.50000000000E+03  0.47000000000E+01 0.  1.
</event>
<event>
 4    1  0.4838534E-004  0.1000000E+04  0.7546771E-02  0.8684367E-01
         11   -1    0    0    0    0  0.00000000000E+00  0.00000000000E+00  0.50000000000E+03  0.50000000000E+03  0.00000000000E+00 0. -1.
        -11   -1    0    0    0    0 -0.00000000000E+00 -0.00000000000E+00 -0.50000000000E+03  0.50000000000E+03  0.00000000000E+00 0.  1.
          5    1    1    2  501    0 -0.42443818943E+03 -0.12269502234E+03  0.23404286967E+03  0.50000000000E+03  0.47000000000E+01 0. -1.
         -5    1    1    2    0  501  0.42443818943E+03  0.12269502234E+03 -0.23404286967E+03  0.50000000000E+03  0.47000000000E+01 0.  1.
</event>
<event>
 4    1  0.4838534E-004  0.1000000E+04  0.7546771E-02  0.8684367E-01
         11   -1    0    0    0    0  0.00000000000E+00  0.00000000000E+00  0.50000000000E+03  0.50000000000E+03  0.00000000000E+00 0. -1.
        -11   -1    0    0    0    0 -0.00000000000E+00 -0.00000000000E+00 -0.50000000000E+03  0.50000000000E+03  0.00000000000E+00 0.  1.
          5    1    1    2  501    0  0.38062888964E+03 -0.37835005956E+01  0.32416854180E+03  0.50000000000E+03  0.47000000000E+01 0. -1.
         -5    1    1    2    0  501 -0.38062888964E+03  0.37835005956E+01 -0.32416854180E+03  0.50000000000E+03  0.47000000000E+01 0.  1.
</event>
<event>
 4    1  0.4838534E-004  0.1000000E+04  0.7546771E-02  0.8684367E-01
         11   -1    0    0    0    0  0.00000000000E+00  0.00000000000E+00  0.50000000000E+03  0.50000000000E+03  0.00000000000E+00 0. -1.
        -11   -1    0    0    0    0 -0.00000000000E+00 -0.00000000000E+00 -0.50000000000E+03  0.50000000000E+03  0.00000000000E+00 0.  1.
          5    1    1    2  501    0  0.23468236627E+03 -0.16516783635E+02  0.44116810041E+03  0.50000000000E+03  0.47000000000E+01 0. -1.
         -5    1    1    2    0  501 -0.23468236627E+03  0.16516783635E+02 -0.44116810041E+03  0.50000000000E+03  0.47000000000E+01 0.  1.
</event>
<event>
 4    1  0.4838534E-004  0.1000000E+04  0.7546771E-02  0.8684367E-01
         11   -1    0    0    0    0  0.00000000000E+00  0.00000000000E+00  0.50000000000E+03  0.50000000000E+03  0.00000000000E+00 0. -1.
        -11   -1    0    0    0    0 -0.00000000000E+00 -0.00000000000E+00 -0.50000000000E+03  0.50000000000E+03  0.00000000000E+00 0.  1.
          5    1    1    2  501    0 -0.14715350016E+03 -0.25465278469E+03  0.40432130372E+03  0.50000000000E+03  0.47000000000E+01 0. -1.
         -5    1    1    2    0  501  0.14715350016E+03  0.25465278469E+03 -0.40432130372E+03  0.50000000000E+03  0.47000000000E+01 0.  1.
</event>
<event>
 4    1  0.4838534E-004  0.1000000E+04  0.7546771E-02  0.8684367E-01
         11   -1    0    0    0    0  0.00000000000E+00  0.00000000000E+00  0.50000000000E+03  0.50000000000E+03  0.00000000000E+00 0.  1.
        -11   -1    0    0    0    0 -0.00000000000E+00 -0.00000000000E+00 -0.50000000000E+03  0.50000000000E+03  0.00000000000E+00 0. -1.
          5    1    1    2  501    0  0.46985209606E+03  0.16659948538E+03 -0.38229952912E+02  0.50000000000E+03  0.47000000000E+01 0. -1.
         -5    1    1    2    0  501 -0.46985209606E+03 -0.16659948538E+03  0.38229952912E+02  0.50000000000E+03  0.47000000000E+01 0.  1.
</event>
<event>
 4    1  0.4838534E-004  0.1000000E+04  0.7546771E-02  0.8684367E-01
         11   -1    0    0    0    0  0.00000000000E+00  0.00000000000E+00  0.50000000000E+03  0.50000000000E+03  0.00000000000E+00 0. -1.
        -11   -1    0    0    0    0 -0.00000000000E+00 -0.00000000000E+00 -0.50000000000E+03  0.50000000000E+03  0.00000000000E+00 0.  1.
          5    1    1    2  501    0 -0.14566740876E+03 -0.44406586700E+03  0.17766378863E+03  0.50000000000E+03  0.47000000000E+01 0. -1.
         -5    1    1    2    0  501  0.14566740876E+03  0.44406586700E+03 -0.17766378863E+03  0.50000000000E+03  0.47000000000E+01 0.  1.
</event>
<event>
 4    1  0.4838534E-004  0.1000000E+04  0.7546771E-02  0.8684367E-01
         11   -1    0    0    0    0  0.00000000000E+00  0.00000000000E+00  0.50000000000E+03  0.50000000000E+03  0.00000000000E+00 0. -1.
        -11   -1    0    0    0    0 -0.00000000000E+00 -0.00000000000E+00 -0.50000000000E+03  0.50000000000E+03  0.00000000000E+00 0.  1.
          5    1    1    2  501    0  0.32748741238E+03  0.31582586676E+03  0.20732565354E+03  0.50000000000E+03  0.47000000000E+01 0. -1.
         -5    1    1    2    0  501 -0.32748741238E+03 -0.31582586676E+03 -0.20732565354E+03  0.50000000000E+03  0.47000000000E+01 0.  1.
</event>
<event>
 4    1  0.4838534E-004  0.1000000E+04  0.7546771E-02  0.8684367E-01
         11   -1    0    0    0    0  0.00000000000E+00  0.00000000000E+00  0.50000000000E+03  0.50000000000E+03  0.00000000000E+00 0. -1.
        -11   -1    0    0    0    0 -0.00000000000E+00 -0.00000000000E+00 -0.50000000000E+03  0.50000000000E+03  0.00000000000E+00 0.  1.
          5    1    1    2  501    0  0.24424350342E+03 -0.81861889693E+02  0.42851097075E+03  0.50000000000E+03  0.47000000000E+01 0. -1.
         -5    1    1    2    0  501 -0.24424350342E+03  0.81861889693E+02 -0.42851097075E+03  0.50000000000E+03  0.47000000000E+01 0.  1.
</event>
<event>
 4    1  0.4838534E-004  0.1000000E+04  0.7546771E-02  0.8684367E-01
         11   -1    0    0    0    0  0.00000000000E+00  0.00000000000E+00  0.50000000000E+03  0.50000000000E+03  0.00000000000E+00 0. -1.
        -11   -1    0    0    0    0 -0.00000000000E+00 -0.00000000000E+00 -0.50000000000E+03  0.50000000000E+03  0.00000000000E+00 0.  1.
          5    1    1    2  501    0  0.28887414385E+03 -0.34430839637E+03  0.21904649554E+03  0.50000000000E+03  0.47000000000E+01 0. -1.
         -5    1    1    2    0  501 -0.28887414385E+03  0.34430839637E+03 -0.21904649554E+03  0.50000000000E+03  0.47000000000E+01 0.  1.
</event>
<event>
 4    1  0.4838534E-004  0.1000000E+04  0.7546771E-02  0.8684367E-01
         11   -1    0    0    0    0  0.00000000000E+00  0.00000000000E+00  0.50000000000E+03  0.50000000000E+03  0.00000000000E+00 0. -1.
        -11   -1    0    0    0    0 -0.00000000000E+00 -0.00000000000E+00 -0.50000000000E+03  0.50000000000E+03  0.00000000000E+00 0.  1.
          5    1    1    2  501    0  0.18984452521E+03  0.26329820863E+03  0.38027755598E+03  0.50000000000E+03  0.47000000000E+01 0. -1.
         -5    1    1    2    0  501 -0.18984452521E+03 -0.26329820863E+03 -0.38027755598E+03  0.50000000000E+03  0.47000000000E+01 0.  1.
</event>
<event>
 4    1  0.4838534E-004  0.1000000E+04  0.7546771E-02  0.8684367E-01
         11   -1    0    0    0    0  0.00000000000E+00  0.00000000000E+00  0.50000000000E+03  0.50000000000E+03  0.00000000000E+00 0.  1.
        -11   -1    0    0    0    0 -0.00000000000E+00 -0.00000000000E+00 -0.50000000000E+03  0.50000000000E+03  0.00000000000E+00 0. -1.
          5    1    1    2  501    0 -0.30746722190E+03  0.17505664099E+03  0.35326617430E+03  0.50000000000E+03  0.47000000000E+01 0.  1.
         -5    1    1    2    0  501  0.30746722190E+03 -0.17505664099E+03 -0.35326617430E+03  0.50000000000E+03  0.47000000000E+01 0. -1.
</event>
<event>
 4    1  0.4838534E-004  0.1000000E+04  0.7546771E-02  0.8684367E-01
         11   -1    0    0    0    0  0.00000000000E+00  0.00000000000E+00  0.50000000000E+03  0.50000000000E+03  0.00000000000E+00 0. -1.
        -11   -1    0    0    0    0 -0.00000000000E+00 -0.00000000000E+00 -0.50000000000E+03  0.50000000000E+03  0.00000000000E+00 0.  1.
          5    1    1    2  501    0  0.20451480299E+03  0.32716842329E+03  0.31798180476E+03  0.50000000000E+03  0.47000000000E+01 0. -1.
         -5    1    1    2    0  501 -0.20451480299E+03 -0.32716842329E+03 -0.31798180476E+03  0.50000000000E+03  0.47000000000E+01 0.  1.
</event>
<event>
 4    1  0.4838534E-004  0.1000000E+04  0.7546771E-02  0.8684367E-01
         11   -1    0    0    0    0  0.00000000000E+00  0.00000000000E+00  0.50000000000E+03  0.50000000000E+03  0.00000000000E+00 0. -1.
        -11   -1    0    0    0    0 -0.00000000000E+00 -0.00000000000E+00 -0.50000000000E+03  0.50000000000E+03  0.00000000000E+00 0.  1.
          5    1    1    2  501    0 -0.33325487901E+03 -0.19011688624E+03  0.32058487984E+03  0.50000000000E+03  0.47000000000E+01 0. -1.
         -5    1    1    2    0  501  0.33325487901E+03  0.19011688624E+03 -0.32058487984E+03  0.50000000000E+03  0.47000000000E+01 0.  1.
</event>
<event>
 4    1  0.4838534E-004  0.1000000E+04  0.7546771E-02  0.8684367E-01
         11   -1    0    0    0    0  0.00000000000E+00  0.00000000000E+00  0.50000000000E+03  0.50000000000E+03  0.00000000000E+00 0. -1.
        -11   -1    0    0    0    0 -0.00000000000E+00 -0.00000000000E+00 -0.50000000000E+03  0.50000000000E+03  0.00000000000E+00 0.  1.
          5    1    1    2  501    0 -0.21049262478E+02 -0.34595692884E+03  0.36034517055E+03  0.50000000000E+03  0.47000000000E+01 0. -1.
         -5    1    1    2    0  501  0.21049262478E+02  0.34595692884E+03 -0.36034517055E+03  0.50000000000E+03  0.47000000000E+01 0.  1.
</event>
<event>
 4    1  0.4838534E-004  0.1000000E+04  0.7546771E-02  0.8684367E-01
         11   -1    0    0    0    0  0.00000000000E+00  0.00000000000E+00  0.50000000000E+03  0.50000000000E+03  0.00000000000E+00 0. -1.
        -11   -1    0    0    0    0 -0.00000000000E+00 -0.00000000000E+00 -0.50000000000E+03  0.50000000000E+03  0.00000000000E+00 0.  1.
          5    1    1    2  501    0  0.49015039140E+03  0.89475255110E+02 -0.41529297298E+02  0.50000000000E+03  0.47000000000E+01 0. -1.
         -5    1    1    2    0  501 -0.49015039140E+03 -0.89475255110E+02  0.41529297298E+02  0.50000000000E+03  0.47000000000E+01 0.  1.
</event>
<event>
 4    1  0.4838534E-004  0.1000000E+04  0.7546771E-02  0.8684367E-01
         11   -1    0    0    0    0  0.00000000000E+00  0.00000000000E+00  0.50000000000E+03  0.50000000000E+03  0.00000000000E+00 0. -1.
        -11   -1    0    0    0    0 -0.00000000000E+00 -0.00000000000E+00 -0.50000000000E+03  0.50000000000E+03  0.00000000000E+00 0.  1.
          5    1    1    2  501    0 -0.32057451448E+03  0.31971036195E+03 -0.21212066172E+03  0.50000000000E+03  0.47000000000E+01 0.  1.
         -5    1    1    2    0  501  0.32057451448E+03 -0.31971036195E+03  0.21212066172E+03  0.50000000000E+03  0.47000000000E+01 0. -1.
</event>
<event>
 4    1  0.4838534E-004  0.1000000E+04  0.7546771E-02  0.8684367E-01
         11   -1    0    0    0    0  0.00000000000E+00  0.00000000000E+00  0.50000000000E+03  0.50000000000E+03  0.00000000000E+00 0.  1.
        -11   -1    0    0    0    0 -0.00000000000E+00 -0.00000000000E+00 -0.50000000000E+03  0.50000000000E+03  0.00000000000E+00 0. -1.
          5    1    1    2  501    0 -0.28598266525E+03 -0.28653896798E+03 -0.29340627976E+03  0.50000000000E+03  0.47000000000E+01 0.  1.
         -5    1    1    2    0  501  0.28598266525E+03  0.28653896798E+03  0.29340627976E+03  0.50000000000E+03  0.47000000000E+01 0. -1.
</event>
<event>
 4    1  0.4838534E-004  0.1000000E+04  0.7546771E-02  0.8684367E-01
         11   -1    0    0    0    0  0.00000000000E+00  0.00000000000E+00  0.50000000000E+03  0.50000000000E+03  0.00000000000E+00 0.  1.
        -11   -1    0    0    0    0 -0.00000000000E+00 -0.00000000000E+00 -0.50000000000E+03  0.50000000000E+03  0.00000000000E+00 0. -1.
          5    1    1    2  501    0  0.13199097619E+03  0.27263537181E+03  0.39777662858E+03  0.50000000000E+03  0.47000000000E+01 0.  1.
         -5    1    1    2    0  501 -0.13199097619E+03 -0.27263537181E+03 -0.39777662858E+03  0.50000000000E+03  0.47000000000E+01 0. -1.
</event>
<event>
 4    1  0.4838534E-004  0.1000000E+04  0.7546771E-02  0.8684367E-01
         11   -1    0    0    0    0  0.00000000000E+00  0.00000000000E+00  0.50000000000E+03  0.50000000000E+03  0.00000000000E+00 0.  1.
        -11   -1    0    0    0    0 -0.00000000000E+00 -0.00000000000E+00 -0.50000000000E+03  0.50000000000E+03  0.00000000000E+00 0. -1.
          5    1    1    2  501    0 -0.23149294599E+03 -0.33036372514E+03 -0.29537896856E+03  0.50000000000E+03  0.47000000000E+01 0.  1.
         -5    1    1    2    0  501  0.23149294599E+03  0.33036372514E+03  0.29537896856E+03  0.50000000000E+03  0.47000000000E+01 0. -1.
</event>
<event>
 4    1  0.4838534E-004  0.1000000E+04  0.7546771E-02  0.8684367E-01
         11   -1    0    0    0    0  0.00000000000E+00  0.00000000000E+00  0.50000000000E+03  0.50000000000E+03  0.00000000000E+00 0. -1.
        -11   -1    0    0    0    0 -0.00000000000E+00 -0.00000000000E+00 -0.50000000000E+03  0.50000000000E+03  0.00000000000E+00 0.  1.
          5    1    1    2  501    0 -0.27643779370E+03  0.36912150371E+03  0.19315634009E+03  0.50000000000E+03  0.47000000000E+01 0. -1.
         -5    1    1    2    0  501  0.27643779370E+03 -0.36912150371E+03 -0.19315634009E+03  0.50000000000E+03  0.47000000000E+01 0.  1.
</event>
<event>
 4    1  0.4838534E-004  0.1000000E+04  0.7546771E-02  0.8684367E-01
         11   -1    0    0    0    0  0.00000000000E+00  0.00000000000E+00  0.50000000000E+03  0.50000000000E+03  0.00000000000E+00 0. -1.
        -11   -1    0    0    0    0 -0.00000000000E+00 -0.00000000000E+00 -0.50000000000E+03  0.50000000000E+03  0.00000000000E+00 0.  1.
          5    1    1    2  501    0 -0.19217721151E+03  0.18898070654E+03  0.42110820692E+03  0.50000000000E+03  0.47000000000E+01 0. -1.
         -5    1    1    2    0  501  0.19217721151E+03 -0.18898070654E+03 -0.42110820692E+03  0.50000000000E+03  0.47000000000E+01 0.  1.
</event>
<event>
 4    1  0.4838534E-004  0.1000000E+04  0.7546771E-02  0.8684367E-01
         11   -1    0    0    0    0  0.00000000000E+00  0.00000000000E+00  0.50000000000E+03  0.50000000000E+03  0.00000000000E+00 0. -1.
        -11   -1    0    0    0    0 -0.00000000000E+00 -0.00000000000E+00 -0.50000000000E+03  0.50000000000E+03  0.00000000000E+00 0.  1.
          5    1    1    2  501    0  0.34314170261E+02  0.47234448888E+03  0.16028453308E+03  0.50000000000E+03  0.47000000000E+01 0.  1.
         -5    1    1    2    0  501 -0.34314170261E+02 -0.47234448888E+03 -0.16028453308E+03  0.50000000000E+03  0.47000000000E+01 0. -1.
</event>
<event>
 4    1  0.4838534E-004  0.1000000E+04  0.7546771E-02  0.8684367E-01
         11   -1    0    0    0    0  0.00000000000E+00  0.00000000000E+00  0.50000000000E+03  0.50000000000E+03  0.00000000000E+00 0. -1.
        -11   -1    0    0    0    0 -0.00000000000E+00 -0.00000000000E+00 -0.50000000000E+03  0.50000000000E+03  0.00000000000E+00 0.  1.
          5    1    1    2  501    0 -0.30773388708E+03 -0.32839686796E+03 -0.21779178556E+03  0.50000000000E+03  0.47000000000E+01 0. -1.
         -5    1    1    2    0  501  0.30773388708E+03  0.32839686796E+03  0.21779178556E+03  0.50000000000E+03  0.47000000000E+01 0.  1.
</event>
<event>
 4    1  0.4838534E-004  0.1000000E+04  0.7546771E-02  0.8684367E-01
         11   -1    0    0    0    0  0.00000000000E+00  0.00000000000E+00  0.50000000000E+03  0.50000000000E+03  0.00000000000E+00 0. -1.
        -11   -1    0    0    0    0 -0.00000000000E+00 -0.00000000000E+00 -0.50000000000E+03  0.50000000000E+03  0.00000000000E+00 0.  1.
          5    1    1    2  501    0  0.46313250776E+03 -0.20340135221E+02  0.18727645114E+03  0.50000000000E+03  0.47000000000E+01 0. -1.
         -5    1    1    2    0  501 -0.46313250776E+03  0.20340135221E+02 -0.18727645114E+03  0.50000000000E+03  0.47000000000E+01 0.  1.
</event>
<event>
 4    1  0.4838534E-004  0.1000000E+04  0.7546771E-02  0.8684367E-01
         11   -1    0    0    0    0  0.00000000000E+00  0.00000000000E+00  0.50000000000E+03  0.50000000000E+03  0.00000000000E+00 0. -1.
        -11   -1    0    0    0    0 -0.00000000000E+00 -0.00000000000E+00 -0.50000000000E+03  0.50000000000E+03  0.00000000000E+00 0.  1.
          5    1    1    2  501    0  0.16721813101E+03 -0.22649539746E+03  0.41317773608E+03  0.50000000000E+03  0.47000000000E+01 0. -1.
         -5    1    1    2    0  501 -0.16721813101E+03  0.22649539746E+03 -0.41317773608E+03  0.50000000000E+03  0.47000000000E+01 0.  1.
</event>
<event>
 4    1  0.4838534E-004  0.1000000E+04  0.7546771E-02  0.8684367E-01
         11   -1    0    0    0    0  0.00000000000E+00  0.00000000000E+00  0.50000000000E+03  0.50000000000E+03  0.00000000000E+00 0. -1.
        -11   -1    0    0    0    0 -0.00000000000E+00 -0.00000000000E+00 -0.50000000000E+03  0.50000000000E+03  0.00000000000E+00 0.  1.
          5    1    1    2  501    0 -0.22571960333E+03 -0.36248540318E+03  0.26006326759E+03  0.50000000000E+03  0.47000000000E+01 0. -1.
         -5    1    1    2    0  501  0.22571960333E+03  0.36248540318E+03 -0.26006326759E+03  0.50000000000E+03  0.47000000000E+01 0.  1.
</event>
<event>
 4    1  0.4838534E-004  0.1000000E+04  0.7546771E-02  0.8684367E-01
         11   -1    0    0    0    0  0.00000000000E+00  0.00000000000E+00  0.50000000000E+03  0.50000000000E+03  0.00000000000E+00 0.  1.
        -11   -1    0    0    0    0 -0.00000000000E+00 -0.00000000000E+00 -0.50000000000E+03  0.50000000000E+03  0.00000000000E+00 0. -1.
          5    1    1    2  501    0 -0.18755503389E+03 -0.38841409623E+03  0.25285471938E+03  0.50000000000E+03  0.47000000000E+01 0.  1.
         -5    1    1    2    0  501  0.18755503389E+03  0.38841409623E+03 -0.25285471938E+03  0.50000000000E+03  0.47000000000E+01 0. -1.
</event>
<event>
 4    1  0.4838534E-004  0.1000000E+04  0.7546771E-02  0.8684367E-01
         11   -1    0    0    0    0  0.00000000000E+00  0.00000000000E+00  0.50000000000E+03  0.50000000000E+03  0.00000000000E+00 0. -1.
        -11   -1    0    0    0    0 -0.00000000000E+00 -0.00000000000E+00 -0.50000000000E+03  0.50000000000E+03  0.00000000000E+00 0.  1.
          5    1    1    2  501    0  0.23314058068E+03 -0.97451896186E+02  0.43142381433E+03  0.50000000000E+03  0.47000000000E+01 0. -1.
         -5    1    1    2    0  501 -0.23314058068E+03  0.97451896186E+02 -0.43142381433E+03  0.50000000000E+03  0.47000000000E+01 0.  1.
</event>
<event>
 4    1  0.4838534E-004  0.1000000E+04  0.7546771E-02  0.8684367E-01
         11   -1    0    0    0    0  0.00000000000E+00  0.00000000000E+00  0.50000000000E+03  0.50000000000E+03  0.00000000000E+00 0. -1.
        -11   -1    0    0    0    0 -0.00000000000E+00 -0.00000000000E+00 -0.50000000000E+03  0.50000000000E+03  0.00000000000E+00 0.  1.
          5    1    1    2  501    0 -0.48152448333E+02 -0.47638272225E+03  0.14394010443E+03  0.50000000000E+03  0.47000000000E+01 0. -1.
         -5    1    1    2    0  501  0.48152448333E+02  0.47638272225E+03 -0.14394010443E+03  0.50000000000E+03  0.47000000000E+01 0.  1.
</event>
<event>
 4    1  0.4838534E-004  0.1000000E+04  0.7546771E-02  0.8684367E-01
         11   -1    0    0    0    0  0.00000000000E+00  0.00000000000E+00  0.50000000000E+03  0.50000000000E+03  0.00000000000E+00 0. -1.
        -11   -1    0    0    0    0 -0.00000000000E+00 -0.00000000000E+00 -0.50000000000E+03  0.50000000000E+03  0.00000000000E+00 0.  1.
          5    1    1    2  501    0  0.40726889522E+03  0.18372019565E+03 -0.22440331258E+03  0.50000000000E+03  0.47000000000E+01 0. -1.
         -5    1    1    2    0  501 -0.40726889522E+03 -0.18372019565E+03  0.22440331258E+03  0.50000000000E+03  0.47000000000E+01 0.  1.
</event>
<event>
 4    1  0.4838534E-004  0.1000000E+04  0.7546771E-02  0.8684367E-01
         11   -1    0    0    0    0  0.00000000000E+00  0.00000000000E+00  0.50000000000E+03  0.50000000000E+03  0.00000000000E+00 0. -1.
        -11   -1    0    0    0    0 -0.00000000000E+00 -0.00000000000E+00 -0.50000000000E+03  0.50000000000E+03  0.00000000000E+00 0.  1.
          5    1    1    2  501    0  0.24209507601E+03 -0.43736754955E+03  0.88040201964E+01  0.50000000000E+03  0.47000000000E+01 0. -1.
         -5    1    1    2    0  501 -0.24209507601E+03  0.43736754955E+03 -0.88040201964E+01  0.50000000000E+03  0.47000000000E+01 0.  1.
</event>
<event>
 4    1  0.4838534E-004  0.1000000E+04  0.7546771E-02  0.8684367E-01
         11   -1    0    0    0    0  0.00000000000E+00  0.00000000000E+00  0.50000000000E+03  0.50000000000E+03  0.00000000000E+00 0. -1.
        -11   -1    0    0    0    0 -0.00000000000E+00 -0.00000000000E+00 -0.50000000000E+03  0.50000000000E+03  0.00000000000E+00 0.  1.
          5    1    1    2  501    0  0.28462521289E+03 -0.13082443393E+03  0.38968110767E+03  0.50000000000E+03  0.47000000000E+01 0. -1.
         -5    1    1    2    0  501 -0.28462521289E+03  0.13082443393E+03 -0.38968110767E+03  0.50000000000E+03  0.47000000000E+01 0.  1.
</event>
<event>
 4    1  0.4838534E-004  0.1000000E+04  0.7546771E-02  0.8684367E-01
         11   -1    0    0    0    0  0.00000000000E+00  0.00000000000E+00  0.50000000000E+03  0.50000000000E+03  0.00000000000E+00 0. -1.
        -11   -1    0    0    0    0 -0.00000000000E+00 -0.00000000000E+00 -0.50000000000E+03  0.50000000000E+03  0.00000000000E+00 0.  1.
          5    1    1    2  501    0 -0.27505120013E+03  0.35159402399E+03  0.22518079315E+03  0.50000000000E+03  0.47000000000E+01 0.  1.
         -5    1    1    2    0  501  0.27505120013E+03 -0.35159402399E+03 -0.22518079315E+03  0.50000000000E+03  0.47000000000E+01 0. -1.
</event>
<event>
 4    1  0.4838534E-004  0.1000000E+04  0.7546771E-02  0.8684367E-01
         11   -1    0    0    0    0  0.00000000000E+00  0.00000000000E+00  0.50000000000E+03  0.50000000000E+03  0.00000000000E+00 0. -1.
        -11   -1    0    0    0    0 -0.00000000000E+00 -0.00000000000E+00 -0.50000000000E+03  0.50000000000E+03  0.00000000000E+00 0.  1.
          5    1    1    2  501    0 -0.29658188834E+03  0.39908674545E+03 -0.52410524871E+02  0.50000000000E+03  0.47000000000E+01 0. -1.
         -5    1    1    2    0  501  0.29658188834E+03 -0.39908674545E+03  0.52410524871E+02  0.50000000000E+03  0.47000000000E+01 0.  1.
</event>
<event>
 4    1  0.4838534E-004  0.1000000E+04  0.7546771E-02  0.8684367E-01
         11   -1    0    0    0    0  0.00000000000E+00  0.00000000000E+00  0.50000000000E+03  0.50000000000E+03  0.00000000000E+00 0. -1.
        -11   -1    0    0    0    0 -0.00000000000E+00 -0.00000000000E+00 -0.50000000000E+03  0.50000000000E+03  0.00000000000E+00 0.  1.
          5    1    1    2  501    0  0.10133301426E+03  0.30056002528E+03  0.38648829403E+03  0.50000000000E+03  0.47000000000E+01 0. -1.
         -5    1    1    2    0  501 -0.10133301426E+03 -0.30056002528E+03 -0.38648829403E+03  0.50000000000E+03  0.47000000000E+01 0.  1.
</event>
<event>
 4    1  0.4838534E-004  0.1000000E+04  0.7546771E-02  0.8684367E-01
         11   -1    0    0    0    0  0.00000000000E+00  0.00000000000E+00  0.50000000000E+03  0.50000000000E+03  0.00000000000E+00 0. -1.
        -11   -1    0    0    0    0 -0.00000000000E+00 -0.00000000000E+00 -0.50000000000E+03  0.50000000000E+03  0.00000000000E+00 0.  1.
          5    1    1    2  501    0 -0.38952589754E+03 -0.24191881779E+03 -0.19930572181E+03  0.50000000000E+03  0.47000000000E+01 0. -1.
         -5    1    1    2    0  501  0.38952589754E+03  0.24191881779E+03  0.19930572181E+03  0.50000000000E+03  0.47000000000E+01 0.  1.
</event>
<event>
 4    1  0.4838534E-004  0.1000000E+04  0.7546771E-02  0.8684367E-01
         11   -1    0    0    0    0  0.00000000000E+00  0.00000000000E+00  0.50000000000E+03  0.50000000000E+03  0.00000000000E+00 0. -1.
        -11   -1    0    0    0    0 -0.00000000000E+00 -0.00000000000E+00 -0.50000000000E+03  0.50000000000E+03  0.00000000000E+00 0.  1.
          5    1    1    2  501    0 -0.15782124619E+03 -0.16451328302E+03  0.44497836347E+03  0.50000000000E+03  0.47000000000E+01 0. -1.
         -5    1    1    2    0  501  0.15782124619E+03  0.16451328302E+03 -0.44497836347E+03  0.50000000000E+03  0.47000000000E+01 0.  1.
</event>
<event>
 4    1  0.4838534E-004  0.1000000E+04  0.7546771E-02  0.8684367E-01
         11   -1    0    0    0    0  0.00000000000E+00  0.00000000000E+00  0.50000000000E+03  0.50000000000E+03  0.00000000000E+00 0. -1.
        -11   -1    0    0    0    0 -0.00000000000E+00 -0.00000000000E+00 -0.50000000000E+03  0.50000000000E+03  0.00000000000E+00 0.  1.
          5    1    1    2  501    0  0.75758298473E+02  0.18709756050E+03  0.45742004008E+03  0.50000000000E+03  0.47000000000E+01 0. -1.
         -5    1    1    2    0  501 -0.75758298473E+02 -0.18709756050E+03 -0.45742004008E+03  0.50000000000E+03  0.47000000000E+01 0.  1.
</event>
<event>
 4    1  0.4838534E-004  0.1000000E+04  0.7546771E-02  0.8684367E-01
         11   -1    0    0    0    0  0.00000000000E+00  0.00000000000E+00  0.50000000000E+03  0.50000000000E+03  0.00000000000E+00 0. -1.
        -11   -1    0    0    0    0 -0.00000000000E+00 -0.00000000000E+00 -0.50000000000E+03  0.50000000000E+03  0.00000000000E+00 0.  1.
          5    1    1    2  501    0  0.42342194574E+03  0.24739766487E+03  0.97396926474E+02  0.50000000000E+03  0.47000000000E+01 0. -1.
         -5    1    1    2    0  501 -0.42342194574E+03 -0.24739766487E+03 -0.97396926474E+02  0.50000000000E+03  0.47000000000E+01 0.  1.
</event>
<event>
 4    1  0.4838534E-004  0.1000000E+04  0.7546771E-02  0.8684367E-01
         11   -1    0    0    0    0  0.00000000000E+00  0.00000000000E+00  0.50000000000E+03  0.50000000000E+03  0.00000000000E+00 0. -1.
        -11   -1    0    0    0    0 -0.00000000000E+00 -0.00000000000E+00 -0.50000000000E+03  0.50000000000E+03  0.00000000000E+00 0.  1.
          5    1    1    2  501    0 -0.84218579669E+02 -0.38708501361E+03 -0.30504152680E+03  0.50000000000E+03  0.47000000000E+01 0. -1.
         -5    1    1    2    0  501  0.84218579669E+02  0.38708501361E+03  0.30504152680E+03  0.50000000000E+03  0.47000000000E+01 0.  1.
</event>
<event>
 4    1  0.4838534E-004  0.1000000E+04  0.7546771E-02  0.8684367E-01
         11   -1    0    0    0    0  0.00000000000E+00  0.00000000000E+00  0.50000000000E+03  0.50000000000E+03  0.00000000000E+00 0. -1.
        -11   -1    0    0    0    0 -0.00000000000E+00 -0.00000000000E+00 -0.50000000000E+03  0.50000000000E+03  0.00000000000E+00 0.  1.
          5    1    1    2  501    0 -0.32534447184E+01 -0.16682193240E+03  0.47131493501E+03  0.50000000000E+03  0.47000000000E+01 0. -1.
         -5    1    1    2    0  501  0.32534447184E+01  0.16682193240E+03 -0.47131493501E+03  0.50000000000E+03  0.47000000000E+01 0.  1.
</event>
<event>
 4    1  0.4838534E-004  0.1000000E+04  0.7546771E-02  0.8684367E-01
         11   -1    0    0    0    0  0.00000000000E+00  0.00000000000E+00  0.50000000000E+03  0.50000000000E+03  0.00000000000E+00 0. -1.
        -11   -1    0    0    0    0 -0.00000000000E+00 -0.00000000000E+00 -0.50000000000E+03  0.50000000000E+03  0.00000000000E+00 0.  1.
          5    1    1    2  501    0  0.44750246738E+03 -0.22018584192E+03  0.35180203370E+02  0.50000000000E+03  0.47000000000E+01 0. -1.
         -5    1    1    2    0  501 -0.44750246738E+03  0.22018584192E+03 -0.35180203370E+02  0.50000000000E+03  0.47000000000E+01 0.  1.
</event>
<event>
 4    1  0.4838534E-004  0.1000000E+04  0.7546771E-02  0.8684367E-01
         11   -1    0    0    0    0  0.00000000000E+00  0.00000000000E+00  0.50000000000E+03  0.50000000000E+03  0.00000000000E+00 0. -1.
        -11   -1    0    0    0    0 -0.00000000000E+00 -0.00000000000E+00 -0.50000000000E+03  0.50000000000E+03  0.00000000000E+00 0.  1.
          5    1    1    2  501    0 -0.26684749055E+03  0.11146473029E+02  0.42266545036E+03  0.50000000000E+03  0.47000000000E+01 0. -1.
         -5    1    1    2    0  501  0.26684749055E+03 -0.11146473029E+02 -0.42266545036E+03  0.50000000000E+03  0.47000000000E+01 0.  1.
</event>
<event>
 4    1  0.4838534E-004  0.1000000E+04  0.7546771E-02  0.8684367E-01
         11   -1    0    0    0    0  0.00000000000E+00  0.00000000000E+00  0.50000000000E+03  0.50000000000E+03  0.00000000000E+00 0. -1.
        -11   -1    0    0    0    0 -0.00000000000E+00 -0.00000000000E+00 -0.50000000000E+03  0.50000000000E+03  0.00000000000E+00 0.  1.
          5    1    1    2  501    0 -0.45653315067E+03  0.15469071379E+03  0.13276360722E+03  0.50000000000E+03  0.47000000000E+01 0. -1.
         -5    1    1    2    0  501  0.45653315067E+03 -0.15469071379E+03 -0.13276360722E+03  0.50000000000E+03  0.47000000000E+01 0.  1.
</event>
<event>
 4    1  0.4838534E-004  0.1000000E+04  0.7546771E-02  0.8684367E-01
         11   -1    0    0    0    0  0.00000000000E+00  0.00000000000E+00  0.50000000000E+03  0.50000000000E+03  0.00000000000E+00 0. -1.
        -11   -1    0    0    0    0 -0.00000000000E+00 -0.00000000000E+00 -0.50000000000E+03  0.50000000000E+03  0.00000000000E+00 0.  1.
          5    1    1    2  501    0 -0.87501092818E+02  0.22717401346E+03  0.43670749520E+03  0.50000000000E+03  0.47000000000E+01 0. -1.
         -5    1    1    2    0  501  0.87501092818E+02 -0.22717401346E+03 -0.43670749520E+03  0.50000000000E+03  0.47000000000E+01 0.  1.
</event>
<event>
 4    1  0.4838534E-004  0.1000000E+04  0.7546771E-02  0.8684367E-01
         11   -1    0    0    0    0  0.00000000000E+00  0.00000000000E+00  0.50000000000E+03  0.50000000000E+03  0.00000000000E+00 0. -1.
        -11   -1    0    0    0    0 -0.00000000000E+00 -0.00000000000E+00 -0.50000000000E+03  0.50000000000E+03  0.00000000000E+00 0.  1.
          5    1    1    2  501    0 -0.15079062907E+03  0.22582818233E+03  0.41981153896E+03  0.50000000000E+03  0.47000000000E+01 0. -1.
         -5    1    1    2    0  501  0.15079062907E+03 -0.22582818233E+03 -0.41981153896E+03  0.50000000000E+03  0.47000000000E+01 0.  1.
</event>
<event>
 4    1  0.4838534E-004  0.1000000E+04  0.7546771E-02  0.8684367E-01
         11   -1    0    0    0    0  0.00000000000E+00  0.00000000000E+00  0.50000000000E+03  0.50000000000E+03  0.00000000000E+00 0. -1.
        -11   -1    0    0    0    0 -0.00000000000E+00 -0.00000000000E+00 -0.50000000000E+03  0.50000000000E+03  0.00000000000E+00 0.  1.
          5    1    1    2  501    0  0.41371351929E+02  0.36885261724E+03  0.33498368318E+03  0.50000000000E+03  0.47000000000E+01 0. -1.
         -5    1    1    2    0  501 -0.41371351929E+02 -0.36885261724E+03 -0.33498368318E+03  0.50000000000E+03  0.47000000000E+01 0.  1.
</event>
<event>
 4    1  0.4838534E-004  0.1000000E+04  0.7546771E-02  0.8684367E-01
         11   -1    0    0    0    0  0.00000000000E+00  0.00000000000E+00  0.50000000000E+03  0.50000000000E+03  0.00000000000E+00 0. -1.
        -11   -1    0    0    0    0 -0.00000000000E+00 -0.00000000000E+00 -0.50000000000E+03  0.50000000000E+03  0.00000000000E+00 0.  1.
          5    1    1    2  501    0  0.35114690026E+03 -0.68888196244E+02  0.34918215999E+03  0.50000000000E+03  0.47000000000E+01 0. -1.
         -5    1    1    2    0  501 -0.35114690026E+03  0.68888196244E+02 -0.34918215999E+03  0.50000000000E+03  0.47000000000E+01 0.  1.
</event>
<event>
 4    1  0.4838534E-004  0.1000000E+04  0.7546771E-02  0.8684367E-01
         11   -1    0    0    0    0  0.00000000000E+00  0.00000000000E+00  0.50000000000E+03  0.50000000000E+03  0.00000000000E+00 0. -1.
        -11   -1    0    0    0    0 -0.00000000000E+00 -0.00000000000E+00 -0.50000000000E+03  0.50000000000E+03  0.00000000000E+00 0.  1.
          5    1    1    2  501    0 -0.42326585931E+03 -0.25845863693E+03  0.63427559814E+02  0.50000000000E+03  0.47000000000E+01 0. -1.
         -5    1    1    2    0  501  0.42326585931E+03  0.25845863693E+03 -0.63427559814E+02  0.50000000000E+03  0.47000000000E+01 0.  1.
</event>
<event>
 4    1  0.4838534E-004  0.1000000E+04  0.7546771E-02  0.8684367E-01
         11   -1    0    0    0    0  0.00000000000E+00  0.00000000000E+00  0.50000000000E+03  0.50000000000E+03  0.00000000000E+00 0. -1.
        -11   -1    0    0    0    0 -0.00000000000E+00 -0.00000000000E+00 -0.50000000000E+03  0.50000000000E+03  0.00000000000E+00 0.  1.
          5    1    1    2  501    0  0.25928516126E+03  0.39625334879E+03 -0.16041321241E+03  0.50000000000E+03  0.47000000000E+01 0. -1.
         -5    1    1    2    0  501 -0.25928516126E+03 -0.39625334879E+03  0.16041321241E+03  0.50000000000E+03  0.47000000000E+01 0.  1.
</event>
<event>
 4    1  0.4838534E-004  0.1000000E+04  0.7546771E-02  0.8684367E-01
         11   -1    0    0    0    0  0.00000000000E+00  0.00000000000E+00  0.50000000000E+03  0.50000000000E+03  0.00000000000E+00 0. -1.
        -11   -1    0    0    0    0 -0.00000000000E+00 -0.00000000000E+00 -0.50000000000E+03  0.50000000000E+03  0.00000000000E+00 0.  1.
          5    1    1    2  501    0  0.35184190528E+03 -0.25774848413E+03  0.24443997753E+03  0.50000000000E+03  0.47000000000E+01 0. -1.
         -5    1    1    2    0  501 -0.35184190528E+03  0.25774848413E+03 -0.24443997753E+03  0.50000000000E+03  0.47000000000E+01 0.  1.
</event>
<event>
 4    1  0.4838534E-004  0.1000000E+04  0.7546771E-02  0.8684367E-01
         11   -1    0    0    0    0  0.00000000000E+00  0.00000000000E+00  0.50000000000E+03  0.50000000000E+03  0.00000000000E+00 0. -1.
        -11   -1    0    0    0    0 -0.00000000000E+00 -0.00000000000E+00 -0.50000000000E+03  0.50000000000E+03  0.00000000000E+00 0.  1.
          5    1    1    2  501    0  0.24351458660E+03  0.20437390340E+03  0.38588840838E+03  0.50000000000E+03  0.47000000000E+01 0. -1.
         -5    1    1    2    0  501 -0.24351458660E+03 -0.20437390340E+03 -0.38588840838E+03  0.50000000000E+03  0.47000000000E+01 0.  1.
</event>
<event>
 4    1  0.4838534E-004  0.1000000E+04  0.7546771E-02  0.8684367E-01
         11   -1    0    0    0    0  0.00000000000E+00  0.00000000000E+00  0.50000000000E+03  0.50000000000E+03  0.00000000000E+00 0. -1.
        -11   -1    0    0    0    0 -0.00000000000E+00 -0.00000000000E+00 -0.50000000000E+03  0.50000000000E+03  0.00000000000E+00 0.  1.
          5    1    1    2  501    0 -0.29992518384E+03 -0.16858479479E+03  0.36276984586E+03  0.50000000000E+03  0.47000000000E+01 0. -1.
         -5    1    1    2    0  501  0.29992518384E+03  0.16858479479E+03 -0.36276984586E+03  0.50000000000E+03  0.47000000000E+01 0.  1.
</event>
<event>
 4    1  0.4838534E-004  0.1000000E+04  0.7546771E-02  0.8684367E-01
         11   -1    0    0    0    0  0.00000000000E+00  0.00000000000E+00  0.50000000000E+03  0.50000000000E+03  0.00000000000E+00 0. -1.
        -11   -1    0    0    0    0 -0.00000000000E+00 -0.00000000000E+00 -0.50000000000E+03  0.50000000000E+03  0.00000000000E+00 0.  1.
          5    1    1    2  501    0 -0.12735138133E+03 -0.38688026834E+03  0.28997102207E+03  0.50000000000E+03  0.47000000000E+01 0. -1.
         -5    1    1    2    0  501  0.12735138133E+03  0.38688026834E+03 -0.28997102207E+03  0.50000000000E+03  0.47000000000E+01 0.  1.
</event>
<event>
 4    1  0.4838534E-004  0.1000000E+04  0.7546771E-02  0.8684367E-01
         11   -1    0    0    0    0  0.00000000000E+00  0.00000000000E+00  0.50000000000E+03  0.50000000000E+03  0.00000000000E+00 0.  1.
        -11   -1    0    0    0    0 -0.00000000000E+00 -0.00000000000E+00 -0.50000000000E+03  0.50000000000E+03  0.00000000000E+00 0. -1.
          5    1    1    2  501    0 -0.25721621954E+03  0.93448415619E+02  0.41843173879E+03  0.50000000000E+03  0.47000000000E+01 0.  1.
         -5    1    1    2    0  501  0.25721621954E+03 -0.93448415619E+02 -0.41843173879E+03  0.50000000000E+03  0.47000000000E+01 0. -1.
</event>
<event>
 4    1  0.4838534E-004  0.1000000E+04  0.7546771E-02  0.8684367E-01
         11   -1    0    0    0    0  0.00000000000E+00  0.00000000000E+00  0.50000000000E+03  0.50000000000E+03  0.00000000000E+00 0. -1.
        -11   -1    0    0    0    0 -0.00000000000E+00 -0.00000000000E+00 -0.50000000000E+03  0.50000000000E+03  0.00000000000E+00 0.  1.
          5    1    1    2  501    0 -0.33028209961E+03  0.24588370013E+03  0.28360685938E+03  0.50000000000E+03  0.47000000000E+01 0. -1.
         -5    1    1    2    0  501  0.33028209961E+03 -0.24588370013E+03 -0.28360685938E+03  0.50000000000E+03  0.47000000000E+01 0.  1.
</event>
<event>
 4    1  0.4838534E-004  0.1000000E+04  0.7546771E-02  0.8684367E-01
         11   -1    0    0    0    0  0.00000000000E+00  0.00000000000E+00  0.50000000000E+03  0.50000000000E+03  0.00000000000E+00 0. -1.
        -11   -1    0    0    0    0 -0.00000000000E+00 -0.00000000000E+00 -0.50000000000E+03  0.50000000000E+03  0.00000000000E+00 0.  1.
          5    1    1    2  501    0 -0.12682160988E+03 -0.18081877627E+03  0.44855184696E+03  0.50000000000E+03  0.47000000000E+01 0. -1.
         -5    1    1    2    0  501  0.12682160988E+03  0.18081877627E+03 -0.44855184696E+03  0.50000000000E+03  0.47000000000E+01 0.  1.
</event>
<event>
 4    1  0.4838534E-004  0.1000000E+04  0.7546771E-02  0.8684367E-01
         11   -1    0    0    0    0  0.00000000000E+00  0.00000000000E+00  0.50000000000E+03  0.50000000000E+03  0.00000000000E+00 0. -1.
        -11   -1    0    0    0    0 -0.00000000000E+00 -0.00000000000E+00 -0.50000000000E+03  0.50000000000E+03  0.00000000000E+00 0.  1.
          5    1    1    2  501    0  0.31427276129E+03  0.38374668288E+03 -0.62841267398E+02  0.50000000000E+03  0.47000000000E+01 0. -1.
         -5    1    1    2    0  501 -0.31427276129E+03 -0.38374668288E+03  0.62841267398E+02  0.50000000000E+03  0.47000000000E+01 0.  1.
</event>
<event>
 4    1  0.4838534E-004  0.1000000E+04  0.7546771E-02  0.8684367E-01
         11   -1    0    0    0    0  0.00000000000E+00  0.00000000000E+00  0.50000000000E+03  0.50000000000E+03  0.00000000000E+00 0. -1.
        -11   -1    0    0    0    0 -0.00000000000E+00 -0.00000000000E+00 -0.50000000000E+03  0.50000000000E+03  0.00000000000E+00 0.  1.
          5    1    1    2  501    0  0.17763839199E+03  0.16776760252E+03  0.43620699586E+03  0.50000000000E+03  0.47000000000E+01 0. -1.
         -5    1    1    2    0  501 -0.17763839199E+03 -0.16776760252E+03 -0.43620699586E+03  0.50000000000E+03  0.47000000000E+01 0.  1.
</event>
<event>
 4    1  0.4838534E-004  0.1000000E+04  0.7546771E-02  0.8684367E-01
         11   -1    0    0    0    0  0.00000000000E+00  0.00000000000E+00  0.50000000000E+03  0.50000000000E+03  0.00000000000E+00 0.  1.
        -11   -1    0    0    0    0 -0.00000000000E+00 -0.00000000000E+00 -0.50000000000E+03  0.50000000000E+03  0.00000000000E+00 0. -1.
          5    1    1    2  501    0  0.41129216845E+03 -0.17034657404E+03  0.22759329269E+03  0.50000000000E+03  0.47000000000E+01 0.  1.
         -5    1    1    2    0  501 -0.41129216845E+03  0.17034657404E+03 -0.22759329269E+03  0.50000000000E+03  0.47000000000E+01 0. -1.
</event>
<event>
 4    1  0.4838534E-004  0.1000000E+04  0.7546771E-02  0.8684367E-01
         11   -1    0    0    0    0  0.00000000000E+00  0.00000000000E+00  0.50000000000E+03  0.50000000000E+03  0.00000000000E+00 0.  1.
        -11   -1    0    0    0    0 -0.00000000000E+00 -0.00000000000E+00 -0.50000000000E+03  0.50000000000E+03  0.00000000000E+00 0. -1.
          5    1    1    2  501    0 -0.19082722337E+03  0.41719428639E+03 -0.19877577374E+03  0.50000000000E+03  0.47000000000E+01 0.  1.
         -5    1    1    2    0  501  0.19082722337E+03 -0.41719428639E+03  0.19877577374E+03  0.50000000000E+03  0.47000000000E+01 0. -1.
</event>
<event>
 4    1  0.4838534E-004  0.1000000E+04  0.7546771E-02  0.8684367E-01
         11   -1    0    0    0    0  0.00000000000E+00  0.00000000000E+00  0.50000000000E+03  0.50000000000E+03  0.00000000000E+00 0. -1.
        -11   -1    0    0    0    0 -0.00000000000E+00 -0.00000000000E+00 -0.50000000000E+03  0.50000000000E+03  0.00000000000E+00 0.  1.
          5    1    1    2  501    0 -0.16514993155E+03  0.13325340634E+03  0.45271065793E+03  0.50000000000E+03  0.47000000000E+01 0. -1.
         -5    1    1    2    0  501  0.16514993155E+03 -0.13325340634E+03 -0.45271065793E+03  0.50000000000E+03  0.47000000000E+01 0.  1.
</event>
<event>
 4    1  0.4838534E-004  0.1000000E+04  0.7546771E-02  0.8684367E-01
         11   -1    0    0    0    0  0.00000000000E+00  0.00000000000E+00  0.50000000000E+03  0.50000000000E+03  0.00000000000E+00 0. -1.
        -11   -1    0    0    0    0 -0.00000000000E+00 -0.00000000000E+00 -0.50000000000E+03  0.50000000000E+03  0.00000000000E+00 0.  1.
          5    1    1    2  501    0  0.12763454705E+03 -0.19355716119E+03 -0.44297060597E+03  0.50000000000E+03  0.47000000000E+01 0.  1.
         -5    1    1    2    0  501 -0.12763454705E+03  0.19355716119E+03  0.44297060597E+03  0.50000000000E+03  0.47000000000E+01 0. -1.
</event>
<event>
 4    1  0.4838534E-004  0.1000000E+04  0.7546771E-02  0.8684367E-01
         11   -1    0    0    0    0  0.00000000000E+00  0.00000000000E+00  0.50000000000E+03  0.50000000000E+03  0.00000000000E+00 0. -1.
        -11   -1    0    0    0    0 -0.00000000000E+00 -0.00000000000E+00 -0.50000000000E+03  0.50000000000E+03  0.00000000000E+00 0.  1.
          5    1    1    2  501    0  0.85598547867E+02 -0.42853363512E+02  0.49072842575E+03  0.50000000000E+03  0.47000000000E+01 0. -1.
         -5    1    1    2    0  501 -0.85598547867E+02  0.42853363512E+02 -0.49072842575E+03  0.50000000000E+03  0.47000000000E+01 0.  1.
</event>
<event>
 4    1  0.4838534E-004  0.1000000E+04  0.7546771E-02  0.8684367E-01
         11   -1    0    0    0    0  0.00000000000E+00  0.00000000000E+00  0.50000000000E+03  0.50000000000E+03  0.00000000000E+00 0. -1.
        -11   -1    0    0    0    0 -0.00000000000E+00 -0.00000000000E+00 -0.50000000000E+03  0.50000000000E+03  0.00000000000E+00 0.  1.
          5    1    1    2  501    0  0.21168093134E+03  0.29569545506E+03  0.34312285142E+03  0.50000000000E+03  0.47000000000E+01 0. -1.
         -5    1    1    2    0  501 -0.21168093134E+03 -0.29569545506E+03 -0.34312285142E+03  0.50000000000E+03  0.47000000000E+01 0.  1.
</event>
<event>
 4    1  0.4838534E-004  0.1000000E+04  0.7546771E-02  0.8684367E-01
         11   -1    0    0    0    0  0.00000000000E+00  0.00000000000E+00  0.50000000000E+03  0.50000000000E+03  0.00000000000E+00 0. -1.
        -11   -1    0    0    0    0 -0.00000000000E+00 -0.00000000000E+00 -0.50000000000E+03  0.50000000000E+03  0.00000000000E+00 0.  1.
          5    1    1    2  501    0  0.17916835078E+03 -0.15796780012E+03  0.43922976470E+03  0.50000000000E+03  0.47000000000E+01 0. -1.
         -5    1    1    2    0  501 -0.17916835078E+03  0.15796780012E+03 -0.43922976470E+03  0.50000000000E+03  0.47000000000E+01 0.  1.
</event>
<event>
 4    1  0.4838534E-004  0.1000000E+04  0.7546771E-02  0.8684367E-01
         11   -1    0    0    0    0  0.00000000000E+00  0.00000000000E+00  0.50000000000E+03  0.50000000000E+03  0.00000000000E+00 0. -1.
        -11   -1    0    0    0    0 -0.00000000000E+00 -0.00000000000E+00 -0.50000000000E+03  0.50000000000E+03  0.00000000000E+00 0.  1.
          5    1    1    2  501    0  0.49867852449E+03 -0.20129227600E+02 -0.29873958720E+02  0.50000000000E+03  0.47000000000E+01 0. -1.
         -5    1    1    2    0  501 -0.49867852449E+03  0.20129227600E+02  0.29873958720E+02  0.50000000000E+03  0.47000000000E+01 0.  1.
</event>
<event>
 4    1  0.4838534E-004  0.1000000E+04  0.7546771E-02  0.8684367E-01
         11   -1    0    0    0    0  0.00000000000E+00  0.00000000000E+00  0.50000000000E+03  0.50000000000E+03  0.00000000000E+00 0.  1.
        -11   -1    0    0    0    0 -0.00000000000E+00 -0.00000000000E+00 -0.50000000000E+03  0.50000000000E+03  0.00000000000E+00 0. -1.
          5    1    1    2  501    0  0.14194880019E+03 -0.14746428724E+03  0.45616086210E+03  0.50000000000E+03  0.47000000000E+01 0.  1.
         -5    1    1    2    0  501 -0.14194880019E+03  0.14746428724E+03 -0.45616086210E+03  0.50000000000E+03  0.47000000000E+01 0. -1.
</event>
<event>
 4    1  0.4838534E-004  0.1000000E+04  0.7546771E-02  0.8684367E-01
         11   -1    0    0    0    0  0.00000000000E+00  0.00000000000E+00  0.50000000000E+03  0.50000000000E+03  0.00000000000E+00 0. -1.
        -11   -1    0    0    0    0 -0.00000000000E+00 -0.00000000000E+00 -0.50000000000E+03  0.50000000000E+03  0.00000000000E+00 0.  1.
          5    1    1    2  501    0  0.12519707539E+03  0.42477290935E+03 -0.23210251571E+03  0.50000000000E+03  0.47000000000E+01 0. -1.
         -5    1    1    2    0  501 -0.12519707539E+03 -0.42477290935E+03  0.23210251571E+03  0.50000000000E+03  0.47000000000E+01 0.  1.
</event>
<event>
 4    1  0.4838534E-004  0.1000000E+04  0.7546771E-02  0.8684367E-01
         11   -1    0    0    0    0  0.00000000000E+00  0.00000000000E+00  0.50000000000E+03  0.50000000000E+03  0.00000000000E+00 0. -1.
        -11   -1    0    0    0    0 -0.00000000000E+00 -0.00000000000E+00 -0.50000000000E+03  0.50000000000E+03  0.00000000000E+00 0.  1.
          5    1    1    2  501    0 -0.15111881997E+02  0.41307541855E+03  0.28127964663E+03  0.50000000000E+03  0.47000000000E+01 0. -1.
         -5    1    1    2    0  501  0.15111881997E+02 -0.41307541855E+03 -0.28127964663E+03  0.50000000000E+03  0.47000000000E+01 0.  1.
</event>
<event>
 4    1  0.4838534E-004  0.1000000E+04  0.7546771E-02  0.8684367E-01
         11   -1    0    0    0    0  0.00000000000E+00  0.00000000000E+00  0.50000000000E+03  0.50000000000E+03  0.00000000000E+00 0.  1.
        -11   -1    0    0    0    0 -0.00000000000E+00 -0.00000000000E+00 -0.50000000000E+03  0.50000000000E+03  0.00000000000E+00 0. -1.
          5    1    1    2  501    0  0.48140448448E+03  0.13500559623E+03 -0.10589173878E+01  0.50000000000E+03  0.47000000000E+01 0. -1.
         -5    1    1    2    0  501 -0.48140448448E+03 -0.13500559623E+03  0.10589173878E+01  0.50000000000E+03  0.47000000000E+01 0.  1.
</event>
<event>
 4    1  0.4838534E-004  0.1000000E+04  0.7546771E-02  0.8684367E-01
         11   -1    0    0    0    0  0.00000000000E+00  0.00000000000E+00  0.50000000000E+03  0.50000000000E+03  0.00000000000E+00 0. -1.
        -11   -1    0    0    0    0 -0.00000000000E+00 -0.00000000000E+00 -0.50000000000E+03  0.50000000000E+03  0.00000000000E+00 0.  1.
          5    1    1    2  501    0 -0.19360492803E+03  0.19052634547E+03  0.41975558784E+03  0.50000000000E+03  0.47000000000E+01 0. -1.
         -5    1    1    2    0  501  0.19360492803E+03 -0.19052634547E+03 -0.41975558784E+03  0.50000000000E+03  0.47000000000E+01 0.  1.
</event>
<event>
 4    1  0.4838534E-004  0.1000000E+04  0.7546771E-02  0.8684367E-01
         11   -1    0    0    0    0  0.00000000000E+00  0.00000000000E+00  0.50000000000E+03  0.50000000000E+03  0.00000000000E+00 0. -1.
        -11   -1    0    0    0    0 -0.00000000000E+00 -0.00000000000E+00 -0.50000000000E+03  0.50000000000E+03  0.00000000000E+00 0.  1.
          5    1    1    2  501    0 -0.20243719451E+03  0.20568929637E+02  0.45669903811E+03  0.50000000000E+03  0.47000000000E+01 0. -1.
         -5    1    1    2    0  501  0.20243719451E+03 -0.20568929637E+02 -0.45669903811E+03  0.50000000000E+03  0.47000000000E+01 0.  1.
</event>
<event>
 4    1  0.4838534E-004  0.1000000E+04  0.7546771E-02  0.8684367E-01
         11   -1    0    0    0    0  0.00000000000E+00  0.00000000000E+00  0.50000000000E+03  0.50000000000E+03  0.00000000000E+00 0. -1.
        -11   -1    0    0    0    0 -0.00000000000E+00 -0.00000000000E+00 -0.50000000000E+03  0.50000000000E+03  0.00000000000E+00 0.  1.
          5    1    1    2  501    0  0.14407255878E+03 -0.35503422243E+03  0.32120353159E+03  0.50000000000E+03  0.47000000000E+01 0. -1.
         -5    1    1    2    0  501 -0.14407255878E+03  0.35503422243E+03 -0.32120353159E+03  0.50000000000E+03  0.47000000000E+01 0.  1.
</event>
<event>
 4    1  0.4838534E-004  0.1000000E+04  0.7546771E-02  0.8684367E-01
         11   -1    0    0    0    0  0.00000000000E+00  0.00000000000E+00  0.50000000000E+03  0.50000000000E+03  0.00000000000E+00 0. -1.
        -11   -1    0    0    0    0 -0.00000000000E+00 -0.00000000000E+00 -0.50000000000E+03  0.50000000000E+03  0.00000000000E+00 0.  1.
          5    1    1    2  501    0  0.36288030117E+03 -0.19845472213E+03  0.28091194402E+03  0.50000000000E+03  0.47000000000E+01 0. -1.
         -5    1    1    2    0  501 -0.36288030117E+03  0.19845472213E+03 -0.28091194402E+03  0.50000000000E+03  0.47000000000E+01 0.  1.
</event>
<event>
 4    1  0.4838534E-004  0.1000000E+04  0.7546771E-02  0.8684367E-01
         11   -1    0    0    0    0  0.00000000000E+00  0.00000000000E+00  0.50000000000E+03  0.50000000000E+03  0.00000000000E+00 0. -1.
        -11   -1    0    0    0    0 -0.00000000000E+00 -0.00000000000E+00 -0.50000000000E+03  0.50000000000E+03  0.00000000000E+00 0.  1.
          5    1    1    2  501    0  0.14948799035E+03  0.84545855620E+02  0.46955643861E+03  0.50000000000E+03  0.47000000000E+01 0. -1.
         -5    1    1    2    0  501 -0.14948799035E+03 -0.84545855620E+02 -0.46955643861E+03  0.50000000000E+03  0.47000000000E+01 0.  1.
</event>
<event>
 4    1  0.4838534E-004  0.1000000E+04  0.7546771E-02  0.8684367E-01
         11   -1    0    0    0    0  0.00000000000E+00  0.00000000000E+00  0.50000000000E+03  0.50000000000E+03  0.00000000000E+00 0. -1.
        -11   -1    0    0    0    0 -0.00000000000E+00 -0.00000000000E+00 -0.50000000000E+03  0.50000000000E+03  0.00000000000E+00 0.  1.
          5    1    1    2  501    0 -0.43501127843E+03  0.11964046930E+03  0.21547448978E+03  0.50000000000E+03  0.47000000000E+01 0. -1.
         -5    1    1    2    0  501  0.43501127843E+03 -0.11964046930E+03 -0.21547448978E+03  0.50000000000E+03  0.47000000000E+01 0.  1.
</event>
<event>
 4    1  0.4838534E-004  0.1000000E+04  0.7546771E-02  0.8684367E-01
         11   -1    0    0    0    0  0.00000000000E+00  0.00000000000E+00  0.50000000000E+03  0.50000000000E+03  0.00000000000E+00 0. -1.
        -11   -1    0    0    0    0 -0.00000000000E+00 -0.00000000000E+00 -0.50000000000E+03  0.50000000000E+03  0.00000000000E+00 0.  1.
          5    1    1    2  501    0 -0.17073437590E+03 -0.25616021951E+03  0.39396652754E+03  0.50000000000E+03  0.47000000000E+01 0. -1.
         -5    1    1    2    0  501  0.17073437590E+03  0.25616021951E+03 -0.39396652754E+03  0.50000000000E+03  0.47000000000E+01 0.  1.
</event>
<event>
 4    1  0.4838534E-004  0.1000000E+04  0.7546771E-02  0.8684367E-01
         11   -1    0    0    0    0  0.00000000000E+00  0.00000000000E+00  0.50000000000E+03  0.50000000000E+03  0.00000000000E+00 0. -1.
        -11   -1    0    0    0    0 -0.00000000000E+00 -0.00000000000E+00 -0.50000000000E+03  0.50000000000E+03  0.00000000000E+00 0.  1.
          5    1    1    2  501    0  0.45012721993E+03 -0.11250430829E+03  0.18629593793E+03  0.50000000000E+03  0.47000000000E+01 0. -1.
         -5    1    1    2    0  501 -0.45012721993E+03  0.11250430829E+03 -0.18629593793E+03  0.50000000000E+03  0.47000000000E+01 0.  1.
</event>
<event>
 4    1  0.4838534E-004  0.1000000E+04  0.7546771E-02  0.8684367E-01
         11   -1    0    0    0    0  0.00000000000E+00  0.00000000000E+00  0.50000000000E+03  0.50000000000E+03  0.00000000000E+00 0. -1.
        -11   -1    0    0    0    0 -0.00000000000E+00 -0.00000000000E+00 -0.50000000000E+03  0.50000000000E+03  0.00000000000E+00 0.  1.
          5    1    1    2  501    0  0.61943531159E+02 -0.47270418817E+03 -0.15063751005E+03  0.50000000000E+03  0.47000000000E+01 0. -1.
         -5    1    1    2    0  501 -0.61943531159E+02  0.47270418817E+03  0.15063751005E+03  0.50000000000E+03  0.47000000000E+01 0.  1.
</event>
<event>
 4    1  0.4838534E-004  0.1000000E+04  0.7546771E-02  0.8684367E-01
         11   -1    0    0    0    0  0.00000000000E+00  0.00000000000E+00  0.50000000000E+03  0.50000000000E+03  0.00000000000E+00 0. -1.
        -11   -1    0    0    0    0 -0.00000000000E+00 -0.00000000000E+00 -0.50000000000E+03  0.50000000000E+03  0.00000000000E+00 0.  1.
          5    1    1    2  501    0  0.43451840137E+03 -0.16007920470E+03  0.18853730956E+03  0.50000000000E+03  0.47000000000E+01 0. -1.
         -5    1    1    2    0  501 -0.43451840137E+03  0.16007920470E+03 -0.18853730956E+03  0.50000000000E+03  0.47000000000E+01 0.  1.
</event>
<event>
 4    1  0.4838534E-004  0.1000000E+04  0.7546771E-02  0.8684367E-01
         11   -1    0    0    0    0  0.00000000000E+00  0.00000000000E+00  0.50000000000E+03  0.50000000000E+03  0.00000000000E+00 0. -1.
        -11   -1    0    0    0    0 -0.00000000000E+00 -0.00000000000E+00 -0.50000000000E+03  0.50000000000E+03  0.00000000000E+00 0.  1.
          5    1    1    2  501    0  0.84681592531E+02 -0.32670749391E+03  0.36887552279E+03  0.50000000000E+03  0.47000000000E+01 0. -1.
         -5    1    1    2    0  501 -0.84681592531E+02  0.32670749391E+03 -0.36887552279E+03  0.50000000000E+03  0.47000000000E+01 0.  1.
</event>
<event>
 4    1  0.4838534E-004  0.1000000E+04  0.7546771E-02  0.8684367E-01
         11   -1    0    0    0    0  0.00000000000E+00  0.00000000000E+00  0.50000000000E+03  0.50000000000E+03  0.00000000000E+00 0.  1.
        -11   -1    0    0    0    0 -0.00000000000E+00 -0.00000000000E+00 -0.50000000000E+03  0.50000000000E+03  0.00000000000E+00 0. -1.
          5    1    1    2  501    0  0.58561296313E+02  0.49521035568E+03  0.36265523545E+02  0.50000000000E+03  0.47000000000E+01 0.  1.
         -5    1    1    2    0  501 -0.58561296313E+02 -0.49521035568E+03 -0.36265523545E+02  0.50000000000E+03  0.47000000000E+01 0. -1.
</event>
<event>
 4    1  0.4838534E-004  0.1000000E+04  0.7546771E-02  0.8684367E-01
         11   -1    0    0    0    0  0.00000000000E+00  0.00000000000E+00  0.50000000000E+03  0.50000000000E+03  0.00000000000E+00 0.  1.
        -11   -1    0    0    0    0 -0.00000000000E+00 -0.00000000000E+00 -0.50000000000E+03  0.50000000000E+03  0.00000000000E+00 0. -1.
          5    1    1    2  501    0 -0.18788814369E+03  0.14942515383E+03  0.43857505499E+03  0.50000000000E+03  0.47000000000E+01 0.  1.
         -5    1    1    2    0  501  0.18788814369E+03 -0.14942515383E+03 -0.43857505499E+03  0.50000000000E+03  0.47000000000E+01 0. -1.
</event>
<event>
 4    1  0.4838534E-004  0.1000000E+04  0.7546771E-02  0.8684367E-01
         11   -1    0    0    0    0  0.00000000000E+00  0.00000000000E+00  0.50000000000E+03  0.50000000000E+03  0.00000000000E+00 0. -1.
        -11   -1    0    0    0    0 -0.00000000000E+00 -0.00000000000E+00 -0.50000000000E+03  0.50000000000E+03  0.00000000000E+00 0.  1.
          5    1    1    2  501    0 -0.49551280180E+02  0.13913253699E+03  0.47766590603E+03  0.50000000000E+03  0.47000000000E+01 0. -1.
         -5    1    1    2    0  501  0.49551280180E+02 -0.13913253699E+03 -0.47766590603E+03  0.50000000000E+03  0.47000000000E+01 0.  1.
</event>
<event>
 4    1  0.4838534E-004  0.1000000E+04  0.7546771E-02  0.8684367E-01
         11   -1    0    0    0    0  0.00000000000E+00  0.00000000000E+00  0.50000000000E+03  0.50000000000E+03  0.00000000000E+00 0. -1.
        -11   -1    0    0    0    0 -0.00000000000E+00 -0.00000000000E+00 -0.50000000000E+03  0.50000000000E+03  0.00000000000E+00 0.  1.
          5    1    1    2  501    0  0.42850825297E+02 -0.25199605833E+03  0.42969722289E+03  0.50000000000E+03  0.47000000000E+01 0. -1.
         -5    1    1    2    0  501 -0.42850825297E+02  0.25199605833E+03 -0.42969722289E+03  0.50000000000E+03  0.47000000000E+01 0.  1.
</event>
<event>
 4    1  0.4838534E-004  0.1000000E+04  0.7546771E-02  0.8684367E-01
         11   -1    0    0    0    0  0.00000000000E+00  0.00000000000E+00  0.50000000000E+03  0.50000000000E+03  0.00000000000E+00 0. -1.
        -11   -1    0    0    0    0 -0.00000000000E+00 -0.00000000000E+00 -0.50000000000E+03  0.50000000000E+03  0.00000000000E+00 0.  1.
          5    1    1    2  501    0  0.12775935742E+03 -0.46713115128E+03  0.12427366614E+03  0.50000000000E+03  0.47000000000E+01 0. -1.
         -5    1    1    2    0  501 -0.12775935742E+03  0.46713115128E+03 -0.12427366614E+03  0.50000000000E+03  0.47000000000E+01 0.  1.
</event>
<event>
 4    1  0.4838534E-004  0.1000000E+04  0.7546771E-02  0.8684367E-01
         11   -1    0    0    0    0  0.00000000000E+00  0.00000000000E+00  0.50000000000E+03  0.50000000000E+03  0.00000000000E+00 0. -1.
        -11   -1    0    0    0    0 -0.00000000000E+00 -0.00000000000E+00 -0.50000000000E+03  0.50000000000E+03  0.00000000000E+00 0.  1.
          5    1    1    2  501    0  0.28780745646E+03 -0.40878862977E+03  0.60526172018E+01  0.50000000000E+03  0.47000000000E+01 0. -1.
         -5    1    1    2    0  501 -0.28780745646E+03  0.40878862977E+03 -0.60526172018E+01  0.50000000000E+03  0.47000000000E+01 0.  1.
</event>
<event>
 4    1  0.4838534E-004  0.1000000E+04  0.7546771E-02  0.8684367E-01
         11   -1    0    0    0    0  0.00000000000E+00  0.00000000000E+00  0.50000000000E+03  0.50000000000E+03  0.00000000000E+00 0. -1.
        -11   -1    0    0    0    0 -0.00000000000E+00 -0.00000000000E+00 -0.50000000000E+03  0.50000000000E+03  0.00000000000E+00 0.  1.
          5    1    1    2  501    0 -0.82706189469E+02 -0.48802580015E+03  0.70486981887E+02  0.50000000000E+03  0.47000000000E+01 0. -1.
         -5    1    1    2    0  501  0.82706189469E+02  0.48802580015E+03 -0.70486981887E+02  0.50000000000E+03  0.47000000000E+01 0.  1.
</event>
<event>
 4    1  0.4838534E-004  0.1000000E+04  0.7546771E-02  0.8684367E-01
         11   -1    0    0    0    0  0.00000000000E+00  0.00000000000E+00  0.50000000000E+03  0.50000000000E+03  0.00000000000E+00 0. -1.
        -11   -1    0    0    0    0 -0.00000000000E+00 -0.00000000000E+00 -0.50000000000E+03  0.50000000000E+03  0.00000000000E+00 0.  1.
          5    1    1    2  501    0  0.80232266344E+02 -0.46692472982E+03  0.15975603313E+03  0.50000000000E+03  0.47000000000E+01 0. -1.
         -5    1    1    2    0  501 -0.80232266344E+02  0.46692472982E+03 -0.15975603313E+03  0.50000000000E+03  0.47000000000E+01 0.  1.
</event>
<event>
 4    1  0.4838534E-004  0.1000000E+04  0.7546771E-02  0.8684367E-01
         11   -1    0    0    0    0  0.00000000000E+00  0.00000000000E+00  0.50000000000E+03  0.50000000000E+03  0.00000000000E+00 0. -1.
        -11   -1    0    0    0    0 -0.00000000000E+00 -0.00000000000E+00 -0.50000000000E+03  0.50000000000E+03  0.00000000000E+00 0.  1.
          5    1    1    2  501    0  0.30244878560E+03 -0.31440978605E+03  0.24423171074E+03  0.50000000000E+03  0.47000000000E+01 0. -1.
         -5    1    1    2    0  501 -0.30244878560E+03  0.31440978605E+03 -0.24423171074E+03  0.50000000000E+03  0.47000000000E+01 0.  1.
</event>
<event>
 4    1  0.4838534E-004  0.1000000E+04  0.7546771E-02  0.8684367E-01
         11   -1    0    0    0    0  0.00000000000E+00  0.00000000000E+00  0.50000000000E+03  0.50000000000E+03  0.00000000000E+00 0. -1.
        -11   -1    0    0    0    0 -0.00000000000E+00 -0.00000000000E+00 -0.50000000000E+03  0.50000000000E+03  0.00000000000E+00 0.  1.
          5    1    1    2  501    0  0.29375450655E+03  0.36472854698E+03  0.17509793516E+03  0.50000000000E+03  0.47000000000E+01 0. -1.
         -5    1    1    2    0  501 -0.29375450655E+03 -0.36472854698E+03 -0.17509793516E+03  0.50000000000E+03  0.47000000000E+01 0.  1.
</event>
<event>
 4    1  0.4838534E-004  0.1000000E+04  0.7546771E-02  0.8684367E-01
         11   -1    0    0    0    0  0.00000000000E+00  0.00000000000E+00  0.50000000000E+03  0.50000000000E+03  0.00000000000E+00 0. -1.
        -11   -1    0    0    0    0 -0.00000000000E+00 -0.00000000000E+00 -0.50000000000E+03  0.50000000000E+03  0.00000000000E+00 0.  1.
          5    1    1    2  501    0 -0.47049046266E+03  0.16379193836E+03  0.42294627019E+02  0.50000000000E+03  0.47000000000E+01 0. -1.
         -5    1    1    2    0  501  0.47049046266E+03 -0.16379193836E+03 -0.42294627019E+02  0.50000000000E+03  0.47000000000E+01 0.  1.
</event>
<event>
 4    1  0.4838534E-004  0.1000000E+04  0.7546771E-02  0.8684367E-01
         11   -1    0    0    0    0  0.00000000000E+00  0.00000000000E+00  0.50000000000E+03  0.50000000000E+03  0.00000000000E+00 0. -1.
        -11   -1    0    0    0    0 -0.00000000000E+00 -0.00000000000E+00 -0.50000000000E+03  0.50000000000E+03  0.00000000000E+00 0.  1.
          5    1    1    2  501    0  0.25208305777E+03  0.16625278046E+03  0.39848720804E+03  0.50000000000E+03  0.47000000000E+01 0. -1.
         -5    1    1    2    0  501 -0.25208305777E+03 -0.16625278046E+03 -0.39848720804E+03  0.50000000000E+03  0.47000000000E+01 0.  1.
</event>
<event>
 4    1  0.4838534E-004  0.1000000E+04  0.7546771E-02  0.8684367E-01
         11   -1    0    0    0    0  0.00000000000E+00  0.00000000000E+00  0.50000000000E+03  0.50000000000E+03  0.00000000000E+00 0.  1.
        -11   -1    0    0    0    0 -0.00000000000E+00 -0.00000000000E+00 -0.50000000000E+03  0.50000000000E+03  0.00000000000E+00 0. -1.
          5    1    1    2  501    0 -0.46417044164E+03  0.17931039844E+03 -0.48697968292E+02  0.50000000000E+03  0.47000000000E+01 0. -1.
         -5    1    1    2    0  501  0.46417044164E+03 -0.17931039844E+03  0.48697968292E+02  0.50000000000E+03  0.47000000000E+01 0.  1.
</event>
<event>
 4    1  0.4838534E-004  0.1000000E+04  0.7546771E-02  0.8684367E-01
         11   -1    0    0    0    0  0.00000000000E+00  0.00000000000E+00  0.50000000000E+03  0.50000000000E+03  0.00000000000E+00 0. -1.
        -11   -1    0    0    0    0 -0.00000000000E+00 -0.00000000000E+00 -0.50000000000E+03  0.50000000000E+03  0.00000000000E+00 0.  1.
          5    1    1    2  501    0  0.45578675851E+03  0.18692713843E+03  0.85408346689E+02  0.50000000000E+03  0.47000000000E+01 0. -1.
         -5    1    1    2    0  501 -0.45578675851E+03 -0.18692713843E+03 -0.85408346689E+02  0.50000000000E+03  0.47000000000E+01 0.  1.
</event>
<event>
 4    1  0.4838534E-004  0.1000000E+04  0.7546771E-02  0.8684367E-01
         11   -1    0    0    0    0  0.00000000000E+00  0.00000000000E+00  0.50000000000E+03  0.50000000000E+03  0.00000000000E+00 0. -1.
        -11   -1    0    0    0    0 -0.00000000000E+00 -0.00000000000E+00 -0.50000000000E+03  0.50000000000E+03  0.00000000000E+00 0.  1.
          5    1    1    2  501    0  0.24228937066E+03 -0.34582490186E+03  0.26772916934E+03  0.50000000000E+03  0.47000000000E+01 0. -1.
         -5    1    1    2    0  501 -0.24228937066E+03  0.34582490186E+03 -0.26772916934E+03  0.50000000000E+03  0.47000000000E+01 0.  1.
</event>
<event>
 4    1  0.4838534E-004  0.1000000E+04  0.7546771E-02  0.8684367E-01
         11   -1    0    0    0    0  0.00000000000E+00  0.00000000000E+00  0.50000000000E+03  0.50000000000E+03  0.00000000000E+00 0. -1.
        -11   -1    0    0    0    0 -0.00000000000E+00 -0.00000000000E+00 -0.50000000000E+03  0.50000000000E+03  0.00000000000E+00 0.  1.
          5    1    1    2  501    0  0.48192705138E+03 -0.94260563915E+02  0.94016877390E+02  0.50000000000E+03  0.47000000000E+01 0. -1.
         -5    1    1    2    0  501 -0.48192705138E+03  0.94260563915E+02 -0.94016877390E+02  0.50000000000E+03  0.47000000000E+01 0.  1.
</event>
<event>
 4    1  0.4838534E-004  0.1000000E+04  0.7546771E-02  0.8684367E-01
         11   -1    0    0    0    0  0.00000000000E+00  0.00000000000E+00  0.50000000000E+03  0.50000000000E+03  0.00000000000E+00 0. -1.
        -11   -1    0    0    0    0 -0.00000000000E+00 -0.00000000000E+00 -0.50000000000E+03  0.50000000000E+03  0.00000000000E+00 0.  1.
          5    1    1    2  501    0  0.48284118104E+03 -0.18256454879E+02  0.12848737582E+03  0.50000000000E+03  0.47000000000E+01 0. -1.
         -5    1    1    2    0  501 -0.48284118104E+03  0.18256454879E+02 -0.12848737582E+03  0.50000000000E+03  0.47000000000E+01 0.  1.
</event>
<event>
 4    1  0.4838534E-004  0.1000000E+04  0.7546771E-02  0.8684367E-01
         11   -1    0    0    0    0  0.00000000000E+00  0.00000000000E+00  0.50000000000E+03  0.50000000000E+03  0.00000000000E+00 0. -1.
        -11   -1    0    0    0    0 -0.00000000000E+00 -0.00000000000E+00 -0.50000000000E+03  0.50000000000E+03  0.00000000000E+00 0.  1.
          5    1    1    2  501    0 -0.59844503370E+02  0.49224781722E+03  0.63942410477E+02  0.50000000000E+03  0.47000000000E+01 0. -1.
         -5    1    1    2    0  501  0.59844503370E+02 -0.49224781722E+03 -0.63942410477E+02  0.50000000000E+03  0.47000000000E+01 0.  1.
</event>
<event>
 4    1  0.4838534E-004  0.1000000E+04  0.7546771E-02  0.8684367E-01
         11   -1    0    0    0    0  0.00000000000E+00  0.00000000000E+00  0.50000000000E+03  0.50000000000E+03  0.00000000000E+00 0. -1.
        -11   -1    0    0    0    0 -0.00000000000E+00 -0.00000000000E+00 -0.50000000000E+03  0.50000000000E+03  0.00000000000E+00 0.  1.
          5    1    1    2  501    0 -0.17930535105E+03  0.23692486688E+03  0.40211205968E+03  0.50000000000E+03  0.47000000000E+01 0. -1.
         -5    1    1    2    0  501  0.17930535105E+03 -0.23692486688E+03 -0.40211205968E+03  0.50000000000E+03  0.47000000000E+01 0.  1.
</event>
<event>
 4    1  0.4838534E-004  0.1000000E+04  0.7546771E-02  0.8684367E-01
         11   -1    0    0    0    0  0.00000000000E+00  0.00000000000E+00  0.50000000000E+03  0.50000000000E+03  0.00000000000E+00 0. -1.
        -11   -1    0    0    0    0 -0.00000000000E+00 -0.00000000000E+00 -0.50000000000E+03  0.50000000000E+03  0.00000000000E+00 0.  1.
          5    1    1    2  501    0  0.43112767228E+03  0.20742048298E+02  0.25234224306E+03  0.50000000000E+03  0.47000000000E+01 0. -1.
         -5    1    1    2    0  501 -0.43112767228E+03 -0.20742048298E+02 -0.25234224306E+03  0.50000000000E+03  0.47000000000E+01 0.  1.
</event>
<event>
 4    1  0.4838534E-004  0.1000000E+04  0.7546771E-02  0.8684367E-01
         11   -1    0    0    0    0  0.00000000000E+00  0.00000000000E+00  0.50000000000E+03  0.50000000000E+03  0.00000000000E+00 0. -1.
        -11   -1    0    0    0    0 -0.00000000000E+00 -0.00000000000E+00 -0.50000000000E+03  0.50000000000E+03  0.00000000000E+00 0.  1.
          5    1    1    2  501    0  0.22515707404E+03  0.35933394733E+03  0.26487981483E+03  0.50000000000E+03  0.47000000000E+01 0. -1.
         -5    1    1    2    0  501 -0.22515707404E+03 -0.35933394733E+03 -0.26487981483E+03  0.50000000000E+03  0.47000000000E+01 0.  1.
</event>
<event>
 4    1  0.4838534E-004  0.1000000E+04  0.7546771E-02  0.8684367E-01
         11   -1    0    0    0    0  0.00000000000E+00  0.00000000000E+00  0.50000000000E+03  0.50000000000E+03  0.00000000000E+00 0.  1.
        -11   -1    0    0    0    0 -0.00000000000E+00 -0.00000000000E+00 -0.50000000000E+03  0.50000000000E+03  0.00000000000E+00 0. -1.
          5    1    1    2  501    0 -0.28566778407E+03  0.19190434088E+03  0.36269070997E+03  0.50000000000E+03  0.47000000000E+01 0.  1.
         -5    1    1    2    0  501  0.28566778407E+03 -0.19190434088E+03 -0.36269070997E+03  0.50000000000E+03  0.47000000000E+01 0. -1.
</event>
<event>
 4    1  0.4838534E-004  0.1000000E+04  0.7546771E-02  0.8684367E-01
         11   -1    0    0    0    0  0.00000000000E+00  0.00000000000E+00  0.50000000000E+03  0.50000000000E+03  0.00000000000E+00 0.  1.
        -11   -1    0    0    0    0 -0.00000000000E+00 -0.00000000000E+00 -0.50000000000E+03  0.50000000000E+03  0.00000000000E+00 0. -1.
          5    1    1    2  501    0  0.10734621575E+03  0.38899081084E+03  0.29519628901E+03  0.50000000000E+03  0.47000000000E+01 0.  1.
         -5    1    1    2    0  501 -0.10734621575E+03 -0.38899081084E+03 -0.29519628901E+03  0.50000000000E+03  0.47000000000E+01 0. -1.
</event>
<event>
 4    1  0.4838534E-004  0.1000000E+04  0.7546771E-02  0.8684367E-01
         11   -1    0    0    0    0  0.00000000000E+00  0.00000000000E+00  0.50000000000E+03  0.50000000000E+03  0.00000000000E+00 0.  1.
        -11   -1    0    0    0    0 -0.00000000000E+00 -0.00000000000E+00 -0.50000000000E+03  0.50000000000E+03  0.00000000000E+00 0. -1.
          5    1    1    2  501    0  0.37220627682E+03  0.14538831858E+02  0.33351014956E+03  0.50000000000E+03  0.47000000000E+01 0.  1.
         -5    1    1    2    0  501 -0.37220627682E+03 -0.14538831858E+02 -0.33351014956E+03  0.50000000000E+03  0.47000000000E+01 0. -1.
</event>
<event>
 4    1  0.4838534E-004  0.1000000E+04  0.7546771E-02  0.8684367E-01
         11   -1    0    0    0    0  0.00000000000E+00  0.00000000000E+00  0.50000000000E+03  0.50000000000E+03  0.00000000000E+00 0. -1.
        -11   -1    0    0    0    0 -0.00000000000E+00 -0.00000000000E+00 -0.50000000000E+03  0.50000000000E+03  0.00000000000E+00 0.  1.
          5    1    1    2  501    0 -0.90296513139E+02 -0.51457001754E+02  0.48905687469E+03  0.50000000000E+03  0.47000000000E+01 0. -1.
         -5    1    1    2    0  501  0.90296513139E+02  0.51457001754E+02 -0.48905687469E+03  0.50000000000E+03  0.47000000000E+01 0.  1.
</event>
<event>
 4    1  0.4838534E-004  0.1000000E+04  0.7546771E-02  0.8684367E-01
         11   -1    0    0    0    0  0.00000000000E+00  0.00000000000E+00  0.50000000000E+03  0.50000000000E+03  0.00000000000E+00 0. -1.
        -11   -1    0    0    0    0 -0.00000000000E+00 -0.00000000000E+00 -0.50000000000E+03  0.50000000000E+03  0.00000000000E+00 0.  1.
          5    1    1    2  501    0 -0.14212870676E+03 -0.16964763811E+03  0.44832691153E+03  0.50000000000E+03  0.47000000000E+01 0. -1.
         -5    1    1    2    0  501  0.14212870676E+03  0.16964763811E+03 -0.44832691153E+03  0.50000000000E+03  0.47000000000E+01 0.  1.
</event>
<event>
 4    1  0.4838534E-004  0.1000000E+04  0.7546771E-02  0.8684367E-01
         11   -1    0    0    0    0  0.00000000000E+00  0.00000000000E+00  0.50000000000E+03  0.50000000000E+03  0.00000000000E+00 0. -1.
        -11   -1    0    0    0    0 -0.00000000000E+00 -0.00000000000E+00 -0.50000000000E+03  0.50000000000E+03  0.00000000000E+00 0.  1.
          5    1    1    2  501    0 -0.52366321714E+02 -0.20817580902E+03  0.45155122731E+03  0.50000000000E+03  0.47000000000E+01 0. -1.
         -5    1    1    2    0  501  0.52366321714E+02  0.20817580902E+03 -0.45155122731E+03  0.50000000000E+03  0.47000000000E+01 0.  1.
</event>
<event>
 4    1  0.4838534E-004  0.1000000E+04  0.7546771E-02  0.8684367E-01
         11   -1    0    0    0    0  0.00000000000E+00  0.00000000000E+00  0.50000000000E+03  0.50000000000E+03  0.00000000000E+00 0. -1.
        -11   -1    0    0    0    0 -0.00000000000E+00 -0.00000000000E+00 -0.50000000000E+03  0.50000000000E+03  0.00000000000E+00 0.  1.
          5    1    1    2  501    0 -0.15337668735E+03  0.35983586552E+03  0.31140271621E+03  0.50000000000E+03  0.47000000000E+01 0. -1.
         -5    1    1    2    0  501  0.15337668735E+03 -0.35983586552E+03 -0.31140271621E+03  0.50000000000E+03  0.47000000000E+01 0.  1.
</event>
<event>
 4    1  0.4838534E-004  0.1000000E+04  0.7546771E-02  0.8684367E-01
         11   -1    0    0    0    0  0.00000000000E+00  0.00000000000E+00  0.50000000000E+03  0.50000000000E+03  0.00000000000E+00 0.  1.
        -11   -1    0    0    0    0 -0.00000000000E+00 -0.00000000000E+00 -0.50000000000E+03  0.50000000000E+03  0.00000000000E+00 0. -1.
          5    1    1    2  501    0 -0.71088925308E+02 -0.46792702770E+03  0.16114766968E+03  0.50000000000E+03  0.47000000000E+01 0.  1.
         -5    1    1    2    0  501  0.71088925308E+02  0.46792702770E+03 -0.16114766968E+03  0.50000000000E+03  0.47000000000E+01 0. -1.
</event>
<event>
 4    1  0.4838534E-004  0.1000000E+04  0.7546771E-02  0.8684367E-01
         11   -1    0    0    0    0  0.00000000000E+00  0.00000000000E+00  0.50000000000E+03  0.50000000000E+03  0.00000000000E+00 0. -1.
        -11   -1    0    0    0    0 -0.00000000000E+00 -0.00000000000E+00 -0.50000000000E+03  0.50000000000E+03  0.00000000000E+00 0.  1.
          5    1    1    2  501    0 -0.38177962628E+02 -0.42292699772E+03  0.26391875221E+03  0.50000000000E+03  0.47000000000E+01 0. -1.
         -5    1    1    2    0  501  0.38177962628E+02  0.42292699772E+03 -0.26391875221E+03  0.50000000000E+03  0.47000000000E+01 0.  1.
</event>
<event>
 4    1  0.4838534E-004  0.1000000E+04  0.7546771E-02  0.8684367E-01
         11   -1    0    0    0    0  0.00000000000E+00  0.00000000000E+00  0.50000000000E+03  0.50000000000E+03  0.00000000000E+00 0. -1.
        -11   -1    0    0    0    0 -0.00000000000E+00 -0.00000000000E+00 -0.50000000000E+03  0.50000000000E+03  0.00000000000E+00 0.  1.
          5    1    1    2  501    0 -0.12742933318E+03 -0.14553990592E+03  0.46103992325E+03  0.50000000000E+03  0.47000000000E+01 0. -1.
         -5    1    1    2    0  501  0.12742933318E+03  0.14553990592E+03 -0.46103992325E+03  0.50000000000E+03  0.47000000000E+01 0.  1.
</event>
<event>
 4    1  0.4838534E-004  0.1000000E+04  0.7546771E-02  0.8684367E-01
         11   -1    0    0    0    0  0.00000000000E+00  0.00000000000E+00  0.50000000000E+03  0.50000000000E+03  0.00000000000E+00 0.  1.
        -11   -1    0    0    0    0 -0.00000000000E+00 -0.00000000000E+00 -0.50000000000E+03  0.50000000000E+03  0.00000000000E+00 0. -1.
          5    1    1    2  501    0 -0.83957894048E+02  0.35625997902E+03  0.34059919169E+03  0.50000000000E+03  0.47000000000E+01 0.  1.
         -5    1    1    2    0  501  0.83957894048E+02 -0.35625997902E+03 -0.34059919169E+03  0.50000000000E+03  0.47000000000E+01 0. -1.
</event>
<event>
 4    1  0.4838534E-004  0.1000000E+04  0.7546771E-02  0.8684367E-01
         11   -1    0    0    0    0  0.00000000000E+00  0.00000000000E+00  0.50000000000E+03  0.50000000000E+03  0.00000000000E+00 0. -1.
        -11   -1    0    0    0    0 -0.00000000000E+00 -0.00000000000E+00 -0.50000000000E+03  0.50000000000E+03  0.00000000000E+00 0.  1.
          5    1    1    2  501    0 -0.43954093940E+03  0.16157172558E+03  0.17514636761E+03  0.50000000000E+03  0.47000000000E+01 0. -1.
         -5    1    1    2    0  501  0.43954093940E+03 -0.16157172558E+03 -0.17514636761E+03  0.50000000000E+03  0.47000000000E+01 0.  1.
</event>
<event>
 4    1  0.4838534E-004  0.1000000E+04  0.7546771E-02  0.8684367E-01
         11   -1    0    0    0    0  0.00000000000E+00  0.00000000000E+00  0.50000000000E+03  0.50000000000E+03  0.00000000000E+00 0. -1.
        -11   -1    0    0    0    0 -0.00000000000E+00 -0.00000000000E+00 -0.50000000000E+03  0.50000000000E+03  0.00000000000E+00 0.  1.
          5    1    1    2  501    0  0.38830387326E+03  0.13533855459E+03  0.28439670823E+03  0.50000000000E+03  0.47000000000E+01 0. -1.
         -5    1    1    2    0  501 -0.38830387326E+03 -0.13533855459E+03 -0.28439670823E+03  0.50000000000E+03  0.47000000000E+01 0.  1.
</event>
<event>
 4    1  0.4838534E-004  0.1000000E+04  0.7546771E-02  0.8684367E-01
         11   -1    0    0    0    0  0.00000000000E+00  0.00000000000E+00  0.50000000000E+03  0.50000000000E+03  0.00000000000E+00 0. -1.
        -11   -1    0    0    0    0 -0.00000000000E+00 -0.00000000000E+00 -0.50000000000E+03  0.50000000000E+03  0.00000000000E+00 0.  1.
          5    1    1    2  501    0  0.36500469698E+03 -0.25182137091E+03  0.23094475169E+03  0.50000000000E+03  0.47000000000E+01 0. -1.
         -5    1    1    2    0  501 -0.36500469698E+03  0.25182137091E+03 -0.23094475169E+03  0.50000000000E+03  0.47000000000E+01 0.  1.
</event>
<event>
 4    1  0.4838534E-004  0.1000000E+04  0.7546771E-02  0.8684367E-01
         11   -1    0    0    0    0  0.00000000000E+00  0.00000000000E+00  0.50000000000E+03  0.50000000000E+03  0.00000000000E+00 0. -1.
        -11   -1    0    0    0    0 -0.00000000000E+00 -0.00000000000E+00 -0.50000000000E+03  0.50000000000E+03  0.00000000000E+00 0.  1.
          5    1    1    2  501    0 -0.23235994561E+03 -0.24775703825E+03  0.36688310900E+03  0.50000000000E+03  0.47000000000E+01 0. -1.
         -5    1    1    2    0  501  0.23235994561E+03  0.24775703825E+03 -0.36688310900E+03  0.50000000000E+03  0.47000000000E+01 0.  1.
</event>
<event>
 4    1  0.4838534E-004  0.1000000E+04  0.7546771E-02  0.8684367E-01
         11   -1    0    0    0    0  0.00000000000E+00  0.00000000000E+00  0.50000000000E+03  0.50000000000E+03  0.00000000000E+00 0.  1.
        -11   -1    0    0    0    0 -0.00000000000E+00 -0.00000000000E+00 -0.50000000000E+03  0.50000000000E+03  0.00000000000E+00 0. -1.
          5    1    1    2  501    0 -0.22034260340E+03 -0.25996921585E+03  0.36584566956E+03  0.50000000000E+03  0.47000000000E+01 0.  1.
         -5    1    1    2    0  501  0.22034260340E+03  0.25996921585E+03 -0.36584566956E+03  0.50000000000E+03  0.47000000000E+01 0. -1.
</event>
<event>
 4    1  0.4838534E-004  0.1000000E+04  0.7546771E-02  0.8684367E-01
         11   -1    0    0    0    0  0.00000000000E+00  0.00000000000E+00  0.50000000000E+03  0.50000000000E+03  0.00000000000E+00 0.  1.
        -11   -1    0    0    0    0 -0.00000000000E+00 -0.00000000000E+00 -0.50000000000E+03  0.50000000000E+03  0.00000000000E+00 0. -1.
          5    1    1    2  501    0 -0.42177503740E+02  0.30359233618E+02  0.49726983129E+03  0.50000000000E+03  0.47000000000E+01 0.  1.
         -5    1    1    2    0  501  0.42177503740E+02 -0.30359233618E+02 -0.49726983129E+03  0.50000000000E+03  0.47000000000E+01 0. -1.
</event>
<event>
 4    1  0.4838534E-004  0.1000000E+04  0.7546771E-02  0.8684367E-01
         11   -1    0    0    0    0  0.00000000000E+00  0.00000000000E+00  0.50000000000E+03  0.50000000000E+03  0.00000000000E+00 0. -1.
        -11   -1    0    0    0    0 -0.00000000000E+00 -0.00000000000E+00 -0.50000000000E+03  0.50000000000E+03  0.00000000000E+00 0.  1.
          5    1    1    2  501    0  0.15734694569E+03 -0.65451544567E+02  0.47003823674E+03  0.50000000000E+03  0.47000000000E+01 0. -1.
         -5    1    1    2    0  501 -0.15734694569E+03  0.65451544567E+02 -0.47003823674E+03  0.50000000000E+03  0.47000000000E+01 0.  1.
</event>
<event>
 4    1  0.4838534E-004  0.1000000E+04  0.7546771E-02  0.8684367E-01
         11   -1    0    0    0    0  0.00000000000E+00  0.00000000000E+00  0.50000000000E+03  0.50000000000E+03  0.00000000000E+00 0.  1.
        -11   -1    0    0    0    0 -0.00000000000E+00 -0.00000000000E+00 -0.50000000000E+03  0.50000000000E+03  0.00000000000E+00 0. -1.
          5    1    1    2  501    0  0.33323558311E+03  0.21049040635E+03  0.30761297921E+03  0.50000000000E+03  0.47000000000E+01 0.  1.
         -5    1    1    2    0  501 -0.33323558311E+03 -0.21049040635E+03 -0.30761297921E+03  0.50000000000E+03  0.47000000000E+01 0. -1.
</event>
<event>
 4    1  0.4838534E-004  0.1000000E+04  0.7546771E-02  0.8684367E-01
         11   -1    0    0    0    0  0.00000000000E+00  0.00000000000E+00  0.50000000000E+03  0.50000000000E+03  0.00000000000E+00 0.  1.
        -11   -1    0    0    0    0 -0.00000000000E+00 -0.00000000000E+00 -0.50000000000E+03  0.50000000000E+03  0.00000000000E+00 0. -1.
          5    1    1    2  501    0 -0.25883920859E+02 -0.46038825512E+03 -0.19326300005E+03  0.50000000000E+03  0.47000000000E+01 0.  1.
         -5    1    1    2    0  501  0.25883920859E+02  0.46038825512E+03  0.19326300005E+03  0.50000000000E+03  0.47000000000E+01 0. -1.
</event>
<event>
 4    1  0.4838534E-004  0.1000000E+04  0.7546771E-02  0.8684367E-01
         11   -1    0    0    0    0  0.00000000000E+00  0.00000000000E+00  0.50000000000E+03  0.50000000000E+03  0.00000000000E+00 0.  1.
        -11   -1    0    0    0    0 -0.00000000000E+00 -0.00000000000E+00 -0.50000000000E+03  0.50000000000E+03  0.00000000000E+00 0. -1.
          5    1    1    2  501    0 -0.40597386574E+03 -0.12620091931E+03  0.26312821647E+03  0.50000000000E+03  0.47000000000E+01 0.  1.
         -5    1    1    2    0  501  0.40597386574E+03  0.12620091931E+03 -0.26312821647E+03  0.50000000000E+03  0.47000000000E+01 0. -1.
</event>
<event>
 4    1  0.4838534E-004  0.1000000E+04  0.7546771E-02  0.8684367E-01
         11   -1    0    0    0    0  0.00000000000E+00  0.00000000000E+00  0.50000000000E+03  0.50000000000E+03  0.00000000000E+00 0. -1.
        -11   -1    0    0    0    0 -0.00000000000E+00 -0.00000000000E+00 -0.50000000000E+03  0.50000000000E+03  0.00000000000E+00 0.  1.
          5    1    1    2  501    0  0.51187928072E+02 -0.39285842805E+03  0.30499174011E+03  0.50000000000E+03  0.47000000000E+01 0. -1.
         -5    1    1    2    0  501 -0.51187928072E+02  0.39285842805E+03 -0.30499174011E+03  0.50000000000E+03  0.47000000000E+01 0.  1.
</event>
<event>
 4    1  0.4838534E-004  0.1000000E+04  0.7546771E-02  0.8684367E-01
         11   -1    0    0    0    0  0.00000000000E+00  0.00000000000E+00  0.50000000000E+03  0.50000000000E+03  0.00000000000E+00 0. -1.
        -11   -1    0    0    0    0 -0.00000000000E+00 -0.00000000000E+00 -0.50000000000E+03  0.50000000000E+03  0.00000000000E+00 0.  1.
          5    1    1    2  501    0 -0.63881781005E+02 -0.16686786299E+03  0.46696053833E+03  0.50000000000E+03  0.47000000000E+01 0. -1.
         -5    1    1    2    0  501  0.63881781005E+02  0.16686786299E+03 -0.46696053833E+03  0.50000000000E+03  0.47000000000E+01 0.  1.
</event>
<event>
 4    1  0.4838534E-004  0.1000000E+04  0.7546771E-02  0.8684367E-01
         11   -1    0    0    0    0  0.00000000000E+00  0.00000000000E+00  0.50000000000E+03  0.50000000000E+03  0.00000000000E+00 0. -1.
        -11   -1    0    0    0    0 -0.00000000000E+00 -0.00000000000E+00 -0.50000000000E+03  0.50000000000E+03  0.00000000000E+00 0.  1.
          5    1    1    2  501    0  0.29164133938E+02  0.48792801469E+03  0.10513617729E+03  0.50000000000E+03  0.47000000000E+01 0. -1.
         -5    1    1    2    0  501 -0.29164133938E+02 -0.48792801469E+03 -0.10513617729E+03  0.50000000000E+03  0.47000000000E+01 0.  1.
</event>
<event>
 4    1  0.4838534E-004  0.1000000E+04  0.7546771E-02  0.8684367E-01
         11   -1    0    0    0    0  0.00000000000E+00  0.00000000000E+00  0.50000000000E+03  0.50000000000E+03  0.00000000000E+00 0. -1.
        -11   -1    0    0    0    0 -0.00000000000E+00 -0.00000000000E+00 -0.50000000000E+03  0.50000000000E+03  0.00000000000E+00 0.  1.
          5    1    1    2  501    0  0.25176326366E+03  0.23164170127E+03  0.36460292278E+03  0.50000000000E+03  0.47000000000E+01 0. -1.
         -5    1    1    2    0  501 -0.25176326366E+03 -0.23164170127E+03 -0.36460292278E+03  0.50000000000E+03  0.47000000000E+01 0.  1.
</event>
<event>
 4    1  0.4838534E-004  0.1000000E+04  0.7546771E-02  0.8684367E-01
         11   -1    0    0    0    0  0.00000000000E+00  0.00000000000E+00  0.50000000000E+03  0.50000000000E+03  0.00000000000E+00 0. -1.
        -11   -1    0    0    0    0 -0.00000000000E+00 -0.00000000000E+00 -0.50000000000E+03  0.50000000000E+03  0.00000000000E+00 0.  1.
          5    1    1    2  501    0 -0.19510919533E+03 -0.37839667543E+03  0.26215695284E+03  0.50000000000E+03  0.47000000000E+01 0. -1.
         -5    1    1    2    0  501  0.19510919533E+03  0.37839667543E+03 -0.26215695284E+03  0.50000000000E+03  0.47000000000E+01 0.  1.
</event>
<event>
 4    1  0.4838534E-004  0.1000000E+04  0.7546771E-02  0.8684367E-01
         11   -1    0    0    0    0  0.00000000000E+00  0.00000000000E+00  0.50000000000E+03  0.50000000000E+03  0.00000000000E+00 0. -1.
        -11   -1    0    0    0    0 -0.00000000000E+00 -0.00000000000E+00 -0.50000000000E+03  0.50000000000E+03  0.00000000000E+00 0.  1.
          5    1    1    2  501    0 -0.17113896940E+03 -0.32968195232E+03  0.33466277574E+03  0.50000000000E+03  0.47000000000E+01 0. -1.
         -5    1    1    2    0  501  0.17113896940E+03  0.32968195232E+03 -0.33466277574E+03  0.50000000000E+03  0.47000000000E+01 0.  1.
</event>
<event>
 4    1  0.4838534E-004  0.1000000E+04  0.7546771E-02  0.8684367E-01
         11   -1    0    0    0    0  0.00000000000E+00  0.00000000000E+00  0.50000000000E+03  0.50000000000E+03  0.00000000000E+00 0. -1.
        -11   -1    0    0    0    0 -0.00000000000E+00 -0.00000000000E+00 -0.50000000000E+03  0.50000000000E+03  0.00000000000E+00 0.  1.
          5    1    1    2  501    0 -0.26016423353E+03 -0.85762313931E+02  0.41825507421E+03  0.50000000000E+03  0.47000000000E+01 0. -1.
         -5    1    1    2    0  501  0.26016423353E+03  0.85762313931E+02 -0.41825507421E+03  0.50000000000E+03  0.47000000000E+01 0.  1.
</event>
<event>
 4    1  0.4838534E-004  0.1000000E+04  0.7546771E-02  0.8684367E-01
         11   -1    0    0    0    0  0.00000000000E+00  0.00000000000E+00  0.50000000000E+03  0.50000000000E+03  0.00000000000E+00 0. -1.
        -11   -1    0    0    0    0 -0.00000000000E+00 -0.00000000000E+00 -0.50000000000E+03  0.50000000000E+03  0.00000000000E+00 0.  1.
          5    1    1    2  501    0 -0.32205933478E+02  0.14507441446E+03  0.47738255322E+03  0.50000000000E+03  0.47000000000E+01 0. -1.
         -5    1    1    2    0  501  0.32205933478E+02 -0.14507441446E+03 -0.47738255322E+03  0.50000000000E+03  0.47000000000E+01 0.  1.
</event>
<event>
 4    1  0.4838534E-004  0.1000000E+04  0.7546771E-02  0.8684367E-01
         11   -1    0    0    0    0  0.00000000000E+00  0.00000000000E+00  0.50000000000E+03  0.50000000000E+03  0.00000000000E+00 0. -1.
        -11   -1    0    0    0    0 -0.00000000000E+00 -0.00000000000E+00 -0.50000000000E+03  0.50000000000E+03  0.00000000000E+00 0.  1.
          5    1    1    2  501    0 -0.34267273286E+03 -0.34649260544E+03 -0.11178632532E+03  0.50000000000E+03  0.47000000000E+01 0. -1.
         -5    1    1    2    0  501  0.34267273286E+03  0.34649260544E+03  0.11178632532E+03  0.50000000000E+03  0.47000000000E+01 0.  1.
</event>
<event>
 4    1  0.4838534E-004  0.1000000E+04  0.7546771E-02  0.8684367E-01
         11   -1    0    0    0    0  0.00000000000E+00  0.00000000000E+00  0.50000000000E+03  0.50000000000E+03  0.00000000000E+00 0. -1.
        -11   -1    0    0    0    0 -0.00000000000E+00 -0.00000000000E+00 -0.50000000000E+03  0.50000000000E+03  0.00000000000E+00 0.  1.
          5    1    1    2  501    0  0.49401222256E+03 -0.34683935886E+02  0.68752153077E+02  0.50000000000E+03  0.47000000000E+01 0. -1.
         -5    1    1    2    0  501 -0.49401222256E+03  0.34683935886E+02 -0.68752153077E+02  0.50000000000E+03  0.47000000000E+01 0.  1.
</event>
<event>
 4    1  0.4838534E-004  0.1000000E+04  0.7546771E-02  0.8684367E-01
         11   -1    0    0    0    0  0.00000000000E+00  0.00000000000E+00  0.50000000000E+03  0.50000000000E+03  0.00000000000E+00 0. -1.
        -11   -1    0    0    0    0 -0.00000000000E+00 -0.00000000000E+00 -0.50000000000E+03  0.50000000000E+03  0.00000000000E+00 0.  1.
          5    1    1    2  501    0  0.31770034211E+03 -0.31704159135E+03  0.22029305930E+03  0.50000000000E+03  0.47000000000E+01 0. -1.
         -5    1    1    2    0  501 -0.31770034211E+03  0.31704159135E+03 -0.22029305930E+03  0.50000000000E+03  0.47000000000E+01 0.  1.
</event>
<event>
 4    1  0.4838534E-004  0.1000000E+04  0.7546771E-02  0.8684367E-01
         11   -1    0    0    0    0  0.00000000000E+00  0.00000000000E+00  0.50000000000E+03  0.50000000000E+03  0.00000000000E+00 0. -1.
        -11   -1    0    0    0    0 -0.00000000000E+00 -0.00000000000E+00 -0.50000000000E+03  0.50000000000E+03  0.00000000000E+00 0.  1.
          5    1    1    2  501    0 -0.14331144326E+03  0.58049237271E+02  0.47546821795E+03  0.50000000000E+03  0.47000000000E+01 0. -1.
         -5    1    1    2    0  501  0.14331144326E+03 -0.58049237271E+02 -0.47546821795E+03  0.50000000000E+03  0.47000000000E+01 0.  1.
</event>
<event>
 4    1  0.4838534E-004  0.1000000E+04  0.7546771E-02  0.8684367E-01
         11   -1    0    0    0    0  0.00000000000E+00  0.00000000000E+00  0.50000000000E+03  0.50000000000E+03  0.00000000000E+00 0.  1.
        -11   -1    0    0    0    0 -0.00000000000E+00 -0.00000000000E+00 -0.50000000000E+03  0.50000000000E+03  0.00000000000E+00 0. -1.
          5    1    1    2  501    0  0.23907258076E+03  0.42348107289E+03 -0.11612920403E+03  0.50000000000E+03  0.47000000000E+01 0. -1.
         -5    1    1    2    0  501 -0.23907258076E+03 -0.42348107289E+03  0.11612920403E+03  0.50000000000E+03  0.47000000000E+01 0.  1.
</event>
<event>
 4    1  0.4838534E-004  0.1000000E+04  0.7546771E-02  0.8684367E-01
         11   -1    0    0    0    0  0.00000000000E+00  0.00000000000E+00  0.50000000000E+03  0.50000000000E+03  0.00000000000E+00 0. -1.
        -11   -1    0    0    0    0 -0.00000000000E+00 -0.00000000000E+00 -0.50000000000E+03  0.50000000000E+03  0.00000000000E+00 0.  1.
          5    1    1    2  501    0  0.66267743205E+02 -0.33296346910E+03  0.36704471724E+03  0.50000000000E+03  0.47000000000E+01 0. -1.
         -5    1    1    2    0  501 -0.66267743205E+02  0.33296346910E+03 -0.36704471724E+03  0.50000000000E+03  0.47000000000E+01 0.  1.
</event>
<event>
 4    1  0.4838534E-004  0.1000000E+04  0.7546771E-02  0.8684367E-01
         11   -1    0    0    0    0  0.00000000000E+00  0.00000000000E+00  0.50000000000E+03  0.50000000000E+03  0.00000000000E+00 0. -1.
        -11   -1    0    0    0    0 -0.00000000000E+00 -0.00000000000E+00 -0.50000000000E+03  0.50000000000E+03  0.00000000000E+00 0.  1.
          5    1    1    2  501    0 -0.18228861321E+03  0.46497293837E+03 -0.23429427492E+02  0.50000000000E+03  0.47000000000E+01 0. -1.
         -5    1    1    2    0  501  0.18228861321E+03 -0.46497293837E+03  0.23429427492E+02  0.50000000000E+03  0.47000000000E+01 0.  1.
</event>
<event>
 4    1  0.4838534E-004  0.1000000E+04  0.7546771E-02  0.8684367E-01
         11   -1    0    0    0    0  0.00000000000E+00  0.00000000000E+00  0.50000000000E+03  0.50000000000E+03  0.00000000000E+00 0.  1.
        -11   -1    0    0    0    0 -0.00000000000E+00 -0.00000000000E+00 -0.50000000000E+03  0.50000000000E+03  0.00000000000E+00 0. -1.
          5    1    1    2  501    0  0.89549970556E+02 -0.27515610611E+03  0.40773499978E+03  0.50000000000E+03  0.47000000000E+01 0.  1.
         -5    1    1    2    0  501 -0.89549970556E+02  0.27515610611E+03 -0.40773499978E+03  0.50000000000E+03  0.47000000000E+01 0. -1.
</event>
<event>
 4    1  0.4838534E-004  0.1000000E+04  0.7546771E-02  0.8684367E-01
         11   -1    0    0    0    0  0.00000000000E+00  0.00000000000E+00  0.50000000000E+03  0.50000000000E+03  0.00000000000E+00 0. -1.
        -11   -1    0    0    0    0 -0.00000000000E+00 -0.00000000000E+00 -0.50000000000E+03  0.50000000000E+03  0.00000000000E+00 0.  1.
          5    1    1    2  501    0  0.16453489143E+03  0.79395588251E+02  0.46540575853E+03  0.50000000000E+03  0.47000000000E+01 0. -1.
         -5    1    1    2    0  501 -0.16453489143E+03 -0.79395588251E+02 -0.46540575853E+03  0.50000000000E+03  0.47000000000E+01 0.  1.
</event>
<event>
 4    1  0.4838534E-004  0.1000000E+04  0.7546771E-02  0.8684367E-01
         11   -1    0    0    0    0  0.00000000000E+00  0.00000000000E+00  0.50000000000E+03  0.50000000000E+03  0.00000000000E+00 0. -1.
        -11   -1    0    0    0    0 -0.00000000000E+00 -0.00000000000E+00 -0.50000000000E+03  0.50000000000E+03  0.00000000000E+00 0.  1.
          5    1    1    2  501    0  0.13033798928E+03  0.17123633430E+03  0.45129595208E+03  0.50000000000E+03  0.47000000000E+01 0. -1.
         -5    1    1    2    0  501 -0.13033798928E+03 -0.17123633430E+03 -0.45129595208E+03  0.50000000000E+03  0.47000000000E+01 0.  1.
</event>
<event>
 4    1  0.4838534E-004  0.1000000E+04  0.7546771E-02  0.8684367E-01
         11   -1    0    0    0    0  0.00000000000E+00  0.00000000000E+00  0.50000000000E+03  0.50000000000E+03  0.00000000000E+00 0.  1.
        -11   -1    0    0    0    0 -0.00000000000E+00 -0.00000000000E+00 -0.50000000000E+03  0.50000000000E+03  0.00000000000E+00 0. -1.
          5    1    1    2  501    0  0.23370937518E+03 -0.48733992081E+01  0.44196616152E+03  0.50000000000E+03  0.47000000000E+01 0.  1.
         -5    1    1    2    0  501 -0.23370937518E+03  0.48733992081E+01 -0.44196616152E+03  0.50000000000E+03  0.47000000000E+01 0. -1.
</event>
<event>
 4    1  0.4838534E-004  0.1000000E+04  0.7546771E-02  0.8684367E-01
         11   -1    0    0    0    0  0.00000000000E+00  0.00000000000E+00  0.50000000000E+03  0.50000000000E+03  0.00000000000E+00 0. -1.
        -11   -1    0    0    0    0 -0.00000000000E+00 -0.00000000000E+00 -0.50000000000E+03  0.50000000000E+03  0.00000000000E+00 0.  1.
          5    1    1    2  501    0 -0.16768744065E+03 -0.46633023404E+03  0.66294381851E+02  0.50000000000E+03  0.47000000000E+01 0. -1.
         -5    1    1    2    0  501  0.16768744065E+03  0.46633023404E+03 -0.66294381851E+02  0.50000000000E+03  0.47000000000E+01 0.  1.
</event>
<event>
 4    1  0.4838534E-004  0.1000000E+04  0.7546771E-02  0.8684367E-01
         11   -1    0    0    0    0  0.00000000000E+00  0.00000000000E+00  0.50000000000E+03  0.50000000000E+03  0.00000000000E+00 0.  1.
        -11   -1    0    0    0    0 -0.00000000000E+00 -0.00000000000E+00 -0.50000000000E+03  0.50000000000E+03  0.00000000000E+00 0. -1.
          5    1    1    2  501    0 -0.62332566433E+02  0.26954631168E+03  0.41645809756E+03  0.50000000000E+03  0.47000000000E+01 0.  1.
         -5    1    1    2    0  501  0.62332566433E+02 -0.26954631168E+03 -0.41645809756E+03  0.50000000000E+03  0.47000000000E+01 0. -1.
</event>
<event>
 4    1  0.4838534E-004  0.1000000E+04  0.7546771E-02  0.8684367E-01
         11   -1    0    0    0    0  0.00000000000E+00  0.00000000000E+00  0.50000000000E+03  0.50000000000E+03  0.00000000000E+00 0.  1.
        -11   -1    0    0    0    0 -0.00000000000E+00 -0.00000000000E+00 -0.50000000000E+03  0.50000000000E+03  0.00000000000E+00 0. -1.
          5    1    1    2  501    0 -0.17767808157E+03  0.72079710730E+02  0.46174985071E+03  0.50000000000E+03  0.47000000000E+01 0.  1.
         -5    1    1    2    0  501  0.17767808157E+03 -0.72079710730E+02 -0.46174985071E+03  0.50000000000E+03  0.47000000000E+01 0. -1.
</event>
<event>
 4    1  0.4838534E-004  0.1000000E+04  0.7546771E-02  0.8684367E-01
         11   -1    0    0    0    0  0.00000000000E+00  0.00000000000E+00  0.50000000000E+03  0.50000000000E+03  0.00000000000E+00 0. -1.
        -11   -1    0    0    0    0 -0.00000000000E+00 -0.00000000000E+00 -0.50000000000E+03  0.50000000000E+03  0.00000000000E+00 0.  1.
          5    1    1    2  501    0 -0.32251658793E+02  0.70576301732E+02  0.49391975678E+03  0.50000000000E+03  0.47000000000E+01 0. -1.
         -5    1    1    2    0  501  0.32251658793E+02 -0.70576301732E+02 -0.49391975678E+03  0.50000000000E+03  0.47000000000E+01 0.  1.
</event>
<event>
 4    1  0.4838534E-004  0.1000000E+04  0.7546771E-02  0.8684367E-01
         11   -1    0    0    0    0  0.00000000000E+00  0.00000000000E+00  0.50000000000E+03  0.50000000000E+03  0.00000000000E+00 0. -1.
        -11   -1    0    0    0    0 -0.00000000000E+00 -0.00000000000E+00 -0.50000000000E+03  0.50000000000E+03  0.00000000000E+00 0.  1.
          5    1    1    2  501    0 -0.13634488872E+03  0.39824222929E+02  0.47937669175E+03  0.50000000000E+03  0.47000000000E+01 0. -1.
         -5    1    1    2    0  501  0.13634488872E+03 -0.39824222929E+02 -0.47937669175E+03  0.50000000000E+03  0.47000000000E+01 0.  1.
</event>
<event>
 4    1  0.4838534E-004  0.1000000E+04  0.7546771E-02  0.8684367E-01
         11   -1    0    0    0    0  0.00000000000E+00  0.00000000000E+00  0.50000000000E+03  0.50000000000E+03  0.00000000000E+00 0.  1.
        -11   -1    0    0    0    0 -0.00000000000E+00 -0.00000000000E+00 -0.50000000000E+03  0.50000000000E+03  0.00000000000E+00 0. -1.
          5    1    1    2  501    0  0.15537335860E+03 -0.33060769510E+03  0.34137308239E+03  0.50000000000E+03  0.47000000000E+01 0.  1.
         -5    1    1    2    0  501 -0.15537335860E+03  0.33060769510E+03 -0.34137308239E+03  0.50000000000E+03  0.47000000000E+01 0. -1.
</event>
<event>
 4    1  0.4838534E-004  0.1000000E+04  0.7546771E-02  0.8684367E-01
         11   -1    0    0    0    0  0.00000000000E+00  0.00000000000E+00  0.50000000000E+03  0.50000000000E+03  0.00000000000E+00 0. -1.
        -11   -1    0    0    0    0 -0.00000000000E+00 -0.00000000000E+00 -0.50000000000E+03  0.50000000000E+03  0.00000000000E+00 0.  1.
          5    1    1    2  501    0  0.44684326586E+03 -0.22389033537E+03 -0.13495313360E+02  0.50000000000E+03  0.47000000000E+01 0. -1.
         -5    1    1    2    0  501 -0.44684326586E+03  0.22389033537E+03  0.13495313360E+02  0.50000000000E+03  0.47000000000E+01 0.  1.
</event>
<event>
 4    1  0.4838534E-004  0.1000000E+04  0.7546771E-02  0.8684367E-01
         11   -1    0    0    0    0  0.00000000000E+00  0.00000000000E+00  0.50000000000E+03  0.50000000000E+03  0.00000000000E+00 0. -1.
        -11   -1    0    0    0    0 -0.00000000000E+00 -0.00000000000E+00 -0.50000000000E+03  0.50000000000E+03  0.00000000000E+00 0.  1.
          5    1    1    2  501    0  0.42854136869E+03  0.25575648431E+03  0.30312143685E+02  0.50000000000E+03  0.47000000000E+01 0. -1.
         -5    1    1    2    0  501 -0.42854136869E+03 -0.25575648431E+03 -0.30312143685E+02  0.50000000000E+03  0.47000000000E+01 0.  1.
</event>
<event>
 4    1  0.4838534E-004  0.1000000E+04  0.7546771E-02  0.8684367E-01
         11   -1    0    0    0    0  0.00000000000E+00  0.00000000000E+00  0.50000000000E+03  0.50000000000E+03  0.00000000000E+00 0.  1.
        -11   -1    0    0    0    0 -0.00000000000E+00 -0.00000000000E+00 -0.50000000000E+03  0.50000000000E+03  0.00000000000E+00 0. -1.
          5    1    1    2  501    0 -0.13448922113E+03  0.45529931949E+03  0.15682183862E+03  0.50000000000E+03  0.47000000000E+01 0.  1.
         -5    1    1    2    0  501  0.13448922113E+03 -0.45529931949E+03 -0.15682183862E+03  0.50000000000E+03  0.47000000000E+01 0. -1.
</event>
<event>
 4    1  0.4838534E-004  0.1000000E+04  0.7546771E-02  0.8684367E-01
         11   -1    0    0    0    0  0.00000000000E+00  0.00000000000E+00  0.50000000000E+03  0.50000000000E+03  0.00000000000E+00 0. -1.
        -11   -1    0    0    0    0 -0.00000000000E+00 -0.00000000000E+00 -0.50000000000E+03  0.50000000000E+03  0.00000000000E+00 0.  1.
          5    1    1    2  501    0 -0.67089784498E+02  0.19219780614E+03  0.45665837793E+03  0.50000000000E+03  0.47000000000E+01 0. -1.
         -5    1    1    2    0  501  0.67089784498E+02 -0.19219780614E+03 -0.45665837793E+03  0.50000000000E+03  0.47000000000E+01 0.  1.
</event>
<event>
 4    1  0.4838534E-004  0.1000000E+04  0.7546771E-02  0.8684367E-01
         11   -1    0    0    0    0  0.00000000000E+00  0.00000000000E+00  0.50000000000E+03  0.50000000000E+03  0.00000000000E+00 0. -1.
        -11   -1    0    0    0    0 -0.00000000000E+00 -0.00000000000E+00 -0.50000000000E+03  0.50000000000E+03  0.00000000000E+00 0.  1.
          5    1    1    2  501    0 -0.15724531647E+03  0.39330659455E+03  0.26563460454E+03  0.50000000000E+03  0.47000000000E+01 0. -1.
         -5    1    1    2    0  501  0.15724531647E+03 -0.39330659455E+03 -0.26563460454E+03  0.50000000000E+03  0.47000000000E+01 0.  1.
</event>
<event>
 4    1  0.4838534E-004  0.1000000E+04  0.7546771E-02  0.8684367E-01
         11   -1    0    0    0    0  0.00000000000E+00  0.00000000000E+00  0.50000000000E+03  0.50000000000E+03  0.00000000000E+00 0. -1.
        -11   -1    0    0    0    0 -0.00000000000E+00 -0.00000000000E+00 -0.50000000000E+03  0.50000000000E+03  0.00000000000E+00 0.  1.
          5    1    1    2  501    0 -0.44928586424E+03 -0.62355030582E+02  0.21031398516E+03  0.50000000000E+03  0.47000000000E+01 0. -1.
         -5    1    1    2    0  501  0.44928586424E+03  0.62355030582E+02 -0.21031398516E+03  0.50000000000E+03  0.47000000000E+01 0.  1.
</event>
<event>
 4    1  0.4838534E-004  0.1000000E+04  0.7546771E-02  0.8684367E-01
         11   -1    0    0    0    0  0.00000000000E+00  0.00000000000E+00  0.50000000000E+03  0.50000000000E+03  0.00000000000E+00 0.  1.
        -11   -1    0    0    0    0 -0.00000000000E+00 -0.00000000000E+00 -0.50000000000E+03  0.50000000000E+03  0.00000000000E+00 0. -1.
          5    1    1    2  501    0  0.49658123538E+03 -0.53685905128E+02 -0.22423430974E+02  0.50000000000E+03  0.47000000000E+01 0.  1.
         -5    1    1    2    0  501 -0.49658123538E+03  0.53685905128E+02  0.22423430974E+02  0.50000000000E+03  0.47000000000E+01 0. -1.
</event>
<event>
 4    1  0.4838534E-004  0.1000000E+04  0.7546771E-02  0.8684367E-01
         11   -1    0    0    0    0  0.00000000000E+00  0.00000000000E+00  0.50000000000E+03  0.50000000000E+03  0.00000000000E+00 0. -1.
        -11   -1    0    0    0    0 -0.00000000000E+00 -0.00000000000E+00 -0.50000000000E+03  0.50000000000E+03  0.00000000000E+00 0.  1.
          5    1    1    2  501    0 -0.21617418282E+03 -0.28533316939E+03  0.34904385846E+03  0.50000000000E+03  0.47000000000E+01 0. -1.
         -5    1    1    2    0  501  0.21617418282E+03  0.28533316939E+03 -0.34904385846E+03  0.50000000000E+03  0.47000000000E+01 0.  1.
</event>
<event>
 4    1  0.4838534E-004  0.1000000E+04  0.7546771E-02  0.8684367E-01
         11   -1    0    0    0    0  0.00000000000E+00  0.00000000000E+00  0.50000000000E+03  0.50000000000E+03  0.00000000000E+00 0. -1.
        -11   -1    0    0    0    0 -0.00000000000E+00 -0.00000000000E+00 -0.50000000000E+03  0.50000000000E+03  0.00000000000E+00 0.  1.
          5    1    1    2  501    0 -0.25353533728E+03 -0.36630865037E+03  0.22697073690E+03  0.50000000000E+03  0.47000000000E+01 0. -1.
         -5    1    1    2    0  501  0.25353533728E+03  0.36630865037E+03 -0.22697073690E+03  0.50000000000E+03  0.47000000000E+01 0.  1.
</event>
<event>
 4    1  0.4838534E-004  0.1000000E+04  0.7546771E-02  0.8684367E-01
         11   -1    0    0    0    0  0.00000000000E+00  0.00000000000E+00  0.50000000000E+03  0.50000000000E+03  0.00000000000E+00 0.  1.
        -11   -1    0    0    0    0 -0.00000000000E+00 -0.00000000000E+00 -0.50000000000E+03  0.50000000000E+03  0.00000000000E+00 0. -1.
          5    1    1    2  501    0  0.13657443064E+03 -0.29973376037E+03  0.37614492924E+03  0.50000000000E+03  0.47000000000E+01 0.  1.
         -5    1    1    2    0  501 -0.13657443064E+03  0.29973376037E+03 -0.37614492924E+03  0.50000000000E+03  0.47000000000E+01 0. -1.
</event>
<event>
 4    1  0.4838534E-004  0.1000000E+04  0.7546771E-02  0.8684367E-01
         11   -1    0    0    0    0  0.00000000000E+00  0.00000000000E+00  0.50000000000E+03  0.50000000000E+03  0.00000000000E+00 0. -1.
        -11   -1    0    0    0    0 -0.00000000000E+00 -0.00000000000E+00 -0.50000000000E+03  0.50000000000E+03  0.00000000000E+00 0.  1.
          5    1    1    2  501    0 -0.68483898202E+02  0.25820595344E+02  0.49459191516E+03  0.50000000000E+03  0.47000000000E+01 0. -1.
         -5    1    1    2    0  501  0.68483898202E+02 -0.25820595344E+02 -0.49459191516E+03  0.50000000000E+03  0.47000000000E+01 0.  1.
</event>
<event>
 4    1  0.4838534E-004  0.1000000E+04  0.7546771E-02  0.8684367E-01
         11   -1    0    0    0    0  0.00000000000E+00  0.00000000000E+00  0.50000000000E+03  0.50000000000E+03  0.00000000000E+00 0. -1.
        -11   -1    0    0    0    0 -0.00000000000E+00 -0.00000000000E+00 -0.50000000000E+03  0.50000000000E+03  0.00000000000E+00 0.  1.
          5    1    1    2  501    0  0.16169386122E+02  0.68244320480E+02  0.49503451766E+03  0.50000000000E+03  0.47000000000E+01 0. -1.
         -5    1    1    2    0  501 -0.16169386122E+02 -0.68244320480E+02 -0.49503451766E+03  0.50000000000E+03  0.47000000000E+01 0.  1.
</event>
<event>
 4    1  0.4838534E-004  0.1000000E+04  0.7546771E-02  0.8684367E-01
         11   -1    0    0    0    0  0.00000000000E+00  0.00000000000E+00  0.50000000000E+03  0.50000000000E+03  0.00000000000E+00 0. -1.
        -11   -1    0    0    0    0 -0.00000000000E+00 -0.00000000000E+00 -0.50000000000E+03  0.50000000000E+03  0.00000000000E+00 0.  1.
          5    1    1    2  501    0 -0.32825350880E+02 -0.11208264843E+03  0.48614595160E+03  0.50000000000E+03  0.47000000000E+01 0. -1.
         -5    1    1    2    0  501  0.32825350880E+02  0.11208264843E+03 -0.48614595160E+03  0.50000000000E+03  0.47000000000E+01 0.  1.
</event>
<event>
 4    1  0.4838534E-004  0.1000000E+04  0.7546771E-02  0.8684367E-01
         11   -1    0    0    0    0  0.00000000000E+00  0.00000000000E+00  0.50000000000E+03  0.50000000000E+03  0.00000000000E+00 0.  1.
        -11   -1    0    0    0    0 -0.00000000000E+00 -0.00000000000E+00 -0.50000000000E+03  0.50000000000E+03  0.00000000000E+00 0. -1.
          5    1    1    2  501    0 -0.70544192913E+01 -0.37699515746E+03  0.32833336172E+03  0.50000000000E+03  0.47000000000E+01 0.  1.
         -5    1    1    2    0  501  0.70544192913E+01  0.37699515746E+03 -0.32833336172E+03  0.50000000000E+03  0.47000000000E+01 0. -1.
</event>
<event>
 4    1  0.4838534E-004  0.1000000E+04  0.7546771E-02  0.8684367E-01
         11   -1    0    0    0    0  0.00000000000E+00  0.00000000000E+00  0.50000000000E+03  0.50000000000E+03  0.00000000000E+00 0. -1.
        -11   -1    0    0    0    0 -0.00000000000E+00 -0.00000000000E+00 -0.50000000000E+03  0.50000000000E+03  0.00000000000E+00 0.  1.
          5    1    1    2  501    0 -0.29091438863E+03  0.33733006386E+03 -0.22705760614E+03  0.50000000000E+03  0.47000000000E+01 0. -1.
         -5    1    1    2    0  501  0.29091438863E+03 -0.33733006386E+03  0.22705760614E+03  0.50000000000E+03  0.47000000000E+01 0.  1.
</event>
<event>
 4    1  0.4838534E-004  0.1000000E+04  0.7546771E-02  0.8684367E-01
         11   -1    0    0    0    0  0.00000000000E+00  0.00000000000E+00  0.50000000000E+03  0.50000000000E+03  0.00000000000E+00 0.  1.
        -11   -1    0    0    0    0 -0.00000000000E+00 -0.00000000000E+00 -0.50000000000E+03  0.50000000000E+03  0.00000000000E+00 0. -1.
          5    1    1    2  501    0  0.34523877256E+03 -0.32637439276E+03  0.15578143559E+03  0.50000000000E+03  0.47000000000E+01 0.  1.
         -5    1    1    2    0  501 -0.34523877256E+03  0.32637439276E+03 -0.15578143559E+03  0.50000000000E+03  0.47000000000E+01 0. -1.
</event>
<event>
 4    1  0.4838534E-004  0.1000000E+04  0.7546771E-02  0.8684367E-01
         11   -1    0    0    0    0  0.00000000000E+00  0.00000000000E+00  0.50000000000E+03  0.50000000000E+03  0.00000000000E+00 0. -1.
        -11   -1    0    0    0    0 -0.00000000000E+00 -0.00000000000E+00 -0.50000000000E+03  0.50000000000E+03  0.00000000000E+00 0.  1.
          5    1    1    2  501    0 -0.74334106284E+02 -0.46070732735E+03  0.17944667500E+03  0.50000000000E+03  0.47000000000E+01 0. -1.
         -5    1    1    2    0  501  0.74334106284E+02  0.46070732735E+03 -0.17944667500E+03  0.50000000000E+03  0.47000000000E+01 0.  1.
</event>
<event>
 4    1  0.4838534E-004  0.1000000E+04  0.7546771E-02  0.8684367E-01
         11   -1    0    0    0    0  0.00000000000E+00  0.00000000000E+00  0.50000000000E+03  0.50000000000E+03  0.00000000000E+00 0. -1.
        -11   -1    0    0    0    0 -0.00000000000E+00 -0.00000000000E+00 -0.50000000000E+03  0.50000000000E+03  0.00000000000E+00 0.  1.
          5    1    1    2  501    0 -0.20629025872E+03 -0.22834568616E+03  0.39405645125E+03  0.50000000000E+03  0.47000000000E+01 0. -1.
         -5    1    1    2    0  501  0.20629025872E+03  0.22834568616E+03 -0.39405645125E+03  0.50000000000E+03  0.47000000000E+01 0.  1.
</event>
<event>
 4    1  0.4838534E-004  0.1000000E+04  0.7546771E-02  0.8684367E-01
         11   -1    0    0    0    0  0.00000000000E+00  0.00000000000E+00  0.50000000000E+03  0.50000000000E+03  0.00000000000E+00 0. -1.
        -11   -1    0    0    0    0 -0.00000000000E+00 -0.00000000000E+00 -0.50000000000E+03  0.50000000000E+03  0.00000000000E+00 0.  1.
          5    1    1    2  501    0  0.23959213840E+03 -0.17154859480E+03  0.40391162008E+03  0.50000000000E+03  0.47000000000E+01 0. -1.
         -5    1    1    2    0  501 -0.23959213840E+03  0.17154859480E+03 -0.40391162008E+03  0.50000000000E+03  0.47000000000E+01 0.  1.
</event>
<event>
 4    1  0.4838534E-004  0.1000000E+04  0.7546771E-02  0.8684367E-01
         11   -1    0    0    0    0  0.00000000000E+00  0.00000000000E+00  0.50000000000E+03  0.50000000000E+03  0.00000000000E+00 0. -1.
        -11   -1    0    0    0    0 -0.00000000000E+00 -0.00000000000E+00 -0.50000000000E+03  0.50000000000E+03  0.00000000000E+00 0.  1.
          5    1    1    2  501    0 -0.41882430759E+03 -0.16850197085E+03  0.21487483611E+03  0.50000000000E+03  0.47000000000E+01 0. -1.
         -5    1    1    2    0  501  0.41882430759E+03  0.16850197085E+03 -0.21487483611E+03  0.50000000000E+03  0.47000000000E+01 0.  1.
</event>
<event>
 4    1  0.4838534E-004  0.1000000E+04  0.7546771E-02  0.8684367E-01
         11   -1    0    0    0    0  0.00000000000E+00  0.00000000000E+00  0.50000000000E+03  0.50000000000E+03  0.00000000000E+00 0. -1.
        -11   -1    0    0    0    0 -0.00000000000E+00 -0.00000000000E+00 -0.50000000000E+03  0.50000000000E+03  0.00000000000E+00 0.  1.
          5    1    1    2  501    0  0.46595162793E+03  0.83542211923E+02  0.16089651722E+03  0.50000000000E+03  0.47000000000E+01 0. -1.
         -5    1    1    2    0  501 -0.46595162793E+03 -0.83542211923E+02 -0.16089651722E+03  0.50000000000E+03  0.47000000000E+01 0.  1.
</event>
<event>
 4    1  0.4838534E-004  0.1000000E+04  0.7546771E-02  0.8684367E-01
         11   -1    0    0    0    0  0.00000000000E+00  0.00000000000E+00  0.50000000000E+03  0.50000000000E+03  0.00000000000E+00 0. -1.
        -11   -1    0    0    0    0 -0.00000000000E+00 -0.00000000000E+00 -0.50000000000E+03  0.50000000000E+03  0.00000000000E+00 0.  1.
          5    1    1    2  501    0  0.62202249632E+02 -0.97597482112E+02  0.48639852141E+03  0.50000000000E+03  0.47000000000E+01 0. -1.
         -5    1    1    2    0  501 -0.62202249632E+02  0.97597482112E+02 -0.48639852141E+03  0.50000000000E+03  0.47000000000E+01 0.  1.
</event>
<event>
 4    1  0.4838534E-004  0.1000000E+04  0.7546771E-02  0.8684367E-01
         11   -1    0    0    0    0  0.00000000000E+00  0.00000000000E+00  0.50000000000E+03  0.50000000000E+03  0.00000000000E+00 0. -1.
        -11   -1    0    0    0    0 -0.00000000000E+00 -0.00000000000E+00 -0.50000000000E+03  0.50000000000E+03  0.00000000000E+00 0.  1.
          5    1    1    2  501    0  0.20873859379E+03 -0.65592579329E+02  0.44955947660E+03  0.50000000000E+03  0.47000000000E+01 0. -1.
         -5    1    1    2    0  501 -0.20873859379E+03  0.65592579329E+02 -0.44955947660E+03  0.50000000000E+03  0.47000000000E+01 0.  1.
</event>
<event>
 4    1  0.4838534E-004  0.1000000E+04  0.7546771E-02  0.8684367E-01
         11   -1    0    0    0    0  0.00000000000E+00  0.00000000000E+00  0.50000000000E+03  0.50000000000E+03  0.00000000000E+00 0. -1.
        -11   -1    0    0    0    0 -0.00000000000E+00 -0.00000000000E+00 -0.50000000000E+03  0.50000000000E+03  0.00000000000E+00 0.  1.
          5    1    1    2  501    0 -0.21603109648E+03 -0.53174181109E+01  0.45086605596E+03  0.50000000000E+03  0.47000000000E+01 0. -1.
         -5    1    1    2    0  501  0.21603109648E+03  0.53174181109E+01 -0.45086605596E+03  0.50000000000E+03  0.47000000000E+01 0.  1.
</event>
<event>
 4    1  0.4838534E-004  0.1000000E+04  0.7546771E-02  0.8684367E-01
         11   -1    0    0    0    0  0.00000000000E+00  0.00000000000E+00  0.50000000000E+03  0.50000000000E+03  0.00000000000E+00 0. -1.
        -11   -1    0    0    0    0 -0.00000000000E+00 -0.00000000000E+00 -0.50000000000E+03  0.50000000000E+03  0.00000000000E+00 0.  1.
          5    1    1    2  501    0 -0.50350701913E+02  0.10174451799E+02  0.49733207955E+03  0.50000000000E+03  0.47000000000E+01 0. -1.
         -5    1    1    2    0  501  0.50350701913E+02 -0.10174451799E+02 -0.49733207955E+03  0.50000000000E+03  0.47000000000E+01 0.  1.
</event>
<event>
 4    1  0.4838534E-004  0.1000000E+04  0.7546771E-02  0.8684367E-01
         11   -1    0    0    0    0  0.00000000000E+00  0.00000000000E+00  0.50000000000E+03  0.50000000000E+03  0.00000000000E+00 0. -1.
        -11   -1    0    0    0    0 -0.00000000000E+00 -0.00000000000E+00 -0.50000000000E+03  0.50000000000E+03  0.00000000000E+00 0.  1.
          5    1    1    2  501    0  0.17886481406E+03 -0.33706663833E+03  0.32306558098E+03  0.50000000000E+03  0.47000000000E+01 0. -1.
         -5    1    1    2    0  501 -0.17886481406E+03  0.33706663833E+03 -0.32306558098E+03  0.50000000000E+03  0.47000000000E+01 0.  1.
</event>
<event>
 4    1  0.4838534E-004  0.1000000E+04  0.7546771E-02  0.8684367E-01
         11   -1    0    0    0    0  0.00000000000E+00  0.00000000000E+00  0.50000000000E+03  0.50000000000E+03  0.00000000000E+00 0. -1.
        -11   -1    0    0    0    0 -0.00000000000E+00 -0.00000000000E+00 -0.50000000000E+03  0.50000000000E+03  0.00000000000E+00 0.  1.
          5    1    1    2  501    0 -0.48312083459E+03 -0.53768202837E+02  0.11696644624E+03  0.50000000000E+03  0.47000000000E+01 0. -1.
         -5    1    1    2    0  501  0.48312083459E+03  0.53768202837E+02 -0.11696644624E+03  0.50000000000E+03  0.47000000000E+01 0.  1.
</event>
<event>
 4    1  0.4838534E-004  0.1000000E+04  0.7546771E-02  0.8684367E-01
         11   -1    0    0    0    0  0.00000000000E+00  0.00000000000E+00  0.50000000000E+03  0.50000000000E+03  0.00000000000E+00 0. -1.
        -11   -1    0    0    0    0 -0.00000000000E+00 -0.00000000000E+00 -0.50000000000E+03  0.50000000000E+03  0.00000000000E+00 0.  1.
          5    1    1    2  501    0  0.46621764776E+03 -0.56775705286E+02  0.17145125897E+03  0.50000000000E+03  0.47000000000E+01 0. -1.
         -5    1    1    2    0  501 -0.46621764776E+03  0.56775705286E+02 -0.17145125897E+03  0.50000000000E+03  0.47000000000E+01 0.  1.
</event>
<event>
 4    1  0.4838534E-004  0.1000000E+04  0.7546771E-02  0.8684367E-01
         11   -1    0    0    0    0  0.00000000000E+00  0.00000000000E+00  0.50000000000E+03  0.50000000000E+03  0.00000000000E+00 0. -1.
        -11   -1    0    0    0    0 -0.00000000000E+00 -0.00000000000E+00 -0.50000000000E+03  0.50000000000E+03  0.00000000000E+00 0.  1.
          5    1    1    2  501    0  0.28073064459E+03  0.41251939346E+03 -0.31558916460E+02  0.50000000000E+03  0.47000000000E+01 0. -1.
         -5    1    1    2    0  501 -0.28073064459E+03 -0.41251939346E+03  0.31558916460E+02  0.50000000000E+03  0.47000000000E+01 0.  1.
</event>
<event>
 4    1  0.4838534E-004  0.1000000E+04  0.7546771E-02  0.8684367E-01
         11   -1    0    0    0    0  0.00000000000E+00  0.00000000000E+00  0.50000000000E+03  0.50000000000E+03  0.00000000000E+00 0. -1.
        -11   -1    0    0    0    0 -0.00000000000E+00 -0.00000000000E+00 -0.50000000000E+03  0.50000000000E+03  0.00000000000E+00 0.  1.
          5    1    1    2  501    0  0.46085252509E+03 -0.13769665457E+03 -0.13650088439E+03  0.50000000000E+03  0.47000000000E+01 0. -1.
         -5    1    1    2    0  501 -0.46085252509E+03  0.13769665457E+03  0.13650088439E+03  0.50000000000E+03  0.47000000000E+01 0.  1.
</event>
<event>
 4    1  0.4838534E-004  0.1000000E+04  0.7546771E-02  0.8684367E-01
         11   -1    0    0    0    0  0.00000000000E+00  0.00000000000E+00  0.50000000000E+03  0.50000000000E+03  0.00000000000E+00 0. -1.
        -11   -1    0    0    0    0 -0.00000000000E+00 -0.00000000000E+00 -0.50000000000E+03  0.50000000000E+03  0.00000000000E+00 0.  1.
          5    1    1    2  501    0  0.30325299268E+03  0.35102409300E+03  0.18654119805E+03  0.50000000000E+03  0.47000000000E+01 0. -1.
         -5    1    1    2    0  501 -0.30325299268E+03 -0.35102409300E+03 -0.18654119805E+03  0.50000000000E+03  0.47000000000E+01 0.  1.
</event>
<event>
 4    1  0.4838534E-004  0.1000000E+04  0.7546771E-02  0.8684367E-01
         11   -1    0    0    0    0  0.00000000000E+00  0.00000000000E+00  0.50000000000E+03  0.50000000000E+03  0.00000000000E+00 0. -1.
        -11   -1    0    0    0    0 -0.00000000000E+00 -0.00000000000E+00 -0.50000000000E+03  0.50000000000E+03  0.00000000000E+00 0.  1.
          5    1    1    2  501    0 -0.17163614801E+03 -0.26874114019E+03  0.38509367986E+03  0.50000000000E+03  0.47000000000E+01 0. -1.
         -5    1    1    2    0  501  0.17163614801E+03  0.26874114019E+03 -0.38509367986E+03  0.50000000000E+03  0.47000000000E+01 0.  1.
</event>
<event>
 4    1  0.4838534E-004  0.1000000E+04  0.7546771E-02  0.8684367E-01
         11   -1    0    0    0    0  0.00000000000E+00  0.00000000000E+00  0.50000000000E+03  0.50000000000E+03  0.00000000000E+00 0. -1.
        -11   -1    0    0    0    0 -0.00000000000E+00 -0.00000000000E+00 -0.50000000000E+03  0.50000000000E+03  0.00000000000E+00 0.  1.
          5    1    1    2  501    0 -0.41101293355E+03  0.28355905144E+03 -0.25308947033E+02  0.50000000000E+03  0.47000000000E+01 0. -1.
         -5    1    1    2    0  501  0.41101293355E+03 -0.28355905144E+03  0.25308947033E+02  0.50000000000E+03  0.47000000000E+01 0.  1.
</event>
<event>
 4    1  0.4838534E-004  0.1000000E+04  0.7546771E-02  0.8684367E-01
         11   -1    0    0    0    0  0.00000000000E+00  0.00000000000E+00  0.50000000000E+03  0.50000000000E+03  0.00000000000E+00 0. -1.
        -11   -1    0    0    0    0 -0.00000000000E+00 -0.00000000000E+00 -0.50000000000E+03  0.50000000000E+03  0.00000000000E+00 0.  1.
          5    1    1    2  501    0  0.25589470662E+03 -0.14076723809E+03  0.40580832150E+03  0.50000000000E+03  0.47000000000E+01 0. -1.
         -5    1    1    2    0  501 -0.25589470662E+03  0.14076723809E+03 -0.40580832150E+03  0.50000000000E+03  0.47000000000E+01 0.  1.
</event>
<event>
 4    1  0.4838534E-004  0.1000000E+04  0.7546771E-02  0.8684367E-01
         11   -1    0    0    0    0  0.00000000000E+00  0.00000000000E+00  0.50000000000E+03  0.50000000000E+03  0.00000000000E+00 0.  1.
        -11   -1    0    0    0    0 -0.00000000000E+00 -0.00000000000E+00 -0.50000000000E+03  0.50000000000E+03  0.00000000000E+00 0. -1.
          5    1    1    2  501    0  0.41948202846E+02 -0.48393235319E+03 -0.11843874286E+03  0.50000000000E+03  0.47000000000E+01 0.  1.
         -5    1    1    2    0  501 -0.41948202846E+02  0.48393235319E+03  0.11843874286E+03  0.50000000000E+03  0.47000000000E+01 0. -1.
</event>
<event>
 4    1  0.4838534E-004  0.1000000E+04  0.7546771E-02  0.8684367E-01
         11   -1    0    0    0    0  0.00000000000E+00  0.00000000000E+00  0.50000000000E+03  0.50000000000E+03  0.00000000000E+00 0. -1.
        -11   -1    0    0    0    0 -0.00000000000E+00 -0.00000000000E+00 -0.50000000000E+03  0.50000000000E+03  0.00000000000E+00 0.  1.
          5    1    1    2  501    0  0.17754947028E+03  0.28316603038E+03 -0.37184821479E+03  0.50000000000E+03  0.47000000000E+01 0. -1.
         -5    1    1    2    0  501 -0.17754947028E+03 -0.28316603038E+03  0.37184821479E+03  0.50000000000E+03  0.47000000000E+01 0.  1.
</event>
<event>
 4    1  0.4838534E-004  0.1000000E+04  0.7546771E-02  0.8684367E-01
         11   -1    0    0    0    0  0.00000000000E+00  0.00000000000E+00  0.50000000000E+03  0.50000000000E+03  0.00000000000E+00 0. -1.
        -11   -1    0    0    0    0 -0.00000000000E+00 -0.00000000000E+00 -0.50000000000E+03  0.50000000000E+03  0.00000000000E+00 0.  1.
          5    1    1    2  501    0 -0.19450997714E+03 -0.27664787001E+03  0.36825227061E+03  0.50000000000E+03  0.47000000000E+01 0. -1.
         -5    1    1    2    0  501  0.19450997714E+03  0.27664787001E+03 -0.36825227061E+03  0.50000000000E+03  0.47000000000E+01 0.  1.
</event>
<event>
 4    1  0.4838534E-004  0.1000000E+04  0.7546771E-02  0.8684367E-01
         11   -1    0    0    0    0  0.00000000000E+00  0.00000000000E+00  0.50000000000E+03  0.50000000000E+03  0.00000000000E+00 0. -1.
        -11   -1    0    0    0    0 -0.00000000000E+00 -0.00000000000E+00 -0.50000000000E+03  0.50000000000E+03  0.00000000000E+00 0.  1.
          5    1    1    2  501    0 -0.19148429063E+03  0.69908466868E+02  0.45653530280E+03  0.50000000000E+03  0.47000000000E+01 0. -1.
         -5    1    1    2    0  501  0.19148429063E+03 -0.69908466868E+02 -0.45653530280E+03  0.50000000000E+03  0.47000000000E+01 0.  1.
</event>
<event>
 4    1  0.4838534E-004  0.1000000E+04  0.7546771E-02  0.8684367E-01
         11   -1    0    0    0    0  0.00000000000E+00  0.00000000000E+00  0.50000000000E+03  0.50000000000E+03  0.00000000000E+00 0. -1.
        -11   -1    0    0    0    0 -0.00000000000E+00 -0.00000000000E+00 -0.50000000000E+03  0.50000000000E+03  0.00000000000E+00 0.  1.
          5    1    1    2  501    0  0.16769315608E+01 -0.23934531214E+03  0.43896346028E+03  0.50000000000E+03  0.47000000000E+01 0. -1.
         -5    1    1    2    0  501 -0.16769315608E+01  0.23934531214E+03 -0.43896346028E+03  0.50000000000E+03  0.47000000000E+01 0.  1.
</event>
<event>
 4    1  0.4838534E-004  0.1000000E+04  0.7546771E-02  0.8684367E-01
         11   -1    0    0    0    0  0.00000000000E+00  0.00000000000E+00  0.50000000000E+03  0.50000000000E+03  0.00000000000E+00 0. -1.
        -11   -1    0    0    0    0 -0.00000000000E+00 -0.00000000000E+00 -0.50000000000E+03  0.50000000000E+03  0.00000000000E+00 0.  1.
          5    1    1    2  501    0 -0.29559342911E+03 -0.38852726568E+03  0.10793052621E+03  0.50000000000E+03  0.47000000000E+01 0. -1.
         -5    1    1    2    0  501  0.29559342911E+03  0.38852726568E+03 -0.10793052621E+03  0.50000000000E+03  0.47000000000E+01 0.  1.
</event>
<event>
 4    1  0.4838534E-004  0.1000000E+04  0.7546771E-02  0.8684367E-01
         11   -1    0    0    0    0  0.00000000000E+00  0.00000000000E+00  0.50000000000E+03  0.50000000000E+03  0.00000000000E+00 0. -1.
        -11   -1    0    0    0    0 -0.00000000000E+00 -0.00000000000E+00 -0.50000000000E+03  0.50000000000E+03  0.00000000000E+00 0.  1.
          5    1    1    2  501    0 -0.14518563992E+03  0.31801596569E+03  0.35744214291E+03  0.50000000000E+03  0.47000000000E+01 0. -1.
         -5    1    1    2    0  501  0.14518563992E+03 -0.31801596569E+03 -0.35744214291E+03  0.50000000000E+03  0.47000000000E+01 0.  1.
</event>
<event>
 4    1  0.4838534E-004  0.1000000E+04  0.7546771E-02  0.8684367E-01
         11   -1    0    0    0    0  0.00000000000E+00  0.00000000000E+00  0.50000000000E+03  0.50000000000E+03  0.00000000000E+00 0. -1.
        -11   -1    0    0    0    0 -0.00000000000E+00 -0.00000000000E+00 -0.50000000000E+03  0.50000000000E+03  0.00000000000E+00 0.  1.
          5    1    1    2  501    0  0.86840966315E+02 -0.34658037909E+03  0.34974075742E+03  0.50000000000E+03  0.47000000000E+01 0. -1.
         -5    1    1    2    0  501 -0.86840966315E+02  0.34658037909E+03 -0.34974075742E+03  0.50000000000E+03  0.47000000000E+01 0.  1.
</event>
<event>
 4    1  0.4838534E-004  0.1000000E+04  0.7546771E-02  0.8684367E-01
         11   -1    0    0    0    0  0.00000000000E+00  0.00000000000E+00  0.50000000000E+03  0.50000000000E+03  0.00000000000E+00 0. -1.
        -11   -1    0    0    0    0 -0.00000000000E+00 -0.00000000000E+00 -0.50000000000E+03  0.50000000000E+03  0.00000000000E+00 0.  1.
          5    1    1    2  501    0 -0.49811285886E+02 -0.53540842361E+01  0.49746163629E+03  0.50000000000E+03  0.47000000000E+01 0. -1.
         -5    1    1    2    0  501  0.49811285886E+02  0.53540842361E+01 -0.49746163629E+03  0.50000000000E+03  0.47000000000E+01 0.  1.
</event>
<event>
 4    1  0.4838534E-004  0.1000000E+04  0.7546771E-02  0.8684367E-01
         11   -1    0    0    0    0  0.00000000000E+00  0.00000000000E+00  0.50000000000E+03  0.50000000000E+03  0.00000000000E+00 0. -1.
        -11   -1    0    0    0    0 -0.00000000000E+00 -0.00000000000E+00 -0.50000000000E+03  0.50000000000E+03  0.00000000000E+00 0.  1.
          5    1    1    2  501    0 -0.29290343168E+03 -0.25189990080E+03  0.31738293856E+03  0.50000000000E+03  0.47000000000E+01 0. -1.
         -5    1    1    2    0  501  0.29290343168E+03  0.25189990080E+03 -0.31738293856E+03  0.50000000000E+03  0.47000000000E+01 0.  1.
</event>
<event>
 4    1  0.4838534E-004  0.1000000E+04  0.7546771E-02  0.8684367E-01
         11   -1    0    0    0    0  0.00000000000E+00  0.00000000000E+00  0.50000000000E+03  0.50000000000E+03  0.00000000000E+00 0.  1.
        -11   -1    0    0    0    0 -0.00000000000E+00 -0.00000000000E+00 -0.50000000000E+03  0.50000000000E+03  0.00000000000E+00 0. -1.
          5    1    1    2  501    0 -0.23261620321E+03  0.58310360428E+02  0.43871119643E+03  0.50000000000E+03  0.47000000000E+01 0.  1.
         -5    1    1    2    0  501  0.23261620321E+03 -0.58310360428E+02 -0.43871119643E+03  0.50000000000E+03  0.47000000000E+01 0. -1.
</event>
<event>
 4    1  0.4838534E-004  0.1000000E+04  0.7546771E-02  0.8684367E-01
         11   -1    0    0    0    0  0.00000000000E+00  0.00000000000E+00  0.50000000000E+03  0.50000000000E+03  0.00000000000E+00 0. -1.
        -11   -1    0    0    0    0 -0.00000000000E+00 -0.00000000000E+00 -0.50000000000E+03  0.50000000000E+03  0.00000000000E+00 0.  1.
          5    1    1    2  501    0  0.29316144297E+03 -0.33303599741E+03  0.23048059092E+03  0.50000000000E+03  0.47000000000E+01 0. -1.
         -5    1    1    2    0  501 -0.29316144297E+03  0.33303599741E+03 -0.23048059092E+03  0.50000000000E+03  0.47000000000E+01 0.  1.
</event>
<event>
 4    1  0.4838534E-004  0.1000000E+04  0.7546771E-02  0.8684367E-01
         11   -1    0    0    0    0  0.00000000000E+00  0.00000000000E+00  0.50000000000E+03  0.50000000000E+03  0.00000000000E+00 0. -1.
        -11   -1    0    0    0    0 -0.00000000000E+00 -0.00000000000E+00 -0.50000000000E+03  0.50000000000E+03  0.00000000000E+00 0.  1.
          5    1    1    2  501    0 -0.21209800876E+03  0.41862423584E+03  0.17247055938E+03  0.50000000000E+03  0.47000000000E+01 0. -1.
         -5    1    1    2    0  501  0.21209800876E+03 -0.41862423584E+03 -0.17247055938E+03  0.50000000000E+03  0.47000000000E+01 0.  1.
</event>
<event>
 4    1  0.4838534E-004  0.1000000E+04  0.7546771E-02  0.8684367E-01
         11   -1    0    0    0    0  0.00000000000E+00  0.00000000000E+00  0.50000000000E+03  0.50000000000E+03  0.00000000000E+00 0.  1.
        -11   -1    0    0    0    0 -0.00000000000E+00 -0.00000000000E+00 -0.50000000000E+03  0.50000000000E+03  0.00000000000E+00 0. -1.
          5    1    1    2  501    0 -0.51758438401E+02 -0.43920132921E+02  0.49534835821E+03  0.50000000000E+03  0.47000000000E+01 0.  1.
         -5    1    1    2    0  501  0.51758438401E+02  0.43920132921E+02 -0.49534835821E+03  0.50000000000E+03  0.47000000000E+01 0. -1.
</event>
<event>
 4    1  0.4838534E-004  0.1000000E+04  0.7546771E-02  0.8684367E-01
         11   -1    0    0    0    0  0.00000000000E+00  0.00000000000E+00  0.50000000000E+03  0.50000000000E+03  0.00000000000E+00 0. -1.
        -11   -1    0    0    0    0 -0.00000000000E+00 -0.00000000000E+00 -0.50000000000E+03  0.50000000000E+03  0.00000000000E+00 0.  1.
          5    1    1    2  501    0  0.33204892881E+01  0.49546259224E+03  0.66960466236E+02  0.50000000000E+03  0.47000000000E+01 0. -1.
         -5    1    1    2    0  501 -0.33204892881E+01 -0.49546259224E+03 -0.66960466236E+02  0.50000000000E+03  0.47000000000E+01 0.  1.
</event>
<event>
 4    1  0.4838534E-004  0.1000000E+04  0.7546771E-02  0.8684367E-01
         11   -1    0    0    0    0  0.00000000000E+00  0.00000000000E+00  0.50000000000E+03  0.50000000000E+03  0.00000000000E+00 0. -1.
        -11   -1    0    0    0    0 -0.00000000000E+00 -0.00000000000E+00 -0.50000000000E+03  0.50000000000E+03  0.00000000000E+00 0.  1.
          5    1    1    2  501    0  0.91870734296E+02 -0.48924413450E+03  0.46667494465E+02  0.50000000000E+03  0.47000000000E+01 0. -1.
         -5    1    1    2    0  501 -0.91870734296E+02  0.48924413450E+03 -0.46667494465E+02  0.50000000000E+03  0.47000000000E+01 0.  1.
</event>
<event>
 4    1  0.4838534E-004  0.1000000E+04  0.7546771E-02  0.8684367E-01
         11   -1    0    0    0    0  0.00000000000E+00  0.00000000000E+00  0.50000000000E+03  0.50000000000E+03  0.00000000000E+00 0. -1.
        -11   -1    0    0    0    0 -0.00000000000E+00 -0.00000000000E+00 -0.50000000000E+03  0.50000000000E+03  0.00000000000E+00 0.  1.
          5    1    1    2  501    0  0.34613476148E+03 -0.35504888480E+03  0.64100907166E+02  0.50000000000E+03  0.47000000000E+01 0. -1.
         -5    1    1    2    0  501 -0.34613476148E+03  0.35504888480E+03 -0.64100907166E+02  0.50000000000E+03  0.47000000000E+01 0.  1.
</event>
<event>
 4    1  0.4838534E-004  0.1000000E+04  0.7546771E-02  0.8684367E-01
         11   -1    0    0    0    0  0.00000000000E+00  0.00000000000E+00  0.50000000000E+03  0.50000000000E+03  0.00000000000E+00 0. -1.
        -11   -1    0    0    0    0 -0.00000000000E+00 -0.00000000000E+00 -0.50000000000E+03  0.50000000000E+03  0.00000000000E+00 0.  1.
          5    1    1    2  501    0  0.27317765357E+03 -0.41345069024E+03 -0.66410890113E+02  0.50000000000E+03  0.47000000000E+01 0. -1.
         -5    1    1    2    0  501 -0.27317765357E+03  0.41345069024E+03  0.66410890113E+02  0.50000000000E+03  0.47000000000E+01 0.  1.
</event>
<event>
 4    1  0.4838534E-004  0.1000000E+04  0.7546771E-02  0.8684367E-01
         11   -1    0    0    0    0  0.00000000000E+00  0.00000000000E+00  0.50000000000E+03  0.50000000000E+03  0.00000000000E+00 0.  1.
        -11   -1    0    0    0    0 -0.00000000000E+00 -0.00000000000E+00 -0.50000000000E+03  0.50000000000E+03  0.00000000000E+00 0. -1.
          5    1    1    2  501    0 -0.20448504865E+03 -0.44553001454E+03  0.98319789583E+02  0.50000000000E+03  0.47000000000E+01 0.  1.
         -5    1    1    2    0  501  0.20448504865E+03  0.44553001454E+03 -0.98319789583E+02  0.50000000000E+03  0.47000000000E+01 0. -1.
</event>
<event>
 4    1  0.4838534E-004  0.1000000E+04  0.7546771E-02  0.8684367E-01
         11   -1    0    0    0    0  0.00000000000E+00  0.00000000000E+00  0.50000000000E+03  0.50000000000E+03  0.00000000000E+00 0. -1.
        -11   -1    0    0    0    0 -0.00000000000E+00 -0.00000000000E+00 -0.50000000000E+03  0.50000000000E+03  0.00000000000E+00 0.  1.
          5    1    1    2  501    0  0.23485170016E+03 -0.27113449929E+03  0.34829394515E+03  0.50000000000E+03  0.47000000000E+01 0. -1.
         -5    1    1    2    0  501 -0.23485170016E+03  0.27113449929E+03 -0.34829394515E+03  0.50000000000E+03  0.47000000000E+01 0.  1.
</event>
<event>
 4    1  0.4838534E-004  0.1000000E+04  0.7546771E-02  0.8684367E-01
         11   -1    0    0    0    0  0.00000000000E+00  0.00000000000E+00  0.50000000000E+03  0.50000000000E+03  0.00000000000E+00 0. -1.
        -11   -1    0    0    0    0 -0.00000000000E+00 -0.00000000000E+00 -0.50000000000E+03  0.50000000000E+03  0.00000000000E+00 0.  1.
          5    1    1    2  501    0  0.26902539193E+03 -0.18962112543E+03  0.37636030249E+03  0.50000000000E+03  0.47000000000E+01 0. -1.
         -5    1    1    2    0  501 -0.26902539193E+03  0.18962112543E+03 -0.37636030249E+03  0.50000000000E+03  0.47000000000E+01 0.  1.
</event>
<event>
 4    1  0.4838534E-004  0.1000000E+04  0.7546771E-02  0.8684367E-01
         11   -1    0    0    0    0  0.00000000000E+00  0.00000000000E+00  0.50000000000E+03  0.50000000000E+03  0.00000000000E+00 0.  1.
        -11   -1    0    0    0    0 -0.00000000000E+00 -0.00000000000E+00 -0.50000000000E+03  0.50000000000E+03  0.00000000000E+00 0. -1.
          5    1    1    2  501    0  0.28751673494E+02 -0.20896528153E+03  0.45330427131E+03  0.50000000000E+03  0.47000000000E+01 0.  1.
         -5    1    1    2    0  501 -0.28751673494E+02  0.20896528153E+03 -0.45330427131E+03  0.50000000000E+03  0.47000000000E+01 0. -1.
</event>
<event>
 4    1  0.4838534E-004  0.1000000E+04  0.7546771E-02  0.8684367E-01
         11   -1    0    0    0    0  0.00000000000E+00  0.00000000000E+00  0.50000000000E+03  0.50000000000E+03  0.00000000000E+00 0. -1.
        -11   -1    0    0    0    0 -0.00000000000E+00 -0.00000000000E+00 -0.50000000000E+03  0.50000000000E+03  0.00000000000E+00 0.  1.
          5    1    1    2  501    0  0.73992309115E+02  0.36170481576E+03  0.33715378456E+03  0.50000000000E+03  0.47000000000E+01 0. -1.
         -5    1    1    2    0  501 -0.73992309115E+02 -0.36170481576E+03 -0.33715378456E+03  0.50000000000E+03  0.47000000000E+01 0.  1.
</event>
<event>
 4    1  0.4838534E-004  0.1000000E+04  0.7546771E-02  0.8684367E-01
         11   -1    0    0    0    0  0.00000000000E+00  0.00000000000E+00  0.50000000000E+03  0.50000000000E+03  0.00000000000E+00 0. -1.
        -11   -1    0    0    0    0 -0.00000000000E+00 -0.00000000000E+00 -0.50000000000E+03  0.50000000000E+03  0.00000000000E+00 0.  1.
          5    1    1    2  501    0  0.17470162297E+03  0.17853749280E+01  0.46845924622E+03  0.50000000000E+03  0.47000000000E+01 0. -1.
         -5    1    1    2    0  501 -0.17470162297E+03 -0.17853749280E+01 -0.46845924622E+03  0.50000000000E+03  0.47000000000E+01 0.  1.
</event>
<event>
 4    1  0.4838534E-004  0.1000000E+04  0.7546771E-02  0.8684367E-01
         11   -1    0    0    0    0  0.00000000000E+00  0.00000000000E+00  0.50000000000E+03  0.50000000000E+03  0.00000000000E+00 0.  1.
        -11   -1    0    0    0    0 -0.00000000000E+00 -0.00000000000E+00 -0.50000000000E+03  0.50000000000E+03  0.00000000000E+00 0. -1.
          5    1    1    2  501    0  0.27593978278E+03  0.29717620907E+03  0.29244050171E+03  0.50000000000E+03  0.47000000000E+01 0.  1.
         -5    1    1    2    0  501 -0.27593978278E+03 -0.29717620907E+03 -0.29244050171E+03  0.50000000000E+03  0.47000000000E+01 0. -1.
</event>
<event>
 4    1  0.4838534E-004  0.1000000E+04  0.7546771E-02  0.8684367E-01
         11   -1    0    0    0    0  0.00000000000E+00  0.00000000000E+00  0.50000000000E+03  0.50000000000E+03  0.00000000000E+00 0. -1.
        -11   -1    0    0    0    0 -0.00000000000E+00 -0.00000000000E+00 -0.50000000000E+03  0.50000000000E+03  0.00000000000E+00 0.  1.
          5    1    1    2  501    0  0.17464515452E+03 -0.42985971556E+03  0.18627293132E+03  0.50000000000E+03  0.47000000000E+01 0. -1.
         -5    1    1    2    0  501 -0.17464515452E+03  0.42985971556E+03 -0.18627293132E+03  0.50000000000E+03  0.47000000000E+01 0.  1.
</event>
<event>
 4    1  0.4838534E-004  0.1000000E+04  0.7546771E-02  0.8684367E-01
         11   -1    0    0    0    0  0.00000000000E+00  0.00000000000E+00  0.50000000000E+03  0.50000000000E+03  0.00000000000E+00 0. -1.
        -11   -1    0    0    0    0 -0.00000000000E+00 -0.00000000000E+00 -0.50000000000E+03  0.50000000000E+03  0.00000000000E+00 0.  1.
          5    1    1    2  501    0  0.25409064406E+03 -0.41890477293E+03  0.99672693421E+02  0.50000000000E+03  0.47000000000E+01 0. -1.
         -5    1    1    2    0  501 -0.25409064406E+03  0.41890477293E+03 -0.99672693421E+02  0.50000000000E+03  0.47000000000E+01 0.  1.
</event>
<event>
 4    1  0.4838534E-004  0.1000000E+04  0.7546771E-02  0.8684367E-01
         11   -1    0    0    0    0  0.00000000000E+00  0.00000000000E+00  0.50000000000E+03  0.50000000000E+03  0.00000000000E+00 0. -1.
        -11   -1    0    0    0    0 -0.00000000000E+00 -0.00000000000E+00 -0.50000000000E+03  0.50000000000E+03  0.00000000000E+00 0.  1.
          5    1    1    2  501    0 -0.32371464311E+03 -0.30156487069E+03  0.23290635157E+03  0.50000000000E+03  0.47000000000E+01 0. -1.
         -5    1    1    2    0  501  0.32371464311E+03  0.30156487069E+03 -0.23290635157E+03  0.50000000000E+03  0.47000000000E+01 0.  1.
</event>
<event>
 4    1  0.4838534E-004  0.1000000E+04  0.7546771E-02  0.8684367E-01
         11   -1    0    0    0    0  0.00000000000E+00  0.00000000000E+00  0.50000000000E+03  0.50000000000E+03  0.00000000000E+00 0. -1.
        -11   -1    0    0    0    0 -0.00000000000E+00 -0.00000000000E+00 -0.50000000000E+03  0.50000000000E+03  0.00000000000E+00 0.  1.
          5    1    1    2  501    0 -0.90045673669E+02 -0.23826377213E+03  0.43023256681E+03  0.50000000000E+03  0.47000000000E+01 0. -1.
         -5    1    1    2    0  501  0.90045673669E+02  0.23826377213E+03 -0.43023256681E+03  0.50000000000E+03  0.47000000000E+01 0.  1.
</event>
<event>
 4    1  0.4838534E-004  0.1000000E+04  0.7546771E-02  0.8684367E-01
         11   -1    0    0    0    0  0.00000000000E+00  0.00000000000E+00  0.50000000000E+03  0.50000000000E+03  0.00000000000E+00 0. -1.
        -11   -1    0    0    0    0 -0.00000000000E+00 -0.00000000000E+00 -0.50000000000E+03  0.50000000000E+03  0.00000000000E+00 0.  1.
          5    1    1    2  501    0 -0.87364922752E+02 -0.27601556137E+03  0.40762812729E+03  0.50000000000E+03  0.47000000000E+01 0. -1.
         -5    1    1    2    0  501  0.87364922752E+02  0.27601556137E+03 -0.40762812729E+03  0.50000000000E+03  0.47000000000E+01 0.  1.
</event>
<event>
 4    1  0.4838534E-004  0.1000000E+04  0.7546771E-02  0.8684367E-01
         11   -1    0    0    0    0  0.00000000000E+00  0.00000000000E+00  0.50000000000E+03  0.50000000000E+03  0.00000000000E+00 0. -1.
        -11   -1    0    0    0    0 -0.00000000000E+00 -0.00000000000E+00 -0.50000000000E+03  0.50000000000E+03  0.00000000000E+00 0.  1.
          5    1    1    2  501    0 -0.30182538307E+03  0.24253642673E+03  0.31631539616E+03  0.50000000000E+03  0.47000000000E+01 0. -1.
         -5    1    1    2    0  501  0.30182538307E+03 -0.24253642673E+03 -0.31631539616E+03  0.50000000000E+03  0.47000000000E+01 0.  1.
</event>
<event>
 4    1  0.4838534E-004  0.1000000E+04  0.7546771E-02  0.8684367E-01
         11   -1    0    0    0    0  0.00000000000E+00  0.00000000000E+00  0.50000000000E+03  0.50000000000E+03  0.00000000000E+00 0. -1.
        -11   -1    0    0    0    0 -0.00000000000E+00 -0.00000000000E+00 -0.50000000000E+03  0.50000000000E+03  0.00000000000E+00 0.  1.
          5    1    1    2  501    0  0.23012863090E+03  0.26533902816E+03  0.35582850276E+03  0.50000000000E+03  0.47000000000E+01 0. -1.
         -5    1    1    2    0  501 -0.23012863090E+03 -0.26533902816E+03 -0.35582850276E+03  0.50000000000E+03  0.47000000000E+01 0.  1.
</event>
<event>
 4    1  0.4838534E-004  0.1000000E+04  0.7546771E-02  0.8684367E-01
         11   -1    0    0    0    0  0.00000000000E+00  0.00000000000E+00  0.50000000000E+03  0.50000000000E+03  0.00000000000E+00 0. -1.
        -11   -1    0    0    0    0 -0.00000000000E+00 -0.00000000000E+00 -0.50000000000E+03  0.50000000000E+03  0.00000000000E+00 0.  1.
          5    1    1    2  501    0  0.27649540256E+03  0.82370906849E+01  0.41648571728E+03  0.50000000000E+03  0.47000000000E+01 0. -1.
         -5    1    1    2    0  501 -0.27649540256E+03 -0.82370906849E+01 -0.41648571728E+03  0.50000000000E+03  0.47000000000E+01 0.  1.
</event>
<event>
 4    1  0.4838534E-004  0.1000000E+04  0.7546771E-02  0.8684367E-01
         11   -1    0    0    0    0  0.00000000000E+00  0.00000000000E+00  0.50000000000E+03  0.50000000000E+03  0.00000000000E+00 0. -1.
        -11   -1    0    0    0    0 -0.00000000000E+00 -0.00000000000E+00 -0.50000000000E+03  0.50000000000E+03  0.00000000000E+00 0.  1.
          5    1    1    2  501    0 -0.22625650964E+03 -0.33426201187E+03  0.29505051985E+03  0.50000000000E+03  0.47000000000E+01 0. -1.
         -5    1    1    2    0  501  0.22625650964E+03  0.33426201187E+03 -0.29505051985E+03  0.50000000000E+03  0.47000000000E+01 0.  1.
</event>
<event>
 4    1  0.4838534E-004  0.1000000E+04  0.7546771E-02  0.8684367E-01
         11   -1    0    0    0    0  0.00000000000E+00  0.00000000000E+00  0.50000000000E+03  0.50000000000E+03  0.00000000000E+00 0. -1.
        -11   -1    0    0    0    0 -0.00000000000E+00 -0.00000000000E+00 -0.50000000000E+03  0.50000000000E+03  0.00000000000E+00 0.  1.
          5    1    1    2  501    0  0.37203139964E+03 -0.39034347171E+01  0.33399896838E+03  0.50000000000E+03  0.47000000000E+01 0. -1.
         -5    1    1    2    0  501 -0.37203139964E+03  0.39034347171E+01 -0.33399896838E+03  0.50000000000E+03  0.47000000000E+01 0.  1.
</event>
<event>
 4    1  0.4838534E-004  0.1000000E+04  0.7546771E-02  0.8684367E-01
         11   -1    0    0    0    0  0.00000000000E+00  0.00000000000E+00  0.50000000000E+03  0.50000000000E+03  0.00000000000E+00 0. -1.
        -11   -1    0    0    0    0 -0.00000000000E+00 -0.00000000000E+00 -0.50000000000E+03  0.50000000000E+03  0.00000000000E+00 0.  1.
          5    1    1    2  501    0 -0.24983901725E+03  0.41359731358E+03  0.12843534428E+03  0.50000000000E+03  0.47000000000E+01 0. -1.
         -5    1    1    2    0  501  0.24983901725E+03 -0.41359731358E+03 -0.12843534428E+03  0.50000000000E+03  0.47000000000E+01 0.  1.
</event>
<event>
 4    1  0.4838534E-004  0.1000000E+04  0.7546771E-02  0.8684367E-01
         11   -1    0    0    0    0  0.00000000000E+00  0.00000000000E+00  0.50000000000E+03  0.50000000000E+03  0.00000000000E+00 0. -1.
        -11   -1    0    0    0    0 -0.00000000000E+00 -0.00000000000E+00 -0.50000000000E+03  0.50000000000E+03  0.00000000000E+00 0.  1.
          5    1    1    2  501    0  0.42280155447E+03  0.19467592747E+03  0.18253229523E+03  0.50000000000E+03  0.47000000000E+01 0. -1.
         -5    1    1    2    0  501 -0.42280155447E+03 -0.19467592747E+03 -0.18253229523E+03  0.50000000000E+03  0.47000000000E+01 0.  1.
</event>
<event>
 4    1  0.4838534E-004  0.1000000E+04  0.7546771E-02  0.8684367E-01
         11   -1    0    0    0    0  0.00000000000E+00  0.00000000000E+00  0.50000000000E+03  0.50000000000E+03  0.00000000000E+00 0. -1.
        -11   -1    0    0    0    0 -0.00000000000E+00 -0.00000000000E+00 -0.50000000000E+03  0.50000000000E+03  0.00000000000E+00 0.  1.
          5    1    1    2  501    0  0.63697788872E+02 -0.19886997377E+03  0.45428100909E+03  0.50000000000E+03  0.47000000000E+01 0. -1.
         -5    1    1    2    0  501 -0.63697788872E+02  0.19886997377E+03 -0.45428100909E+03  0.50000000000E+03  0.47000000000E+01 0.  1.
</event>
<event>
 4    1  0.4838534E-004  0.1000000E+04  0.7546771E-02  0.8684367E-01
         11   -1    0    0    0    0  0.00000000000E+00  0.00000000000E+00  0.50000000000E+03  0.50000000000E+03  0.00000000000E+00 0. -1.
        -11   -1    0    0    0    0 -0.00000000000E+00 -0.00000000000E+00 -0.50000000000E+03  0.50000000000E+03  0.00000000000E+00 0.  1.
          5    1    1    2  501    0 -0.16665965230E+03  0.16379943144E+03  0.44200929465E+03  0.50000000000E+03  0.47000000000E+01 0. -1.
         -5    1    1    2    0  501  0.16665965230E+03 -0.16379943144E+03 -0.44200929465E+03  0.50000000000E+03  0.47000000000E+01 0.  1.
</event>
<event>
 4    1  0.4838534E-004  0.1000000E+04  0.7546771E-02  0.8684367E-01
         11   -1    0    0    0    0  0.00000000000E+00  0.00000000000E+00  0.50000000000E+03  0.50000000000E+03  0.00000000000E+00 0.  1.
        -11   -1    0    0    0    0 -0.00000000000E+00 -0.00000000000E+00 -0.50000000000E+03  0.50000000000E+03  0.00000000000E+00 0. -1.
          5    1    1    2  501    0 -0.43501587754E+03 -0.74999942155E+01  0.24633888523E+03  0.50000000000E+03  0.47000000000E+01 0.  1.
         -5    1    1    2    0  501  0.43501587754E+03  0.74999942155E+01 -0.24633888523E+03  0.50000000000E+03  0.47000000000E+01 0. -1.
</event>
<event>
 4    1  0.4838534E-004  0.1000000E+04  0.7546771E-02  0.8684367E-01
         11   -1    0    0    0    0  0.00000000000E+00  0.00000000000E+00  0.50000000000E+03  0.50000000000E+03  0.00000000000E+00 0.  1.
        -11   -1    0    0    0    0 -0.00000000000E+00 -0.00000000000E+00 -0.50000000000E+03  0.50000000000E+03  0.00000000000E+00 0. -1.
          5    1    1    2  501    0 -0.48387489602E+03  0.84954945172E+02  0.92874389858E+02  0.50000000000E+03  0.47000000000E+01 0.  1.
         -5    1    1    2    0  501  0.48387489602E+03 -0.84954945172E+02 -0.92874389858E+02  0.50000000000E+03  0.47000000000E+01 0. -1.
</event>
<event>
 4    1  0.4838534E-004  0.1000000E+04  0.7546771E-02  0.8684367E-01
         11   -1    0    0    0    0  0.00000000000E+00  0.00000000000E+00  0.50000000000E+03  0.50000000000E+03  0.00000000000E+00 0. -1.
        -11   -1    0    0    0    0 -0.00000000000E+00 -0.00000000000E+00 -0.50000000000E+03  0.50000000000E+03  0.00000000000E+00 0.  1.
          5    1    1    2  501    0  0.37427285059E+03  0.56663386875E+01  0.33145985567E+03  0.50000000000E+03  0.47000000000E+01 0. -1.
         -5    1    1    2    0  501 -0.37427285059E+03 -0.56663386875E+01 -0.33145985567E+03  0.50000000000E+03  0.47000000000E+01 0.  1.
</event>
<event>
 4    1  0.4838534E-004  0.1000000E+04  0.7546771E-02  0.8684367E-01
         11   -1    0    0    0    0  0.00000000000E+00  0.00000000000E+00  0.50000000000E+03  0.50000000000E+03  0.00000000000E+00 0. -1.
        -11   -1    0    0    0    0 -0.00000000000E+00 -0.00000000000E+00 -0.50000000000E+03  0.50000000000E+03  0.00000000000E+00 0.  1.
          5    1    1    2  501    0 -0.17219978210E+03 -0.46637074359E+03 -0.53136377047E+02  0.50000000000E+03  0.47000000000E+01 0. -1.
         -5    1    1    2    0  501  0.17219978210E+03  0.46637074359E+03  0.53136377047E+02  0.50000000000E+03  0.47000000000E+01 0.  1.
</event>
<event>
 4    1  0.4838534E-004  0.1000000E+04  0.7546771E-02  0.8684367E-01
         11   -1    0    0    0    0  0.00000000000E+00  0.00000000000E+00  0.50000000000E+03  0.50000000000E+03  0.00000000000E+00 0. -1.
        -11   -1    0    0    0    0 -0.00000000000E+00 -0.00000000000E+00 -0.50000000000E+03  0.50000000000E+03  0.00000000000E+00 0.  1.
          5    1    1    2  501    0  0.27957916595E+03  0.39099204798E+03  0.13761765286E+03  0.50000000000E+03  0.47000000000E+01 0. -1.
         -5    1    1    2    0  501 -0.27957916595E+03 -0.39099204798E+03 -0.13761765286E+03  0.50000000000E+03  0.47000000000E+01 0.  1.
</event>
<event>
 4    1  0.4838534E-004  0.1000000E+04  0.7546771E-02  0.8684367E-01
         11   -1    0    0    0    0  0.00000000000E+00  0.00000000000E+00  0.50000000000E+03  0.50000000000E+03  0.00000000000E+00 0. -1.
        -11   -1    0    0    0    0 -0.00000000000E+00 -0.00000000000E+00 -0.50000000000E+03  0.50000000000E+03  0.00000000000E+00 0.  1.
          5    1    1    2  501    0  0.43191781227E+03 -0.15689350650E+03  0.19700086565E+03  0.50000000000E+03  0.47000000000E+01 0. -1.
         -5    1    1    2    0  501 -0.43191781227E+03  0.15689350650E+03 -0.19700086565E+03  0.50000000000E+03  0.47000000000E+01 0.  1.
</event>
<event>
 4    1  0.4838534E-004  0.1000000E+04  0.7546771E-02  0.8684367E-01
         11   -1    0    0    0    0  0.00000000000E+00  0.00000000000E+00  0.50000000000E+03  0.50000000000E+03  0.00000000000E+00 0. -1.
        -11   -1    0    0    0    0 -0.00000000000E+00 -0.00000000000E+00 -0.50000000000E+03  0.50000000000E+03  0.00000000000E+00 0.  1.
          5    1    1    2  501    0 -0.35564241470E+03  0.24630339910E+03  0.25066116264E+03  0.50000000000E+03  0.47000000000E+01 0. -1.
         -5    1    1    2    0  501  0.35564241470E+03 -0.24630339910E+03 -0.25066116264E+03  0.50000000000E+03  0.47000000000E+01 0.  1.
</event>
<event>
 4    1  0.4838534E-004  0.1000000E+04  0.7546771E-02  0.8684367E-01
         11   -1    0    0    0    0  0.00000000000E+00  0.00000000000E+00  0.50000000000E+03  0.50000000000E+03  0.00000000000E+00 0.  1.
        -11   -1    0    0    0    0 -0.00000000000E+00 -0.00000000000E+00 -0.50000000000E+03  0.50000000000E+03  0.00000000000E+00 0. -1.
          5    1    1    2  501    0  0.22517080827E+03 -0.16732316499E+03  0.41385864201E+03  0.50000000000E+03  0.47000000000E+01 0.  1.
         -5    1    1    2    0  501 -0.22517080827E+03  0.16732316499E+03 -0.41385864201E+03  0.50000000000E+03  0.47000000000E+01 0. -1.
</event>
<event>
 4    1  0.4838534E-004  0.1000000E+04  0.7546771E-02  0.8684367E-01
         11   -1    0    0    0    0  0.00000000000E+00  0.00000000000E+00  0.50000000000E+03  0.50000000000E+03  0.00000000000E+00 0. -1.
        -11   -1    0    0    0    0 -0.00000000000E+00 -0.00000000000E+00 -0.50000000000E+03  0.50000000000E+03  0.00000000000E+00 0.  1.
          5    1    1    2  501    0  0.38160809471E+03 -0.10174583699E+03  0.30659575455E+03  0.50000000000E+03  0.47000000000E+01 0. -1.
         -5    1    1    2    0  501 -0.38160809471E+03  0.10174583699E+03 -0.30659575455E+03  0.50000000000E+03  0.47000000000E+01 0.  1.
</event>
<event>
 4    1  0.4838534E-004  0.1000000E+04  0.7546771E-02  0.8684367E-01
         11   -1    0    0    0    0  0.00000000000E+00  0.00000000000E+00  0.50000000000E+03  0.50000000000E+03  0.00000000000E+00 0.  1.
        -11   -1    0    0    0    0 -0.00000000000E+00 -0.00000000000E+00 -0.50000000000E+03  0.50000000000E+03  0.00000000000E+00 0. -1.
          5    1    1    2  501    0  0.27025014571E+03  0.16331409071E+03  0.38764839291E+03  0.50000000000E+03  0.47000000000E+01 0.  1.
         -5    1    1    2    0  501 -0.27025014571E+03 -0.16331409071E+03 -0.38764839291E+03  0.50000000000E+03  0.47000000000E+01 0. -1.
</event>
<event>
 4    1  0.4838534E-004  0.1000000E+04  0.7546771E-02  0.8684367E-01
         11   -1    0    0    0    0  0.00000000000E+00  0.00000000000E+00  0.50000000000E+03  0.50000000000E+03  0.00000000000E+00 0. -1.
        -11   -1    0    0    0    0 -0.00000000000E+00 -0.00000000000E+00 -0.50000000000E+03  0.50000000000E+03  0.00000000000E+00 0.  1.
          5    1    1    2  501    0 -0.29811867307E+03 -0.37857009672E+03  0.13337109370E+03  0.50000000000E+03  0.47000000000E+01 0. -1.
         -5    1    1    2    0  501  0.29811867307E+03  0.37857009672E+03 -0.13337109370E+03  0.50000000000E+03  0.47000000000E+01 0.  1.
</event>
<event>
 4    1  0.4838534E-004  0.1000000E+04  0.7546771E-02  0.8684367E-01
         11   -1    0    0    0    0  0.00000000000E+00  0.00000000000E+00  0.50000000000E+03  0.50000000000E+03  0.00000000000E+00 0. -1.
        -11   -1    0    0    0    0 -0.00000000000E+00 -0.00000000000E+00 -0.50000000000E+03  0.50000000000E+03  0.00000000000E+00 0.  1.
          5    1    1    2  501    0 -0.45327592074E+02 -0.49696022568E+03 -0.30884518520E+02  0.50000000000E+03  0.47000000000E+01 0. -1.
         -5    1    1    2    0  501  0.45327592074E+02  0.49696022568E+03  0.30884518520E+02  0.50000000000E+03  0.47000000000E+01 0.  1.
</event>
<event>
 4    1  0.4838534E-004  0.1000000E+04  0.7546771E-02  0.8684367E-01
         11   -1    0    0    0    0  0.00000000000E+00  0.00000000000E+00  0.50000000000E+03  0.50000000000E+03  0.00000000000E+00 0. -1.
        -11   -1    0    0    0    0 -0.00000000000E+00 -0.00000000000E+00 -0.50000000000E+03  0.50000000000E+03  0.00000000000E+00 0.  1.
          5    1    1    2  501    0 -0.19159914776E+03 -0.43903832260E+03 -0.14322369868E+03  0.50000000000E+03  0.47000000000E+01 0. -1.
         -5    1    1    2    0  501  0.19159914776E+03  0.43903832260E+03  0.14322369868E+03  0.50000000000E+03  0.47000000000E+01 0.  1.
</event>
<event>
 4    1  0.4838534E-004  0.1000000E+04  0.7546771E-02  0.8684367E-01
         11   -1    0    0    0    0  0.00000000000E+00  0.00000000000E+00  0.50000000000E+03  0.50000000000E+03  0.00000000000E+00 0. -1.
        -11   -1    0    0    0    0 -0.00000000000E+00 -0.00000000000E+00 -0.50000000000E+03  0.50000000000E+03  0.00000000000E+00 0.  1.
          5    1    1    2  501    0  0.26208547582E+03 -0.24733794868E+03  0.34657330034E+03  0.50000000000E+03  0.47000000000E+01 0. -1.
         -5    1    1    2    0  501 -0.26208547582E+03  0.24733794868E+03 -0.34657330034E+03  0.50000000000E+03  0.47000000000E+01 0.  1.
</event>
<event>
 4    1  0.4838534E-004  0.1000000E+04  0.7546771E-02  0.8684367E-01
         11   -1    0    0    0    0  0.00000000000E+00  0.00000000000E+00  0.50000000000E+03  0.50000000000E+03  0.00000000000E+00 0. -1.
        -11   -1    0    0    0    0 -0.00000000000E+00 -0.00000000000E+00 -0.50000000000E+03  0.50000000000E+03  0.00000000000E+00 0.  1.
          5    1    1    2  501    0  0.36777329456E+03  0.32203912776E+03  0.10493576128E+03  0.50000000000E+03  0.47000000000E+01 0. -1.
         -5    1    1    2    0  501 -0.36777329456E+03 -0.32203912776E+03 -0.10493576128E+03  0.50000000000E+03  0.47000000000E+01 0.  1.
</event>
<event>
 4    1  0.4838534E-004  0.1000000E+04  0.7546771E-02  0.8684367E-01
         11   -1    0    0    0    0  0.00000000000E+00  0.00000000000E+00  0.50000000000E+03  0.50000000000E+03  0.00000000000E+00 0. -1.
        -11   -1    0    0    0    0 -0.00000000000E+00 -0.00000000000E+00 -0.50000000000E+03  0.50000000000E+03  0.00000000000E+00 0.  1.
          5    1    1    2  501    0  0.23659856807E+03 -0.17005500552E+03  0.40630077859E+03  0.50000000000E+03  0.47000000000E+01 0. -1.
         -5    1    1    2    0  501 -0.23659856807E+03  0.17005500552E+03 -0.40630077859E+03  0.50000000000E+03  0.47000000000E+01 0.  1.
</event>
<event>
 4    1  0.4838534E-004  0.1000000E+04  0.7546771E-02  0.8684367E-01
         11   -1    0    0    0    0  0.00000000000E+00  0.00000000000E+00  0.50000000000E+03  0.50000000000E+03  0.00000000000E+00 0. -1.
        -11   -1    0    0    0    0 -0.00000000000E+00 -0.00000000000E+00 -0.50000000000E+03  0.50000000000E+03  0.00000000000E+00 0.  1.
          5    1    1    2  501    0  0.19896606027E+03  0.43314499648E+03  0.15091662890E+03  0.50000000000E+03  0.47000000000E+01 0. -1.
         -5    1    1    2    0  501 -0.19896606027E+03 -0.43314499648E+03 -0.15091662890E+03  0.50000000000E+03  0.47000000000E+01 0.  1.
</event>
<event>
 4    1  0.4838534E-004  0.1000000E+04  0.7546771E-02  0.8684367E-01
         11   -1    0    0    0    0  0.00000000000E+00  0.00000000000E+00  0.50000000000E+03  0.50000000000E+03  0.00000000000E+00 0. -1.
        -11   -1    0    0    0    0 -0.00000000000E+00 -0.00000000000E+00 -0.50000000000E+03  0.50000000000E+03  0.00000000000E+00 0.  1.
          5    1    1    2  501    0 -0.33215928139E+03  0.12442460231E+03  0.35237287087E+03  0.50000000000E+03  0.47000000000E+01 0. -1.
         -5    1    1    2    0  501  0.33215928139E+03 -0.12442460231E+03 -0.35237287087E+03  0.50000000000E+03  0.47000000000E+01 0.  1.
</event>
<event>
 4    1  0.4838534E-004  0.1000000E+04  0.7546771E-02  0.8684367E-01
         11   -1    0    0    0    0  0.00000000000E+00  0.00000000000E+00  0.50000000000E+03  0.50000000000E+03  0.00000000000E+00 0. -1.
        -11   -1    0    0    0    0 -0.00000000000E+00 -0.00000000000E+00 -0.50000000000E+03  0.50000000000E+03  0.00000000000E+00 0.  1.
          5    1    1    2  501    0 -0.15602590736E+03  0.26945791324E+03  0.39118570938E+03  0.50000000000E+03  0.47000000000E+01 0. -1.
         -5    1    1    2    0  501  0.15602590736E+03 -0.26945791324E+03 -0.39118570938E+03  0.50000000000E+03  0.47000000000E+01 0.  1.
</event>
<event>
 4    1  0.4838534E-004  0.1000000E+04  0.7546771E-02  0.8684367E-01
         11   -1    0    0    0    0  0.00000000000E+00  0.00000000000E+00  0.50000000000E+03  0.50000000000E+03  0.00000000000E+00 0. -1.
        -11   -1    0    0    0    0 -0.00000000000E+00 -0.00000000000E+00 -0.50000000000E+03  0.50000000000E+03  0.00000000000E+00 0.  1.
          5    1    1    2  501    0  0.96179295442E+02 -0.38693722612E+03  0.30167372470E+03  0.50000000000E+03  0.47000000000E+01 0. -1.
         -5    1    1    2    0  501 -0.96179295442E+02  0.38693722612E+03 -0.30167372470E+03  0.50000000000E+03  0.47000000000E+01 0.  1.
</event>
<event>
 4    1  0.4838534E-004  0.1000000E+04  0.7546771E-02  0.8684367E-01
         11   -1    0    0    0    0  0.00000000000E+00  0.00000000000E+00  0.50000000000E+03  0.50000000000E+03  0.00000000000E+00 0. -1.
        -11   -1    0    0    0    0 -0.00000000000E+00 -0.00000000000E+00 -0.50000000000E+03  0.50000000000E+03  0.00000000000E+00 0.  1.
          5    1    1    2  501    0  0.36726545023E+03 -0.13370312448E+02  0.33899149519E+03  0.50000000000E+03  0.47000000000E+01 0. -1.
         -5    1    1    2    0  501 -0.36726545023E+03  0.13370312448E+02 -0.33899149519E+03  0.50000000000E+03  0.47000000000E+01 0.  1.
</event>
<event>
 4    1  0.4838534E-004  0.1000000E+04  0.7546771E-02  0.8684367E-01
         11   -1    0    0    0    0  0.00000000000E+00  0.00000000000E+00  0.50000000000E+03  0.50000000000E+03  0.00000000000E+00 0.  1.
        -11   -1    0    0    0    0 -0.00000000000E+00 -0.00000000000E+00 -0.50000000000E+03  0.50000000000E+03  0.00000000000E+00 0. -1.
          5    1    1    2  501    0  0.20109329734E+03 -0.40527586765E+03  0.21281650984E+03  0.50000000000E+03  0.47000000000E+01 0. -1.
         -5    1    1    2    0  501 -0.20109329734E+03  0.40527586765E+03 -0.21281650984E+03  0.50000000000E+03  0.47000000000E+01 0.  1.
</event>
<event>
 4    1  0.4838534E-004  0.1000000E+04  0.7546771E-02  0.8684367E-01
         11   -1    0    0    0    0  0.00000000000E+00  0.00000000000E+00  0.50000000000E+03  0.50000000000E+03  0.00000000000E+00 0. -1.
        -11   -1    0    0    0    0 -0.00000000000E+00 -0.00000000000E+00 -0.50000000000E+03  0.50000000000E+03  0.00000000000E+00 0.  1.
          5    1    1    2  501    0  0.30395651747E+03 -0.51616997670E+02  0.39360390120E+03  0.50000000000E+03  0.47000000000E+01 0. -1.
         -5    1    1    2    0  501 -0.30395651747E+03  0.51616997670E+02 -0.39360390120E+03  0.50000000000E+03  0.47000000000E+01 0.  1.
</event>
<event>
 4    1  0.4838534E-004  0.1000000E+04  0.7546771E-02  0.8684367E-01
         11   -1    0    0    0    0  0.00000000000E+00  0.00000000000E+00  0.50000000000E+03  0.50000000000E+03  0.00000000000E+00 0. -1.
        -11   -1    0    0    0    0 -0.00000000000E+00 -0.00000000000E+00 -0.50000000000E+03  0.50000000000E+03  0.00000000000E+00 0.  1.
          5    1    1    2  501    0  0.38645960385E+03 -0.26576836697E+03  0.17318793177E+03  0.50000000000E+03  0.47000000000E+01 0. -1.
         -5    1    1    2    0  501 -0.38645960385E+03  0.26576836697E+03 -0.17318793177E+03  0.50000000000E+03  0.47000000000E+01 0.  1.
</event>
<event>
 4    1  0.4838534E-004  0.1000000E+04  0.7546771E-02  0.8684367E-01
         11   -1    0    0    0    0  0.00000000000E+00  0.00000000000E+00  0.50000000000E+03  0.50000000000E+03  0.00000000000E+00 0. -1.
        -11   -1    0    0    0    0 -0.00000000000E+00 -0.00000000000E+00 -0.50000000000E+03  0.50000000000E+03  0.00000000000E+00 0.  1.
          5    1    1    2  501    0 -0.10084537323E+03  0.23838382185E+03  0.42776310521E+03  0.50000000000E+03  0.47000000000E+01 0. -1.
         -5    1    1    2    0  501  0.10084537323E+03 -0.23838382185E+03 -0.42776310521E+03  0.50000000000E+03  0.47000000000E+01 0.  1.
</event>
<event>
 4    1  0.4838534E-004  0.1000000E+04  0.7546771E-02  0.8684367E-01
         11   -1    0    0    0    0  0.00000000000E+00  0.00000000000E+00  0.50000000000E+03  0.50000000000E+03  0.00000000000E+00 0. -1.
        -11   -1    0    0    0    0 -0.00000000000E+00 -0.00000000000E+00 -0.50000000000E+03  0.50000000000E+03  0.00000000000E+00 0.  1.
          5    1    1    2  501    0  0.10902205761E+03 -0.29766126899E+03  0.38663919860E+03  0.50000000000E+03  0.47000000000E+01 0. -1.
         -5    1    1    2    0  501 -0.10902205761E+03  0.29766126899E+03 -0.38663919860E+03  0.50000000000E+03  0.47000000000E+01 0.  1.
</event>
<event>
 4    1  0.4838534E-004  0.1000000E+04  0.7546771E-02  0.8684367E-01
         11   -1    0    0    0    0  0.00000000000E+00  0.00000000000E+00  0.50000000000E+03  0.50000000000E+03  0.00000000000E+00 0. -1.
        -11   -1    0    0    0    0 -0.00000000000E+00 -0.00000000000E+00 -0.50000000000E+03  0.50000000000E+03  0.00000000000E+00 0.  1.
          5    1    1    2  501    0 -0.12505466225E+03  0.43313115352E+03  0.21618659834E+03  0.50000000000E+03  0.47000000000E+01 0. -1.
         -5    1    1    2    0  501  0.12505466225E+03 -0.43313115352E+03 -0.21618659834E+03  0.50000000000E+03  0.47000000000E+01 0.  1.
</event>
<event>
 4    1  0.4838534E-004  0.1000000E+04  0.7546771E-02  0.8684367E-01
         11   -1    0    0    0    0  0.00000000000E+00  0.00000000000E+00  0.50000000000E+03  0.50000000000E+03  0.00000000000E+00 0. -1.
        -11   -1    0    0    0    0 -0.00000000000E+00 -0.00000000000E+00 -0.50000000000E+03  0.50000000000E+03  0.00000000000E+00 0.  1.
          5    1    1    2  501    0 -0.47019472590E+03  0.10016979466E+03  0.13733478063E+03  0.50000000000E+03  0.47000000000E+01 0. -1.
         -5    1    1    2    0  501  0.47019472590E+03 -0.10016979466E+03 -0.13733478063E+03  0.50000000000E+03  0.47000000000E+01 0.  1.
</event>
<event>
 4    1  0.4838534E-004  0.1000000E+04  0.7546771E-02  0.8684367E-01
         11   -1    0    0    0    0  0.00000000000E+00  0.00000000000E+00  0.50000000000E+03  0.50000000000E+03  0.00000000000E+00 0. -1.
        -11   -1    0    0    0    0 -0.00000000000E+00 -0.00000000000E+00 -0.50000000000E+03  0.50000000000E+03  0.00000000000E+00 0.  1.
          5    1    1    2  501    0  0.29819011077E+03 -0.27309905961E+03  0.29407052127E+03  0.50000000000E+03  0.47000000000E+01 0. -1.
         -5    1    1    2    0  501 -0.29819011077E+03  0.27309905961E+03 -0.29407052127E+03  0.50000000000E+03  0.47000000000E+01 0.  1.
</event>
<event>
 4    1  0.4838534E-004  0.1000000E+04  0.7546771E-02  0.8684367E-01
         11   -1    0    0    0    0  0.00000000000E+00  0.00000000000E+00  0.50000000000E+03  0.50000000000E+03  0.00000000000E+00 0. -1.
        -11   -1    0    0    0    0 -0.00000000000E+00 -0.00000000000E+00 -0.50000000000E+03  0.50000000000E+03  0.00000000000E+00 0.  1.
          5    1    1    2  501    0  0.18714184765E+03 -0.35494821289E+03  0.29827437876E+03  0.50000000000E+03  0.47000000000E+01 0. -1.
         -5    1    1    2    0  501 -0.18714184765E+03  0.35494821289E+03 -0.29827437876E+03  0.50000000000E+03  0.47000000000E+01 0.  1.
</event>
<event>
 4    1  0.4838534E-004  0.1000000E+04  0.7546771E-02  0.8684367E-01
         11   -1    0    0    0    0  0.00000000000E+00  0.00000000000E+00  0.50000000000E+03  0.50000000000E+03  0.00000000000E+00 0. -1.
        -11   -1    0    0    0    0 -0.00000000000E+00 -0.00000000000E+00 -0.50000000000E+03  0.50000000000E+03  0.00000000000E+00 0.  1.
          5    1    1    2  501    0  0.34524271159E+03  0.35397963916E+03 -0.74052651263E+02  0.50000000000E+03  0.47000000000E+01 0.  1.
         -5    1    1    2    0  501 -0.34524271159E+03 -0.35397963916E+03  0.74052651263E+02  0.50000000000E+03  0.47000000000E+01 0. -1.
</event>
<event>
 4    1  0.4838534E-004  0.1000000E+04  0.7546771E-02  0.8684367E-01
         11   -1    0    0    0    0  0.00000000000E+00  0.00000000000E+00  0.50000000000E+03  0.50000000000E+03  0.00000000000E+00 0. -1.
        -11   -1    0    0    0    0 -0.00000000000E+00 -0.00000000000E+00 -0.50000000000E+03  0.50000000000E+03  0.00000000000E+00 0.  1.
          5    1    1    2  501    0  0.44839388294E+03  0.85361642189E+02  0.20404466616E+03  0.50000000000E+03  0.47000000000E+01 0. -1.
         -5    1    1    2    0  501 -0.44839388294E+03 -0.85361642189E+02 -0.20404466616E+03  0.50000000000E+03  0.47000000000E+01 0.  1.
</event>
<event>
 4    1  0.4838534E-004  0.1000000E+04  0.7546771E-02  0.8684367E-01
         11   -1    0    0    0    0  0.00000000000E+00  0.00000000000E+00  0.50000000000E+03  0.50000000000E+03  0.00000000000E+00 0. -1.
        -11   -1    0    0    0    0 -0.00000000000E+00 -0.00000000000E+00 -0.50000000000E+03  0.50000000000E+03  0.00000000000E+00 0.  1.
          5    1    1    2  501    0 -0.12464757644E+03  0.24743725308E+03 -0.41619189982E+03  0.50000000000E+03  0.47000000000E+01 0.  1.
         -5    1    1    2    0  501  0.12464757644E+03 -0.24743725308E+03  0.41619189982E+03  0.50000000000E+03  0.47000000000E+01 0. -1.
</event>
<event>
 4    1  0.4838534E-004  0.1000000E+04  0.7546771E-02  0.8684367E-01
         11   -1    0    0    0    0  0.00000000000E+00  0.00000000000E+00  0.50000000000E+03  0.50000000000E+03  0.00000000000E+00 0.  1.
        -11   -1    0    0    0    0 -0.00000000000E+00 -0.00000000000E+00 -0.50000000000E+03  0.50000000000E+03  0.00000000000E+00 0. -1.
          5    1    1    2  501    0  0.27130887547E+03  0.28021032567E+02  0.41902771486E+03  0.50000000000E+03  0.47000000000E+01 0.  1.
         -5    1    1    2    0  501 -0.27130887547E+03 -0.28021032567E+02 -0.41902771486E+03  0.50000000000E+03  0.47000000000E+01 0. -1.
</event>
<event>
 4    1  0.4838534E-004  0.1000000E+04  0.7546771E-02  0.8684367E-01
         11   -1    0    0    0    0  0.00000000000E+00  0.00000000000E+00  0.50000000000E+03  0.50000000000E+03  0.00000000000E+00 0.  1.
        -11   -1    0    0    0    0 -0.00000000000E+00 -0.00000000000E+00 -0.50000000000E+03  0.50000000000E+03  0.00000000000E+00 0. -1.
          5    1    1    2  501    0  0.41672319618E+03  0.27164578763E+03 -0.50281744451E+02  0.50000000000E+03  0.47000000000E+01 0.  1.
         -5    1    1    2    0  501 -0.41672319618E+03 -0.27164578763E+03  0.50281744451E+02  0.50000000000E+03  0.47000000000E+01 0. -1.
</event>
<event>
 4    1  0.4838534E-004  0.1000000E+04  0.7546771E-02  0.8684367E-01
         11   -1    0    0    0    0  0.00000000000E+00  0.00000000000E+00  0.50000000000E+03  0.50000000000E+03  0.00000000000E+00 0. -1.
        -11   -1    0    0    0    0 -0.00000000000E+00 -0.00000000000E+00 -0.50000000000E+03  0.50000000000E+03  0.00000000000E+00 0.  1.
          5    1    1    2  501    0 -0.32012575889E+03  0.23316585221E+03  0.30517387480E+03  0.50000000000E+03  0.47000000000E+01 0. -1.
         -5    1    1    2    0  501  0.32012575889E+03 -0.23316585221E+03 -0.30517387480E+03  0.50000000000E+03  0.47000000000E+01 0.  1.
</event>
<event>
 4    1  0.4838534E-004  0.1000000E+04  0.7546771E-02  0.8684367E-01
         11   -1    0    0    0    0  0.00000000000E+00  0.00000000000E+00  0.50000000000E+03  0.50000000000E+03  0.00000000000E+00 0. -1.
        -11   -1    0    0    0    0 -0.00000000000E+00 -0.00000000000E+00 -0.50000000000E+03  0.50000000000E+03  0.00000000000E+00 0.  1.
          5    1    1    2  501    0 -0.30327487227E+03  0.39468642045E+03  0.47168754087E+02  0.50000000000E+03  0.47000000000E+01 0. -1.
         -5    1    1    2    0  501  0.30327487227E+03 -0.39468642045E+03 -0.47168754087E+02  0.50000000000E+03  0.47000000000E+01 0.  1.
</event>
<event>
 4    1  0.4838534E-004  0.1000000E+04  0.7546771E-02  0.8684367E-01
         11   -1    0    0    0    0  0.00000000000E+00  0.00000000000E+00  0.50000000000E+03  0.50000000000E+03  0.00000000000E+00 0. -1.
        -11   -1    0    0    0    0 -0.00000000000E+00 -0.00000000000E+00 -0.50000000000E+03  0.50000000000E+03  0.00000000000E+00 0.  1.
          5    1    1    2  501    0  0.38580817268E+03  0.31929034526E+02 -0.31640243464E+03  0.50000000000E+03  0.47000000000E+01 0. -1.
         -5    1    1    2    0  501 -0.38580817268E+03 -0.31929034526E+02  0.31640243464E+03  0.50000000000E+03  0.47000000000E+01 0.  1.
</event>
<event>
 4    1  0.4838534E-004  0.1000000E+04  0.7546771E-02  0.8684367E-01
         11   -1    0    0    0    0  0.00000000000E+00  0.00000000000E+00  0.50000000000E+03  0.50000000000E+03  0.00000000000E+00 0.  1.
        -11   -1    0    0    0    0 -0.00000000000E+00 -0.00000000000E+00 -0.50000000000E+03  0.50000000000E+03  0.00000000000E+00 0. -1.
          5    1    1    2  501    0 -0.12002197331E+03  0.44967791325E+03  0.18265379892E+03  0.50000000000E+03  0.47000000000E+01 0.  1.
         -5    1    1    2    0  501  0.12002197331E+03 -0.44967791325E+03 -0.18265379892E+03  0.50000000000E+03  0.47000000000E+01 0. -1.
</event>
<event>
 4    1  0.4838534E-004  0.1000000E+04  0.7546771E-02  0.8684367E-01
         11   -1    0    0    0    0  0.00000000000E+00  0.00000000000E+00  0.50000000000E+03  0.50000000000E+03  0.00000000000E+00 0. -1.
        -11   -1    0    0    0    0 -0.00000000000E+00 -0.00000000000E+00 -0.50000000000E+03  0.50000000000E+03  0.00000000000E+00 0.  1.
          5    1    1    2  501    0 -0.25025987227E+03 -0.33552948099E+03  0.27343714766E+03  0.50000000000E+03  0.47000000000E+01 0. -1.
         -5    1    1    2    0  501  0.25025987227E+03  0.33552948099E+03 -0.27343714766E+03  0.50000000000E+03  0.47000000000E+01 0.  1.
</event>
<event>
 4    1  0.4838534E-004  0.1000000E+04  0.7546771E-02  0.8684367E-01
         11   -1    0    0    0    0  0.00000000000E+00  0.00000000000E+00  0.50000000000E+03  0.50000000000E+03  0.00000000000E+00 0. -1.
        -11   -1    0    0    0    0 -0.00000000000E+00 -0.00000000000E+00 -0.50000000000E+03  0.50000000000E+03  0.00000000000E+00 0.  1.
          5    1    1    2  501    0 -0.18955404496E+03  0.30393052061E+03  0.34881716225E+03  0.50000000000E+03  0.47000000000E+01 0. -1.
         -5    1    1    2    0  501  0.18955404496E+03 -0.30393052061E+03 -0.34881716225E+03  0.50000000000E+03  0.47000000000E+01 0.  1.
</event>
<event>
 4    1  0.4838534E-004  0.1000000E+04  0.7546771E-02  0.8684367E-01
         11   -1    0    0    0    0  0.00000000000E+00  0.00000000000E+00  0.50000000000E+03  0.50000000000E+03  0.00000000000E+00 0. -1.
        -11   -1    0    0    0    0 -0.00000000000E+00 -0.00000000000E+00 -0.50000000000E+03  0.50000000000E+03  0.00000000000E+00 0.  1.
          5    1    1    2  501    0  0.27441037886E+03 -0.33586557833E+03  0.24873915507E+03  0.50000000000E+03  0.47000000000E+01 0. -1.
         -5    1    1    2    0  501 -0.27441037886E+03  0.33586557833E+03 -0.24873915507E+03  0.50000000000E+03  0.47000000000E+01 0.  1.
</event>
<event>
 4    1  0.4838534E-004  0.1000000E+04  0.7546771E-02  0.8684367E-01
         11   -1    0    0    0    0  0.00000000000E+00  0.00000000000E+00  0.50000000000E+03  0.50000000000E+03  0.00000000000E+00 0. -1.
        -11   -1    0    0    0    0 -0.00000000000E+00 -0.00000000000E+00 -0.50000000000E+03  0.50000000000E+03  0.00000000000E+00 0.  1.
          5    1    1    2  501    0  0.27929867961E+03 -0.12468848122E+03 -0.39550340102E+03  0.50000000000E+03  0.47000000000E+01 0. -1.
         -5    1    1    2    0  501 -0.27929867961E+03  0.12468848122E+03  0.39550340102E+03  0.50000000000E+03  0.47000000000E+01 0.  1.
</event>
<event>
 4    1  0.4838534E-004  0.1000000E+04  0.7546771E-02  0.8684367E-01
         11   -1    0    0    0    0  0.00000000000E+00  0.00000000000E+00  0.50000000000E+03  0.50000000000E+03  0.00000000000E+00 0.  1.
        -11   -1    0    0    0    0 -0.00000000000E+00 -0.00000000000E+00 -0.50000000000E+03  0.50000000000E+03  0.00000000000E+00 0. -1.
          5    1    1    2  501    0  0.11909183554E+02  0.18977495767E+03  0.46240841989E+03  0.50000000000E+03  0.47000000000E+01 0.  1.
         -5    1    1    2    0  501 -0.11909183554E+02 -0.18977495767E+03 -0.46240841989E+03  0.50000000000E+03  0.47000000000E+01 0. -1.
</event>
<event>
 4    1  0.4838534E-004  0.1000000E+04  0.7546771E-02  0.8684367E-01
         11   -1    0    0    0    0  0.00000000000E+00  0.00000000000E+00  0.50000000000E+03  0.50000000000E+03  0.00000000000E+00 0. -1.
        -11   -1    0    0    0    0 -0.00000000000E+00 -0.00000000000E+00 -0.50000000000E+03  0.50000000000E+03  0.00000000000E+00 0.  1.
          5    1    1    2  501    0 -0.19521821921E+03 -0.15004357463E+03  0.43514903493E+03  0.50000000000E+03  0.47000000000E+01 0. -1.
         -5    1    1    2    0  501  0.19521821921E+03  0.15004357463E+03 -0.43514903493E+03  0.50000000000E+03  0.47000000000E+01 0.  1.
</event>
<event>
 4    1  0.4838534E-004  0.1000000E+04  0.7546771E-02  0.8684367E-01
         11   -1    0    0    0    0  0.00000000000E+00  0.00000000000E+00  0.50000000000E+03  0.50000000000E+03  0.00000000000E+00 0. -1.
        -11   -1    0    0    0    0 -0.00000000000E+00 -0.00000000000E+00 -0.50000000000E+03  0.50000000000E+03  0.00000000000E+00 0.  1.
          5    1    1    2  501    0 -0.17673121764E+03 -0.73418069916E+02  0.46190234219E+03  0.50000000000E+03  0.47000000000E+01 0. -1.
         -5    1    1    2    0  501  0.17673121764E+03  0.73418069916E+02 -0.46190234219E+03  0.50000000000E+03  0.47000000000E+01 0.  1.
</event>
<event>
 4    1  0.4838534E-004  0.1000000E+04  0.7546771E-02  0.8684367E-01
         11   -1    0    0    0    0  0.00000000000E+00  0.00000000000E+00  0.50000000000E+03  0.50000000000E+03  0.00000000000E+00 0.  1.
        -11   -1    0    0    0    0 -0.00000000000E+00 -0.00000000000E+00 -0.50000000000E+03  0.50000000000E+03  0.00000000000E+00 0. -1.
          5    1    1    2  501    0  0.33530917511E+03 -0.36072032931E+03 -0.86177207578E+02  0.50000000000E+03  0.47000000000E+01 0. -1.
         -5    1    1    2    0  501 -0.33530917511E+03  0.36072032931E+03  0.86177207578E+02  0.50000000000E+03  0.47000000000E+01 0.  1.
</event>
<event>
 4    1  0.4838534E-004  0.1000000E+04  0.7546771E-02  0.8684367E-01
         11   -1    0    0    0    0  0.00000000000E+00  0.00000000000E+00  0.50000000000E+03  0.50000000000E+03  0.00000000000E+00 0. -1.
        -11   -1    0    0    0    0 -0.00000000000E+00 -0.00000000000E+00 -0.50000000000E+03  0.50000000000E+03  0.00000000000E+00 0.  1.
          5    1    1    2  501    0  0.88547340345E+02 -0.47821607780E+03 -0.11595974067E+03  0.50000000000E+03  0.47000000000E+01 0. -1.
         -5    1    1    2    0  501 -0.88547340345E+02  0.47821607780E+03  0.11595974067E+03  0.50000000000E+03  0.47000000000E+01 0.  1.
</event>
<event>
 4    1  0.4838534E-004  0.1000000E+04  0.7546771E-02  0.8684367E-01
         11   -1    0    0    0    0  0.00000000000E+00  0.00000000000E+00  0.50000000000E+03  0.50000000000E+03  0.00000000000E+00 0. -1.
        -11   -1    0    0    0    0 -0.00000000000E+00 -0.00000000000E+00 -0.50000000000E+03  0.50000000000E+03  0.00000000000E+00 0.  1.
          5    1    1    2  501    0  0.16513808230E+03  0.19415464225E+02  0.47151920801E+03  0.50000000000E+03  0.47000000000E+01 0. -1.
         -5    1    1    2    0  501 -0.16513808230E+03 -0.19415464225E+02 -0.47151920801E+03  0.50000000000E+03  0.47000000000E+01 0.  1.
</event>
<event>
 4    1  0.4838534E-004  0.1000000E+04  0.7546771E-02  0.8684367E-01
         11   -1    0    0    0    0  0.00000000000E+00  0.00000000000E+00  0.50000000000E+03  0.50000000000E+03  0.00000000000E+00 0.  1.
        -11   -1    0    0    0    0 -0.00000000000E+00 -0.00000000000E+00 -0.50000000000E+03  0.50000000000E+03  0.00000000000E+00 0. -1.
          5    1    1    2  501    0  0.11649168794E+03  0.42311434003E+03  0.23954509367E+03  0.50000000000E+03  0.47000000000E+01 0.  1.
         -5    1    1    2    0  501 -0.11649168794E+03 -0.42311434003E+03 -0.23954509367E+03  0.50000000000E+03  0.47000000000E+01 0. -1.
</event>
<event>
 4    1  0.4838534E-004  0.1000000E+04  0.7546771E-02  0.8684367E-01
         11   -1    0    0    0    0  0.00000000000E+00  0.00000000000E+00  0.50000000000E+03  0.50000000000E+03  0.00000000000E+00 0. -1.
        -11   -1    0    0    0    0 -0.00000000000E+00 -0.00000000000E+00 -0.50000000000E+03  0.50000000000E+03  0.00000000000E+00 0.  1.
          5    1    1    2  501    0 -0.29891379382E+03  0.39031039824E+03  0.91028824515E+02  0.50000000000E+03  0.47000000000E+01 0. -1.
         -5    1    1    2    0  501  0.29891379382E+03 -0.39031039824E+03 -0.91028824515E+02  0.50000000000E+03  0.47000000000E+01 0.  1.
</event>
<event>
 4    1  0.4838534E-004  0.1000000E+04  0.7546771E-02  0.8684367E-01
         11   -1    0    0    0    0  0.00000000000E+00  0.00000000000E+00  0.50000000000E+03  0.50000000000E+03  0.00000000000E+00 0. -1.
        -11   -1    0    0    0    0 -0.00000000000E+00 -0.00000000000E+00 -0.50000000000E+03  0.50000000000E+03  0.00000000000E+00 0.  1.
          5    1    1    2  501    0  0.30841609611E+03 -0.26958601079E+03  0.28667194569E+03  0.50000000000E+03  0.47000000000E+01 0. -1.
         -5    1    1    2    0  501 -0.30841609611E+03  0.26958601079E+03 -0.28667194569E+03  0.50000000000E+03  0.47000000000E+01 0.  1.
</event>
<event>
 4    1  0.4838534E-004  0.1000000E+04  0.7546771E-02  0.8684367E-01
         11   -1    0    0    0    0  0.00000000000E+00  0.00000000000E+00  0.50000000000E+03  0.50000000000E+03  0.00000000000E+00 0. -1.
        -11   -1    0    0    0    0 -0.00000000000E+00 -0.00000000000E+00 -0.50000000000E+03  0.50000000000E+03  0.00000000000E+00 0.  1.
          5    1    1    2  501    0 -0.31249063913E+03 -0.10706074410E+03  0.37532053971E+03  0.50000000000E+03  0.47000000000E+01 0. -1.
         -5    1    1    2    0  501  0.31249063913E+03  0.10706074410E+03 -0.37532053971E+03  0.50000000000E+03  0.47000000000E+01 0.  1.
</event>
<event>
 4    1  0.4838534E-004  0.1000000E+04  0.7546771E-02  0.8684367E-01
         11   -1    0    0    0    0  0.00000000000E+00  0.00000000000E+00  0.50000000000E+03  0.50000000000E+03  0.00000000000E+00 0. -1.
        -11   -1    0    0    0    0 -0.00000000000E+00 -0.00000000000E+00 -0.50000000000E+03  0.50000000000E+03  0.00000000000E+00 0.  1.
          5    1    1    2  501    0 -0.39201911803E+03 -0.20334265929E+03 -0.23441562237E+03  0.50000000000E+03  0.47000000000E+01 0. -1.
         -5    1    1    2    0  501  0.39201911803E+03  0.20334265929E+03  0.23441562237E+03  0.50000000000E+03  0.47000000000E+01 0.  1.
</event>
<event>
 4    1  0.4838534E-004  0.1000000E+04  0.7546771E-02  0.8684367E-01
         11   -1    0    0    0    0  0.00000000000E+00  0.00000000000E+00  0.50000000000E+03  0.50000000000E+03  0.00000000000E+00 0. -1.
        -11   -1    0    0    0    0 -0.00000000000E+00 -0.00000000000E+00 -0.50000000000E+03  0.50000000000E+03  0.00000000000E+00 0.  1.
          5    1    1    2  501    0 -0.36423847353E+03  0.29087909152E+03  0.18082477296E+03  0.50000000000E+03  0.47000000000E+01 0.  1.
         -5    1    1    2    0  501  0.36423847353E+03 -0.29087909152E+03 -0.18082477296E+03  0.50000000000E+03  0.47000000000E+01 0. -1.
</event>
<event>
 4    1  0.4838534E-004  0.1000000E+04  0.7546771E-02  0.8684367E-01
         11   -1    0    0    0    0  0.00000000000E+00  0.00000000000E+00  0.50000000000E+03  0.50000000000E+03  0.00000000000E+00 0. -1.
        -11   -1    0    0    0    0 -0.00000000000E+00 -0.00000000000E+00 -0.50000000000E+03  0.50000000000E+03  0.00000000000E+00 0.  1.
          5    1    1    2  501    0  0.16975482308E+03 -0.74736310933E+02  0.46430129643E+03  0.50000000000E+03  0.47000000000E+01 0. -1.
         -5    1    1    2    0  501 -0.16975482308E+03  0.74736310933E+02 -0.46430129643E+03  0.50000000000E+03  0.47000000000E+01 0.  1.
</event>
<event>
 4    1  0.4838534E-004  0.1000000E+04  0.7546771E-02  0.8684367E-01
         11   -1    0    0    0    0  0.00000000000E+00  0.00000000000E+00  0.50000000000E+03  0.50000000000E+03  0.00000000000E+00 0. -1.
        -11   -1    0    0    0    0 -0.00000000000E+00 -0.00000000000E+00 -0.50000000000E+03  0.50000000000E+03  0.00000000000E+00 0.  1.
          5    1    1    2  501    0 -0.43882037623E+02  0.21783841249E+02  0.49757184510E+03  0.50000000000E+03  0.47000000000E+01 0. -1.
         -5    1    1    2    0  501  0.43882037623E+02 -0.21783841249E+02 -0.49757184510E+03  0.50000000000E+03  0.47000000000E+01 0.  1.
</event>
<event>
 4    1  0.4838534E-004  0.1000000E+04  0.7546771E-02  0.8684367E-01
         11   -1    0    0    0    0  0.00000000000E+00  0.00000000000E+00  0.50000000000E+03  0.50000000000E+03  0.00000000000E+00 0.  1.
        -11   -1    0    0    0    0 -0.00000000000E+00 -0.00000000000E+00 -0.50000000000E+03  0.50000000000E+03  0.00000000000E+00 0. -1.
          5    1    1    2  501    0 -0.89924973492E+02  0.17801047633E+03  0.45847974815E+03  0.50000000000E+03  0.47000000000E+01 0.  1.
         -5    1    1    2    0  501  0.89924973492E+02 -0.17801047633E+03 -0.45847974815E+03  0.50000000000E+03  0.47000000000E+01 0. -1.
</event>
<event>
 4    1  0.4838534E-004  0.1000000E+04  0.7546771E-02  0.8684367E-01
         11   -1    0    0    0    0  0.00000000000E+00  0.00000000000E+00  0.50000000000E+03  0.50000000000E+03  0.00000000000E+00 0. -1.
        -11   -1    0    0    0    0 -0.00000000000E+00 -0.00000000000E+00 -0.50000000000E+03  0.50000000000E+03  0.00000000000E+00 0.  1.
          5    1    1    2  501    0  0.47942679866E+03  0.97581604543E+02  0.10298390737E+03  0.50000000000E+03  0.47000000000E+01 0. -1.
         -5    1    1    2    0  501 -0.47942679866E+03 -0.97581604543E+02 -0.10298390737E+03  0.50000000000E+03  0.47000000000E+01 0.  1.
</event>
<event>
 4    1  0.4838534E-004  0.1000000E+04  0.7546771E-02  0.8684367E-01
         11   -1    0    0    0    0  0.00000000000E+00  0.00000000000E+00  0.50000000000E+03  0.50000000000E+03  0.00000000000E+00 0.  1.
        -11   -1    0    0    0    0 -0.00000000000E+00 -0.00000000000E+00 -0.50000000000E+03  0.50000000000E+03  0.00000000000E+00 0. -1.
          5    1    1    2  501    0  0.49511892438E+02  0.40168405686E+03 -0.29355817307E+03  0.50000000000E+03  0.47000000000E+01 0. -1.
         -5    1    1    2    0  501 -0.49511892438E+02 -0.40168405686E+03  0.29355817307E+03  0.50000000000E+03  0.47000000000E+01 0.  1.
</event>
<event>
 4    1  0.4838534E-004  0.1000000E+04  0.7546771E-02  0.8684367E-01
         11   -1    0    0    0    0  0.00000000000E+00  0.00000000000E+00  0.50000000000E+03  0.50000000000E+03  0.00000000000E+00 0.  1.
        -11   -1    0    0    0    0 -0.00000000000E+00 -0.00000000000E+00 -0.50000000000E+03  0.50000000000E+03  0.00000000000E+00 0. -1.
          5    1    1    2  501    0  0.38065029704E+03  0.32404982995E+03 -0.86584684828E+01  0.50000000000E+03  0.47000000000E+01 0.  1.
         -5    1    1    2    0  501 -0.38065029704E+03 -0.32404982995E+03  0.86584684828E+01  0.50000000000E+03  0.47000000000E+01 0. -1.
</event>
<event>
 4    1  0.4838534E-004  0.1000000E+04  0.7546771E-02  0.8684367E-01
         11   -1    0    0    0    0  0.00000000000E+00  0.00000000000E+00  0.50000000000E+03  0.50000000000E+03  0.00000000000E+00 0. -1.
        -11   -1    0    0    0    0 -0.00000000000E+00 -0.00000000000E+00 -0.50000000000E+03  0.50000000000E+03  0.00000000000E+00 0.  1.
          5    1    1    2  501    0 -0.29361376400E+02 -0.49199228540E+03 -0.84020299245E+02  0.50000000000E+03  0.47000000000E+01 0. -1.
         -5    1    1    2    0  501  0.29361376400E+02  0.49199228540E+03  0.84020299245E+02  0.50000000000E+03  0.47000000000E+01 0.  1.
</event>
<event>
 4    1  0.4838534E-004  0.1000000E+04  0.7546771E-02  0.8684367E-01
         11   -1    0    0    0    0  0.00000000000E+00  0.00000000000E+00  0.50000000000E+03  0.50000000000E+03  0.00000000000E+00 0. -1.
        -11   -1    0    0    0    0 -0.00000000000E+00 -0.00000000000E+00 -0.50000000000E+03  0.50000000000E+03  0.00000000000E+00 0.  1.
          5    1    1    2  501    0  0.18026240867E+03 -0.46603376158E+03  0.17201950216E+02  0.50000000000E+03  0.47000000000E+01 0. -1.
         -5    1    1    2    0  501 -0.18026240867E+03  0.46603376158E+03 -0.17201950216E+02  0.50000000000E+03  0.47000000000E+01 0.  1.
</event>
<event>
 4    1  0.4838534E-004  0.1000000E+04  0.7546771E-02  0.8684367E-01
         11   -1    0    0    0    0  0.00000000000E+00  0.00000000000E+00  0.50000000000E+03  0.50000000000E+03  0.00000000000E+00 0. -1.
        -11   -1    0    0    0    0 -0.00000000000E+00 -0.00000000000E+00 -0.50000000000E+03  0.50000000000E+03  0.00000000000E+00 0.  1.
          5    1    1    2  501    0 -0.68854414067E+02  0.16830071802E+03  0.46573796064E+03  0.50000000000E+03  0.47000000000E+01 0. -1.
         -5    1    1    2    0  501  0.68854414067E+02 -0.16830071802E+03 -0.46573796064E+03  0.50000000000E+03  0.47000000000E+01 0.  1.
</event>
<event>
 4    1  0.4838534E-004  0.1000000E+04  0.7546771E-02  0.8684367E-01
         11   -1    0    0    0    0  0.00000000000E+00  0.00000000000E+00  0.50000000000E+03  0.50000000000E+03  0.00000000000E+00 0. -1.
        -11   -1    0    0    0    0 -0.00000000000E+00 -0.00000000000E+00 -0.50000000000E+03  0.50000000000E+03  0.00000000000E+00 0.  1.
          5    1    1    2  501    0  0.27275309044E+03 -0.33567858723E+03  0.25080579684E+03  0.50000000000E+03  0.47000000000E+01 0. -1.
         -5    1    1    2    0  501 -0.27275309044E+03  0.33567858723E+03 -0.25080579684E+03  0.50000000000E+03  0.47000000000E+01 0.  1.
</event>
<event>
 4    1  0.4838534E-004  0.1000000E+04  0.7546771E-02  0.8684367E-01
         11   -1    0    0    0    0  0.00000000000E+00  0.00000000000E+00  0.50000000000E+03  0.50000000000E+03  0.00000000000E+00 0. -1.
        -11   -1    0    0    0    0 -0.00000000000E+00 -0.00000000000E+00 -0.50000000000E+03  0.50000000000E+03  0.00000000000E+00 0.  1.
          5    1    1    2  501    0 -0.20120186636E+03 -0.35178359628E+03  0.29282079906E+03  0.50000000000E+03  0.47000000000E+01 0. -1.
         -5    1    1    2    0  501  0.20120186636E+03  0.35178359628E+03 -0.29282079906E+03  0.50000000000E+03  0.47000000000E+01 0.  1.
</event>
<event>
 4    1  0.4838534E-004  0.1000000E+04  0.7546771E-02  0.8684367E-01
         11   -1    0    0    0    0  0.00000000000E+00  0.00000000000E+00  0.50000000000E+03  0.50000000000E+03  0.00000000000E+00 0. -1.
        -11   -1    0    0    0    0 -0.00000000000E+00 -0.00000000000E+00 -0.50000000000E+03  0.50000000000E+03  0.00000000000E+00 0.  1.
          5    1    1    2  501    0 -0.12728915830E+03 -0.18214126822E+03  0.44788384498E+03  0.50000000000E+03  0.47000000000E+01 0. -1.
         -5    1    1    2    0  501  0.12728915830E+03  0.18214126822E+03 -0.44788384498E+03  0.50000000000E+03  0.47000000000E+01 0.  1.
</event>
<event>
 4    1  0.4838534E-004  0.1000000E+04  0.7546771E-02  0.8684367E-01
         11   -1    0    0    0    0  0.00000000000E+00  0.00000000000E+00  0.50000000000E+03  0.50000000000E+03  0.00000000000E+00 0.  1.
        -11   -1    0    0    0    0 -0.00000000000E+00 -0.00000000000E+00 -0.50000000000E+03  0.50000000000E+03  0.00000000000E+00 0. -1.
          5    1    1    2  501    0 -0.16037756108E+03  0.12307877539E+03 -0.45728389754E+03  0.50000000000E+03  0.47000000000E+01 0. -1.
         -5    1    1    2    0  501  0.16037756108E+03 -0.12307877539E+03  0.45728389754E+03  0.50000000000E+03  0.47000000000E+01 0.  1.
</event>
<event>
 4    1  0.4838534E-004  0.1000000E+04  0.7546771E-02  0.8684367E-01
         11   -1    0    0    0    0  0.00000000000E+00  0.00000000000E+00  0.50000000000E+03  0.50000000000E+03  0.00000000000E+00 0. -1.
        -11   -1    0    0    0    0 -0.00000000000E+00 -0.00000000000E+00 -0.50000000000E+03  0.50000000000E+03  0.00000000000E+00 0.  1.
          5    1    1    2  501    0 -0.42381795981E+03  0.23201340884E+03  0.12855358830E+03  0.50000000000E+03  0.47000000000E+01 0. -1.
         -5    1    1    2    0  501  0.42381795981E+03 -0.23201340884E+03 -0.12855358830E+03  0.50000000000E+03  0.47000000000E+01 0.  1.
</event>
<event>
 4    1  0.4838534E-004  0.1000000E+04  0.7546771E-02  0.8684367E-01
         11   -1    0    0    0    0  0.00000000000E+00  0.00000000000E+00  0.50000000000E+03  0.50000000000E+03  0.00000000000E+00 0. -1.
        -11   -1    0    0    0    0 -0.00000000000E+00 -0.00000000000E+00 -0.50000000000E+03  0.50000000000E+03  0.00000000000E+00 0.  1.
          5    1    1    2  501    0 -0.14901542350E+03  0.44264852830E+03  0.17842251526E+03  0.50000000000E+03  0.47000000000E+01 0. -1.
         -5    1    1    2    0  501  0.14901542350E+03 -0.44264852830E+03 -0.17842251526E+03  0.50000000000E+03  0.47000000000E+01 0.  1.
</event>
<event>
 4    1  0.4838534E-004  0.1000000E+04  0.7546771E-02  0.8684367E-01
         11   -1    0    0    0    0  0.00000000000E+00  0.00000000000E+00  0.50000000000E+03  0.50000000000E+03  0.00000000000E+00 0.  1.
        -11   -1    0    0    0    0 -0.00000000000E+00 -0.00000000000E+00 -0.50000000000E+03  0.50000000000E+03  0.00000000000E+00 0. -1.
          5    1    1    2  501    0 -0.19693847330E+02  0.46962525448E+03  0.17041767141E+03  0.50000000000E+03  0.47000000000E+01 0.  1.
         -5    1    1    2    0  501  0.19693847330E+02 -0.46962525448E+03 -0.17041767141E+03  0.50000000000E+03  0.47000000000E+01 0. -1.
</event>
<event>
 4    1  0.4838534E-004  0.1000000E+04  0.7546771E-02  0.8684367E-01
         11   -1    0    0    0    0  0.00000000000E+00  0.00000000000E+00  0.50000000000E+03  0.50000000000E+03  0.00000000000E+00 0. -1.
        -11   -1    0    0    0    0 -0.00000000000E+00 -0.00000000000E+00 -0.50000000000E+03  0.50000000000E+03  0.00000000000E+00 0.  1.
          5    1    1    2  501    0 -0.28143538517E+03  0.22712540321E+03  0.34523337786E+03  0.50000000000E+03  0.47000000000E+01 0. -1.
         -5    1    1    2    0  501  0.28143538517E+03 -0.22712540321E+03 -0.34523337786E+03  0.50000000000E+03  0.47000000000E+01 0.  1.
</event>
<event>
 4    1  0.4838534E-004  0.1000000E+04  0.7546771E-02  0.8684367E-01
         11   -1    0    0    0    0  0.00000000000E+00  0.00000000000E+00  0.50000000000E+03  0.50000000000E+03  0.00000000000E+00 0. -1.
        -11   -1    0    0    0    0 -0.00000000000E+00 -0.00000000000E+00 -0.50000000000E+03  0.50000000000E+03  0.00000000000E+00 0.  1.
          5    1    1    2  501    0  0.11347249318E+03  0.38536489685E+03  0.29765046543E+03  0.50000000000E+03  0.47000000000E+01 0. -1.
         -5    1    1    2    0  501 -0.11347249318E+03 -0.38536489685E+03 -0.29765046543E+03  0.50000000000E+03  0.47000000000E+01 0.  1.
</event>
<event>
 4    1  0.4838534E-004  0.1000000E+04  0.7546771E-02  0.8684367E-01
         11   -1    0    0    0    0  0.00000000000E+00  0.00000000000E+00  0.50000000000E+03  0.50000000000E+03  0.00000000000E+00 0. -1.
        -11   -1    0    0    0    0 -0.00000000000E+00 -0.00000000000E+00 -0.50000000000E+03  0.50000000000E+03  0.00000000000E+00 0.  1.
          5    1    1    2  501    0  0.27623499784E+03 -0.27832192336E+02  0.41580945761E+03  0.50000000000E+03  0.47000000000E+01 0. -1.
         -5    1    1    2    0  501 -0.27623499784E+03  0.27832192336E+02 -0.41580945761E+03  0.50000000000E+03  0.47000000000E+01 0.  1.
</event>
<event>
 4    1  0.4838534E-004  0.1000000E+04  0.7546771E-02  0.8684367E-01
         11   -1    0    0    0    0  0.00000000000E+00  0.00000000000E+00  0.50000000000E+03  0.50000000000E+03  0.00000000000E+00 0. -1.
        -11   -1    0    0    0    0 -0.00000000000E+00 -0.00000000000E+00 -0.50000000000E+03  0.50000000000E+03  0.00000000000E+00 0.  1.
          5    1    1    2  501    0 -0.20099377214E+02 -0.37985888707E+03  0.32447057024E+03  0.50000000000E+03  0.47000000000E+01 0. -1.
         -5    1    1    2    0  501  0.20099377214E+02  0.37985888707E+03 -0.32447057024E+03  0.50000000000E+03  0.47000000000E+01 0.  1.
</event>
<event>
 4    1  0.4838534E-004  0.1000000E+04  0.7546771E-02  0.8684367E-01
         11   -1    0    0    0    0  0.00000000000E+00  0.00000000000E+00  0.50000000000E+03  0.50000000000E+03  0.00000000000E+00 0. -1.
        -11   -1    0    0    0    0 -0.00000000000E+00 -0.00000000000E+00 -0.50000000000E+03  0.50000000000E+03  0.00000000000E+00 0.  1.
          5    1    1    2  501    0  0.12934104244E+03 -0.41350643114E+02  0.48118492189E+03  0.50000000000E+03  0.47000000000E+01 0. -1.
         -5    1    1    2    0  501 -0.12934104244E+03  0.41350643114E+02 -0.48118492189E+03  0.50000000000E+03  0.47000000000E+01 0.  1.
</event>
<event>
 4    1  0.4838534E-004  0.1000000E+04  0.7546771E-02  0.8684367E-01
         11   -1    0    0    0    0  0.00000000000E+00  0.00000000000E+00  0.50000000000E+03  0.50000000000E+03  0.00000000000E+00 0. -1.
        -11   -1    0    0    0    0 -0.00000000000E+00 -0.00000000000E+00 -0.50000000000E+03  0.50000000000E+03  0.00000000000E+00 0.  1.
          5    1    1    2  501    0  0.43388072331E+03  0.85360998082E+02  0.23332151197E+03  0.50000000000E+03  0.47000000000E+01 0. -1.
         -5    1    1    2    0  501 -0.43388072331E+03 -0.85360998082E+02 -0.23332151197E+03  0.50000000000E+03  0.47000000000E+01 0.  1.
</event>
<event>
 4    1  0.4838534E-004  0.1000000E+04  0.7546771E-02  0.8684367E-01
         11   -1    0    0    0    0  0.00000000000E+00  0.00000000000E+00  0.50000000000E+03  0.50000000000E+03  0.00000000000E+00 0. -1.
        -11   -1    0    0    0    0 -0.00000000000E+00 -0.00000000000E+00 -0.50000000000E+03  0.50000000000E+03  0.00000000000E+00 0.  1.
          5    1    1    2  501    0  0.14351072930E+03 -0.56534291151E+02  0.47559063752E+03  0.50000000000E+03  0.47000000000E+01 0. -1.
         -5    1    1    2    0  501 -0.14351072930E+03  0.56534291151E+02 -0.47559063752E+03  0.50000000000E+03  0.47000000000E+01 0.  1.
</event>
<event>
 4    1  0.4838534E-004  0.1000000E+04  0.7546771E-02  0.8684367E-01
         11   -1    0    0    0    0  0.00000000000E+00  0.00000000000E+00  0.50000000000E+03  0.50000000000E+03  0.00000000000E+00 0. -1.
        -11   -1    0    0    0    0 -0.00000000000E+00 -0.00000000000E+00 -0.50000000000E+03  0.50000000000E+03  0.00000000000E+00 0.  1.
          5    1    1    2  501    0 -0.43451003733E+02 -0.25883362741E+03  0.42555266842E+03  0.50000000000E+03  0.47000000000E+01 0. -1.
         -5    1    1    2    0  501  0.43451003733E+02  0.25883362741E+03 -0.42555266842E+03  0.50000000000E+03  0.47000000000E+01 0.  1.
</event>
<event>
 4    1  0.4838534E-004  0.1000000E+04  0.7546771E-02  0.8684367E-01
         11   -1    0    0    0    0  0.00000000000E+00  0.00000000000E+00  0.50000000000E+03  0.50000000000E+03  0.00000000000E+00 0. -1.
        -11   -1    0    0    0    0 -0.00000000000E+00 -0.00000000000E+00 -0.50000000000E+03  0.50000000000E+03  0.00000000000E+00 0.  1.
          5    1    1    2  501    0  0.29495712545E+02  0.21746888641E+03  0.44923846272E+03  0.50000000000E+03  0.47000000000E+01 0. -1.
         -5    1    1    2    0  501 -0.29495712545E+02 -0.21746888641E+03 -0.44923846272E+03  0.50000000000E+03  0.47000000000E+01 0.  1.
</event>
<event>
 4    1  0.4838534E-004  0.1000000E+04  0.7546771E-02  0.8684367E-01
         11   -1    0    0    0    0  0.00000000000E+00  0.00000000000E+00  0.50000000000E+03  0.50000000000E+03  0.00000000000E+00 0. -1.
        -11   -1    0    0    0    0 -0.00000000000E+00 -0.00000000000E+00 -0.50000000000E+03  0.50000000000E+03  0.00000000000E+00 0.  1.
          5    1    1    2  501    0  0.34943889277E+03  0.39285292477E+02  0.35542514826E+03  0.50000000000E+03  0.47000000000E+01 0. -1.
         -5    1    1    2    0  501 -0.34943889277E+03 -0.39285292477E+02 -0.35542514826E+03  0.50000000000E+03  0.47000000000E+01 0.  1.
</event>
<event>
 4    1  0.4838534E-004  0.1000000E+04  0.7546771E-02  0.8684367E-01
         11   -1    0    0    0    0  0.00000000000E+00  0.00000000000E+00  0.50000000000E+03  0.50000000000E+03  0.00000000000E+00 0. -1.
        -11   -1    0    0    0    0 -0.00000000000E+00 -0.00000000000E+00 -0.50000000000E+03  0.50000000000E+03  0.00000000000E+00 0.  1.
          5    1    1    2  501    0  0.11909282591E+03  0.26388079830E+03  0.40762940658E+03  0.50000000000E+03  0.47000000000E+01 0. -1.
         -5    1    1    2    0  501 -0.11909282591E+03 -0.26388079830E+03 -0.40762940658E+03  0.50000000000E+03  0.47000000000E+01 0.  1.
</event>
<event>
 4    1  0.4838534E-004  0.1000000E+04  0.7546771E-02  0.8684367E-01
         11   -1    0    0    0    0  0.00000000000E+00  0.00000000000E+00  0.50000000000E+03  0.50000000000E+03  0.00000000000E+00 0. -1.
        -11   -1    0    0    0    0 -0.00000000000E+00 -0.00000000000E+00 -0.50000000000E+03  0.50000000000E+03  0.00000000000E+00 0.  1.
          5    1    1    2  501    0  0.25193407230E+03  0.25448823151E+03  0.34891671389E+03  0.50000000000E+03  0.47000000000E+01 0. -1.
         -5    1    1    2    0  501 -0.25193407230E+03 -0.25448823151E+03 -0.34891671389E+03  0.50000000000E+03  0.47000000000E+01 0.  1.
</event>
<event>
 4    1  0.4838534E-004  0.1000000E+04  0.7546771E-02  0.8684367E-01
         11   -1    0    0    0    0  0.00000000000E+00  0.00000000000E+00  0.50000000000E+03  0.50000000000E+03  0.00000000000E+00 0. -1.
        -11   -1    0    0    0    0 -0.00000000000E+00 -0.00000000000E+00 -0.50000000000E+03  0.50000000000E+03  0.00000000000E+00 0.  1.
          5    1    1    2  501    0 -0.59279698562E+02 -0.41384925992E+03  0.27421272290E+03  0.50000000000E+03  0.47000000000E+01 0. -1.
         -5    1    1    2    0  501  0.59279698562E+02  0.41384925992E+03 -0.27421272290E+03  0.50000000000E+03  0.47000000000E+01 0.  1.
</event>
<event>
 4    1  0.4838534E-004  0.1000000E+04  0.7546771E-02  0.8684367E-01
         11   -1    0    0    0    0  0.00000000000E+00  0.00000000000E+00  0.50000000000E+03  0.50000000000E+03  0.00000000000E+00 0. -1.
        -11   -1    0    0    0    0 -0.00000000000E+00 -0.00000000000E+00 -0.50000000000E+03  0.50000000000E+03  0.00000000000E+00 0.  1.
          5    1    1    2  501    0  0.16727981197E+03 -0.11247270125E+02  0.47102958869E+03  0.50000000000E+03  0.47000000000E+01 0. -1.
         -5    1    1    2    0  501 -0.16727981197E+03  0.11247270125E+02 -0.47102958869E+03  0.50000000000E+03  0.47000000000E+01 0.  1.
</event>
<event>
 4    1  0.4838534E-004  0.1000000E+04  0.7546771E-02  0.8684367E-01
         11   -1    0    0    0    0  0.00000000000E+00  0.00000000000E+00  0.50000000000E+03  0.50000000000E+03  0.00000000000E+00 0.  1.
        -11   -1    0    0    0    0 -0.00000000000E+00 -0.00000000000E+00 -0.50000000000E+03  0.50000000000E+03  0.00000000000E+00 0. -1.
          5    1    1    2  501    0 -0.10567053450E+03 -0.59524053824E+02  0.48504487953E+03  0.50000000000E+03  0.47000000000E+01 0.  1.
         -5    1    1    2    0  501  0.10567053450E+03  0.59524053824E+02 -0.48504487953E+03  0.50000000000E+03  0.47000000000E+01 0. -1.
</event>
<event>
 4    1  0.4838534E-004  0.1000000E+04  0.7546771E-02  0.8684367E-01
         11   -1    0    0    0    0  0.00000000000E+00  0.00000000000E+00  0.50000000000E+03  0.50000000000E+03  0.00000000000E+00 0. -1.
        -11   -1    0    0    0    0 -0.00000000000E+00 -0.00000000000E+00 -0.50000000000E+03  0.50000000000E+03  0.00000000000E+00 0.  1.
          5    1    1    2  501    0 -0.71789656491E+02 -0.24378461757E+03  0.43057312440E+03  0.50000000000E+03  0.47000000000E+01 0. -1.
         -5    1    1    2    0  501  0.71789656491E+02  0.24378461757E+03 -0.43057312440E+03  0.50000000000E+03  0.47000000000E+01 0.  1.
</event>
<event>
 4    1  0.4838534E-004  0.1000000E+04  0.7546771E-02  0.8684367E-01
         11   -1    0    0    0    0  0.00000000000E+00  0.00000000000E+00  0.50000000000E+03  0.50000000000E+03  0.00000000000E+00 0. -1.
        -11   -1    0    0    0    0 -0.00000000000E+00 -0.00000000000E+00 -0.50000000000E+03  0.50000000000E+03  0.00000000000E+00 0.  1.
          5    1    1    2  501    0 -0.46594922764E+03 -0.72685155314E+02  0.16609062422E+03  0.50000000000E+03  0.47000000000E+01 0. -1.
         -5    1    1    2    0  501  0.46594922764E+03  0.72685155314E+02 -0.16609062422E+03  0.50000000000E+03  0.47000000000E+01 0.  1.
</event>
<event>
 4    1  0.4838534E-004  0.1000000E+04  0.7546771E-02  0.8684367E-01
         11   -1    0    0    0    0  0.00000000000E+00  0.00000000000E+00  0.50000000000E+03  0.50000000000E+03  0.00000000000E+00 0.  1.
        -11   -1    0    0    0    0 -0.00000000000E+00 -0.00000000000E+00 -0.50000000000E+03  0.50000000000E+03  0.00000000000E+00 0. -1.
          5    1    1    2  501    0 -0.31781391808E+03  0.30239530541E+03  0.23985266881E+03  0.50000000000E+03  0.47000000000E+01 0.  1.
         -5    1    1    2    0  501  0.31781391808E+03 -0.30239530541E+03 -0.23985266881E+03  0.50000000000E+03  0.47000000000E+01 0. -1.
</event>
<event>
 4    1  0.4838534E-004  0.1000000E+04  0.7546771E-02  0.8684367E-01
         11   -1    0    0    0    0  0.00000000000E+00  0.00000000000E+00  0.50000000000E+03  0.50000000000E+03  0.00000000000E+00 0. -1.
        -11   -1    0    0    0    0 -0.00000000000E+00 -0.00000000000E+00 -0.50000000000E+03  0.50000000000E+03  0.00000000000E+00 0.  1.
          5    1    1    2  501    0  0.11634923706E+03  0.23903553889E+03  0.42344158533E+03  0.50000000000E+03  0.47000000000E+01 0. -1.
         -5    1    1    2    0  501 -0.11634923706E+03 -0.23903553889E+03 -0.42344158533E+03  0.50000000000E+03  0.47000000000E+01 0.  1.
</event>
<event>
 4    1  0.4838534E-004  0.1000000E+04  0.7546771E-02  0.8684367E-01
         11   -1    0    0    0    0  0.00000000000E+00  0.00000000000E+00  0.50000000000E+03  0.50000000000E+03  0.00000000000E+00 0. -1.
        -11   -1    0    0    0    0 -0.00000000000E+00 -0.00000000000E+00 -0.50000000000E+03  0.50000000000E+03  0.00000000000E+00 0.  1.
          5    1    1    2  501    0 -0.17187102705E+03 -0.24788655681E+03  0.39873614711E+03  0.50000000000E+03  0.47000000000E+01 0. -1.
         -5    1    1    2    0  501  0.17187102705E+03  0.24788655681E+03 -0.39873614711E+03  0.50000000000E+03  0.47000000000E+01 0.  1.
</event>
<event>
 4    1  0.4838534E-004  0.1000000E+04  0.7546771E-02  0.8684367E-01
         11   -1    0    0    0    0  0.00000000000E+00  0.00000000000E+00  0.50000000000E+03  0.50000000000E+03  0.00000000000E+00 0. -1.
        -11   -1    0    0    0    0 -0.00000000000E+00 -0.00000000000E+00 -0.50000000000E+03  0.50000000000E+03  0.00000000000E+00 0.  1.
          5    1    1    2  501    0  0.86172253277E+01 -0.22459718487E+03  0.44660917811E+03  0.50000000000E+03  0.47000000000E+01 0. -1.
         -5    1    1    2    0  501 -0.86172253277E+01  0.22459718487E+03 -0.44660917811E+03  0.50000000000E+03  0.47000000000E+01 0.  1.
</event>
<event>
 4    1  0.4838534E-004  0.1000000E+04  0.7546771E-02  0.8684367E-01
         11   -1    0    0    0    0  0.00000000000E+00  0.00000000000E+00  0.50000000000E+03  0.50000000000E+03  0.00000000000E+00 0. -1.
        -11   -1    0    0    0    0 -0.00000000000E+00 -0.00000000000E+00 -0.50000000000E+03  0.50000000000E+03  0.00000000000E+00 0.  1.
          5    1    1    2  501    0 -0.31975300398E+03  0.11059008777E+03  0.36811106875E+03  0.50000000000E+03  0.47000000000E+01 0. -1.
         -5    1    1    2    0  501  0.31975300398E+03 -0.11059008777E+03 -0.36811106875E+03  0.50000000000E+03  0.47000000000E+01 0.  1.
</event>
<event>
 4    1  0.4838534E-004  0.1000000E+04  0.7546771E-02  0.8684367E-01
         11   -1    0    0    0    0  0.00000000000E+00  0.00000000000E+00  0.50000000000E+03  0.50000000000E+03  0.00000000000E+00 0. -1.
        -11   -1    0    0    0    0 -0.00000000000E+00 -0.00000000000E+00 -0.50000000000E+03  0.50000000000E+03  0.00000000000E+00 0.  1.
          5    1    1    2  501    0 -0.31708896066E+03 -0.30577751278E+03  0.23650076893E+03  0.50000000000E+03  0.47000000000E+01 0. -1.
         -5    1    1    2    0  501  0.31708896066E+03  0.30577751278E+03 -0.23650076893E+03  0.50000000000E+03  0.47000000000E+01 0.  1.
</event>
<event>
 4    1  0.4838534E-004  0.1000000E+04  0.7546771E-02  0.8684367E-01
         11   -1    0    0    0    0  0.00000000000E+00  0.00000000000E+00  0.50000000000E+03  0.50000000000E+03  0.00000000000E+00 0.  1.
        -11   -1    0    0    0    0 -0.00000000000E+00 -0.00000000000E+00 -0.50000000000E+03  0.50000000000E+03  0.00000000000E+00 0. -1.
          5    1    1    2  501    0 -0.40451560980E+03  0.18624579678E+03  0.22728293954E+03  0.50000000000E+03  0.47000000000E+01 0.  1.
         -5    1    1    2    0  501  0.40451560980E+03 -0.18624579678E+03 -0.22728293954E+03  0.50000000000E+03  0.47000000000E+01 0. -1.
</event>
<event>
 4    1  0.4838534E-004  0.1000000E+04  0.7546771E-02  0.8684367E-01
         11   -1    0    0    0    0  0.00000000000E+00  0.00000000000E+00  0.50000000000E+03  0.50000000000E+03  0.00000000000E+00 0. -1.
        -11   -1    0    0    0    0 -0.00000000000E+00 -0.00000000000E+00 -0.50000000000E+03  0.50000000000E+03  0.00000000000E+00 0.  1.
          5    1    1    2  501    0 -0.18466029492E+03 -0.16695444846E+03  0.43359508487E+03  0.50000000000E+03  0.47000000000E+01 0. -1.
         -5    1    1    2    0  501  0.18466029492E+03  0.16695444846E+03 -0.43359508487E+03  0.50000000000E+03  0.47000000000E+01 0.  1.
</event>
<event>
 4    1  0.4838534E-004  0.1000000E+04  0.7546771E-02  0.8684367E-01
         11   -1    0    0    0    0  0.00000000000E+00  0.00000000000E+00  0.50000000000E+03  0.50000000000E+03  0.00000000000E+00 0. -1.
        -11   -1    0    0    0    0 -0.00000000000E+00 -0.00000000000E+00 -0.50000000000E+03  0.50000000000E+03  0.00000000000E+00 0.  1.
          5    1    1    2  501    0  0.15198697315E+03  0.39647588102E+02  0.47466402723E+03  0.50000000000E+03  0.47000000000E+01 0. -1.
         -5    1    1    2    0  501 -0.15198697315E+03 -0.39647588102E+02 -0.47466402723E+03  0.50000000000E+03  0.47000000000E+01 0.  1.
</event>
<event>
 4    1  0.4838534E-004  0.1000000E+04  0.7546771E-02  0.8684367E-01
         11   -1    0    0    0    0  0.00000000000E+00  0.00000000000E+00  0.50000000000E+03  0.50000000000E+03  0.00000000000E+00 0. -1.
        -11   -1    0    0    0    0 -0.00000000000E+00 -0.00000000000E+00 -0.50000000000E+03  0.50000000000E+03  0.00000000000E+00 0.  1.
          5    1    1    2  501    0 -0.94488308997E+02 -0.11002209213E+03  0.47848198368E+03  0.50000000000E+03  0.47000000000E+01 0. -1.
         -5    1    1    2    0  501  0.94488308997E+02  0.11002209213E+03 -0.47848198368E+03  0.50000000000E+03  0.47000000000E+01 0.  1.
</event>
<event>
 4    1  0.4838534E-004  0.1000000E+04  0.7546771E-02  0.8684367E-01
         11   -1    0    0    0    0  0.00000000000E+00  0.00000000000E+00  0.50000000000E+03  0.50000000000E+03  0.00000000000E+00 0. -1.
        -11   -1    0    0    0    0 -0.00000000000E+00 -0.00000000000E+00 -0.50000000000E+03  0.50000000000E+03  0.00000000000E+00 0.  1.
          5    1    1    2  501    0  0.15841248250E+03 -0.47413961245E+03  0.86615990489E+01  0.50000000000E+03  0.47000000000E+01 0. -1.
         -5    1    1    2    0  501 -0.15841248250E+03  0.47413961245E+03 -0.86615990489E+01  0.50000000000E+03  0.47000000000E+01 0.  1.
</event>
<event>
 4    1  0.4838534E-004  0.1000000E+04  0.7546771E-02  0.8684367E-01
         11   -1    0    0    0    0  0.00000000000E+00  0.00000000000E+00  0.50000000000E+03  0.50000000000E+03  0.00000000000E+00 0. -1.
        -11   -1    0    0    0    0 -0.00000000000E+00 -0.00000000000E+00 -0.50000000000E+03  0.50000000000E+03  0.00000000000E+00 0.  1.
          5    1    1    2  501    0 -0.96682169008E+02 -0.18340646387E+03  0.45496432520E+03  0.50000000000E+03  0.47000000000E+01 0. -1.
         -5    1    1    2    0  501  0.96682169008E+02  0.18340646387E+03 -0.45496432520E+03  0.50000000000E+03  0.47000000000E+01 0.  1.
</event>
<event>
 4    1  0.4838534E-004  0.1000000E+04  0.7546771E-02  0.8684367E-01
         11   -1    0    0    0    0  0.00000000000E+00  0.00000000000E+00  0.50000000000E+03  0.50000000000E+03  0.00000000000E+00 0. -1.
        -11   -1    0    0    0    0 -0.00000000000E+00 -0.00000000000E+00 -0.50000000000E+03  0.50000000000E+03  0.00000000000E+00 0.  1.
          5    1    1    2  501    0  0.23246881981E+03  0.36370070326E+03  0.25230528387E+03  0.50000000000E+03  0.47000000000E+01 0. -1.
         -5    1    1    2    0  501 -0.23246881981E+03 -0.36370070326E+03 -0.25230528387E+03  0.50000000000E+03  0.47000000000E+01 0.  1.
</event>
<event>
 4    1  0.4838534E-004  0.1000000E+04  0.7546771E-02  0.8684367E-01
         11   -1    0    0    0    0  0.00000000000E+00  0.00000000000E+00  0.50000000000E+03  0.50000000000E+03  0.00000000000E+00 0. -1.
        -11   -1    0    0    0    0 -0.00000000000E+00 -0.00000000000E+00 -0.50000000000E+03  0.50000000000E+03  0.00000000000E+00 0.  1.
          5    1    1    2  501    0  0.46397567229E+03 -0.15488923568E+03 -0.10350753691E+03  0.50000000000E+03  0.47000000000E+01 0. -1.
         -5    1    1    2    0  501 -0.46397567229E+03  0.15488923568E+03  0.10350753691E+03  0.50000000000E+03  0.47000000000E+01 0.  1.
</event>
<event>
 4    1  0.4838534E-004  0.1000000E+04  0.7546771E-02  0.8684367E-01
         11   -1    0    0    0    0  0.00000000000E+00  0.00000000000E+00  0.50000000000E+03  0.50000000000E+03  0.00000000000E+00 0. -1.
        -11   -1    0    0    0    0 -0.00000000000E+00 -0.00000000000E+00 -0.50000000000E+03  0.50000000000E+03  0.00000000000E+00 0.  1.
          5    1    1    2  501    0  0.38608927754E+02 -0.49687432886E+03  0.40039505688E+02  0.50000000000E+03  0.47000000000E+01 0.  1.
         -5    1    1    2    0  501 -0.38608927754E+02  0.49687432886E+03 -0.40039505688E+02  0.50000000000E+03  0.47000000000E+01 0. -1.
</event>
<event>
 4    1  0.4838534E-004  0.1000000E+04  0.7546771E-02  0.8684367E-01
         11   -1    0    0    0    0  0.00000000000E+00  0.00000000000E+00  0.50000000000E+03  0.50000000000E+03  0.00000000000E+00 0. -1.
        -11   -1    0    0    0    0 -0.00000000000E+00 -0.00000000000E+00 -0.50000000000E+03  0.50000000000E+03  0.00000000000E+00 0.  1.
          5    1    1    2  501    0 -0.98130627214E+02  0.20794927678E+03  0.44396552601E+03  0.50000000000E+03  0.47000000000E+01 0. -1.
         -5    1    1    2    0  501  0.98130627214E+02 -0.20794927678E+03 -0.44396552601E+03  0.50000000000E+03  0.47000000000E+01 0.  1.
</event>
<event>
 4    1  0.4838534E-004  0.1000000E+04  0.7546771E-02  0.8684367E-01
         11   -1    0    0    0    0  0.00000000000E+00  0.00000000000E+00  0.50000000000E+03  0.50000000000E+03  0.00000000000E+00 0. -1.
        -11   -1    0    0    0    0 -0.00000000000E+00 -0.00000000000E+00 -0.50000000000E+03  0.50000000000E+03  0.00000000000E+00 0.  1.
          5    1    1    2  501    0 -0.47182442447E+02 -0.10301028065E+02  0.49764004657E+03  0.50000000000E+03  0.47000000000E+01 0. -1.
         -5    1    1    2    0  501  0.47182442447E+02  0.10301028065E+02 -0.49764004657E+03  0.50000000000E+03  0.47000000000E+01 0.  1.
</event>
<event>
 4    1  0.4838534E-004  0.1000000E+04  0.7546771E-02  0.8684367E-01
         11   -1    0    0    0    0  0.00000000000E+00  0.00000000000E+00  0.50000000000E+03  0.50000000000E+03  0.00000000000E+00 0. -1.
        -11   -1    0    0    0    0 -0.00000000000E+00 -0.00000000000E+00 -0.50000000000E+03  0.50000000000E+03  0.00000000000E+00 0.  1.
          5    1    1    2  501    0 -0.49952227702E+03 -0.15900029423E+02  0.14233545790E+02  0.50000000000E+03  0.47000000000E+01 0.  1.
         -5    1    1    2    0  501  0.49952227702E+03  0.15900029423E+02 -0.14233545790E+02  0.50000000000E+03  0.47000000000E+01 0. -1.
</event>
<event>
 4    1  0.4838534E-004  0.1000000E+04  0.7546771E-02  0.8684367E-01
         11   -1    0    0    0    0  0.00000000000E+00  0.00000000000E+00  0.50000000000E+03  0.50000000000E+03  0.00000000000E+00 0. -1.
        -11   -1    0    0    0    0 -0.00000000000E+00 -0.00000000000E+00 -0.50000000000E+03  0.50000000000E+03  0.00000000000E+00 0.  1.
          5    1    1    2  501    0 -0.21109226761E+03  0.35237604003E+03  0.28504226171E+03  0.50000000000E+03  0.47000000000E+01 0. -1.
         -5    1    1    2    0  501  0.21109226761E+03 -0.35237604003E+03 -0.28504226171E+03  0.50000000000E+03  0.47000000000E+01 0.  1.
</event>
<event>
 4    1  0.4838534E-004  0.1000000E+04  0.7546771E-02  0.8684367E-01
         11   -1    0    0    0    0  0.00000000000E+00  0.00000000000E+00  0.50000000000E+03  0.50000000000E+03  0.00000000000E+00 0. -1.
        -11   -1    0    0    0    0 -0.00000000000E+00 -0.00000000000E+00 -0.50000000000E+03  0.50000000000E+03  0.00000000000E+00 0.  1.
          5    1    1    2  501    0 -0.19229998552E+03  0.25843179474E+03  0.38237629769E+03  0.50000000000E+03  0.47000000000E+01 0. -1.
         -5    1    1    2    0  501  0.19229998552E+03 -0.25843179474E+03 -0.38237629769E+03  0.50000000000E+03  0.47000000000E+01 0.  1.
</event>
<event>
 4    1  0.4838534E-004  0.1000000E+04  0.7546771E-02  0.8684367E-01
         11   -1    0    0    0    0  0.00000000000E+00  0.00000000000E+00  0.50000000000E+03  0.50000000000E+03  0.00000000000E+00 0.  1.
        -11   -1    0    0    0    0 -0.00000000000E+00 -0.00000000000E+00 -0.50000000000E+03  0.50000000000E+03  0.00000000000E+00 0. -1.
          5    1    1    2  501    0  0.21288482639E+03  0.27585532875E+03 -0.35855515377E+03  0.50000000000E+03  0.47000000000E+01 0. -1.
         -5    1    1    2    0  501 -0.21288482639E+03 -0.27585532875E+03  0.35855515377E+03  0.50000000000E+03  0.47000000000E+01 0.  1.
</event>
<event>
 4    1  0.4838534E-004  0.1000000E+04  0.7546771E-02  0.8684367E-01
         11   -1    0    0    0    0  0.00000000000E+00  0.00000000000E+00  0.50000000000E+03  0.50000000000E+03  0.00000000000E+00 0. -1.
        -11   -1    0    0    0    0 -0.00000000000E+00 -0.00000000000E+00 -0.50000000000E+03  0.50000000000E+03  0.00000000000E+00 0.  1.
          5    1    1    2  501    0 -0.15709019388E+01  0.11120740254E+03  0.48745087536E+03  0.50000000000E+03  0.47000000000E+01 0. -1.
         -5    1    1    2    0  501  0.15709019388E+01 -0.11120740254E+03 -0.48745087536E+03  0.50000000000E+03  0.47000000000E+01 0.  1.
</event>
<event>
 4    1  0.4838534E-004  0.1000000E+04  0.7546771E-02  0.8684367E-01
         11   -1    0    0    0    0  0.00000000000E+00  0.00000000000E+00  0.50000000000E+03  0.50000000000E+03  0.00000000000E+00 0. -1.
        -11   -1    0    0    0    0 -0.00000000000E+00 -0.00000000000E+00 -0.50000000000E+03  0.50000000000E+03  0.00000000000E+00 0.  1.
          5    1    1    2  501    0 -0.25836519505E+03 -0.42593066999E+03  0.42525290723E+02  0.50000000000E+03  0.47000000000E+01 0. -1.
         -5    1    1    2    0  501  0.25836519505E+03  0.42593066999E+03 -0.42525290723E+02  0.50000000000E+03  0.47000000000E+01 0.  1.
</event>
<event>
 4    1  0.4838534E-004  0.1000000E+04  0.7546771E-02  0.8684367E-01
         11   -1    0    0    0    0  0.00000000000E+00  0.00000000000E+00  0.50000000000E+03  0.50000000000E+03  0.00000000000E+00 0. -1.
        -11   -1    0    0    0    0 -0.00000000000E+00 -0.00000000000E+00 -0.50000000000E+03  0.50000000000E+03  0.00000000000E+00 0.  1.
          5    1    1    2  501    0  0.12869282279E+02 -0.43672109524E+03  0.24307812848E+03  0.50000000000E+03  0.47000000000E+01 0. -1.
         -5    1    1    2    0  501 -0.12869282279E+02  0.43672109524E+03 -0.24307812848E+03  0.50000000000E+03  0.47000000000E+01 0.  1.
</event>
<event>
 4    1  0.4838534E-004  0.1000000E+04  0.7546771E-02  0.8684367E-01
         11   -1    0    0    0    0  0.00000000000E+00  0.00000000000E+00  0.50000000000E+03  0.50000000000E+03  0.00000000000E+00 0. -1.
        -11   -1    0    0    0    0 -0.00000000000E+00 -0.00000000000E+00 -0.50000000000E+03  0.50000000000E+03  0.00000000000E+00 0.  1.
          5    1    1    2  501    0  0.34028218428E+03  0.35993830293E+03  0.68046771718E+02  0.50000000000E+03  0.47000000000E+01 0. -1.
         -5    1    1    2    0  501 -0.34028218428E+03 -0.35993830293E+03 -0.68046771718E+02  0.50000000000E+03  0.47000000000E+01 0.  1.
</event>
<event>
 4    1  0.4838534E-004  0.1000000E+04  0.7546771E-02  0.8684367E-01
         11   -1    0    0    0    0  0.00000000000E+00  0.00000000000E+00  0.50000000000E+03  0.50000000000E+03  0.00000000000E+00 0. -1.
        -11   -1    0    0    0    0 -0.00000000000E+00 -0.00000000000E+00 -0.50000000000E+03  0.50000000000E+03  0.00000000000E+00 0.  1.
          5    1    1    2  501    0  0.26751745142E+03  0.16071782341E+03  0.39061759360E+03  0.50000000000E+03  0.47000000000E+01 0. -1.
         -5    1    1    2    0  501 -0.26751745142E+03 -0.16071782341E+03 -0.39061759360E+03  0.50000000000E+03  0.47000000000E+01 0.  1.
</event>
<event>
 4    1  0.4838534E-004  0.1000000E+04  0.7546771E-02  0.8684367E-01
         11   -1    0    0    0    0  0.00000000000E+00  0.00000000000E+00  0.50000000000E+03  0.50000000000E+03  0.00000000000E+00 0.  1.
        -11   -1    0    0    0    0 -0.00000000000E+00 -0.00000000000E+00 -0.50000000000E+03  0.50000000000E+03  0.00000000000E+00 0. -1.
          5    1    1    2  501    0  0.29491581901E+03 -0.20726967062E+03  0.34647056634E+03  0.50000000000E+03  0.47000000000E+01 0.  1.
         -5    1    1    2    0  501 -0.29491581901E+03  0.20726967062E+03 -0.34647056634E+03  0.50000000000E+03  0.47000000000E+01 0. -1.
</event>
<event>
 4    1  0.4838534E-004  0.1000000E+04  0.7546771E-02  0.8684367E-01
         11   -1    0    0    0    0  0.00000000000E+00  0.00000000000E+00  0.50000000000E+03  0.50000000000E+03  0.00000000000E+00 0. -1.
        -11   -1    0    0    0    0 -0.00000000000E+00 -0.00000000000E+00 -0.50000000000E+03  0.50000000000E+03  0.00000000000E+00 0.  1.
          5    1    1    2  501    0 -0.30666919081E+02  0.40143100375E+03  0.29646348730E+03  0.50000000000E+03  0.47000000000E+01 0. -1.
         -5    1    1    2    0  501  0.30666919081E+02 -0.40143100375E+03 -0.29646348730E+03  0.50000000000E+03  0.47000000000E+01 0.  1.
</event>
<event>
 4    1  0.4838534E-004  0.1000000E+04  0.7546771E-02  0.8684367E-01
         11   -1    0    0    0    0  0.00000000000E+00  0.00000000000E+00  0.50000000000E+03  0.50000000000E+03  0.00000000000E+00 0. -1.
        -11   -1    0    0    0    0 -0.00000000000E+00 -0.00000000000E+00 -0.50000000000E+03  0.50000000000E+03  0.00000000000E+00 0.  1.
          5    1    1    2  501    0 -0.19681005181E+03 -0.31995159816E+03  0.32996164677E+03  0.50000000000E+03  0.47000000000E+01 0. -1.
         -5    1    1    2    0  501  0.19681005181E+03  0.31995159816E+03 -0.32996164677E+03  0.50000000000E+03  0.47000000000E+01 0.  1.
</event>
<event>
 4    1  0.4838534E-004  0.1000000E+04  0.7546771E-02  0.8684367E-01
         11   -1    0    0    0    0  0.00000000000E+00  0.00000000000E+00  0.50000000000E+03  0.50000000000E+03  0.00000000000E+00 0. -1.
        -11   -1    0    0    0    0 -0.00000000000E+00 -0.00000000000E+00 -0.50000000000E+03  0.50000000000E+03  0.00000000000E+00 0.  1.
          5    1    1    2  501    0 -0.17375239295E+03 -0.46650809407E+03 -0.46456583088E+02  0.50000000000E+03  0.47000000000E+01 0. -1.
         -5    1    1    2    0  501  0.17375239295E+03  0.46650809407E+03  0.46456583088E+02  0.50000000000E+03  0.47000000000E+01 0.  1.
</event>
<event>
 4    1  0.4838534E-004  0.1000000E+04  0.7546771E-02  0.8684367E-01
         11   -1    0    0    0    0  0.00000000000E+00  0.00000000000E+00  0.50000000000E+03  0.50000000000E+03  0.00000000000E+00 0. -1.
        -11   -1    0    0    0    0 -0.00000000000E+00 -0.00000000000E+00 -0.50000000000E+03  0.50000000000E+03  0.00000000000E+00 0.  1.
          5    1    1    2  501    0 -0.22631934603E+03  0.32087090822E+03  0.30951465857E+03  0.50000000000E+03  0.47000000000E+01 0. -1.
         -5    1    1    2    0  501  0.22631934603E+03 -0.32087090822E+03 -0.30951465857E+03  0.50000000000E+03  0.47000000000E+01 0.  1.
</event>
<event>
 4    1  0.4838534E-004  0.1000000E+04  0.7546771E-02  0.8684367E-01
         11   -1    0    0    0    0  0.00000000000E+00  0.00000000000E+00  0.50000000000E+03  0.50000000000E+03  0.00000000000E+00 0. -1.
        -11   -1    0    0    0    0 -0.00000000000E+00 -0.00000000000E+00 -0.50000000000E+03  0.50000000000E+03  0.00000000000E+00 0.  1.
          5    1    1    2  501    0 -0.24742445792E+02  0.24005017905E+02  0.49878801158E+03  0.50000000000E+03  0.47000000000E+01 0. -1.
         -5    1    1    2    0  501  0.24742445792E+02 -0.24005017905E+02 -0.49878801158E+03  0.50000000000E+03  0.47000000000E+01 0.  1.
</event>
<event>
 4    1  0.4838534E-004  0.1000000E+04  0.7546771E-02  0.8684367E-01
         11   -1    0    0    0    0  0.00000000000E+00  0.00000000000E+00  0.50000000000E+03  0.50000000000E+03  0.00000000000E+00 0. -1.
        -11   -1    0    0    0    0 -0.00000000000E+00 -0.00000000000E+00 -0.50000000000E+03  0.50000000000E+03  0.00000000000E+00 0.  1.
          5    1    1    2  501    0  0.36691810581E+03  0.23519141094E+03  0.24501839492E+03  0.50000000000E+03  0.47000000000E+01 0. -1.
         -5    1    1    2    0  501 -0.36691810581E+03 -0.23519141094E+03 -0.24501839492E+03  0.50000000000E+03  0.47000000000E+01 0.  1.
</event>
<event>
 4    1  0.4838534E-004  0.1000000E+04  0.7546771E-02  0.8684367E-01
         11   -1    0    0    0    0  0.00000000000E+00  0.00000000000E+00  0.50000000000E+03  0.50000000000E+03  0.00000000000E+00 0. -1.
        -11   -1    0    0    0    0 -0.00000000000E+00 -0.00000000000E+00 -0.50000000000E+03  0.50000000000E+03  0.00000000000E+00 0.  1.
          5    1    1    2  501    0  0.18663919491E+03 -0.37487962856E+03  0.27314645342E+03  0.50000000000E+03  0.47000000000E+01 0. -1.
         -5    1    1    2    0  501 -0.18663919491E+03  0.37487962856E+03 -0.27314645342E+03  0.50000000000E+03  0.47000000000E+01 0.  1.
</event>
<event>
 4    1  0.4838534E-004  0.1000000E+04  0.7546771E-02  0.8684367E-01
         11   -1    0    0    0    0  0.00000000000E+00  0.00000000000E+00  0.50000000000E+03  0.50000000000E+03  0.00000000000E+00 0. -1.
        -11   -1    0    0    0    0 -0.00000000000E+00 -0.00000000000E+00 -0.50000000000E+03  0.50000000000E+03  0.00000000000E+00 0.  1.
          5    1    1    2  501    0  0.31576272278E+02 -0.35565307859E+03  0.34998819511E+03  0.50000000000E+03  0.47000000000E+01 0. -1.
         -5    1    1    2    0  501 -0.31576272278E+02  0.35565307859E+03 -0.34998819511E+03  0.50000000000E+03  0.47000000000E+01 0.  1.
</event>
<event>
 4    1  0.4838534E-004  0.1000000E+04  0.7546771E-02  0.8684367E-01
         11   -1    0    0    0    0  0.00000000000E+00  0.00000000000E+00  0.50000000000E+03  0.50000000000E+03  0.00000000000E+00 0. -1.
        -11   -1    0    0    0    0 -0.00000000000E+00 -0.00000000000E+00 -0.50000000000E+03  0.50000000000E+03  0.00000000000E+00 0.  1.
          5    1    1    2  501    0 -0.27788489897E+03 -0.34874617894E+03  0.22612827245E+03  0.50000000000E+03  0.47000000000E+01 0. -1.
         -5    1    1    2    0  501  0.27788489897E+03  0.34874617894E+03 -0.22612827245E+03  0.50000000000E+03  0.47000000000E+01 0.  1.
</event>
<event>
 4    1  0.4838534E-004  0.1000000E+04  0.7546771E-02  0.8684367E-01
         11   -1    0    0    0    0  0.00000000000E+00  0.00000000000E+00  0.50000000000E+03  0.50000000000E+03  0.00000000000E+00 0. -1.
        -11   -1    0    0    0    0 -0.00000000000E+00 -0.00000000000E+00 -0.50000000000E+03  0.50000000000E+03  0.00000000000E+00 0.  1.
          5    1    1    2  501    0  0.22030124293E+03 -0.90081235838E+02  0.43969380632E+03  0.50000000000E+03  0.47000000000E+01 0. -1.
         -5    1    1    2    0  501 -0.22030124293E+03  0.90081235838E+02 -0.43969380632E+03  0.50000000000E+03  0.47000000000E+01 0.  1.
</event>
<event>
 4    1  0.4838534E-004  0.1000000E+04  0.7546771E-02  0.8684367E-01
         11   -1    0    0    0    0  0.00000000000E+00  0.00000000000E+00  0.50000000000E+03  0.50000000000E+03  0.00000000000E+00 0.  1.
        -11   -1    0    0    0    0 -0.00000000000E+00 -0.00000000000E+00 -0.50000000000E+03  0.50000000000E+03  0.00000000000E+00 0. -1.
          5    1    1    2  501    0 -0.45278310177E+03  0.20651608776E+03 -0.48129806234E+02  0.50000000000E+03  0.47000000000E+01 0.  1.
         -5    1    1    2    0  501  0.45278310177E+03 -0.20651608776E+03  0.48129806234E+02  0.50000000000E+03  0.47000000000E+01 0. -1.
</event>
<event>
 4    1  0.4838534E-004  0.1000000E+04  0.7546771E-02  0.8684367E-01
         11   -1    0    0    0    0  0.00000000000E+00  0.00000000000E+00  0.50000000000E+03  0.50000000000E+03  0.00000000000E+00 0. -1.
        -11   -1    0    0    0    0 -0.00000000000E+00 -0.00000000000E+00 -0.50000000000E+03  0.50000000000E+03  0.00000000000E+00 0.  1.
          5    1    1    2  501    0  0.71889767910E+02 -0.98109231732E+02  0.48495809089E+03  0.50000000000E+03  0.47000000000E+01 0. -1.
         -5    1    1    2    0  501 -0.71889767910E+02  0.98109231732E+02 -0.48495809089E+03  0.50000000000E+03  0.47000000000E+01 0.  1.
</event>
<event>
 4    1  0.4838534E-004  0.1000000E+04  0.7546771E-02  0.8684367E-01
         11   -1    0    0    0    0  0.00000000000E+00  0.00000000000E+00  0.50000000000E+03  0.50000000000E+03  0.00000000000E+00 0. -1.
        -11   -1    0    0    0    0 -0.00000000000E+00 -0.00000000000E+00 -0.50000000000E+03  0.50000000000E+03  0.00000000000E+00 0.  1.
          5    1    1    2  501    0 -0.24771439840E+03 -0.36859921468E+03  0.22967391181E+03  0.50000000000E+03  0.47000000000E+01 0. -1.
         -5    1    1    2    0  501  0.24771439840E+03  0.36859921468E+03 -0.22967391181E+03  0.50000000000E+03  0.47000000000E+01 0.  1.
</event>
<event>
 4    1  0.4838534E-004  0.1000000E+04  0.7546771E-02  0.8684367E-01
         11   -1    0    0    0    0  0.00000000000E+00  0.00000000000E+00  0.50000000000E+03  0.50000000000E+03  0.00000000000E+00 0.  1.
        -11   -1    0    0    0    0 -0.00000000000E+00 -0.00000000000E+00 -0.50000000000E+03  0.50000000000E+03  0.00000000000E+00 0. -1.
          5    1    1    2  501    0 -0.49901008632E+03  0.17802417067E+02 -0.25493483438E+02  0.50000000000E+03  0.47000000000E+01 0.  1.
         -5    1    1    2    0  501  0.49901008632E+03 -0.17802417067E+02  0.25493483438E+02  0.50000000000E+03  0.47000000000E+01 0. -1.
</event>
<event>
 4    1  0.4838534E-004  0.1000000E+04  0.7546771E-02  0.8684367E-01
         11   -1    0    0    0    0  0.00000000000E+00  0.00000000000E+00  0.50000000000E+03  0.50000000000E+03  0.00000000000E+00 0. -1.
        -11   -1    0    0    0    0 -0.00000000000E+00 -0.00000000000E+00 -0.50000000000E+03  0.50000000000E+03  0.00000000000E+00 0.  1.
          5    1    1    2  501    0 -0.18937377860E+03 -0.27354544417E+03  0.37321357418E+03  0.50000000000E+03  0.47000000000E+01 0. -1.
         -5    1    1    2    0  501  0.18937377860E+03  0.27354544417E+03 -0.37321357418E+03  0.50000000000E+03  0.47000000000E+01 0.  1.
</event>
<event>
 4    1  0.4838534E-004  0.1000000E+04  0.7546771E-02  0.8684367E-01
         11   -1    0    0    0    0  0.00000000000E+00  0.00000000000E+00  0.50000000000E+03  0.50000000000E+03  0.00000000000E+00 0. -1.
        -11   -1    0    0    0    0 -0.00000000000E+00 -0.00000000000E+00 -0.50000000000E+03  0.50000000000E+03  0.00000000000E+00 0.  1.
          5    1    1    2  501    0 -0.63961846419E+02 -0.47173956878E+03  0.15280239347E+03  0.50000000000E+03  0.47000000000E+01 0. -1.
         -5    1    1    2    0  501  0.63961846419E+02  0.47173956878E+03 -0.15280239347E+03  0.50000000000E+03  0.47000000000E+01 0.  1.
</event>
<event>
 4    1  0.4838534E-004  0.1000000E+04  0.7546771E-02  0.8684367E-01
         11   -1    0    0    0    0  0.00000000000E+00  0.00000000000E+00  0.50000000000E+03  0.50000000000E+03  0.00000000000E+00 0. -1.
        -11   -1    0    0    0    0 -0.00000000000E+00 -0.00000000000E+00 -0.50000000000E+03  0.50000000000E+03  0.00000000000E+00 0.  1.
          5    1    1    2  501    0 -0.48418583456E+03 -0.11745871616E+03  0.41778434776E+02  0.50000000000E+03  0.47000000000E+01 0. -1.
         -5    1    1    2    0  501  0.48418583456E+03  0.11745871616E+03 -0.41778434776E+02  0.50000000000E+03  0.47000000000E+01 0.  1.
</event>
<event>
 4    1  0.4838534E-004  0.1000000E+04  0.7546771E-02  0.8684367E-01
         11   -1    0    0    0    0  0.00000000000E+00  0.00000000000E+00  0.50000000000E+03  0.50000000000E+03  0.00000000000E+00 0. -1.
        -11   -1    0    0    0    0 -0.00000000000E+00 -0.00000000000E+00 -0.50000000000E+03  0.50000000000E+03  0.00000000000E+00 0.  1.
          5    1    1    2  501    0 -0.24658381020E+03  0.40853047503E+03  0.14925543716E+03  0.50000000000E+03  0.47000000000E+01 0. -1.
         -5    1    1    2    0  501  0.24658381020E+03 -0.40853047503E+03 -0.14925543716E+03  0.50000000000E+03  0.47000000000E+01 0.  1.
</event>
<event>
 4    1  0.4838534E-004  0.1000000E+04  0.7546771E-02  0.8684367E-01
         11   -1    0    0    0    0  0.00000000000E+00  0.00000000000E+00  0.50000000000E+03  0.50000000000E+03  0.00000000000E+00 0. -1.
        -11   -1    0    0    0    0 -0.00000000000E+00 -0.00000000000E+00 -0.50000000000E+03  0.50000000000E+03  0.00000000000E+00 0.  1.
          5    1    1    2  501    0 -0.21556929175E+03 -0.12775407700E+03  0.43265076709E+03  0.50000000000E+03  0.47000000000E+01 0. -1.
         -5    1    1    2    0  501  0.21556929175E+03  0.12775407700E+03 -0.43265076709E+03  0.50000000000E+03  0.47000000000E+01 0.  1.
</event>
<event>
 4    1  0.4838534E-004  0.1000000E+04  0.7546771E-02  0.8684367E-01
         11   -1    0    0    0    0  0.00000000000E+00  0.00000000000E+00  0.50000000000E+03  0.50000000000E+03  0.00000000000E+00 0. -1.
        -11   -1    0    0    0    0 -0.00000000000E+00 -0.00000000000E+00 -0.50000000000E+03  0.50000000000E+03  0.00000000000E+00 0.  1.
          5    1    1    2  501    0 -0.30421355591E+03 -0.38808611838E+03  0.82590478406E+02  0.50000000000E+03  0.47000000000E+01 0. -1.
         -5    1    1    2    0  501  0.30421355591E+03  0.38808611838E+03 -0.82590478406E+02  0.50000000000E+03  0.47000000000E+01 0.  1.
</event>
<event>
 4    1  0.4838534E-004  0.1000000E+04  0.7546771E-02  0.8684367E-01
         11   -1    0    0    0    0  0.00000000000E+00  0.00000000000E+00  0.50000000000E+03  0.50000000000E+03  0.00000000000E+00 0. -1.
        -11   -1    0    0    0    0 -0.00000000000E+00 -0.00000000000E+00 -0.50000000000E+03  0.50000000000E+03  0.00000000000E+00 0.  1.
          5    1    1    2  501    0  0.24696228671E+03  0.41623857054E+03  0.12543122153E+03  0.50000000000E+03  0.47000000000E+01 0. -1.
         -5    1    1    2    0  501 -0.24696228671E+03 -0.41623857054E+03 -0.12543122153E+03  0.50000000000E+03  0.47000000000E+01 0.  1.
</event>
<event>
 4    1  0.4838534E-004  0.1000000E+04  0.7546771E-02  0.8684367E-01
         11   -1    0    0    0    0  0.00000000000E+00  0.00000000000E+00  0.50000000000E+03  0.50000000000E+03  0.00000000000E+00 0. -1.
        -11   -1    0    0    0    0 -0.00000000000E+00 -0.00000000000E+00 -0.50000000000E+03  0.50000000000E+03  0.00000000000E+00 0.  1.
          5    1    1    2  501    0  0.26432351304E+03  0.12105310463E+03  0.40676422693E+03  0.50000000000E+03  0.47000000000E+01 0. -1.
         -5    1    1    2    0  501 -0.26432351304E+03 -0.12105310463E+03 -0.40676422693E+03  0.50000000000E+03  0.47000000000E+01 0.  1.
</event>
<event>
 4    1  0.4838534E-004  0.1000000E+04  0.7546771E-02  0.8684367E-01
         11   -1    0    0    0    0  0.00000000000E+00  0.00000000000E+00  0.50000000000E+03  0.50000000000E+03  0.00000000000E+00 0. -1.
        -11   -1    0    0    0    0 -0.00000000000E+00 -0.00000000000E+00 -0.50000000000E+03  0.50000000000E+03  0.00000000000E+00 0.  1.
          5    1    1    2  501    0  0.42065101656E+03  0.10311404105E+03  0.24979617052E+03  0.50000000000E+03  0.47000000000E+01 0. -1.
         -5    1    1    2    0  501 -0.42065101656E+03 -0.10311404105E+03 -0.24979617052E+03  0.50000000000E+03  0.47000000000E+01 0.  1.
</event>
<event>
 4    1  0.4838534E-004  0.1000000E+04  0.7546771E-02  0.8684367E-01
         11   -1    0    0    0    0  0.00000000000E+00  0.00000000000E+00  0.50000000000E+03  0.50000000000E+03  0.00000000000E+00 0. -1.
        -11   -1    0    0    0    0 -0.00000000000E+00 -0.00000000000E+00 -0.50000000000E+03  0.50000000000E+03  0.00000000000E+00 0.  1.
          5    1    1    2  501    0  0.17056087596E+03  0.40878926993E+03  0.23190133761E+03  0.50000000000E+03  0.47000000000E+01 0. -1.
         -5    1    1    2    0  501 -0.17056087596E+03 -0.40878926993E+03 -0.23190133761E+03  0.50000000000E+03  0.47000000000E+01 0.  1.
</event>
<event>
 4    1  0.4838534E-004  0.1000000E+04  0.7546771E-02  0.8684367E-01
         11   -1    0    0    0    0  0.00000000000E+00  0.00000000000E+00  0.50000000000E+03  0.50000000000E+03  0.00000000000E+00 0. -1.
        -11   -1    0    0    0    0 -0.00000000000E+00 -0.00000000000E+00 -0.50000000000E+03  0.50000000000E+03  0.00000000000E+00 0.  1.
          5    1    1    2  501    0 -0.34147349960E+03  0.70715772283E+02  0.35829183444E+03  0.50000000000E+03  0.47000000000E+01 0. -1.
         -5    1    1    2    0  501  0.34147349960E+03 -0.70715772283E+02 -0.35829183444E+03  0.50000000000E+03  0.47000000000E+01 0.  1.
</event>
<event>
 4    1  0.4838534E-004  0.1000000E+04  0.7546771E-02  0.8684367E-01
         11   -1    0    0    0    0  0.00000000000E+00  0.00000000000E+00  0.50000000000E+03  0.50000000000E+03  0.00000000000E+00 0. -1.
        -11   -1    0    0    0    0 -0.00000000000E+00 -0.00000000000E+00 -0.50000000000E+03  0.50000000000E+03  0.00000000000E+00 0.  1.
          5    1    1    2  501    0 -0.27793458395E+01  0.27633142923E+02  0.49920596416E+03  0.50000000000E+03  0.47000000000E+01 0. -1.
         -5    1    1    2    0  501  0.27793458395E+01 -0.27633142923E+02 -0.49920596416E+03  0.50000000000E+03  0.47000000000E+01 0.  1.
</event>
<event>
 4    1  0.4838534E-004  0.1000000E+04  0.7546771E-02  0.8684367E-01
         11   -1    0    0    0    0  0.00000000000E+00  0.00000000000E+00  0.50000000000E+03  0.50000000000E+03  0.00000000000E+00 0.  1.
        -11   -1    0    0    0    0 -0.00000000000E+00 -0.00000000000E+00 -0.50000000000E+03  0.50000000000E+03  0.00000000000E+00 0. -1.
          5    1    1    2  501    0  0.35017962683E+03  0.49396298059E+02 -0.35342912258E+03  0.50000000000E+03  0.47000000000E+01 0. -1.
         -5    1    1    2    0  501 -0.35017962683E+03 -0.49396298059E+02  0.35342912258E+03  0.50000000000E+03  0.47000000000E+01 0.  1.
</event>
<event>
 4    1  0.4838534E-004  0.1000000E+04  0.7546771E-02  0.8684367E-01
         11   -1    0    0    0    0  0.00000000000E+00  0.00000000000E+00  0.50000000000E+03  0.50000000000E+03  0.00000000000E+00 0.  1.
        -11   -1    0    0    0    0 -0.00000000000E+00 -0.00000000000E+00 -0.50000000000E+03  0.50000000000E+03  0.00000000000E+00 0. -1.
          5    1    1    2  501    0  0.11303353415E+03  0.47234766208E+03 -0.11869716207E+03  0.50000000000E+03  0.47000000000E+01 0. -1.
         -5    1    1    2    0  501 -0.11303353415E+03 -0.47234766208E+03  0.11869716207E+03  0.50000000000E+03  0.47000000000E+01 0.  1.
</event>
<event>
 4    1  0.4838534E-004  0.1000000E+04  0.7546771E-02  0.8684367E-01
         11   -1    0    0    0    0  0.00000000000E+00  0.00000000000E+00  0.50000000000E+03  0.50000000000E+03  0.00000000000E+00 0. -1.
        -11   -1    0    0    0    0 -0.00000000000E+00 -0.00000000000E+00 -0.50000000000E+03  0.50000000000E+03  0.00000000000E+00 0.  1.
          5    1    1    2  501    0  0.13542044463E+03 -0.35668241462E+03 -0.32313599037E+03  0.50000000000E+03  0.47000000000E+01 0.  1.
         -5    1    1    2    0  501 -0.13542044463E+03  0.35668241462E+03  0.32313599037E+03  0.50000000000E+03  0.47000000000E+01 0. -1.
</event>
<event>
 4    1  0.4838534E-004  0.1000000E+04  0.7546771E-02  0.8684367E-01
         11   -1    0    0    0    0  0.00000000000E+00  0.00000000000E+00  0.50000000000E+03  0.50000000000E+03  0.00000000000E+00 0. -1.
        -11   -1    0    0    0    0 -0.00000000000E+00 -0.00000000000E+00 -0.50000000000E+03  0.50000000000E+03  0.00000000000E+00 0.  1.
          5    1    1    2  501    0 -0.20527655115E+03  0.43540360728E+03  0.13514120878E+03  0.50000000000E+03  0.47000000000E+01 0. -1.
         -5    1    1    2    0  501  0.20527655115E+03 -0.43540360728E+03 -0.13514120878E+03  0.50000000000E+03  0.47000000000E+01 0.  1.
</event>
<event>
 4    1  0.4838534E-004  0.1000000E+04  0.7546771E-02  0.8684367E-01
         11   -1    0    0    0    0  0.00000000000E+00  0.00000000000E+00  0.50000000000E+03  0.50000000000E+03  0.00000000000E+00 0. -1.
        -11   -1    0    0    0    0 -0.00000000000E+00 -0.00000000000E+00 -0.50000000000E+03  0.50000000000E+03  0.00000000000E+00 0.  1.
          5    1    1    2  501    0 -0.19706296053E+03 -0.23901766832E+03  0.39244700766E+03  0.50000000000E+03  0.47000000000E+01 0. -1.
         -5    1    1    2    0  501  0.19706296053E+03  0.23901766832E+03 -0.39244700766E+03  0.50000000000E+03  0.47000000000E+01 0.  1.
</event>
<event>
 4    1  0.4838534E-004  0.1000000E+04  0.7546771E-02  0.8684367E-01
         11   -1    0    0    0    0  0.00000000000E+00  0.00000000000E+00  0.50000000000E+03  0.50000000000E+03  0.00000000000E+00 0.  1.
        -11   -1    0    0    0    0 -0.00000000000E+00 -0.00000000000E+00 -0.50000000000E+03  0.50000000000E+03  0.00000000000E+00 0. -1.
          5    1    1    2  501    0 -0.35624869754E+03 -0.11338758492E+03 -0.33197594956E+03  0.50000000000E+03  0.47000000000E+01 0. -1.
         -5    1    1    2    0  501  0.35624869754E+03  0.11338758492E+03  0.33197594956E+03  0.50000000000E+03  0.47000000000E+01 0.  1.
</event>
<event>
 4    1  0.4838534E-004  0.1000000E+04  0.7546771E-02  0.8684367E-01
         11   -1    0    0    0    0  0.00000000000E+00  0.00000000000E+00  0.50000000000E+03  0.50000000000E+03  0.00000000000E+00 0. -1.
        -11   -1    0    0    0    0 -0.00000000000E+00 -0.00000000000E+00 -0.50000000000E+03  0.50000000000E+03  0.00000000000E+00 0.  1.
          5    1    1    2  501    0 -0.16785599314E+03 -0.41899022908E+03  0.21505688435E+03  0.50000000000E+03  0.47000000000E+01 0. -1.
         -5    1    1    2    0  501  0.16785599314E+03  0.41899022908E+03 -0.21505688435E+03  0.50000000000E+03  0.47000000000E+01 0.  1.
</event>
<event>
 4    1  0.4838534E-004  0.1000000E+04  0.7546771E-02  0.8684367E-01
         11   -1    0    0    0    0  0.00000000000E+00  0.00000000000E+00  0.50000000000E+03  0.50000000000E+03  0.00000000000E+00 0. -1.
        -11   -1    0    0    0    0 -0.00000000000E+00 -0.00000000000E+00 -0.50000000000E+03  0.50000000000E+03  0.00000000000E+00 0.  1.
          5    1    1    2  501    0 -0.70646699026E+02  0.41581239164E+03  0.26849023982E+03  0.50000000000E+03  0.47000000000E+01 0. -1.
         -5    1    1    2    0  501  0.70646699026E+02 -0.41581239164E+03 -0.26849023982E+03  0.50000000000E+03  0.47000000000E+01 0.  1.
</event>
<event>
 4    1  0.4838534E-004  0.1000000E+04  0.7546771E-02  0.8684367E-01
         11   -1    0    0    0    0  0.00000000000E+00  0.00000000000E+00  0.50000000000E+03  0.50000000000E+03  0.00000000000E+00 0. -1.
        -11   -1    0    0    0    0 -0.00000000000E+00 -0.00000000000E+00 -0.50000000000E+03  0.50000000000E+03  0.00000000000E+00 0.  1.
          5    1    1    2  501    0  0.83787343234E+02  0.45414773830E+03  0.19159181326E+03  0.50000000000E+03  0.47000000000E+01 0. -1.
         -5    1    1    2    0  501 -0.83787343234E+02 -0.45414773830E+03 -0.19159181326E+03  0.50000000000E+03  0.47000000000E+01 0.  1.
</event>
<event>
 4    1  0.4838534E-004  0.1000000E+04  0.7546771E-02  0.8684367E-01
         11   -1    0    0    0    0  0.00000000000E+00  0.00000000000E+00  0.50000000000E+03  0.50000000000E+03  0.00000000000E+00 0. -1.
        -11   -1    0    0    0    0 -0.00000000000E+00 -0.00000000000E+00 -0.50000000000E+03  0.50000000000E+03  0.00000000000E+00 0.  1.
          5    1    1    2  501    0 -0.24516399802E+02  0.14000514681E+03  0.47934894911E+03  0.50000000000E+03  0.47000000000E+01 0. -1.
         -5    1    1    2    0  501  0.24516399802E+02 -0.14000514681E+03 -0.47934894911E+03  0.50000000000E+03  0.47000000000E+01 0.  1.
</event>
<event>
 4    1  0.4838534E-004  0.1000000E+04  0.7546771E-02  0.8684367E-01
         11   -1    0    0    0    0  0.00000000000E+00  0.00000000000E+00  0.50000000000E+03  0.50000000000E+03  0.00000000000E+00 0. -1.
        -11   -1    0    0    0    0 -0.00000000000E+00 -0.00000000000E+00 -0.50000000000E+03  0.50000000000E+03  0.00000000000E+00 0.  1.
          5    1    1    2  501    0  0.78285013069E+02 -0.21753587134E+03  0.44331423551E+03  0.50000000000E+03  0.47000000000E+01 0. -1.
         -5    1    1    2    0  501 -0.78285013069E+02  0.21753587134E+03 -0.44331423551E+03  0.50000000000E+03  0.47000000000E+01 0.  1.
</event>
<event>
 4    1  0.4838534E-004  0.1000000E+04  0.7546771E-02  0.8684367E-01
         11   -1    0    0    0    0  0.00000000000E+00  0.00000000000E+00  0.50000000000E+03  0.50000000000E+03  0.00000000000E+00 0.  1.
        -11   -1    0    0    0    0 -0.00000000000E+00 -0.00000000000E+00 -0.50000000000E+03  0.50000000000E+03  0.00000000000E+00 0. -1.
          5    1    1    2  501    0  0.14113474721E+03  0.10984260353E+01  0.47964329099E+03  0.50000000000E+03  0.47000000000E+01 0.  1.
         -5    1    1    2    0  501 -0.14113474721E+03 -0.10984260353E+01 -0.47964329099E+03  0.50000000000E+03  0.47000000000E+01 0. -1.
</event>
<event>
 4    1  0.4838534E-004  0.1000000E+04  0.7546771E-02  0.8684367E-01
         11   -1    0    0    0    0  0.00000000000E+00  0.00000000000E+00  0.50000000000E+03  0.50000000000E+03  0.00000000000E+00 0. -1.
        -11   -1    0    0    0    0 -0.00000000000E+00 -0.00000000000E+00 -0.50000000000E+03  0.50000000000E+03  0.00000000000E+00 0.  1.
          5    1    1    2  501    0 -0.21505102809E+03  0.38590432744E+03  0.23411282618E+03  0.50000000000E+03  0.47000000000E+01 0. -1.
         -5    1    1    2    0  501  0.21505102809E+03 -0.38590432744E+03 -0.23411282618E+03  0.50000000000E+03  0.47000000000E+01 0.  1.
</event>
<event>
 4    1  0.4838534E-004  0.1000000E+04  0.7546771E-02  0.8684367E-01
         11   -1    0    0    0    0  0.00000000000E+00  0.00000000000E+00  0.50000000000E+03  0.50000000000E+03  0.00000000000E+00 0.  1.
        -11   -1    0    0    0    0 -0.00000000000E+00 -0.00000000000E+00 -0.50000000000E+03  0.50000000000E+03  0.00000000000E+00 0. -1.
          5    1    1    2  501    0  0.17064812406E+03  0.30749991373E+03  0.35538842245E+03  0.50000000000E+03  0.47000000000E+01 0.  1.
         -5    1    1    2    0  501 -0.17064812406E+03 -0.30749991373E+03 -0.35538842245E+03  0.50000000000E+03  0.47000000000E+01 0. -1.
</event>
<event>
 4    1  0.4838534E-004  0.1000000E+04  0.7546771E-02  0.8684367E-01
         11   -1    0    0    0    0  0.00000000000E+00  0.00000000000E+00  0.50000000000E+03  0.50000000000E+03  0.00000000000E+00 0. -1.
        -11   -1    0    0    0    0 -0.00000000000E+00 -0.00000000000E+00 -0.50000000000E+03  0.50000000000E+03  0.00000000000E+00 0.  1.
          5    1    1    2  501    0  0.48142403549E+03 -0.83959164611E+02  0.10563932380E+03  0.50000000000E+03  0.47000000000E+01 0. -1.
         -5    1    1    2    0  501 -0.48142403549E+03  0.83959164611E+02 -0.10563932380E+03  0.50000000000E+03  0.47000000000E+01 0.  1.
</event>
<event>
 4    1  0.4838534E-004  0.1000000E+04  0.7546771E-02  0.8684367E-01
         11   -1    0    0    0    0  0.00000000000E+00  0.00000000000E+00  0.50000000000E+03  0.50000000000E+03  0.00000000000E+00 0.  1.
        -11   -1    0    0    0    0 -0.00000000000E+00 -0.00000000000E+00 -0.50000000000E+03  0.50000000000E+03  0.00000000000E+00 0. -1.
          5    1    1    2  501    0  0.45019374707E+03  0.14541047084E+03 -0.16173835375E+03  0.50000000000E+03  0.47000000000E+01 0.  1.
         -5    1    1    2    0  501 -0.45019374707E+03 -0.14541047084E+03  0.16173835375E+03  0.50000000000E+03  0.47000000000E+01 0. -1.
</event>
<event>
 4    1  0.4838534E-004  0.1000000E+04  0.7546771E-02  0.8684367E-01
         11   -1    0    0    0    0  0.00000000000E+00  0.00000000000E+00  0.50000000000E+03  0.50000000000E+03  0.00000000000E+00 0.  1.
        -11   -1    0    0    0    0 -0.00000000000E+00 -0.00000000000E+00 -0.50000000000E+03  0.50000000000E+03  0.00000000000E+00 0. -1.
          5    1    1    2  501    0  0.11506883256E+03 -0.47185911880E+03  0.11868464846E+03  0.50000000000E+03  0.47000000000E+01 0.  1.
         -5    1    1    2    0  501 -0.11506883256E+03  0.47185911880E+03 -0.11868464846E+03  0.50000000000E+03  0.47000000000E+01 0. -1.
</event>
<event>
 4    1  0.4838534E-004  0.1000000E+04  0.7546771E-02  0.8684367E-01
         11   -1    0    0    0    0  0.00000000000E+00  0.00000000000E+00  0.50000000000E+03  0.50000000000E+03  0.00000000000E+00 0. -1.
        -11   -1    0    0    0    0 -0.00000000000E+00 -0.00000000000E+00 -0.50000000000E+03  0.50000000000E+03  0.00000000000E+00 0.  1.
          5    1    1    2  501    0  0.30406933951E+02 -0.14780745868E+03  0.47666160274E+03  0.50000000000E+03  0.47000000000E+01 0. -1.
         -5    1    1    2    0  501 -0.30406933951E+02  0.14780745868E+03 -0.47666160274E+03  0.50000000000E+03  0.47000000000E+01 0.  1.
</event>
<event>
 4    1  0.4838534E-004  0.1000000E+04  0.7546771E-02  0.8684367E-01
         11   -1    0    0    0    0  0.00000000000E+00  0.00000000000E+00  0.50000000000E+03  0.50000000000E+03  0.00000000000E+00 0. -1.
        -11   -1    0    0    0    0 -0.00000000000E+00 -0.00000000000E+00 -0.50000000000E+03  0.50000000000E+03  0.00000000000E+00 0.  1.
          5    1    1    2  501    0 -0.36183187896E+03 -0.30430290570E+03  0.16265098507E+03  0.50000000000E+03  0.47000000000E+01 0. -1.
         -5    1    1    2    0  501  0.36183187896E+03  0.30430290570E+03 -0.16265098507E+03  0.50000000000E+03  0.47000000000E+01 0.  1.
</event>
<event>
 4    1  0.4838534E-004  0.1000000E+04  0.7546771E-02  0.8684367E-01
         11   -1    0    0    0    0  0.00000000000E+00  0.00000000000E+00  0.50000000000E+03  0.50000000000E+03  0.00000000000E+00 0.  1.
        -11   -1    0    0    0    0 -0.00000000000E+00 -0.00000000000E+00 -0.50000000000E+03  0.50000000000E+03  0.00000000000E+00 0. -1.
          5    1    1    2  501    0  0.47021717709E+03  0.84553147105E+02  0.14739227144E+03  0.50000000000E+03  0.47000000000E+01 0.  1.
         -5    1    1    2    0  501 -0.47021717709E+03 -0.84553147105E+02 -0.14739227144E+03  0.50000000000E+03  0.47000000000E+01 0. -1.
</event>
<event>
 4    1  0.4838534E-004  0.1000000E+04  0.7546771E-02  0.8684367E-01
         11   -1    0    0    0    0  0.00000000000E+00  0.00000000000E+00  0.50000000000E+03  0.50000000000E+03  0.00000000000E+00 0.  1.
        -11   -1    0    0    0    0 -0.00000000000E+00 -0.00000000000E+00 -0.50000000000E+03  0.50000000000E+03  0.00000000000E+00 0. -1.
          5    1    1    2  501    0  0.98970227898E+02  0.31636570108E+03  0.37429339717E+03  0.50000000000E+03  0.47000000000E+01 0.  1.
         -5    1    1    2    0  501 -0.98970227898E+02 -0.31636570108E+03 -0.37429339717E+03  0.50000000000E+03  0.47000000000E+01 0. -1.
</event>
<event>
 4    1  0.4838534E-004  0.1000000E+04  0.7546771E-02  0.8684367E-01
         11   -1    0    0    0    0  0.00000000000E+00  0.00000000000E+00  0.50000000000E+03  0.50000000000E+03  0.00000000000E+00 0.  1.
        -11   -1    0    0    0    0 -0.00000000000E+00 -0.00000000000E+00 -0.50000000000E+03  0.50000000000E+03  0.00000000000E+00 0. -1.
          5    1    1    2  501    0  0.33752398899E+03  0.24476855384E+03  0.27594170020E+03  0.50000000000E+03  0.47000000000E+01 0.  1.
         -5    1    1    2    0  501 -0.33752398899E+03 -0.24476855384E+03 -0.27594170020E+03  0.50000000000E+03  0.47000000000E+01 0. -1.
</event>
<event>
 4    1  0.4838534E-004  0.1000000E+04  0.7546771E-02  0.8684367E-01
         11   -1    0    0    0    0  0.00000000000E+00  0.00000000000E+00  0.50000000000E+03  0.50000000000E+03  0.00000000000E+00 0. -1.
        -11   -1    0    0    0    0 -0.00000000000E+00 -0.00000000000E+00 -0.50000000000E+03  0.50000000000E+03  0.00000000000E+00 0.  1.
          5    1    1    2  501    0 -0.41430172421E+03 -0.21273775977E+03  0.18186433648E+03  0.50000000000E+03  0.47000000000E+01 0. -1.
         -5    1    1    2    0  501  0.41430172421E+03  0.21273775977E+03 -0.18186433648E+03  0.50000000000E+03  0.47000000000E+01 0.  1.
</event>
<event>
 4    1  0.4838534E-004  0.1000000E+04  0.7546771E-02  0.8684367E-01
         11   -1    0    0    0    0  0.00000000000E+00  0.00000000000E+00  0.50000000000E+03  0.50000000000E+03  0.00000000000E+00 0. -1.
        -11   -1    0    0    0    0 -0.00000000000E+00 -0.00000000000E+00 -0.50000000000E+03  0.50000000000E+03  0.00000000000E+00 0.  1.
          5    1    1    2  501    0 -0.11432494873E+03 -0.39079203072E+03  0.29015393298E+03  0.50000000000E+03  0.47000000000E+01 0. -1.
         -5    1    1    2    0  501  0.11432494873E+03  0.39079203072E+03 -0.29015393298E+03  0.50000000000E+03  0.47000000000E+01 0.  1.
</event>
<event>
 4    1  0.4838534E-004  0.1000000E+04  0.7546771E-02  0.8684367E-01
         11   -1    0    0    0    0  0.00000000000E+00  0.00000000000E+00  0.50000000000E+03  0.50000000000E+03  0.00000000000E+00 0.  1.
        -11   -1    0    0    0    0 -0.00000000000E+00 -0.00000000000E+00 -0.50000000000E+03  0.50000000000E+03  0.00000000000E+00 0. -1.
          5    1    1    2  501    0  0.25593066140E+03 -0.41662266554E+03 -0.10441724528E+03  0.50000000000E+03  0.47000000000E+01 0.  1.
         -5    1    1    2    0  501 -0.25593066140E+03  0.41662266554E+03  0.10441724528E+03  0.50000000000E+03  0.47000000000E+01 0. -1.
</event>
<event>
 4    1  0.4838534E-004  0.1000000E+04  0.7546771E-02  0.8684367E-01
         11   -1    0    0    0    0  0.00000000000E+00  0.00000000000E+00  0.50000000000E+03  0.50000000000E+03  0.00000000000E+00 0. -1.
        -11   -1    0    0    0    0 -0.00000000000E+00 -0.00000000000E+00 -0.50000000000E+03  0.50000000000E+03  0.00000000000E+00 0.  1.
          5    1    1    2  501    0 -0.22889149964E+03 -0.44446731882E+03 -0.59492765347E+01  0.50000000000E+03  0.47000000000E+01 0.  1.
         -5    1    1    2    0  501  0.22889149964E+03  0.44446731882E+03  0.59492765347E+01  0.50000000000E+03  0.47000000000E+01 0. -1.
</event>
<event>
 4    1  0.4838534E-004  0.1000000E+04  0.7546771E-02  0.8684367E-01
         11   -1    0    0    0    0  0.00000000000E+00  0.00000000000E+00  0.50000000000E+03  0.50000000000E+03  0.00000000000E+00 0. -1.
        -11   -1    0    0    0    0 -0.00000000000E+00 -0.00000000000E+00 -0.50000000000E+03  0.50000000000E+03  0.00000000000E+00 0.  1.
          5    1    1    2  501    0 -0.32862311682E+03  0.20958721084E+03  0.31314207342E+03  0.50000000000E+03  0.47000000000E+01 0. -1.
         -5    1    1    2    0  501  0.32862311682E+03 -0.20958721084E+03 -0.31314207342E+03  0.50000000000E+03  0.47000000000E+01 0.  1.
</event>
<event>
 4    1  0.4838534E-004  0.1000000E+04  0.7546771E-02  0.8684367E-01
         11   -1    0    0    0    0  0.00000000000E+00  0.00000000000E+00  0.50000000000E+03  0.50000000000E+03  0.00000000000E+00 0. -1.
        -11   -1    0    0    0    0 -0.00000000000E+00 -0.00000000000E+00 -0.50000000000E+03  0.50000000000E+03  0.00000000000E+00 0.  1.
          5    1    1    2  501    0  0.46022348068E+02  0.48882440627E+03 -0.94395727213E+02  0.50000000000E+03  0.47000000000E+01 0. -1.
         -5    1    1    2    0  501 -0.46022348068E+02 -0.48882440627E+03  0.94395727213E+02  0.50000000000E+03  0.47000000000E+01 0.  1.
</event>
<event>
 4    1  0.4838534E-004  0.1000000E+04  0.7546771E-02  0.8684367E-01
         11   -1    0    0    0    0  0.00000000000E+00  0.00000000000E+00  0.50000000000E+03  0.50000000000E+03  0.00000000000E+00 0.  1.
        -11   -1    0    0    0    0 -0.00000000000E+00 -0.00000000000E+00 -0.50000000000E+03  0.50000000000E+03  0.00000000000E+00 0. -1.
          5    1    1    2  501    0 -0.39413998185E+03  0.21568566351E+03 -0.21934283500E+03  0.50000000000E+03  0.47000000000E+01 0. -1.
         -5    1    1    2    0  501  0.39413998185E+03 -0.21568566351E+03  0.21934283500E+03  0.50000000000E+03  0.47000000000E+01 0.  1.
</event>
<event>
 4    1  0.4838534E-004  0.1000000E+04  0.7546771E-02  0.8684367E-01
         11   -1    0    0    0    0  0.00000000000E+00  0.00000000000E+00  0.50000000000E+03  0.50000000000E+03  0.00000000000E+00 0. -1.
        -11   -1    0    0    0    0 -0.00000000000E+00 -0.00000000000E+00 -0.50000000000E+03  0.50000000000E+03  0.00000000000E+00 0.  1.
          5    1    1    2  501    0 -0.31998796306E+03 -0.37779008757E+03  0.69715588132E+02  0.50000000000E+03  0.47000000000E+01 0. -1.
         -5    1    1    2    0  501  0.31998796306E+03  0.37779008757E+03 -0.69715588132E+02  0.50000000000E+03  0.47000000000E+01 0.  1.
</event>
<event>
 4    1  0.4838534E-004  0.1000000E+04  0.7546771E-02  0.8684367E-01
         11   -1    0    0    0    0  0.00000000000E+00  0.00000000000E+00  0.50000000000E+03  0.50000000000E+03  0.00000000000E+00 0. -1.
        -11   -1    0    0    0    0 -0.00000000000E+00 -0.00000000000E+00 -0.50000000000E+03  0.50000000000E+03  0.00000000000E+00 0.  1.
          5    1    1    2  501    0  0.49737975181E+03 -0.44997808816E+02  0.23801043923E+02  0.50000000000E+03  0.47000000000E+01 0. -1.
         -5    1    1    2    0  501 -0.49737975181E+03  0.44997808816E+02 -0.23801043923E+02  0.50000000000E+03  0.47000000000E+01 0.  1.
</event>
<event>
 4    1  0.4838534E-004  0.1000000E+04  0.7546771E-02  0.8684367E-01
         11   -1    0    0    0    0  0.00000000000E+00  0.00000000000E+00  0.50000000000E+03  0.50000000000E+03  0.00000000000E+00 0. -1.
        -11   -1    0    0    0    0 -0.00000000000E+00 -0.00000000000E+00 -0.50000000000E+03  0.50000000000E+03  0.00000000000E+00 0.  1.
          5    1    1    2  501    0 -0.33772361476E+03  0.34295216050E+03  0.13529407098E+03  0.50000000000E+03  0.47000000000E+01 0. -1.
         -5    1    1    2    0  501  0.33772361476E+03 -0.34295216050E+03 -0.13529407098E+03  0.50000000000E+03  0.47000000000E+01 0.  1.
</event>
<event>
 4    1  0.4838534E-004  0.1000000E+04  0.7546771E-02  0.8684367E-01
         11   -1    0    0    0    0  0.00000000000E+00  0.00000000000E+00  0.50000000000E+03  0.50000000000E+03  0.00000000000E+00 0. -1.
        -11   -1    0    0    0    0 -0.00000000000E+00 -0.00000000000E+00 -0.50000000000E+03  0.50000000000E+03  0.00000000000E+00 0.  1.
          5    1    1    2  501    0 -0.14452720787E+03 -0.93497814183E+02  0.46941235064E+03  0.50000000000E+03  0.47000000000E+01 0. -1.
         -5    1    1    2    0  501  0.14452720787E+03  0.93497814183E+02 -0.46941235064E+03  0.50000000000E+03  0.47000000000E+01 0.  1.
</event>
<event>
 4    1  0.4838534E-004  0.1000000E+04  0.7546771E-02  0.8684367E-01
         11   -1    0    0    0    0  0.00000000000E+00  0.00000000000E+00  0.50000000000E+03  0.50000000000E+03  0.00000000000E+00 0. -1.
        -11   -1    0    0    0    0 -0.00000000000E+00 -0.00000000000E+00 -0.50000000000E+03  0.50000000000E+03  0.00000000000E+00 0.  1.
          5    1    1    2  501    0  0.56007656991E+02 -0.80072485322E+02  0.49033605767E+03  0.50000000000E+03  0.47000000000E+01 0. -1.
         -5    1    1    2    0  501 -0.56007656991E+02  0.80072485322E+02 -0.49033605767E+03  0.50000000000E+03  0.47000000000E+01 0.  1.
</event>
<event>
 4    1  0.4838534E-004  0.1000000E+04  0.7546771E-02  0.8684367E-01
         11   -1    0    0    0    0  0.00000000000E+00  0.00000000000E+00  0.50000000000E+03  0.50000000000E+03  0.00000000000E+00 0. -1.
        -11   -1    0    0    0    0 -0.00000000000E+00 -0.00000000000E+00 -0.50000000000E+03  0.50000000000E+03  0.00000000000E+00 0.  1.
          5    1    1    2  501    0 -0.16649385243E+03  0.40876640667E+03  0.23487812133E+03  0.50000000000E+03  0.47000000000E+01 0. -1.
         -5    1    1    2    0  501  0.16649385243E+03 -0.40876640667E+03 -0.23487812133E+03  0.50000000000E+03  0.47000000000E+01 0.  1.
</event>
<event>
 4    1  0.4838534E-004  0.1000000E+04  0.7546771E-02  0.8684367E-01
         11   -1    0    0    0    0  0.00000000000E+00  0.00000000000E+00  0.50000000000E+03  0.50000000000E+03  0.00000000000E+00 0. -1.
        -11   -1    0    0    0    0 -0.00000000000E+00 -0.00000000000E+00 -0.50000000000E+03  0.50000000000E+03  0.00000000000E+00 0.  1.
          5    1    1    2  501    0  0.34520114376E+03 -0.80799859426E+01  0.36159202726E+03  0.50000000000E+03  0.47000000000E+01 0. -1.
         -5    1    1    2    0  501 -0.34520114376E+03  0.80799859426E+01 -0.36159202726E+03  0.50000000000E+03  0.47000000000E+01 0.  1.
</event>
<event>
 4    1  0.4838534E-004  0.1000000E+04  0.7546771E-02  0.8684367E-01
         11   -1    0    0    0    0  0.00000000000E+00  0.00000000000E+00  0.50000000000E+03  0.50000000000E+03  0.00000000000E+00 0. -1.
        -11   -1    0    0    0    0 -0.00000000000E+00 -0.00000000000E+00 -0.50000000000E+03  0.50000000000E+03  0.00000000000E+00 0.  1.
          5    1    1    2  501    0 -0.49483185996E+03  0.21562941285E+02  0.68223016166E+02  0.50000000000E+03  0.47000000000E+01 0. -1.
         -5    1    1    2    0  501  0.49483185996E+03 -0.21562941285E+02 -0.68223016166E+02  0.50000000000E+03  0.47000000000E+01 0.  1.
</event>
<event>
 4    1  0.4838534E-004  0.1000000E+04  0.7546771E-02  0.8684367E-01
         11   -1    0    0    0    0  0.00000000000E+00  0.00000000000E+00  0.50000000000E+03  0.50000000000E+03  0.00000000000E+00 0. -1.
        -11   -1    0    0    0    0 -0.00000000000E+00 -0.00000000000E+00 -0.50000000000E+03  0.50000000000E+03  0.00000000000E+00 0.  1.
          5    1    1    2  501    0 -0.63866727552E+02  0.63168339128E-01  0.49588198911E+03  0.50000000000E+03  0.47000000000E+01 0. -1.
         -5    1    1    2    0  501  0.63866727552E+02 -0.63168339128E-01 -0.49588198911E+03  0.50000000000E+03  0.47000000000E+01 0.  1.
</event>
<event>
 4    1  0.4838534E-004  0.1000000E+04  0.7546771E-02  0.8684367E-01
         11   -1    0    0    0    0  0.00000000000E+00  0.00000000000E+00  0.50000000000E+03  0.50000000000E+03  0.00000000000E+00 0. -1.
        -11   -1    0    0    0    0 -0.00000000000E+00 -0.00000000000E+00 -0.50000000000E+03  0.50000000000E+03  0.00000000000E+00 0.  1.
          5    1    1    2  501    0 -0.47618500732E+03 -0.86696726039E+02  0.12533725103E+03  0.50000000000E+03  0.47000000000E+01 0. -1.
         -5    1    1    2    0  501  0.47618500732E+03  0.86696726039E+02 -0.12533725103E+03  0.50000000000E+03  0.47000000000E+01 0.  1.
</event>
<event>
 4    1  0.4838534E-004  0.1000000E+04  0.7546771E-02  0.8684367E-01
         11   -1    0    0    0    0  0.00000000000E+00  0.00000000000E+00  0.50000000000E+03  0.50000000000E+03  0.00000000000E+00 0. -1.
        -11   -1    0    0    0    0 -0.00000000000E+00 -0.00000000000E+00 -0.50000000000E+03  0.50000000000E+03  0.00000000000E+00 0.  1.
          5    1    1    2  501    0 -0.17454151456E+03 -0.25635013745E+03  0.39217059646E+03  0.50000000000E+03  0.47000000000E+01 0. -1.
         -5    1    1    2    0  501  0.17454151456E+03  0.25635013745E+03 -0.39217059646E+03  0.50000000000E+03  0.47000000000E+01 0.  1.
</event>
<event>
 4    1  0.4838534E-004  0.1000000E+04  0.7546771E-02  0.8684367E-01
         11   -1    0    0    0    0  0.00000000000E+00  0.00000000000E+00  0.50000000000E+03  0.50000000000E+03  0.00000000000E+00 0. -1.
        -11   -1    0    0    0    0 -0.00000000000E+00 -0.00000000000E+00 -0.50000000000E+03  0.50000000000E+03  0.00000000000E+00 0.  1.
          5    1    1    2  501    0  0.70430411543E+02  0.27844839054E+03  0.40924804329E+03  0.50000000000E+03  0.47000000000E+01 0. -1.
         -5    1    1    2    0  501 -0.70430411543E+02 -0.27844839054E+03 -0.40924804329E+03  0.50000000000E+03  0.47000000000E+01 0.  1.
</event>
<event>
 4    1  0.4838534E-004  0.1000000E+04  0.7546771E-02  0.8684367E-01
         11   -1    0    0    0    0  0.00000000000E+00  0.00000000000E+00  0.50000000000E+03  0.50000000000E+03  0.00000000000E+00 0. -1.
        -11   -1    0    0    0    0 -0.00000000000E+00 -0.00000000000E+00 -0.50000000000E+03  0.50000000000E+03  0.00000000000E+00 0.  1.
          5    1    1    2  501    0  0.46168819921E+01  0.22337230440E+03 -0.44728224649E+03  0.50000000000E+03  0.47000000000E+01 0.  1.
         -5    1    1    2    0  501 -0.46168819921E+01 -0.22337230440E+03  0.44728224649E+03  0.50000000000E+03  0.47000000000E+01 0. -1.
</event>
<event>
 4    1  0.4838534E-004  0.1000000E+04  0.7546771E-02  0.8684367E-01
         11   -1    0    0    0    0  0.00000000000E+00  0.00000000000E+00  0.50000000000E+03  0.50000000000E+03  0.00000000000E+00 0. -1.
        -11   -1    0    0    0    0 -0.00000000000E+00 -0.00000000000E+00 -0.50000000000E+03  0.50000000000E+03  0.00000000000E+00 0.  1.
          5    1    1    2  501    0 -0.15436166921E+03 -0.29342363346E+03  0.37423649796E+03  0.50000000000E+03  0.47000000000E+01 0. -1.
         -5    1    1    2    0  501  0.15436166921E+03  0.29342363346E+03 -0.37423649796E+03  0.50000000000E+03  0.47000000000E+01 0.  1.
</event>
<event>
 4    1  0.4838534E-004  0.1000000E+04  0.7546771E-02  0.8684367E-01
         11   -1    0    0    0    0  0.00000000000E+00  0.00000000000E+00  0.50000000000E+03  0.50000000000E+03  0.00000000000E+00 0. -1.
        -11   -1    0    0    0    0 -0.00000000000E+00 -0.00000000000E+00 -0.50000000000E+03  0.50000000000E+03  0.00000000000E+00 0.  1.
          5    1    1    2  501    0  0.32863364869E+03 -0.27956497580E+03  0.25262869840E+03  0.50000000000E+03  0.47000000000E+01 0. -1.
         -5    1    1    2    0  501 -0.32863364869E+03  0.27956497580E+03 -0.25262869840E+03  0.50000000000E+03  0.47000000000E+01 0.  1.
</event>
<event>
 4    1  0.4838534E-004  0.1000000E+04  0.7546771E-02  0.8684367E-01
         11   -1    0    0    0    0  0.00000000000E+00  0.00000000000E+00  0.50000000000E+03  0.50000000000E+03  0.00000000000E+00 0. -1.
        -11   -1    0    0    0    0 -0.00000000000E+00 -0.00000000000E+00 -0.50000000000E+03  0.50000000000E+03  0.00000000000E+00 0.  1.
          5    1    1    2  501    0  0.39588297619E+03  0.29227142619E+03  0.88498545748E+02  0.50000000000E+03  0.47000000000E+01 0. -1.
         -5    1    1    2    0  501 -0.39588297619E+03 -0.29227142619E+03 -0.88498545748E+02  0.50000000000E+03  0.47000000000E+01 0.  1.
</event>
<event>
 4    1  0.4838534E-004  0.1000000E+04  0.7546771E-02  0.8684367E-01
         11   -1    0    0    0    0  0.00000000000E+00  0.00000000000E+00  0.50000000000E+03  0.50000000000E+03  0.00000000000E+00 0. -1.
        -11   -1    0    0    0    0 -0.00000000000E+00 -0.00000000000E+00 -0.50000000000E+03  0.50000000000E+03  0.00000000000E+00 0.  1.
          5    1    1    2  501    0  0.27337987474E+03  0.12474788607E+03 -0.39959894770E+03  0.50000000000E+03  0.47000000000E+01 0.  1.
         -5    1    1    2    0  501 -0.27337987474E+03 -0.12474788607E+03  0.39959894770E+03  0.50000000000E+03  0.47000000000E+01 0. -1.
</event>
<event>
 4    1  0.4838534E-004  0.1000000E+04  0.7546771E-02  0.8684367E-01
         11   -1    0    0    0    0  0.00000000000E+00  0.00000000000E+00  0.50000000000E+03  0.50000000000E+03  0.00000000000E+00 0. -1.
        -11   -1    0    0    0    0 -0.00000000000E+00 -0.00000000000E+00 -0.50000000000E+03  0.50000000000E+03  0.00000000000E+00 0.  1.
          5    1    1    2  501    0 -0.37210850575E+03  0.31557515564E+03  0.10920389686E+03  0.50000000000E+03  0.47000000000E+01 0. -1.
         -5    1    1    2    0  501  0.37210850575E+03 -0.31557515564E+03 -0.10920389686E+03  0.50000000000E+03  0.47000000000E+01 0.  1.
</event>
<event>
 4    1  0.4838534E-004  0.1000000E+04  0.7546771E-02  0.8684367E-01
         11   -1    0    0    0    0  0.00000000000E+00  0.00000000000E+00  0.50000000000E+03  0.50000000000E+03  0.00000000000E+00 0. -1.
        -11   -1    0    0    0    0 -0.00000000000E+00 -0.00000000000E+00 -0.50000000000E+03  0.50000000000E+03  0.00000000000E+00 0.  1.
          5    1    1    2  501    0 -0.35922711322E+03  0.30597089655E+03 -0.16527432223E+03  0.50000000000E+03  0.47000000000E+01 0. -1.
         -5    1    1    2    0  501  0.35922711322E+03 -0.30597089655E+03  0.16527432223E+03  0.50000000000E+03  0.47000000000E+01 0.  1.
</event>
<event>
 4    1  0.4838534E-004  0.1000000E+04  0.7546771E-02  0.8684367E-01
         11   -1    0    0    0    0  0.00000000000E+00  0.00000000000E+00  0.50000000000E+03  0.50000000000E+03  0.00000000000E+00 0. -1.
        -11   -1    0    0    0    0 -0.00000000000E+00 -0.00000000000E+00 -0.50000000000E+03  0.50000000000E+03  0.00000000000E+00 0.  1.
          5    1    1    2  501    0  0.49275438252E+03 -0.84679220673E+02 -0.67682813060E+00  0.50000000000E+03  0.47000000000E+01 0. -1.
         -5    1    1    2    0  501 -0.49275438252E+03  0.84679220673E+02  0.67682813060E+00  0.50000000000E+03  0.47000000000E+01 0.  1.
</event>
<event>
 4    1  0.4838534E-004  0.1000000E+04  0.7546771E-02  0.8684367E-01
         11   -1    0    0    0    0  0.00000000000E+00  0.00000000000E+00  0.50000000000E+03  0.50000000000E+03  0.00000000000E+00 0. -1.
        -11   -1    0    0    0    0 -0.00000000000E+00 -0.00000000000E+00 -0.50000000000E+03  0.50000000000E+03  0.00000000000E+00 0.  1.
          5    1    1    2  501    0  0.72675343487E+02 -0.49377330387E+03  0.29734303998E+02  0.50000000000E+03  0.47000000000E+01 0. -1.
         -5    1    1    2    0  501 -0.72675343487E+02  0.49377330387E+03 -0.29734303998E+02  0.50000000000E+03  0.47000000000E+01 0.  1.
</event>
<event>
 4    1  0.4838534E-004  0.1000000E+04  0.7546771E-02  0.8684367E-01
         11   -1    0    0    0    0  0.00000000000E+00  0.00000000000E+00  0.50000000000E+03  0.50000000000E+03  0.00000000000E+00 0. -1.
        -11   -1    0    0    0    0 -0.00000000000E+00 -0.00000000000E+00 -0.50000000000E+03  0.50000000000E+03  0.00000000000E+00 0.  1.
          5    1    1    2  501    0 -0.12342033265E+03  0.12800227792E+03  0.46729086053E+03  0.50000000000E+03  0.47000000000E+01 0. -1.
         -5    1    1    2    0  501  0.12342033265E+03 -0.12800227792E+03 -0.46729086053E+03  0.50000000000E+03  0.47000000000E+01 0.  1.
</event>
<event>
 4    1  0.4838534E-004  0.1000000E+04  0.7546771E-02  0.8684367E-01
         11   -1    0    0    0    0  0.00000000000E+00  0.00000000000E+00  0.50000000000E+03  0.50000000000E+03  0.00000000000E+00 0. -1.
        -11   -1    0    0    0    0 -0.00000000000E+00 -0.00000000000E+00 -0.50000000000E+03  0.50000000000E+03  0.00000000000E+00 0.  1.
          5    1    1    2  501    0 -0.48192757449E+02  0.30140491082E+03  0.39599298966E+03  0.50000000000E+03  0.47000000000E+01 0. -1.
         -5    1    1    2    0  501  0.48192757449E+02 -0.30140491082E+03 -0.39599298966E+03  0.50000000000E+03  0.47000000000E+01 0.  1.
</event>
<event>
 4    1  0.4838534E-004  0.1000000E+04  0.7546771E-02  0.8684367E-01
         11   -1    0    0    0    0  0.00000000000E+00  0.00000000000E+00  0.50000000000E+03  0.50000000000E+03  0.00000000000E+00 0. -1.
        -11   -1    0    0    0    0 -0.00000000000E+00 -0.00000000000E+00 -0.50000000000E+03  0.50000000000E+03  0.00000000000E+00 0.  1.
          5    1    1    2  501    0  0.31503659100E+03  0.83396422345E+02 -0.37917659879E+03  0.50000000000E+03  0.47000000000E+01 0. -1.
         -5    1    1    2    0  501 -0.31503659100E+03 -0.83396422345E+02  0.37917659879E+03  0.50000000000E+03  0.47000000000E+01 0.  1.
</event>
<event>
 4    1  0.4838534E-004  0.1000000E+04  0.7546771E-02  0.8684367E-01
         11   -1    0    0    0    0  0.00000000000E+00  0.00000000000E+00  0.50000000000E+03  0.50000000000E+03  0.00000000000E+00 0. -1.
        -11   -1    0    0    0    0 -0.00000000000E+00 -0.00000000000E+00 -0.50000000000E+03  0.50000000000E+03  0.00000000000E+00 0.  1.
          5    1    1    2  501    0 -0.10201986206E+03  0.59203889132E+02  0.48586495784E+03  0.50000000000E+03  0.47000000000E+01 0. -1.
         -5    1    1    2    0  501  0.10201986206E+03 -0.59203889132E+02 -0.48586495784E+03  0.50000000000E+03  0.47000000000E+01 0.  1.
</event>
<event>
 4    1  0.4838534E-004  0.1000000E+04  0.7546771E-02  0.8684367E-01
         11   -1    0    0    0    0  0.00000000000E+00  0.00000000000E+00  0.50000000000E+03  0.50000000000E+03  0.00000000000E+00 0. -1.
        -11   -1    0    0    0    0 -0.00000000000E+00 -0.00000000000E+00 -0.50000000000E+03  0.50000000000E+03  0.00000000000E+00 0.  1.
          5    1    1    2  501    0  0.82168281952E+02 -0.27533443700E+03  0.40916650797E+03  0.50000000000E+03  0.47000000000E+01 0. -1.
         -5    1    1    2    0  501 -0.82168281952E+02  0.27533443700E+03 -0.40916650797E+03  0.50000000000E+03  0.47000000000E+01 0.  1.
</event>
<event>
 4    1  0.4838534E-004  0.1000000E+04  0.7546771E-02  0.8684367E-01
         11   -1    0    0    0    0  0.00000000000E+00  0.00000000000E+00  0.50000000000E+03  0.50000000000E+03  0.00000000000E+00 0. -1.
        -11   -1    0    0    0    0 -0.00000000000E+00 -0.00000000000E+00 -0.50000000000E+03  0.50000000000E+03  0.00000000000E+00 0.  1.
          5    1    1    2  501    0  0.39905059733E+03  0.14582457425E+03  0.26357489318E+03  0.50000000000E+03  0.47000000000E+01 0. -1.
         -5    1    1    2    0  501 -0.39905059733E+03 -0.14582457425E+03 -0.26357489318E+03  0.50000000000E+03  0.47000000000E+01 0.  1.
</event>
<event>
 4    1  0.4838534E-004  0.1000000E+04  0.7546771E-02  0.8684367E-01
         11   -1    0    0    0    0  0.00000000000E+00  0.00000000000E+00  0.50000000000E+03  0.50000000000E+03  0.00000000000E+00 0. -1.
        -11   -1    0    0    0    0 -0.00000000000E+00 -0.00000000000E+00 -0.50000000000E+03  0.50000000000E+03  0.00000000000E+00 0.  1.
          5    1    1    2  501    0  0.39980368674E+03 -0.36050017170E+02  0.29805254291E+03  0.50000000000E+03  0.47000000000E+01 0. -1.
         -5    1    1    2    0  501 -0.39980368674E+03  0.36050017170E+02 -0.29805254291E+03  0.50000000000E+03  0.47000000000E+01 0.  1.
</event>
<event>
 4    1  0.4838534E-004  0.1000000E+04  0.7546771E-02  0.8684367E-01
         11   -1    0    0    0    0  0.00000000000E+00  0.00000000000E+00  0.50000000000E+03  0.50000000000E+03  0.00000000000E+00 0. -1.
        -11   -1    0    0    0    0 -0.00000000000E+00 -0.00000000000E+00 -0.50000000000E+03  0.50000000000E+03  0.00000000000E+00 0.  1.
          5    1    1    2  501    0 -0.36123175859E+03 -0.18851256199E+02  0.34515816190E+03  0.50000000000E+03  0.47000000000E+01 0. -1.
         -5    1    1    2    0  501  0.36123175859E+03  0.18851256199E+02 -0.34515816190E+03  0.50000000000E+03  0.47000000000E+01 0.  1.
</event>
<event>
 4    1  0.4838534E-004  0.1000000E+04  0.7546771E-02  0.8684367E-01
         11   -1    0    0    0    0  0.00000000000E+00  0.00000000000E+00  0.50000000000E+03  0.50000000000E+03  0.00000000000E+00 0. -1.
        -11   -1    0    0    0    0 -0.00000000000E+00 -0.00000000000E+00 -0.50000000000E+03  0.50000000000E+03  0.00000000000E+00 0.  1.
          5    1    1    2  501    0  0.43475219487E+03 -0.12236745941E+03  0.21446361913E+03  0.50000000000E+03  0.47000000000E+01 0. -1.
         -5    1    1    2    0  501 -0.43475219487E+03  0.12236745941E+03 -0.21446361913E+03  0.50000000000E+03  0.47000000000E+01 0.  1.
</event>
<event>
 4    1  0.4838534E-004  0.1000000E+04  0.7546771E-02  0.8684367E-01
         11   -1    0    0    0    0  0.00000000000E+00  0.00000000000E+00  0.50000000000E+03  0.50000000000E+03  0.00000000000E+00 0. -1.
        -11   -1    0    0    0    0 -0.00000000000E+00 -0.00000000000E+00 -0.50000000000E+03  0.50000000000E+03  0.00000000000E+00 0.  1.
          5    1    1    2  501    0 -0.99825934761E+02  0.17323172104E+03  0.45826134855E+03  0.50000000000E+03  0.47000000000E+01 0. -1.
         -5    1    1    2    0  501  0.99825934761E+02 -0.17323172104E+03 -0.45826134855E+03  0.50000000000E+03  0.47000000000E+01 0.  1.
</event>
<event>
 4    1  0.4838534E-004  0.1000000E+04  0.7546771E-02  0.8684367E-01
         11   -1    0    0    0    0  0.00000000000E+00  0.00000000000E+00  0.50000000000E+03  0.50000000000E+03  0.00000000000E+00 0. -1.
        -11   -1    0    0    0    0 -0.00000000000E+00 -0.00000000000E+00 -0.50000000000E+03  0.50000000000E+03  0.00000000000E+00 0.  1.
          5    1    1    2  501    0 -0.13935745728E+03 -0.43892229750E+03  0.19469110369E+03  0.50000000000E+03  0.47000000000E+01 0. -1.
         -5    1    1    2    0  501  0.13935745728E+03  0.43892229750E+03 -0.19469110369E+03  0.50000000000E+03  0.47000000000E+01 0.  1.
</event>
<event>
 4    1  0.4838534E-004  0.1000000E+04  0.7546771E-02  0.8684367E-01
         11   -1    0    0    0    0  0.00000000000E+00  0.00000000000E+00  0.50000000000E+03  0.50000000000E+03  0.00000000000E+00 0. -1.
        -11   -1    0    0    0    0 -0.00000000000E+00 -0.00000000000E+00 -0.50000000000E+03  0.50000000000E+03  0.00000000000E+00 0.  1.
          5    1    1    2  501    0  0.33459360071E+03  0.21445370590E+03  0.30337211537E+03  0.50000000000E+03  0.47000000000E+01 0. -1.
         -5    1    1    2    0  501 -0.33459360071E+03 -0.21445370590E+03 -0.30337211537E+03  0.50000000000E+03  0.47000000000E+01 0.  1.
</event>
<event>
 4    1  0.4838534E-004  0.1000000E+04  0.7546771E-02  0.8684367E-01
         11   -1    0    0    0    0  0.00000000000E+00  0.00000000000E+00  0.50000000000E+03  0.50000000000E+03  0.00000000000E+00 0. -1.
        -11   -1    0    0    0    0 -0.00000000000E+00 -0.00000000000E+00 -0.50000000000E+03  0.50000000000E+03  0.00000000000E+00 0.  1.
          5    1    1    2  501    0 -0.27661521414E+03  0.14711195905E+03  0.38964086645E+03  0.50000000000E+03  0.47000000000E+01 0. -1.
         -5    1    1    2    0  501  0.27661521414E+03 -0.14711195905E+03 -0.38964086645E+03  0.50000000000E+03  0.47000000000E+01 0.  1.
</event>
<event>
 4    1  0.4838534E-004  0.1000000E+04  0.7546771E-02  0.8684367E-01
         11   -1    0    0    0    0  0.00000000000E+00  0.00000000000E+00  0.50000000000E+03  0.50000000000E+03  0.00000000000E+00 0. -1.
        -11   -1    0    0    0    0 -0.00000000000E+00 -0.00000000000E+00 -0.50000000000E+03  0.50000000000E+03  0.00000000000E+00 0.  1.
          5    1    1    2  501    0  0.16785936306E+03 -0.23959523501E+03  0.40545686280E+03  0.50000000000E+03  0.47000000000E+01 0. -1.
         -5    1    1    2    0  501 -0.16785936306E+03  0.23959523501E+03 -0.40545686280E+03  0.50000000000E+03  0.47000000000E+01 0.  1.
</event>
<event>
 4    1  0.4838534E-004  0.1000000E+04  0.7546771E-02  0.8684367E-01
         11   -1    0    0    0    0  0.00000000000E+00  0.00000000000E+00  0.50000000000E+03  0.50000000000E+03  0.00000000000E+00 0. -1.
        -11   -1    0    0    0    0 -0.00000000000E+00 -0.00000000000E+00 -0.50000000000E+03  0.50000000000E+03  0.00000000000E+00 0.  1.
          5    1    1    2  501    0  0.44114579496E+02 -0.39613891008E+03  0.30183733665E+03  0.50000000000E+03  0.47000000000E+01 0. -1.
         -5    1    1    2    0  501 -0.44114579496E+02  0.39613891008E+03 -0.30183733665E+03  0.50000000000E+03  0.47000000000E+01 0.  1.
</event>
<event>
 4    1  0.4838534E-004  0.1000000E+04  0.7546771E-02  0.8684367E-01
         11   -1    0    0    0    0  0.00000000000E+00  0.00000000000E+00  0.50000000000E+03  0.50000000000E+03  0.00000000000E+00 0.  1.
        -11   -1    0    0    0    0 -0.00000000000E+00 -0.00000000000E+00 -0.50000000000E+03  0.50000000000E+03  0.00000000000E+00 0. -1.
          5    1    1    2  501    0 -0.41831637597E+02 -0.84775752530E+02  0.49095936276E+03  0.50000000000E+03  0.47000000000E+01 0.  1.
         -5    1    1    2    0  501  0.41831637597E+02  0.84775752530E+02 -0.49095936276E+03  0.50000000000E+03  0.47000000000E+01 0. -1.
</event>
<event>
 4    1  0.4838534E-004  0.1000000E+04  0.7546771E-02  0.8684367E-01
         11   -1    0    0    0    0  0.00000000000E+00  0.00000000000E+00  0.50000000000E+03  0.50000000000E+03  0.00000000000E+00 0. -1.
        -11   -1    0    0    0    0 -0.00000000000E+00 -0.00000000000E+00 -0.50000000000E+03  0.50000000000E+03  0.00000000000E+00 0.  1.
          5    1    1    2  501    0  0.11296755765E+03  0.47982973303E+03  0.83544408652E+02  0.50000000000E+03  0.47000000000E+01 0. -1.
         -5    1    1    2    0  501 -0.11296755765E+03 -0.47982973303E+03 -0.83544408652E+02  0.50000000000E+03  0.47000000000E+01 0.  1.
</event>
<event>
 4    1  0.4838534E-004  0.1000000E+04  0.7546771E-02  0.8684367E-01
         11   -1    0    0    0    0  0.00000000000E+00  0.00000000000E+00  0.50000000000E+03  0.50000000000E+03  0.00000000000E+00 0. -1.
        -11   -1    0    0    0    0 -0.00000000000E+00 -0.00000000000E+00 -0.50000000000E+03  0.50000000000E+03  0.00000000000E+00 0.  1.
          5    1    1    2  501    0  0.29632949607E+03  0.15413323974E+03  0.37203452012E+03  0.50000000000E+03  0.47000000000E+01 0. -1.
         -5    1    1    2    0  501 -0.29632949607E+03 -0.15413323974E+03 -0.37203452012E+03  0.50000000000E+03  0.47000000000E+01 0.  1.
</event>
<event>
 4    1  0.4838534E-004  0.1000000E+04  0.7546771E-02  0.8684367E-01
         11   -1    0    0    0    0  0.00000000000E+00  0.00000000000E+00  0.50000000000E+03  0.50000000000E+03  0.00000000000E+00 0. -1.
        -11   -1    0    0    0    0 -0.00000000000E+00 -0.00000000000E+00 -0.50000000000E+03  0.50000000000E+03  0.00000000000E+00 0.  1.
          5    1    1    2  501    0 -0.22557706157E+03 -0.20645839447E+03  0.39556014795E+03  0.50000000000E+03  0.47000000000E+01 0. -1.
         -5    1    1    2    0  501  0.22557706157E+03  0.20645839447E+03 -0.39556014795E+03  0.50000000000E+03  0.47000000000E+01 0.  1.
</event>
<event>
 4    1  0.4838534E-004  0.1000000E+04  0.7546771E-02  0.8684367E-01
         11   -1    0    0    0    0  0.00000000000E+00  0.00000000000E+00  0.50000000000E+03  0.50000000000E+03  0.00000000000E+00 0. -1.
        -11   -1    0    0    0    0 -0.00000000000E+00 -0.00000000000E+00 -0.50000000000E+03  0.50000000000E+03  0.00000000000E+00 0.  1.
          5    1    1    2  501    0 -0.31362371819E+03  0.11010046857E+03  0.37349157984E+03  0.50000000000E+03  0.47000000000E+01 0. -1.
         -5    1    1    2    0  501  0.31362371819E+03 -0.11010046857E+03 -0.37349157984E+03  0.50000000000E+03  0.47000000000E+01 0.  1.
</event>
<event>
 4    1  0.4838534E-004  0.1000000E+04  0.7546771E-02  0.8684367E-01
         11   -1    0    0    0    0  0.00000000000E+00  0.00000000000E+00  0.50000000000E+03  0.50000000000E+03  0.00000000000E+00 0. -1.
        -11   -1    0    0    0    0 -0.00000000000E+00 -0.00000000000E+00 -0.50000000000E+03  0.50000000000E+03  0.00000000000E+00 0.  1.
          5    1    1    2  501    0 -0.26234610554E+03 -0.23408572917E+03  0.35546631670E+03  0.50000000000E+03  0.47000000000E+01 0. -1.
         -5    1    1    2    0  501  0.26234610554E+03  0.23408572917E+03 -0.35546631670E+03  0.50000000000E+03  0.47000000000E+01 0.  1.
</event>
<event>
 4    1  0.4838534E-004  0.1000000E+04  0.7546771E-02  0.8684367E-01
         11   -1    0    0    0    0  0.00000000000E+00  0.00000000000E+00  0.50000000000E+03  0.50000000000E+03  0.00000000000E+00 0. -1.
        -11   -1    0    0    0    0 -0.00000000000E+00 -0.00000000000E+00 -0.50000000000E+03  0.50000000000E+03  0.00000000000E+00 0.  1.
          5    1    1    2  501    0 -0.22126847364E+03 -0.10388338602E+03  0.43614953248E+03  0.50000000000E+03  0.47000000000E+01 0. -1.
         -5    1    1    2    0  501  0.22126847364E+03  0.10388338602E+03 -0.43614953248E+03  0.50000000000E+03  0.47000000000E+01 0.  1.
</event>
<event>
 4    1  0.4838534E-004  0.1000000E+04  0.7546771E-02  0.8684367E-01
         11   -1    0    0    0    0  0.00000000000E+00  0.00000000000E+00  0.50000000000E+03  0.50000000000E+03  0.00000000000E+00 0.  1.
        -11   -1    0    0    0    0 -0.00000000000E+00 -0.00000000000E+00 -0.50000000000E+03  0.50000000000E+03  0.00000000000E+00 0. -1.
          5    1    1    2  501    0 -0.92051302132E+02 -0.11851479268E+03  0.47692631684E+03  0.50000000000E+03  0.47000000000E+01 0. -1.
         -5    1    1    2    0  501  0.92051302132E+02  0.11851479268E+03 -0.47692631684E+03  0.50000000000E+03  0.47000000000E+01 0.  1.
</event>
<event>
 4    1  0.4838534E-004  0.1000000E+04  0.7546771E-02  0.8684367E-01
         11   -1    0    0    0    0  0.00000000000E+00  0.00000000000E+00  0.50000000000E+03  0.50000000000E+03  0.00000000000E+00 0. -1.
        -11   -1    0    0    0    0 -0.00000000000E+00 -0.00000000000E+00 -0.50000000000E+03  0.50000000000E+03  0.00000000000E+00 0.  1.
          5    1    1    2  501    0  0.22848036871E+03  0.43922078550E+03  0.69711783051E+02  0.50000000000E+03  0.47000000000E+01 0. -1.
         -5    1    1    2    0  501 -0.22848036871E+03 -0.43922078550E+03 -0.69711783051E+02  0.50000000000E+03  0.47000000000E+01 0.  1.
</event>
<event>
 4    1  0.4838534E-004  0.1000000E+04  0.7546771E-02  0.8684367E-01
         11   -1    0    0    0    0  0.00000000000E+00  0.00000000000E+00  0.50000000000E+03  0.50000000000E+03  0.00000000000E+00 0.  1.
        -11   -1    0    0    0    0 -0.00000000000E+00 -0.00000000000E+00 -0.50000000000E+03  0.50000000000E+03  0.00000000000E+00 0. -1.
          5    1    1    2  501    0 -0.54942136578E+02  0.30969521795E+03  0.38864912660E+03  0.50000000000E+03  0.47000000000E+01 0.  1.
         -5    1    1    2    0  501  0.54942136578E+02 -0.30969521795E+03 -0.38864912660E+03  0.50000000000E+03  0.47000000000E+01 0. -1.
</event>
<event>
 4    1  0.4838534E-004  0.1000000E+04  0.7546771E-02  0.8684367E-01
         11   -1    0    0    0    0  0.00000000000E+00  0.00000000000E+00  0.50000000000E+03  0.50000000000E+03  0.00000000000E+00 0. -1.
        -11   -1    0    0    0    0 -0.00000000000E+00 -0.00000000000E+00 -0.50000000000E+03  0.50000000000E+03  0.00000000000E+00 0.  1.
          5    1    1    2  501    0  0.32275865248E+03 -0.36201328524E+03  0.12145428587E+03  0.50000000000E+03  0.47000000000E+01 0. -1.
         -5    1    1    2    0  501 -0.32275865248E+03  0.36201328524E+03 -0.12145428587E+03  0.50000000000E+03  0.47000000000E+01 0.  1.
</event>
<event>
 4    1  0.4838534E-004  0.1000000E+04  0.7546771E-02  0.8684367E-01
         11   -1    0    0    0    0  0.00000000000E+00  0.00000000000E+00  0.50000000000E+03  0.50000000000E+03  0.00000000000E+00 0. -1.
        -11   -1    0    0    0    0 -0.00000000000E+00 -0.00000000000E+00 -0.50000000000E+03  0.50000000000E+03  0.00000000000E+00 0.  1.
          5    1    1    2  501    0 -0.48190722399E+01 -0.21401554289E+02  0.49949640641E+03  0.50000000000E+03  0.47000000000E+01 0. -1.
         -5    1    1    2    0  501  0.48190722399E+01  0.21401554289E+02 -0.49949640641E+03  0.50000000000E+03  0.47000000000E+01 0.  1.
</event>
<event>
 4    1  0.4838534E-004  0.1000000E+04  0.7546771E-02  0.8684367E-01
         11   -1    0    0    0    0  0.00000000000E+00  0.00000000000E+00  0.50000000000E+03  0.50000000000E+03  0.00000000000E+00 0. -1.
        -11   -1    0    0    0    0 -0.00000000000E+00 -0.00000000000E+00 -0.50000000000E+03  0.50000000000E+03  0.00000000000E+00 0.  1.
          5    1    1    2  501    0  0.66884982992E+02 -0.29460071472E+02  0.49460733237E+03  0.50000000000E+03  0.47000000000E+01 0. -1.
         -5    1    1    2    0  501 -0.66884982992E+02  0.29460071472E+02 -0.49460733237E+03  0.50000000000E+03  0.47000000000E+01 0.  1.
</event>
<event>
 4    1  0.4838534E-004  0.1000000E+04  0.7546771E-02  0.8684367E-01
         11   -1    0    0    0    0  0.00000000000E+00  0.00000000000E+00  0.50000000000E+03  0.50000000000E+03  0.00000000000E+00 0. -1.
        -11   -1    0    0    0    0 -0.00000000000E+00 -0.00000000000E+00 -0.50000000000E+03  0.50000000000E+03  0.00000000000E+00 0.  1.
          5    1    1    2  501    0  0.18301849863E+03  0.33153362010E+03  0.32644692969E+03  0.50000000000E+03  0.47000000000E+01 0. -1.
         -5    1    1    2    0  501 -0.18301849863E+03 -0.33153362010E+03 -0.32644692969E+03  0.50000000000E+03  0.47000000000E+01 0.  1.
</event>
<event>
 4    1  0.4838534E-004  0.1000000E+04  0.7546771E-02  0.8684367E-01
         11   -1    0    0    0    0  0.00000000000E+00  0.00000000000E+00  0.50000000000E+03  0.50000000000E+03  0.00000000000E+00 0.  1.
        -11   -1    0    0    0    0 -0.00000000000E+00 -0.00000000000E+00 -0.50000000000E+03  0.50000000000E+03  0.00000000000E+00 0. -1.
          5    1    1    2  501    0  0.98035365789E+02  0.26514299023E+03  0.41239079983E+03  0.50000000000E+03  0.47000000000E+01 0.  1.
         -5    1    1    2    0  501 -0.98035365789E+02 -0.26514299023E+03 -0.41239079983E+03  0.50000000000E+03  0.47000000000E+01 0. -1.
</event>
<event>
 4    1  0.4838534E-004  0.1000000E+04  0.7546771E-02  0.8684367E-01
         11   -1    0    0    0    0  0.00000000000E+00  0.00000000000E+00  0.50000000000E+03  0.50000000000E+03  0.00000000000E+00 0. -1.
        -11   -1    0    0    0    0 -0.00000000000E+00 -0.00000000000E+00 -0.50000000000E+03  0.50000000000E+03  0.00000000000E+00 0.  1.
          5    1    1    2  501    0 -0.14967327058E+03 -0.12083436114E+03  0.46149201428E+03  0.50000000000E+03  0.47000000000E+01 0. -1.
         -5    1    1    2    0  501  0.14967327058E+03  0.12083436114E+03 -0.46149201428E+03  0.50000000000E+03  0.47000000000E+01 0.  1.
</event>
<event>
 4    1  0.4838534E-004  0.1000000E+04  0.7546771E-02  0.8684367E-01
         11   -1    0    0    0    0  0.00000000000E+00  0.00000000000E+00  0.50000000000E+03  0.50000000000E+03  0.00000000000E+00 0. -1.
        -11   -1    0    0    0    0 -0.00000000000E+00 -0.00000000000E+00 -0.50000000000E+03  0.50000000000E+03  0.00000000000E+00 0.  1.
          5    1    1    2  501    0 -0.28758407774E+03 -0.24655896665E+03  0.32631577374E+03  0.50000000000E+03  0.47000000000E+01 0. -1.
         -5    1    1    2    0  501  0.28758407774E+03  0.24655896665E+03 -0.32631577374E+03  0.50000000000E+03  0.47000000000E+01 0.  1.
</event>
<event>
 4    1  0.4838534E-004  0.1000000E+04  0.7546771E-02  0.8684367E-01
         11   -1    0    0    0    0  0.00000000000E+00  0.00000000000E+00  0.50000000000E+03  0.50000000000E+03  0.00000000000E+00 0. -1.
        -11   -1    0    0    0    0 -0.00000000000E+00 -0.00000000000E+00 -0.50000000000E+03  0.50000000000E+03  0.00000000000E+00 0.  1.
          5    1    1    2  501    0 -0.46247765771E+03 -0.16754944451E+03  0.89551715574E+02  0.50000000000E+03  0.47000000000E+01 0. -1.
         -5    1    1    2    0  501  0.46247765771E+03  0.16754944451E+03 -0.89551715574E+02  0.50000000000E+03  0.47000000000E+01 0.  1.
</event>
<event>
 4    1  0.4838534E-004  0.1000000E+04  0.7546771E-02  0.8684367E-01
         11   -1    0    0    0    0  0.00000000000E+00  0.00000000000E+00  0.50000000000E+03  0.50000000000E+03  0.00000000000E+00 0. -1.
        -11   -1    0    0    0    0 -0.00000000000E+00 -0.00000000000E+00 -0.50000000000E+03  0.50000000000E+03  0.00000000000E+00 0.  1.
          5    1    1    2  501    0 -0.65852570086E+02  0.30962948793E+02  0.49465406580E+03  0.50000000000E+03  0.47000000000E+01 0. -1.
         -5    1    1    2    0  501  0.65852570086E+02 -0.30962948793E+02 -0.49465406580E+03  0.50000000000E+03  0.47000000000E+01 0.  1.
</event>
<event>
 4    1  0.4838534E-004  0.1000000E+04  0.7546771E-02  0.8684367E-01
         11   -1    0    0    0    0  0.00000000000E+00  0.00000000000E+00  0.50000000000E+03  0.50000000000E+03  0.00000000000E+00 0. -1.
        -11   -1    0    0    0    0 -0.00000000000E+00 -0.00000000000E+00 -0.50000000000E+03  0.50000000000E+03  0.00000000000E+00 0.  1.
          5    1    1    2  501    0  0.19504482323E+03  0.34571891173E+01  0.46035146874E+03  0.50000000000E+03  0.47000000000E+01 0. -1.
         -5    1    1    2    0  501 -0.19504482323E+03 -0.34571891173E+01 -0.46035146874E+03  0.50000000000E+03  0.47000000000E+01 0.  1.
</event>
<event>
 4    1  0.4838534E-004  0.1000000E+04  0.7546771E-02  0.8684367E-01
         11   -1    0    0    0    0  0.00000000000E+00  0.00000000000E+00  0.50000000000E+03  0.50000000000E+03  0.00000000000E+00 0. -1.
        -11   -1    0    0    0    0 -0.00000000000E+00 -0.00000000000E+00 -0.50000000000E+03  0.50000000000E+03  0.00000000000E+00 0.  1.
          5    1    1    2  501    0  0.47627086427E+03  0.11799415111E+03 -0.96027882171E+02  0.50000000000E+03  0.47000000000E+01 0. -1.
         -5    1    1    2    0  501 -0.47627086427E+03 -0.11799415111E+03  0.96027882171E+02  0.50000000000E+03  0.47000000000E+01 0.  1.
</event>
<event>
 4    1  0.4838534E-004  0.1000000E+04  0.7546771E-02  0.8684367E-01
         11   -1    0    0    0    0  0.00000000000E+00  0.00000000000E+00  0.50000000000E+03  0.50000000000E+03  0.00000000000E+00 0. -1.
        -11   -1    0    0    0    0 -0.00000000000E+00 -0.00000000000E+00 -0.50000000000E+03  0.50000000000E+03  0.00000000000E+00 0.  1.
          5    1    1    2  501    0  0.44250690842E+03 -0.23044233879E+03 -0.32586415721E+02  0.50000000000E+03  0.47000000000E+01 0. -1.
         -5    1    1    2    0  501 -0.44250690842E+03  0.23044233879E+03  0.32586415721E+02  0.50000000000E+03  0.47000000000E+01 0.  1.
</event>
<event>
 4    1  0.4838534E-004  0.1000000E+04  0.7546771E-02  0.8684367E-01
         11   -1    0    0    0    0  0.00000000000E+00  0.00000000000E+00  0.50000000000E+03  0.50000000000E+03  0.00000000000E+00 0. -1.
        -11   -1    0    0    0    0 -0.00000000000E+00 -0.00000000000E+00 -0.50000000000E+03  0.50000000000E+03  0.00000000000E+00 0.  1.
          5    1    1    2  501    0 -0.30841920485E+03 -0.38503280686E+02  0.39162865250E+03  0.50000000000E+03  0.47000000000E+01 0. -1.
         -5    1    1    2    0  501  0.30841920485E+03  0.38503280686E+02 -0.39162865250E+03  0.50000000000E+03  0.47000000000E+01 0.  1.
</event>
<event>
 4    1  0.4838534E-004  0.1000000E+04  0.7546771E-02  0.8684367E-01
         11   -1    0    0    0    0  0.00000000000E+00  0.00000000000E+00  0.50000000000E+03  0.50000000000E+03  0.00000000000E+00 0. -1.
        -11   -1    0    0    0    0 -0.00000000000E+00 -0.00000000000E+00 -0.50000000000E+03  0.50000000000E+03  0.00000000000E+00 0.  1.
          5    1    1    2  501    0  0.37129022759E+03 -0.33033062248E+03  0.54801065235E+02  0.50000000000E+03  0.47000000000E+01 0. -1.
         -5    1    1    2    0  501 -0.37129022759E+03  0.33033062248E+03 -0.54801065235E+02  0.50000000000E+03  0.47000000000E+01 0.  1.
</event>
<event>
 4    1  0.4838534E-004  0.1000000E+04  0.7546771E-02  0.8684367E-01
         11   -1    0    0    0    0  0.00000000000E+00  0.00000000000E+00  0.50000000000E+03  0.50000000000E+03  0.00000000000E+00 0. -1.
        -11   -1    0    0    0    0 -0.00000000000E+00 -0.00000000000E+00 -0.50000000000E+03  0.50000000000E+03  0.00000000000E+00 0.  1.
          5    1    1    2  501    0  0.20603055184E+03  0.17944924687E+03 -0.41872101632E+03  0.50000000000E+03  0.47000000000E+01 0.  1.
         -5    1    1    2    0  501 -0.20603055184E+03 -0.17944924687E+03  0.41872101632E+03  0.50000000000E+03  0.47000000000E+01 0. -1.
</event>
<event>
 4    1  0.4838534E-004  0.1000000E+04  0.7546771E-02  0.8684367E-01
         11   -1    0    0    0    0  0.00000000000E+00  0.00000000000E+00  0.50000000000E+03  0.50000000000E+03  0.00000000000E+00 0. -1.
        -11   -1    0    0    0    0 -0.00000000000E+00 -0.00000000000E+00 -0.50000000000E+03  0.50000000000E+03  0.00000000000E+00 0.  1.
          5    1    1    2  501    0  0.15965738314E+03  0.37895852081E+03  0.28439034708E+03  0.50000000000E+03  0.47000000000E+01 0. -1.
         -5    1    1    2    0  501 -0.15965738314E+03 -0.37895852081E+03 -0.28439034708E+03  0.50000000000E+03  0.47000000000E+01 0.  1.
</event>
<event>
 4    1  0.4838534E-004  0.1000000E+04  0.7546771E-02  0.8684367E-01
         11   -1    0    0    0    0  0.00000000000E+00  0.00000000000E+00  0.50000000000E+03  0.50000000000E+03  0.00000000000E+00 0. -1.
        -11   -1    0    0    0    0 -0.00000000000E+00 -0.00000000000E+00 -0.50000000000E+03  0.50000000000E+03  0.00000000000E+00 0.  1.
          5    1    1    2  501    0 -0.12478026593E+03  0.26102256366E+03 -0.40776833680E+03  0.50000000000E+03  0.47000000000E+01 0.  1.
         -5    1    1    2    0  501  0.12478026593E+03 -0.26102256366E+03  0.40776833680E+03  0.50000000000E+03  0.47000000000E+01 0. -1.
</event>
<event>
 4    1  0.4838534E-004  0.1000000E+04  0.7546771E-02  0.8684367E-01
         11   -1    0    0    0    0  0.00000000000E+00  0.00000000000E+00  0.50000000000E+03  0.50000000000E+03  0.00000000000E+00 0. -1.
        -11   -1    0    0    0    0 -0.00000000000E+00 -0.00000000000E+00 -0.50000000000E+03  0.50000000000E+03  0.00000000000E+00 0.  1.
          5    1    1    2  501    0  0.10246431135E+03 -0.11069198813E+03  0.47668255544E+03  0.50000000000E+03  0.47000000000E+01 0. -1.
         -5    1    1    2    0  501 -0.10246431135E+03  0.11069198813E+03 -0.47668255544E+03  0.50000000000E+03  0.47000000000E+01 0.  1.
</event>
<event>
 4    1  0.4838534E-004  0.1000000E+04  0.7546771E-02  0.8684367E-01
         11   -1    0    0    0    0  0.00000000000E+00  0.00000000000E+00  0.50000000000E+03  0.50000000000E+03  0.00000000000E+00 0.  1.
        -11   -1    0    0    0    0 -0.00000000000E+00 -0.00000000000E+00 -0.50000000000E+03  0.50000000000E+03  0.00000000000E+00 0. -1.
          5    1    1    2  501    0 -0.20389276039E+03 -0.22713869981E+02  0.45594926513E+03  0.50000000000E+03  0.47000000000E+01 0.  1.
         -5    1    1    2    0  501  0.20389276039E+03  0.22713869981E+02 -0.45594926513E+03  0.50000000000E+03  0.47000000000E+01 0. -1.
</event>
