<event>
 5    1  0.4761089E-001  0.8000000E+02  0.7546771E-02  0.1203772E+00
         11   -1    0    0    0    0  0.00000000000E+00  0.00000000000E+00  0.40000000000E+02  0.40000000000E+02  0.00000000000E+00 0. -1.
        -11   -1    0    0    0    0 -0.00000000000E+00 -0.00000000000E+00 -0.40000000000E+02  0.40000000000E+02  0.00000000000E+00 0.  1.
         23    2    1    2    0    0  0.00000000000E+00  0.00000000000E+00  0.00000000000E+00  0.80000000000E+02  0.80000000000E+02 0.  0.
          5    1    3    3  501    0 -0.67927407343E+01  0.88755582842E+01  0.38118147102E+02  0.40000000000E+02  0.47000000000E+01 0. -1.
         -5    1    3    3    0  501  0.67927407343E+01 -0.88755582842E+01 -0.38118147102E+02  0.40000000000E+02  0.47000000000E+01 0.  1.
</event>
<event>
 5    1  0.4761089E-001  0.8000000E+02  0.7546771E-02  0.1203772E+00
         11   -1    0    0    0    0  0.00000000000E+00  0.00000000000E+00  0.40000000000E+02  0.40000000000E+02  0.00000000000E+00 0.  1.
        -11   -1    0    0    0    0 -0.00000000000E+00 -0.00000000000E+00 -0.40000000000E+02  0.40000000000E+02  0.00000000000E+00 0. -1.
         23    2    1    2    0    0  0.00000000000E+00  0.00000000000E+00  0.00000000000E+00  0.80000000000E+02  0.80000000000E+02 0.  0.
          5    1    3    3  501    0 -0.38578092218E+02  0.58821918965E+00 -0.94495925304E+01  0.40000000000E+02  0.47000000000E+01 0. -1.
         -5    1    3    3    0  501  0.38578092218E+02 -0.58821918965E+00  0.94495925304E+01  0.40000000000E+02  0.47000000000E+01 0.  1.
</event>
<event>
 5    1  0.4761089E-001  0.8000000E+02  0.7546771E-02  0.1203772E+00
         11   -1    0    0    0    0  0.00000000000E+00  0.00000000000E+00  0.40000000000E+02  0.40000000000E+02  0.00000000000E+00 0.  1.
        -11   -1    0    0    0    0 -0.00000000000E+00 -0.00000000000E+00 -0.40000000000E+02  0.40000000000E+02  0.00000000000E+00 0. -1.
         23    2    1    2    0    0  0.00000000000E+00  0.00000000000E+00  0.00000000000E+00  0.80000000000E+02  0.80000000000E+02 0.  0.
          5    1    3    3  501    0 -0.27813682459E+02 -0.74227157424E+00 -0.28350627876E+02  0.40000000000E+02  0.47000000000E+01 0. -1.
         -5    1    3    3    0  501  0.27813682459E+02  0.74227157424E+00  0.28350627876E+02  0.40000000000E+02  0.47000000000E+01 0.  1.
</event>
<event>
 5    1  0.4761089E-001  0.8000000E+02  0.7546771E-02  0.1203772E+00
         11   -1    0    0    0    0  0.00000000000E+00  0.00000000000E+00  0.40000000000E+02  0.40000000000E+02  0.00000000000E+00 0.  1.
        -11   -1    0    0    0    0 -0.00000000000E+00 -0.00000000000E+00 -0.40000000000E+02  0.40000000000E+02  0.00000000000E+00 0. -1.
         23    2    1    2    0    0  0.00000000000E+00  0.00000000000E+00  0.00000000000E+00  0.80000000000E+02  0.80000000000E+02 0.  0.
          5    1    3    3  501    0  0.23180322760E+02 -0.21423312932E+02 -0.24116888268E+02  0.40000000000E+02  0.47000000000E+01 0. -1.
         -5    1    3    3    0  501 -0.23180322760E+02  0.21423312932E+02  0.24116888268E+02  0.40000000000E+02  0.47000000000E+01 0.  1.
</event>
<event>
 5    1  0.4761089E-001  0.8000000E+02  0.7546771E-02  0.1203772E+00
         11   -1    0    0    0    0  0.00000000000E+00  0.00000000000E+00  0.40000000000E+02  0.40000000000E+02  0.00000000000E+00 0.  1.
        -11   -1    0    0    0    0 -0.00000000000E+00 -0.00000000000E+00 -0.40000000000E+02  0.40000000000E+02  0.00000000000E+00 0. -1.
         23    2    1    2    0    0  0.00000000000E+00  0.00000000000E+00  0.00000000000E+00  0.80000000000E+02  0.80000000000E+02 0.  0.
          5    1    3    3  501    0  0.73923410006E+01 -0.38010656379E+02 -0.88573865320E+01  0.40000000000E+02  0.47000000000E+01 0. -1.
         -5    1    3    3    0  501 -0.73923410006E+01  0.38010656379E+02  0.88573865320E+01  0.40000000000E+02  0.47000000000E+01 0.  1.
</event>
<event>
 5    1  0.4761089E-001  0.8000000E+02  0.7546771E-02  0.1203772E+00
         11   -1    0    0    0    0  0.00000000000E+00  0.00000000000E+00  0.40000000000E+02  0.40000000000E+02  0.00000000000E+00 0. -1.
        -11   -1    0    0    0    0 -0.00000000000E+00 -0.00000000000E+00 -0.40000000000E+02  0.40000000000E+02  0.00000000000E+00 0.  1.
         23    2    1    2    0    0  0.00000000000E+00  0.00000000000E+00  0.00000000000E+00  0.80000000000E+02  0.80000000000E+02 0.  0.
          5    1    3    3  501    0 -0.77827676356E-01 -0.39676458686E+02  0.19190020821E+01  0.40000000000E+02  0.47000000000E+01 0. -1.
         -5    1    3    3    0  501  0.77827676356E-01  0.39676458686E+02 -0.19190020821E+01  0.40000000000E+02  0.47000000000E+01 0.  1.
</event>
<event>
 5    1  0.4761089E-001  0.8000000E+02  0.7546771E-02  0.1203772E+00
         11   -1    0    0    0    0  0.00000000000E+00  0.00000000000E+00  0.40000000000E+02  0.40000000000E+02  0.00000000000E+00 0.  1.
        -11   -1    0    0    0    0 -0.00000000000E+00 -0.00000000000E+00 -0.40000000000E+02  0.40000000000E+02  0.00000000000E+00 0. -1.
         23    2    1    2    0    0  0.00000000000E+00  0.00000000000E+00  0.00000000000E+00  0.80000000000E+02  0.80000000000E+02 0.  0.
          5    1    3    3  501    0 -0.96572512232E+01 -0.29644232202E+02 -0.24614365642E+02  0.40000000000E+02  0.47000000000E+01 0. -1.
         -5    1    3    3    0  501  0.96572512232E+01  0.29644232202E+02  0.24614365642E+02  0.40000000000E+02  0.47000000000E+01 0.  1.
</event>
<event>
 5    1  0.4761089E-001  0.8000000E+02  0.7546771E-02  0.1203772E+00
         11   -1    0    0    0    0  0.00000000000E+00  0.00000000000E+00  0.40000000000E+02  0.40000000000E+02  0.00000000000E+00 0.  1.
        -11   -1    0    0    0    0 -0.00000000000E+00 -0.00000000000E+00 -0.40000000000E+02  0.40000000000E+02  0.00000000000E+00 0. -1.
         23    2    1    2    0    0  0.00000000000E+00  0.00000000000E+00  0.00000000000E+00  0.80000000000E+02  0.80000000000E+02 0.  0.
          5    1    3    3  501    0 -0.11129863209E+02 -0.32762356377E+02 -0.19510616330E+02  0.40000000000E+02  0.47000000000E+01 0. -1.
         -5    1    3    3    0  501  0.11129863209E+02  0.32762356377E+02  0.19510616330E+02  0.40000000000E+02  0.47000000000E+01 0.  1.
</event>
<event>
 5    1  0.4761089E-001  0.8000000E+02  0.7546771E-02  0.1203772E+00
         11   -1    0    0    0    0  0.00000000000E+00  0.00000000000E+00  0.40000000000E+02  0.40000000000E+02  0.00000000000E+00 0. -1.
        -11   -1    0    0    0    0 -0.00000000000E+00 -0.00000000000E+00 -0.40000000000E+02  0.40000000000E+02  0.00000000000E+00 0.  1.
         23    2    1    2    0    0  0.00000000000E+00  0.00000000000E+00  0.00000000000E+00  0.80000000000E+02  0.80000000000E+02 0.  0.
          5    1    3    3  501    0 -0.16814242681E+02 -0.26566811959E+01  0.35890573806E+02  0.40000000000E+02  0.47000000000E+01 0. -1.
         -5    1    3    3    0  501  0.16814242681E+02  0.26566811959E+01 -0.35890573806E+02  0.40000000000E+02  0.47000000000E+01 0.  1.
</event>
<event>
 5    1  0.4761089E-001  0.8000000E+02  0.7546771E-02  0.1203772E+00
         11   -1    0    0    0    0  0.00000000000E+00  0.00000000000E+00  0.40000000000E+02  0.40000000000E+02  0.00000000000E+00 0. -1.
        -11   -1    0    0    0    0 -0.00000000000E+00 -0.00000000000E+00 -0.40000000000E+02  0.40000000000E+02  0.00000000000E+00 0.  1.
         23    2    1    2    0    0  0.00000000000E+00  0.00000000000E+00  0.00000000000E+00  0.80000000000E+02  0.80000000000E+02 0.  0.
          5    1    3    3  501    0  0.14679346547E+02  0.26454767144E+02  0.25740475526E+02  0.40000000000E+02  0.47000000000E+01 0. -1.
         -5    1    3    3    0  501 -0.14679346547E+02 -0.26454767144E+02 -0.25740475526E+02  0.40000000000E+02  0.47000000000E+01 0.  1.
</event>
<event>
 5    1  0.4761089E-001  0.8000000E+02  0.7546771E-02  0.1203772E+00
         11   -1    0    0    0    0  0.00000000000E+00  0.00000000000E+00  0.40000000000E+02  0.40000000000E+02  0.00000000000E+00 0.  1.
        -11   -1    0    0    0    0 -0.00000000000E+00 -0.00000000000E+00 -0.40000000000E+02  0.40000000000E+02  0.00000000000E+00 0. -1.
         23    2    1    2    0    0  0.00000000000E+00  0.00000000000E+00  0.00000000000E+00  0.80000000000E+02  0.80000000000E+02 0.  0.
          5    1    3    3  501    0  0.20105579745E+02 -0.23310263772E+02 -0.25105920935E+02  0.40000000000E+02  0.47000000000E+01 0. -1.
         -5    1    3    3    0  501 -0.20105579745E+02  0.23310263772E+02  0.25105920935E+02  0.40000000000E+02  0.47000000000E+01 0.  1.
</event>
<event>
 5    1  0.4761089E-001  0.8000000E+02  0.7546771E-02  0.1203772E+00
         11   -1    0    0    0    0  0.00000000000E+00  0.00000000000E+00  0.40000000000E+02  0.40000000000E+02  0.00000000000E+00 0.  1.
        -11   -1    0    0    0    0 -0.00000000000E+00 -0.00000000000E+00 -0.40000000000E+02  0.40000000000E+02  0.00000000000E+00 0. -1.
         23    2    1    2    0    0  0.00000000000E+00  0.00000000000E+00  0.00000000000E+00  0.80000000000E+02  0.80000000000E+02 0.  0.
          5    1    3    3  501    0  0.19476433457E+02 -0.24786249924E+02 -0.24170650684E+02  0.40000000000E+02  0.47000000000E+01 0. -1.
         -5    1    3    3    0  501 -0.19476433457E+02  0.24786249924E+02  0.24170650684E+02  0.40000000000E+02  0.47000000000E+01 0.  1.
</event>
<event>
 5    1  0.4761089E-001  0.8000000E+02  0.7546771E-02  0.1203772E+00
         11   -1    0    0    0    0  0.00000000000E+00  0.00000000000E+00  0.40000000000E+02  0.40000000000E+02  0.00000000000E+00 0. -1.
        -11   -1    0    0    0    0 -0.00000000000E+00 -0.00000000000E+00 -0.40000000000E+02  0.40000000000E+02  0.00000000000E+00 0.  1.
         23    2    1    2    0    0  0.00000000000E+00  0.00000000000E+00  0.00000000000E+00  0.80000000000E+02  0.80000000000E+02 0.  0.
          5    1    3    3  501    0  0.18795582644E+02  0.12799106712E+02  0.32570215542E+02  0.40000000000E+02  0.47000000000E+01 0. -1.
         -5    1    3    3    0  501 -0.18795582644E+02 -0.12799106712E+02 -0.32570215542E+02  0.40000000000E+02  0.47000000000E+01 0.  1.
</event>
<event>
 5    1  0.4761089E-001  0.8000000E+02  0.7546771E-02  0.1203772E+00
         11   -1    0    0    0    0  0.00000000000E+00  0.00000000000E+00  0.40000000000E+02  0.40000000000E+02  0.00000000000E+00 0.  1.
        -11   -1    0    0    0    0 -0.00000000000E+00 -0.00000000000E+00 -0.40000000000E+02  0.40000000000E+02  0.00000000000E+00 0. -1.
         23    2    1    2    0    0  0.00000000000E+00  0.00000000000E+00  0.00000000000E+00  0.80000000000E+02  0.80000000000E+02 0.  0.
          5    1    3    3  501    0 -0.16427786729E+02 -0.38494604125E+01 -0.35961360899E+02  0.40000000000E+02  0.47000000000E+01 0. -1.
         -5    1    3    3    0  501  0.16427786729E+02  0.38494604125E+01  0.35961360899E+02  0.40000000000E+02  0.47000000000E+01 0.  1.
</event>
<event>
 5    1  0.4761089E-001  0.8000000E+02  0.7546771E-02  0.1203772E+00
         11   -1    0    0    0    0  0.00000000000E+00  0.00000000000E+00  0.40000000000E+02  0.40000000000E+02  0.00000000000E+00 0.  1.
        -11   -1    0    0    0    0 -0.00000000000E+00 -0.00000000000E+00 -0.40000000000E+02  0.40000000000E+02  0.00000000000E+00 0. -1.
         23    2    1    2    0    0  0.00000000000E+00  0.00000000000E+00  0.00000000000E+00  0.80000000000E+02  0.80000000000E+02 0.  0.
          5    1    3    3  501    0 -0.34444494553E+02 -0.75475827368E+01 -0.18289909508E+02  0.40000000000E+02  0.47000000000E+01 0. -1.
         -5    1    3    3    0  501  0.34444494553E+02  0.75475827368E+01  0.18289909508E+02  0.40000000000E+02  0.47000000000E+01 0.  1.
</event>
<event>
 5    1  0.4761089E-001  0.8000000E+02  0.7546771E-02  0.1203772E+00
         11   -1    0    0    0    0  0.00000000000E+00  0.00000000000E+00  0.40000000000E+02  0.40000000000E+02  0.00000000000E+00 0. -1.
        -11   -1    0    0    0    0 -0.00000000000E+00 -0.00000000000E+00 -0.40000000000E+02  0.40000000000E+02  0.00000000000E+00 0.  1.
         23    2    1    2    0    0  0.00000000000E+00  0.00000000000E+00  0.00000000000E+00  0.80000000000E+02  0.80000000000E+02 0.  0.
          5    1    3    3  501    0 -0.62259695086E+01 -0.38922949525E+02  0.49143976186E+01  0.40000000000E+02  0.47000000000E+01 0.  1.
         -5    1    3    3    0  501  0.62259695086E+01  0.38922949525E+02 -0.49143976186E+01  0.40000000000E+02  0.47000000000E+01 0. -1.
</event>
<event>
 5    1  0.4761089E-001  0.8000000E+02  0.7546771E-02  0.1203772E+00
         11   -1    0    0    0    0  0.00000000000E+00  0.00000000000E+00  0.40000000000E+02  0.40000000000E+02  0.00000000000E+00 0. -1.
        -11   -1    0    0    0    0 -0.00000000000E+00 -0.00000000000E+00 -0.40000000000E+02  0.40000000000E+02  0.00000000000E+00 0.  1.
         23    2    1    2    0    0  0.00000000000E+00  0.00000000000E+00  0.00000000000E+00  0.80000000000E+02  0.80000000000E+02 0.  0.
          5    1    3    3  501    0 -0.19744869098E+01 -0.33843614013E+02 -0.20703168646E+02  0.40000000000E+02  0.47000000000E+01 0. -1.
         -5    1    3    3    0  501  0.19744869098E+01  0.33843614013E+02  0.20703168646E+02  0.40000000000E+02  0.47000000000E+01 0.  1.
</event>
<event>
 5    1  0.4761089E-001  0.8000000E+02  0.7546771E-02  0.1203772E+00
         11   -1    0    0    0    0  0.00000000000E+00  0.00000000000E+00  0.40000000000E+02  0.40000000000E+02  0.00000000000E+00 0.  1.
        -11   -1    0    0    0    0 -0.00000000000E+00 -0.00000000000E+00 -0.40000000000E+02  0.40000000000E+02  0.00000000000E+00 0. -1.
         23    2    1    2    0    0  0.00000000000E+00  0.00000000000E+00  0.00000000000E+00  0.80000000000E+02  0.80000000000E+02 0.  0.
          5    1    3    3  501    0  0.70393801402E+01 -0.79436864057E+01 -0.38278649056E+02  0.40000000000E+02  0.47000000000E+01 0. -1.
         -5    1    3    3    0  501 -0.70393801402E+01  0.79436864057E+01  0.38278649056E+02  0.40000000000E+02  0.47000000000E+01 0.  1.
</event>
<event>
 5    1  0.4761089E-001  0.8000000E+02  0.7546771E-02  0.1203772E+00
         11   -1    0    0    0    0  0.00000000000E+00  0.00000000000E+00  0.40000000000E+02  0.40000000000E+02  0.00000000000E+00 0. -1.
        -11   -1    0    0    0    0 -0.00000000000E+00 -0.00000000000E+00 -0.40000000000E+02  0.40000000000E+02  0.00000000000E+00 0.  1.
         23    2    1    2    0    0  0.00000000000E+00  0.00000000000E+00  0.00000000000E+00  0.80000000000E+02  0.80000000000E+02 0.  0.
          5    1    3    3  501    0  0.14055779431E+02 -0.21722389654E+02  0.30141049290E+02  0.40000000000E+02  0.47000000000E+01 0. -1.
         -5    1    3    3    0  501 -0.14055779431E+02  0.21722389654E+02 -0.30141049290E+02  0.40000000000E+02  0.47000000000E+01 0.  1.
</event>
<event>
 5    1  0.4761089E-001  0.8000000E+02  0.7546771E-02  0.1203772E+00
         11   -1    0    0    0    0  0.00000000000E+00  0.00000000000E+00  0.40000000000E+02  0.40000000000E+02  0.00000000000E+00 0. -1.
        -11   -1    0    0    0    0 -0.00000000000E+00 -0.00000000000E+00 -0.40000000000E+02  0.40000000000E+02  0.00000000000E+00 0.  1.
         23    2    1    2    0    0  0.00000000000E+00  0.00000000000E+00  0.00000000000E+00  0.80000000000E+02  0.80000000000E+02 0.  0.
          5    1    3    3  501    0 -0.24659339560E+02 -0.25910150607E+02  0.17276894049E+02  0.40000000000E+02  0.47000000000E+01 0. -1.
         -5    1    3    3    0  501  0.24659339560E+02  0.25910150607E+02 -0.17276894049E+02  0.40000000000E+02  0.47000000000E+01 0.  1.
</event>
<event>
 5    1  0.4761089E-001  0.8000000E+02  0.7546771E-02  0.1203772E+00
         11   -1    0    0    0    0  0.00000000000E+00  0.00000000000E+00  0.40000000000E+02  0.40000000000E+02  0.00000000000E+00 0. -1.
        -11   -1    0    0    0    0 -0.00000000000E+00 -0.00000000000E+00 -0.40000000000E+02  0.40000000000E+02  0.00000000000E+00 0.  1.
         23    2    1    2    0    0  0.00000000000E+00  0.00000000000E+00  0.00000000000E+00  0.80000000000E+02  0.80000000000E+02 0.  0.
          5    1    3    3  501    0 -0.31301086359E+02 -0.19006901766E+02  0.15391220810E+02  0.40000000000E+02  0.47000000000E+01 0. -1.
         -5    1    3    3    0  501  0.31301086359E+02  0.19006901766E+02 -0.15391220810E+02  0.40000000000E+02  0.47000000000E+01 0.  1.
</event>
<event>
 5    1  0.4761089E-001  0.8000000E+02  0.7546771E-02  0.1203772E+00
         11   -1    0    0    0    0  0.00000000000E+00  0.00000000000E+00  0.40000000000E+02  0.40000000000E+02  0.00000000000E+00 0.  1.
        -11   -1    0    0    0    0 -0.00000000000E+00 -0.00000000000E+00 -0.40000000000E+02  0.40000000000E+02  0.00000000000E+00 0. -1.
         23    2    1    2    0    0  0.00000000000E+00  0.00000000000E+00  0.00000000000E+00  0.80000000000E+02  0.80000000000E+02 0.  0.
          5    1    3    3  501    0 -0.29818618588E+01 -0.39607981390E+02 -0.47572061055E+00  0.40000000000E+02  0.47000000000E+01 0. -1.
         -5    1    3    3    0  501  0.29818618588E+01  0.39607981390E+02  0.47572061055E+00  0.40000000000E+02  0.47000000000E+01 0.  1.
</event>
<event>
 5    1  0.4761089E-001  0.8000000E+02  0.7546771E-02  0.1203772E+00
         11   -1    0    0    0    0  0.00000000000E+00  0.00000000000E+00  0.40000000000E+02  0.40000000000E+02  0.00000000000E+00 0. -1.
        -11   -1    0    0    0    0 -0.00000000000E+00 -0.00000000000E+00 -0.40000000000E+02  0.40000000000E+02  0.00000000000E+00 0.  1.
         23    2    1    2    0    0  0.00000000000E+00  0.00000000000E+00  0.00000000000E+00  0.80000000000E+02  0.80000000000E+02 0.  0.
          5    1    3    3  501    0 -0.30024427486E+02 -0.20294097973E+02  0.16266325387E+02  0.40000000000E+02  0.47000000000E+01 0. -1.
         -5    1    3    3    0  501  0.30024427486E+02  0.20294097973E+02 -0.16266325387E+02  0.40000000000E+02  0.47000000000E+01 0.  1.
</event>
<event>
 5    1  0.4761089E-001  0.8000000E+02  0.7546771E-02  0.1203772E+00
         11   -1    0    0    0    0  0.00000000000E+00  0.00000000000E+00  0.40000000000E+02  0.40000000000E+02  0.00000000000E+00 0. -1.
        -11   -1    0    0    0    0 -0.00000000000E+00 -0.00000000000E+00 -0.40000000000E+02  0.40000000000E+02  0.00000000000E+00 0.  1.
         23    2    1    2    0    0  0.00000000000E+00  0.00000000000E+00  0.00000000000E+00  0.80000000000E+02  0.80000000000E+02 0.  0.
          5    1    3    3  501    0 -0.14501606673E+02  0.32795358245E+02  0.17090286173E+02  0.40000000000E+02  0.47000000000E+01 0. -1.
         -5    1    3    3    0  501  0.14501606673E+02 -0.32795358245E+02 -0.17090286173E+02  0.40000000000E+02  0.47000000000E+01 0.  1.
</event>
<event>
 5    1  0.4761089E-001  0.8000000E+02  0.7546771E-02  0.1203772E+00
         11   -1    0    0    0    0  0.00000000000E+00  0.00000000000E+00  0.40000000000E+02  0.40000000000E+02  0.00000000000E+00 0. -1.
        -11   -1    0    0    0    0 -0.00000000000E+00 -0.00000000000E+00 -0.40000000000E+02  0.40000000000E+02  0.00000000000E+00 0.  1.
         23    2    1    2    0    0  0.00000000000E+00  0.00000000000E+00  0.00000000000E+00  0.80000000000E+02  0.80000000000E+02 0.  0.
          5    1    3    3  501    0  0.36350941585E+02 -0.13105899649E+02  0.92062174768E+01  0.40000000000E+02  0.47000000000E+01 0. -1.
         -5    1    3    3    0  501 -0.36350941585E+02  0.13105899649E+02 -0.92062174768E+01  0.40000000000E+02  0.47000000000E+01 0.  1.
</event>
<event>
 5    1  0.4761089E-001  0.8000000E+02  0.7546771E-02  0.1203772E+00
         11   -1    0    0    0    0  0.00000000000E+00  0.00000000000E+00  0.40000000000E+02  0.40000000000E+02  0.00000000000E+00 0. -1.
        -11   -1    0    0    0    0 -0.00000000000E+00 -0.00000000000E+00 -0.40000000000E+02  0.40000000000E+02  0.00000000000E+00 0.  1.
         23    2    1    2    0    0  0.00000000000E+00  0.00000000000E+00  0.00000000000E+00  0.80000000000E+02  0.80000000000E+02 0.  0.
          5    1    3    3  501    0 -0.88767027279E+01 -0.25633434520E+02  0.29017945885E+02  0.40000000000E+02  0.47000000000E+01 0. -1.
         -5    1    3    3    0  501  0.88767027279E+01  0.25633434520E+02 -0.29017945885E+02  0.40000000000E+02  0.47000000000E+01 0.  1.
</event>
<event>
 5    1  0.4761089E-001  0.8000000E+02  0.7546771E-02  0.1203772E+00
         11   -1    0    0    0    0  0.00000000000E+00  0.00000000000E+00  0.40000000000E+02  0.40000000000E+02  0.00000000000E+00 0.  1.
        -11   -1    0    0    0    0 -0.00000000000E+00 -0.00000000000E+00 -0.40000000000E+02  0.40000000000E+02  0.00000000000E+00 0. -1.
         23    2    1    2    0    0  0.00000000000E+00  0.00000000000E+00  0.00000000000E+00  0.80000000000E+02  0.80000000000E+02 0.  0.
          5    1    3    3  501    0  0.22029423649E+02 -0.85733794260E+01 -0.31923528297E+02  0.40000000000E+02  0.47000000000E+01 0. -1.
         -5    1    3    3    0  501 -0.22029423649E+02  0.85733794260E+01  0.31923528297E+02  0.40000000000E+02  0.47000000000E+01 0.  1.
</event>
<event>
 5    1  0.4761089E-001  0.8000000E+02  0.7546771E-02  0.1203772E+00
         11   -1    0    0    0    0  0.00000000000E+00  0.00000000000E+00  0.40000000000E+02  0.40000000000E+02  0.00000000000E+00 0. -1.
        -11   -1    0    0    0    0 -0.00000000000E+00 -0.00000000000E+00 -0.40000000000E+02  0.40000000000E+02  0.00000000000E+00 0.  1.
         23    2    1    2    0    0  0.00000000000E+00  0.00000000000E+00  0.00000000000E+00  0.80000000000E+02  0.80000000000E+02 0.  0.
          5    1    3    3  501    0 -0.14544514468E+02  0.28714843527E+02  0.23277131698E+02  0.40000000000E+02  0.47000000000E+01 0. -1.
         -5    1    3    3    0  501  0.14544514468E+02 -0.28714843527E+02 -0.23277131698E+02  0.40000000000E+02  0.47000000000E+01 0.  1.
</event>
<event>
 5    1  0.4761089E-001  0.8000000E+02  0.7546771E-02  0.1203772E+00
         11   -1    0    0    0    0  0.00000000000E+00  0.00000000000E+00  0.40000000000E+02  0.40000000000E+02  0.00000000000E+00 0.  1.
        -11   -1    0    0    0    0 -0.00000000000E+00 -0.00000000000E+00 -0.40000000000E+02  0.40000000000E+02  0.00000000000E+00 0. -1.
         23    2    1    2    0    0  0.00000000000E+00  0.00000000000E+00  0.00000000000E+00  0.80000000000E+02  0.80000000000E+02 0.  0.
          5    1    3    3  501    0  0.18093069554E+02 -0.34712065493E+02  0.67545054095E+01  0.40000000000E+02  0.47000000000E+01 0. -1.
         -5    1    3    3    0  501 -0.18093069554E+02  0.34712065493E+02 -0.67545054095E+01  0.40000000000E+02  0.47000000000E+01 0.  1.
</event>
<event>
 5    1  0.4761089E-001  0.8000000E+02  0.7546771E-02  0.1203772E+00
         11   -1    0    0    0    0  0.00000000000E+00  0.00000000000E+00  0.40000000000E+02  0.40000000000E+02  0.00000000000E+00 0.  1.
        -11   -1    0    0    0    0 -0.00000000000E+00 -0.00000000000E+00 -0.40000000000E+02  0.40000000000E+02  0.00000000000E+00 0. -1.
         23    2    1    2    0    0  0.00000000000E+00  0.00000000000E+00  0.00000000000E+00  0.80000000000E+02  0.80000000000E+02 0.  0.
          5    1    3    3  501    0 -0.55025669756E+01  0.34620386714E+02 -0.18683163021E+02  0.40000000000E+02  0.47000000000E+01 0. -1.
         -5    1    3    3    0  501  0.55025669756E+01 -0.34620386714E+02  0.18683163021E+02  0.40000000000E+02  0.47000000000E+01 0.  1.
</event>
<event>
 5    1  0.4761089E-001  0.8000000E+02  0.7546771E-02  0.1203772E+00
         11   -1    0    0    0    0  0.00000000000E+00  0.00000000000E+00  0.40000000000E+02  0.40000000000E+02  0.00000000000E+00 0. -1.
        -11   -1    0    0    0    0 -0.00000000000E+00 -0.00000000000E+00 -0.40000000000E+02  0.40000000000E+02  0.00000000000E+00 0.  1.
         23    2    1    2    0    0  0.00000000000E+00  0.00000000000E+00  0.00000000000E+00  0.80000000000E+02  0.80000000000E+02 0.  0.
          5    1    3    3  501    0  0.17490016877E+02  0.35627932173E+02 -0.16308766675E+01  0.40000000000E+02  0.47000000000E+01 0. -1.
         -5    1    3    3    0  501 -0.17490016877E+02 -0.35627932173E+02  0.16308766675E+01  0.40000000000E+02  0.47000000000E+01 0.  1.
</event>
<event>
 5    1  0.4761089E-001  0.8000000E+02  0.7546771E-02  0.1203772E+00
         11   -1    0    0    0    0  0.00000000000E+00  0.00000000000E+00  0.40000000000E+02  0.40000000000E+02  0.00000000000E+00 0. -1.
        -11   -1    0    0    0    0 -0.00000000000E+00 -0.00000000000E+00 -0.40000000000E+02  0.40000000000E+02  0.00000000000E+00 0.  1.
         23    2    1    2    0    0  0.00000000000E+00  0.00000000000E+00  0.00000000000E+00  0.80000000000E+02  0.80000000000E+02 0.  0.
          5    1    3    3  501    0  0.39865659098E+01  0.11181825855E+02  0.37907572631E+02  0.40000000000E+02  0.47000000000E+01 0. -1.
         -5    1    3    3    0  501 -0.39865659098E+01 -0.11181825855E+02 -0.37907572631E+02  0.40000000000E+02  0.47000000000E+01 0.  1.
</event>
<event>
 5    1  0.4761089E-001  0.8000000E+02  0.7546771E-02  0.1203772E+00
         11   -1    0    0    0    0  0.00000000000E+00  0.00000000000E+00  0.40000000000E+02  0.40000000000E+02  0.00000000000E+00 0.  1.
        -11   -1    0    0    0    0 -0.00000000000E+00 -0.00000000000E+00 -0.40000000000E+02  0.40000000000E+02  0.00000000000E+00 0. -1.
         23    2    1    2    0    0  0.00000000000E+00  0.00000000000E+00  0.00000000000E+00  0.80000000000E+02  0.80000000000E+02 0.  0.
          5    1    3    3  501    0 -0.38954301851E+02 -0.40102056381E+01  0.66626284626E+01  0.40000000000E+02  0.47000000000E+01 0. -1.
         -5    1    3    3    0  501  0.38954301851E+02  0.40102056381E+01 -0.66626284626E+01  0.40000000000E+02  0.47000000000E+01 0.  1.
</event>
<event>
 5    1  0.4761089E-001  0.8000000E+02  0.7546771E-02  0.1203772E+00
         11   -1    0    0    0    0  0.00000000000E+00  0.00000000000E+00  0.40000000000E+02  0.40000000000E+02  0.00000000000E+00 0. -1.
        -11   -1    0    0    0    0 -0.00000000000E+00 -0.00000000000E+00 -0.40000000000E+02  0.40000000000E+02  0.00000000000E+00 0.  1.
         23    2    1    2    0    0  0.00000000000E+00  0.00000000000E+00  0.00000000000E+00  0.80000000000E+02  0.80000000000E+02 0.  0.
          5    1    3    3  501    0 -0.90880392891E+01 -0.64634470019E+01  0.38125337962E+02  0.40000000000E+02  0.47000000000E+01 0. -1.
         -5    1    3    3    0  501  0.90880392891E+01  0.64634470019E+01 -0.38125337962E+02  0.40000000000E+02  0.47000000000E+01 0.  1.
</event>
<event>
 5    1  0.4761089E-001  0.8000000E+02  0.7546771E-02  0.1203772E+00
         11   -1    0    0    0    0  0.00000000000E+00  0.00000000000E+00  0.40000000000E+02  0.40000000000E+02  0.00000000000E+00 0. -1.
        -11   -1    0    0    0    0 -0.00000000000E+00 -0.00000000000E+00 -0.40000000000E+02  0.40000000000E+02  0.00000000000E+00 0.  1.
         23    2    1    2    0    0  0.00000000000E+00  0.00000000000E+00  0.00000000000E+00  0.80000000000E+02  0.80000000000E+02 0.  0.
          5    1    3    3  501    0 -0.12500629446E+02  0.30105532138E+02  0.22700246654E+02  0.40000000000E+02  0.47000000000E+01 0. -1.
         -5    1    3    3    0  501  0.12500629446E+02 -0.30105532138E+02 -0.22700246654E+02  0.40000000000E+02  0.47000000000E+01 0.  1.
</event>
<event>
 5    1  0.4761089E-001  0.8000000E+02  0.7546771E-02  0.1203772E+00
         11   -1    0    0    0    0  0.00000000000E+00  0.00000000000E+00  0.40000000000E+02  0.40000000000E+02  0.00000000000E+00 0.  1.
        -11   -1    0    0    0    0 -0.00000000000E+00 -0.00000000000E+00 -0.40000000000E+02  0.40000000000E+02  0.00000000000E+00 0. -1.
         23    2    1    2    0    0  0.00000000000E+00  0.00000000000E+00  0.00000000000E+00  0.80000000000E+02  0.80000000000E+02 0.  0.
          5    1    3    3  501    0 -0.17540454990E+02  0.15415988203E+01 -0.35607104794E+02  0.40000000000E+02  0.47000000000E+01 0. -1.
         -5    1    3    3    0  501  0.17540454990E+02 -0.15415988203E+01  0.35607104794E+02  0.40000000000E+02  0.47000000000E+01 0.  1.
</event>
<event>
 5    1  0.4761089E-001  0.8000000E+02  0.7546771E-02  0.1203772E+00
         11   -1    0    0    0    0  0.00000000000E+00  0.00000000000E+00  0.40000000000E+02  0.40000000000E+02  0.00000000000E+00 0. -1.
        -11   -1    0    0    0    0 -0.00000000000E+00 -0.00000000000E+00 -0.40000000000E+02  0.40000000000E+02  0.00000000000E+00 0.  1.
         23    2    1    2    0    0  0.00000000000E+00  0.00000000000E+00  0.00000000000E+00  0.80000000000E+02  0.80000000000E+02 0.  0.
          5    1    3    3  501    0 -0.16890602261E+01 -0.15134633341E+02  0.36687871963E+02  0.40000000000E+02  0.47000000000E+01 0. -1.
         -5    1    3    3    0  501  0.16890602261E+01  0.15134633341E+02 -0.36687871963E+02  0.40000000000E+02  0.47000000000E+01 0.  1.
</event>
<event>
 5    1  0.4761089E-001  0.8000000E+02  0.7546771E-02  0.1203772E+00
         11   -1    0    0    0    0  0.00000000000E+00  0.00000000000E+00  0.40000000000E+02  0.40000000000E+02  0.00000000000E+00 0.  1.
        -11   -1    0    0    0    0 -0.00000000000E+00 -0.00000000000E+00 -0.40000000000E+02  0.40000000000E+02  0.00000000000E+00 0. -1.
         23    2    1    2    0    0  0.00000000000E+00  0.00000000000E+00  0.00000000000E+00  0.80000000000E+02  0.80000000000E+02 0.  0.
          5    1    3    3  501    0  0.65194085075E+01  0.19190952819E+02 -0.34163059620E+02  0.40000000000E+02  0.47000000000E+01 0. -1.
         -5    1    3    3    0  501 -0.65194085075E+01 -0.19190952819E+02  0.34163059620E+02  0.40000000000E+02  0.47000000000E+01 0.  1.
</event>
<event>
 5    1  0.4761089E-001  0.8000000E+02  0.7546771E-02  0.1203772E+00
         11   -1    0    0    0    0  0.00000000000E+00  0.00000000000E+00  0.40000000000E+02  0.40000000000E+02  0.00000000000E+00 0. -1.
        -11   -1    0    0    0    0 -0.00000000000E+00 -0.00000000000E+00 -0.40000000000E+02  0.40000000000E+02  0.00000000000E+00 0.  1.
         23    2    1    2    0    0  0.00000000000E+00  0.00000000000E+00  0.00000000000E+00  0.80000000000E+02  0.80000000000E+02 0.  0.
          5    1    3    3  501    0 -0.89333220767E+01  0.17035660059E+02  0.34754741303E+02  0.40000000000E+02  0.47000000000E+01 0. -1.
         -5    1    3    3    0  501  0.89333220767E+01 -0.17035660059E+02 -0.34754741303E+02  0.40000000000E+02  0.47000000000E+01 0.  1.
</event>
<event>
 5    1  0.4761089E-001  0.8000000E+02  0.7546771E-02  0.1203772E+00
         11   -1    0    0    0    0  0.00000000000E+00  0.00000000000E+00  0.40000000000E+02  0.40000000000E+02  0.00000000000E+00 0. -1.
        -11   -1    0    0    0    0 -0.00000000000E+00 -0.00000000000E+00 -0.40000000000E+02  0.40000000000E+02  0.00000000000E+00 0.  1.
         23    2    1    2    0    0  0.00000000000E+00  0.00000000000E+00  0.00000000000E+00  0.80000000000E+02  0.80000000000E+02 0.  0.
          5    1    3    3  501    0  0.68454580166E+01 -0.13152249408E+02  0.36851974710E+02  0.40000000000E+02  0.47000000000E+01 0. -1.
         -5    1    3    3    0  501 -0.68454580166E+01  0.13152249408E+02 -0.36851974710E+02  0.40000000000E+02  0.47000000000E+01 0.  1.
</event>
<event>
 5    1  0.4761089E-001  0.8000000E+02  0.7546771E-02  0.1203772E+00
         11   -1    0    0    0    0  0.00000000000E+00  0.00000000000E+00  0.40000000000E+02  0.40000000000E+02  0.00000000000E+00 0.  1.
        -11   -1    0    0    0    0 -0.00000000000E+00 -0.00000000000E+00 -0.40000000000E+02  0.40000000000E+02  0.00000000000E+00 0. -1.
         23    2    1    2    0    0  0.00000000000E+00  0.00000000000E+00  0.00000000000E+00  0.80000000000E+02  0.80000000000E+02 0.  0.
          5    1    3    3  501    0  0.29637207662E+02  0.44210022737E+01 -0.26076822292E+02  0.40000000000E+02  0.47000000000E+01 0. -1.
         -5    1    3    3    0  501 -0.29637207662E+02 -0.44210022737E+01  0.26076822292E+02  0.40000000000E+02  0.47000000000E+01 0.  1.
</event>
<event>
 5    1  0.4761089E-001  0.8000000E+02  0.7546771E-02  0.1203772E+00
         11   -1    0    0    0    0  0.00000000000E+00  0.00000000000E+00  0.40000000000E+02  0.40000000000E+02  0.00000000000E+00 0.  1.
        -11   -1    0    0    0    0 -0.00000000000E+00 -0.00000000000E+00 -0.40000000000E+02  0.40000000000E+02  0.00000000000E+00 0. -1.
         23    2    1    2    0    0  0.00000000000E+00  0.00000000000E+00  0.00000000000E+00  0.80000000000E+02  0.80000000000E+02 0.  0.
          5    1    3    3  501    0 -0.78712940082E+01  0.27592916108E+02 -0.27469687135E+02  0.40000000000E+02  0.47000000000E+01 0. -1.
         -5    1    3    3    0  501  0.78712940082E+01 -0.27592916108E+02  0.27469687135E+02  0.40000000000E+02  0.47000000000E+01 0.  1.
</event>
<event>
 5    1  0.4761089E-001  0.8000000E+02  0.7546771E-02  0.1203772E+00
         11   -1    0    0    0    0  0.00000000000E+00  0.00000000000E+00  0.40000000000E+02  0.40000000000E+02  0.00000000000E+00 0.  1.
        -11   -1    0    0    0    0 -0.00000000000E+00 -0.00000000000E+00 -0.40000000000E+02  0.40000000000E+02  0.00000000000E+00 0. -1.
         23    2    1    2    0    0  0.00000000000E+00  0.00000000000E+00  0.00000000000E+00  0.80000000000E+02  0.80000000000E+02 0.  0.
          5    1    3    3  501    0 -0.23206589017E+02  0.27091951613E+02 -0.17475422283E+02  0.40000000000E+02  0.47000000000E+01 0. -1.
         -5    1    3    3    0  501  0.23206589017E+02 -0.27091951613E+02  0.17475422283E+02  0.40000000000E+02  0.47000000000E+01 0.  1.
</event>
<event>
 5    1  0.4761089E-001  0.8000000E+02  0.7546771E-02  0.1203772E+00
         11   -1    0    0    0    0  0.00000000000E+00  0.00000000000E+00  0.40000000000E+02  0.40000000000E+02  0.00000000000E+00 0.  1.
        -11   -1    0    0    0    0 -0.00000000000E+00 -0.00000000000E+00 -0.40000000000E+02  0.40000000000E+02  0.00000000000E+00 0. -1.
         23    2    1    2    0    0  0.00000000000E+00  0.00000000000E+00  0.00000000000E+00  0.80000000000E+02  0.80000000000E+02 0.  0.
          5    1    3    3  501    0  0.19572992987E+02 -0.32701414386E+02 -0.11199350101E+02  0.40000000000E+02  0.47000000000E+01 0. -1.
         -5    1    3    3    0  501 -0.19572992987E+02  0.32701414386E+02  0.11199350101E+02  0.40000000000E+02  0.47000000000E+01 0.  1.
</event>
<event>
 5    1  0.4761089E-001  0.8000000E+02  0.7546771E-02  0.1203772E+00
         11   -1    0    0    0    0  0.00000000000E+00  0.00000000000E+00  0.40000000000E+02  0.40000000000E+02  0.00000000000E+00 0. -1.
        -11   -1    0    0    0    0 -0.00000000000E+00 -0.00000000000E+00 -0.40000000000E+02  0.40000000000E+02  0.00000000000E+00 0.  1.
         23    2    1    2    0    0  0.00000000000E+00  0.00000000000E+00  0.00000000000E+00  0.80000000000E+02  0.80000000000E+02 0.  0.
          5    1    3    3  501    0 -0.22530307862E+02  0.47565084632E+01  0.32367744050E+02  0.40000000000E+02  0.47000000000E+01 0. -1.
         -5    1    3    3    0  501  0.22530307862E+02 -0.47565084632E+01 -0.32367744050E+02  0.40000000000E+02  0.47000000000E+01 0.  1.
</event>
<event>
 5    1  0.4761089E-001  0.8000000E+02  0.7546771E-02  0.1203772E+00
         11   -1    0    0    0    0  0.00000000000E+00  0.00000000000E+00  0.40000000000E+02  0.40000000000E+02  0.00000000000E+00 0. -1.
        -11   -1    0    0    0    0 -0.00000000000E+00 -0.00000000000E+00 -0.40000000000E+02  0.40000000000E+02  0.00000000000E+00 0.  1.
         23    2    1    2    0    0  0.00000000000E+00  0.00000000000E+00  0.00000000000E+00  0.80000000000E+02  0.80000000000E+02 0.  0.
          5    1    3    3  501    0  0.27109729508E+02  0.77723305163E+01  0.27974335458E+02  0.40000000000E+02  0.47000000000E+01 0. -1.
         -5    1    3    3    0  501 -0.27109729508E+02 -0.77723305163E+01 -0.27974335458E+02  0.40000000000E+02  0.47000000000E+01 0.  1.
</event>
<event>
 5    1  0.4761089E-001  0.8000000E+02  0.7546771E-02  0.1203772E+00
         11   -1    0    0    0    0  0.00000000000E+00  0.00000000000E+00  0.40000000000E+02  0.40000000000E+02  0.00000000000E+00 0.  1.
        -11   -1    0    0    0    0 -0.00000000000E+00 -0.00000000000E+00 -0.40000000000E+02  0.40000000000E+02  0.00000000000E+00 0. -1.
         23    2    1    2    0    0  0.00000000000E+00  0.00000000000E+00  0.00000000000E+00  0.80000000000E+02  0.80000000000E+02 0.  0.
          5    1    3    3  501    0  0.94289316506E+01  0.31161195025E+02 -0.22759287611E+02  0.40000000000E+02  0.47000000000E+01 0. -1.
         -5    1    3    3    0  501 -0.94289316506E+01 -0.31161195025E+02  0.22759287611E+02  0.40000000000E+02  0.47000000000E+01 0.  1.
</event>
<event>
 5    1  0.4761089E-001  0.8000000E+02  0.7546771E-02  0.1203772E+00
         11   -1    0    0    0    0  0.00000000000E+00  0.00000000000E+00  0.40000000000E+02  0.40000000000E+02  0.00000000000E+00 0.  1.
        -11   -1    0    0    0    0 -0.00000000000E+00 -0.00000000000E+00 -0.40000000000E+02  0.40000000000E+02  0.00000000000E+00 0. -1.
         23    2    1    2    0    0  0.00000000000E+00  0.00000000000E+00  0.00000000000E+00  0.80000000000E+02  0.80000000000E+02 0.  0.
          5    1    3    3  501    0  0.17103115696E+02  0.22356897979E+02 -0.28027888723E+02  0.40000000000E+02  0.47000000000E+01 0. -1.
         -5    1    3    3    0  501 -0.17103115696E+02 -0.22356897979E+02  0.28027888723E+02  0.40000000000E+02  0.47000000000E+01 0.  1.
</event>
<event>
 5    1  0.4761089E-001  0.8000000E+02  0.7546771E-02  0.1203772E+00
         11   -1    0    0    0    0  0.00000000000E+00  0.00000000000E+00  0.40000000000E+02  0.40000000000E+02  0.00000000000E+00 0.  1.
        -11   -1    0    0    0    0 -0.00000000000E+00 -0.00000000000E+00 -0.40000000000E+02  0.40000000000E+02  0.00000000000E+00 0. -1.
         23    2    1    2    0    0  0.00000000000E+00  0.00000000000E+00  0.00000000000E+00  0.80000000000E+02  0.80000000000E+02 0.  0.
          5    1    3    3  501    0  0.11265454118E+02 -0.37921386404E+02  0.36011104883E+01  0.40000000000E+02  0.47000000000E+01 0. -1.
         -5    1    3    3    0  501 -0.11265454118E+02  0.37921386404E+02 -0.36011104883E+01  0.40000000000E+02  0.47000000000E+01 0.  1.
</event>
<event>
 5    1  0.4761089E-001  0.8000000E+02  0.7546771E-02  0.1203772E+00
         11   -1    0    0    0    0  0.00000000000E+00  0.00000000000E+00  0.40000000000E+02  0.40000000000E+02  0.00000000000E+00 0.  1.
        -11   -1    0    0    0    0 -0.00000000000E+00 -0.00000000000E+00 -0.40000000000E+02  0.40000000000E+02  0.00000000000E+00 0. -1.
         23    2    1    2    0    0  0.00000000000E+00  0.00000000000E+00  0.00000000000E+00  0.80000000000E+02  0.80000000000E+02 0.  0.
          5    1    3    3  501    0 -0.95422851838E+01  0.22952883085E+02 -0.30984188735E+02  0.40000000000E+02  0.47000000000E+01 0. -1.
         -5    1    3    3    0  501  0.95422851838E+01 -0.22952883085E+02  0.30984188735E+02  0.40000000000E+02  0.47000000000E+01 0.  1.
</event>
<event>
 5    1  0.4761089E-001  0.8000000E+02  0.7546771E-02  0.1203772E+00
         11   -1    0    0    0    0  0.00000000000E+00  0.00000000000E+00  0.40000000000E+02  0.40000000000E+02  0.00000000000E+00 0. -1.
        -11   -1    0    0    0    0 -0.00000000000E+00 -0.00000000000E+00 -0.40000000000E+02  0.40000000000E+02  0.00000000000E+00 0.  1.
         23    2    1    2    0    0  0.00000000000E+00  0.00000000000E+00  0.00000000000E+00  0.80000000000E+02  0.80000000000E+02 0.  0.
          5    1    3    3  501    0  0.19943149161E+01  0.33733504229E+02  0.20880215526E+02  0.40000000000E+02  0.47000000000E+01 0. -1.
         -5    1    3    3    0  501 -0.19943149161E+01 -0.33733504229E+02 -0.20880215526E+02  0.40000000000E+02  0.47000000000E+01 0.  1.
</event>
<event>
 5    1  0.4761089E-001  0.8000000E+02  0.7546771E-02  0.1203772E+00
         11   -1    0    0    0    0  0.00000000000E+00  0.00000000000E+00  0.40000000000E+02  0.40000000000E+02  0.00000000000E+00 0. -1.
        -11   -1    0    0    0    0 -0.00000000000E+00 -0.00000000000E+00 -0.40000000000E+02  0.40000000000E+02  0.00000000000E+00 0.  1.
         23    2    1    2    0    0  0.00000000000E+00  0.00000000000E+00  0.00000000000E+00  0.80000000000E+02  0.80000000000E+02 0.  0.
          5    1    3    3  501    0  0.12434088083E+02 -0.33072374909E+02  0.18152726281E+02  0.40000000000E+02  0.47000000000E+01 0. -1.
         -5    1    3    3    0  501 -0.12434088083E+02  0.33072374909E+02 -0.18152726281E+02  0.40000000000E+02  0.47000000000E+01 0.  1.
</event>
<event>
 5    1  0.4761089E-001  0.8000000E+02  0.7546771E-02  0.1203772E+00
         11   -1    0    0    0    0  0.00000000000E+00  0.00000000000E+00  0.40000000000E+02  0.40000000000E+02  0.00000000000E+00 0.  1.
        -11   -1    0    0    0    0 -0.00000000000E+00 -0.00000000000E+00 -0.40000000000E+02  0.40000000000E+02  0.00000000000E+00 0. -1.
         23    2    1    2    0    0  0.00000000000E+00  0.00000000000E+00  0.00000000000E+00  0.80000000000E+02  0.80000000000E+02 0.  0.
          5    1    3    3  501    0  0.11840560900E+02 -0.18722005967E+00 -0.37916699042E+02  0.40000000000E+02  0.47000000000E+01 0. -1.
         -5    1    3    3    0  501 -0.11840560900E+02  0.18722005967E+00  0.37916699042E+02  0.40000000000E+02  0.47000000000E+01 0.  1.
</event>
<event>
 5    1  0.4761089E-001  0.8000000E+02  0.7546771E-02  0.1203772E+00
         11   -1    0    0    0    0  0.00000000000E+00  0.00000000000E+00  0.40000000000E+02  0.40000000000E+02  0.00000000000E+00 0. -1.
        -11   -1    0    0    0    0 -0.00000000000E+00 -0.00000000000E+00 -0.40000000000E+02  0.40000000000E+02  0.00000000000E+00 0.  1.
         23    2    1    2    0    0  0.00000000000E+00  0.00000000000E+00  0.00000000000E+00  0.80000000000E+02  0.80000000000E+02 0.  0.
          5    1    3    3  501    0  0.24767576866E+02  0.22531693175E+02  0.21372878581E+02  0.40000000000E+02  0.47000000000E+01 0. -1.
         -5    1    3    3    0  501 -0.24767576866E+02 -0.22531693175E+02 -0.21372878581E+02  0.40000000000E+02  0.47000000000E+01 0.  1.
</event>
<event>
 5    1  0.4761089E-001  0.8000000E+02  0.7546771E-02  0.1203772E+00
         11   -1    0    0    0    0  0.00000000000E+00  0.00000000000E+00  0.40000000000E+02  0.40000000000E+02  0.00000000000E+00 0. -1.
        -11   -1    0    0    0    0 -0.00000000000E+00 -0.00000000000E+00 -0.40000000000E+02  0.40000000000E+02  0.00000000000E+00 0.  1.
         23    2    1    2    0    0  0.00000000000E+00  0.00000000000E+00  0.00000000000E+00  0.80000000000E+02  0.80000000000E+02 0.  0.
          5    1    3    3  501    0  0.52067159692E+01 -0.77701087433E+00  0.39372533103E+02  0.40000000000E+02  0.47000000000E+01 0. -1.
         -5    1    3    3    0  501 -0.52067159692E+01  0.77701087433E+00 -0.39372533103E+02  0.40000000000E+02  0.47000000000E+01 0.  1.
</event>
<event>
 5    1  0.4761089E-001  0.8000000E+02  0.7546771E-02  0.1203772E+00
         11   -1    0    0    0    0  0.00000000000E+00  0.00000000000E+00  0.40000000000E+02  0.40000000000E+02  0.00000000000E+00 0.  1.
        -11   -1    0    0    0    0 -0.00000000000E+00 -0.00000000000E+00 -0.40000000000E+02  0.40000000000E+02  0.00000000000E+00 0. -1.
         23    2    1    2    0    0  0.00000000000E+00  0.00000000000E+00  0.00000000000E+00  0.80000000000E+02  0.80000000000E+02 0.  0.
          5    1    3    3  501    0 -0.15010926063E+02 -0.20812352229E+02 -0.30322072710E+02  0.40000000000E+02  0.47000000000E+01 0. -1.
         -5    1    3    3    0  501  0.15010926063E+02  0.20812352229E+02  0.30322072710E+02  0.40000000000E+02  0.47000000000E+01 0.  1.
</event>
<event>
 5    1  0.4761089E-001  0.8000000E+02  0.7546771E-02  0.1203772E+00
         11   -1    0    0    0    0  0.00000000000E+00  0.00000000000E+00  0.40000000000E+02  0.40000000000E+02  0.00000000000E+00 0. -1.
        -11   -1    0    0    0    0 -0.00000000000E+00 -0.00000000000E+00 -0.40000000000E+02  0.40000000000E+02  0.00000000000E+00 0.  1.
         23    2    1    2    0    0  0.00000000000E+00  0.00000000000E+00  0.00000000000E+00  0.80000000000E+02  0.80000000000E+02 0.  0.
          5    1    3    3  501    0 -0.21173981063E+02 -0.95199337522E-01  0.33608978905E+02  0.40000000000E+02  0.47000000000E+01 0. -1.
         -5    1    3    3    0  501  0.21173981063E+02  0.95199337522E-01 -0.33608978905E+02  0.40000000000E+02  0.47000000000E+01 0.  1.
</event>
<event>
 5    1  0.4761089E-001  0.8000000E+02  0.7546771E-02  0.1203772E+00
         11   -1    0    0    0    0  0.00000000000E+00  0.00000000000E+00  0.40000000000E+02  0.40000000000E+02  0.00000000000E+00 0. -1.
        -11   -1    0    0    0    0 -0.00000000000E+00 -0.00000000000E+00 -0.40000000000E+02  0.40000000000E+02  0.00000000000E+00 0.  1.
         23    2    1    2    0    0  0.00000000000E+00  0.00000000000E+00  0.00000000000E+00  0.80000000000E+02  0.80000000000E+02 0.  0.
          5    1    3    3  501    0  0.15651445949E+02  0.23244657525E+02  0.28153652272E+02  0.40000000000E+02  0.47000000000E+01 0. -1.
         -5    1    3    3    0  501 -0.15651445949E+02 -0.23244657525E+02 -0.28153652272E+02  0.40000000000E+02  0.47000000000E+01 0.  1.
</event>
<event>
 5    1  0.4761089E-001  0.8000000E+02  0.7546771E-02  0.1203772E+00
         11   -1    0    0    0    0  0.00000000000E+00  0.00000000000E+00  0.40000000000E+02  0.40000000000E+02  0.00000000000E+00 0.  1.
        -11   -1    0    0    0    0 -0.00000000000E+00 -0.00000000000E+00 -0.40000000000E+02  0.40000000000E+02  0.00000000000E+00 0. -1.
         23    2    1    2    0    0  0.00000000000E+00  0.00000000000E+00  0.00000000000E+00  0.80000000000E+02  0.80000000000E+02 0.  0.
          5    1    3    3  501    0 -0.13981426909E+02  0.30127249859E+02 -0.21789412969E+02  0.40000000000E+02  0.47000000000E+01 0. -1.
         -5    1    3    3    0  501  0.13981426909E+02 -0.30127249859E+02  0.21789412969E+02  0.40000000000E+02  0.47000000000E+01 0.  1.
</event>
<event>
 5    1  0.4761089E-001  0.8000000E+02  0.7546771E-02  0.1203772E+00
         11   -1    0    0    0    0  0.00000000000E+00  0.00000000000E+00  0.40000000000E+02  0.40000000000E+02  0.00000000000E+00 0.  1.
        -11   -1    0    0    0    0 -0.00000000000E+00 -0.00000000000E+00 -0.40000000000E+02  0.40000000000E+02  0.00000000000E+00 0. -1.
         23    2    1    2    0    0  0.00000000000E+00  0.00000000000E+00  0.00000000000E+00  0.80000000000E+02  0.80000000000E+02 0.  0.
          5    1    3    3  501    0  0.14386347429E+01 -0.29518308595E+02 -0.26542603259E+02  0.40000000000E+02  0.47000000000E+01 0. -1.
         -5    1    3    3    0  501 -0.14386347429E+01  0.29518308595E+02  0.26542603259E+02  0.40000000000E+02  0.47000000000E+01 0.  1.
</event>
<event>
 5    1  0.4761089E-001  0.8000000E+02  0.7546771E-02  0.1203772E+00
         11   -1    0    0    0    0  0.00000000000E+00  0.00000000000E+00  0.40000000000E+02  0.40000000000E+02  0.00000000000E+00 0.  1.
        -11   -1    0    0    0    0 -0.00000000000E+00 -0.00000000000E+00 -0.40000000000E+02  0.40000000000E+02  0.00000000000E+00 0. -1.
         23    2    1    2    0    0  0.00000000000E+00  0.00000000000E+00  0.00000000000E+00  0.80000000000E+02  0.80000000000E+02 0.  0.
          5    1    3    3  501    0 -0.30064535738E+02 -0.13066555407E+02 -0.22434322380E+02  0.40000000000E+02  0.47000000000E+01 0. -1.
         -5    1    3    3    0  501  0.30064535738E+02  0.13066555407E+02  0.22434322380E+02  0.40000000000E+02  0.47000000000E+01 0.  1.
</event>
<event>
 5    1  0.4761089E-001  0.8000000E+02  0.7546771E-02  0.1203772E+00
         11   -1    0    0    0    0  0.00000000000E+00  0.00000000000E+00  0.40000000000E+02  0.40000000000E+02  0.00000000000E+00 0.  1.
        -11   -1    0    0    0    0 -0.00000000000E+00 -0.00000000000E+00 -0.40000000000E+02  0.40000000000E+02  0.00000000000E+00 0. -1.
         23    2    1    2    0    0  0.00000000000E+00  0.00000000000E+00  0.00000000000E+00  0.80000000000E+02  0.80000000000E+02 0.  0.
          5    1    3    3  501    0 -0.81632457350E+01 -0.10588795900E+01 -0.38860650961E+02  0.40000000000E+02  0.47000000000E+01 0. -1.
         -5    1    3    3    0  501  0.81632457350E+01  0.10588795900E+01  0.38860650961E+02  0.40000000000E+02  0.47000000000E+01 0.  1.
</event>
<event>
 5    1  0.4761089E-001  0.8000000E+02  0.7546771E-02  0.1203772E+00
         11   -1    0    0    0    0  0.00000000000E+00  0.00000000000E+00  0.40000000000E+02  0.40000000000E+02  0.00000000000E+00 0. -1.
        -11   -1    0    0    0    0 -0.00000000000E+00 -0.00000000000E+00 -0.40000000000E+02  0.40000000000E+02  0.00000000000E+00 0.  1.
         23    2    1    2    0    0  0.00000000000E+00  0.00000000000E+00  0.00000000000E+00  0.80000000000E+02  0.80000000000E+02 0.  0.
          5    1    3    3  501    0  0.16104165574E+02  0.20537333974E+02 -0.29946348098E+02  0.40000000000E+02  0.47000000000E+01 0.  1.
         -5    1    3    3    0  501 -0.16104165574E+02 -0.20537333974E+02  0.29946348098E+02  0.40000000000E+02  0.47000000000E+01 0. -1.
</event>
<event>
 5    1  0.4761089E-001  0.8000000E+02  0.7546771E-02  0.1203772E+00
         11   -1    0    0    0    0  0.00000000000E+00  0.00000000000E+00  0.40000000000E+02  0.40000000000E+02  0.00000000000E+00 0. -1.
        -11   -1    0    0    0    0 -0.00000000000E+00 -0.00000000000E+00 -0.40000000000E+02  0.40000000000E+02  0.00000000000E+00 0.  1.
         23    2    1    2    0    0  0.00000000000E+00  0.00000000000E+00  0.00000000000E+00  0.80000000000E+02  0.80000000000E+02 0.  0.
          5    1    3    3  501    0  0.37188096313E+02  0.16657486064E+01  0.13862928051E+02  0.40000000000E+02  0.47000000000E+01 0. -1.
         -5    1    3    3    0  501 -0.37188096313E+02 -0.16657486064E+01 -0.13862928051E+02  0.40000000000E+02  0.47000000000E+01 0.  1.
</event>
<event>
 5    1  0.4761089E-001  0.8000000E+02  0.7546771E-02  0.1203772E+00
         11   -1    0    0    0    0  0.00000000000E+00  0.00000000000E+00  0.40000000000E+02  0.40000000000E+02  0.00000000000E+00 0. -1.
        -11   -1    0    0    0    0 -0.00000000000E+00 -0.00000000000E+00 -0.40000000000E+02  0.40000000000E+02  0.00000000000E+00 0.  1.
         23    2    1    2    0    0  0.00000000000E+00  0.00000000000E+00  0.00000000000E+00  0.80000000000E+02  0.80000000000E+02 0.  0.
          5    1    3    3  501    0 -0.10423894535E+02 -0.30902803178E+02  0.22677503796E+02  0.40000000000E+02  0.47000000000E+01 0. -1.
         -5    1    3    3    0  501  0.10423894535E+02  0.30902803178E+02 -0.22677503796E+02  0.40000000000E+02  0.47000000000E+01 0.  1.
</event>
<event>
 5    1  0.4761089E-001  0.8000000E+02  0.7546771E-02  0.1203772E+00
         11   -1    0    0    0    0  0.00000000000E+00  0.00000000000E+00  0.40000000000E+02  0.40000000000E+02  0.00000000000E+00 0. -1.
        -11   -1    0    0    0    0 -0.00000000000E+00 -0.00000000000E+00 -0.40000000000E+02  0.40000000000E+02  0.00000000000E+00 0.  1.
         23    2    1    2    0    0  0.00000000000E+00  0.00000000000E+00  0.00000000000E+00  0.80000000000E+02  0.80000000000E+02 0.  0.
          5    1    3    3  501    0 -0.39499845900E+02  0.37820627113E+01  0.18352589781E+01  0.40000000000E+02  0.47000000000E+01 0. -1.
         -5    1    3    3    0  501  0.39499845900E+02 -0.37820627113E+01 -0.18352589781E+01  0.40000000000E+02  0.47000000000E+01 0.  1.
</event>
<event>
 5    1  0.4761089E-001  0.8000000E+02  0.7546771E-02  0.1203772E+00
         11   -1    0    0    0    0  0.00000000000E+00  0.00000000000E+00  0.40000000000E+02  0.40000000000E+02  0.00000000000E+00 0. -1.
        -11   -1    0    0    0    0 -0.00000000000E+00 -0.00000000000E+00 -0.40000000000E+02  0.40000000000E+02  0.00000000000E+00 0.  1.
         23    2    1    2    0    0  0.00000000000E+00  0.00000000000E+00  0.00000000000E+00  0.80000000000E+02  0.80000000000E+02 0.  0.
          5    1    3    3  501    0 -0.32070003996E+02 -0.18238933061E+02  0.14722980828E+02  0.40000000000E+02  0.47000000000E+01 0. -1.
         -5    1    3    3    0  501  0.32070003996E+02  0.18238933061E+02 -0.14722980828E+02  0.40000000000E+02  0.47000000000E+01 0.  1.
</event>
<event>
 5    1  0.4761089E-001  0.8000000E+02  0.7546771E-02  0.1203772E+00
         11   -1    0    0    0    0  0.00000000000E+00  0.00000000000E+00  0.40000000000E+02  0.40000000000E+02  0.00000000000E+00 0. -1.
        -11   -1    0    0    0    0 -0.00000000000E+00 -0.00000000000E+00 -0.40000000000E+02  0.40000000000E+02  0.00000000000E+00 0.  1.
         23    2    1    2    0    0  0.00000000000E+00  0.00000000000E+00  0.00000000000E+00  0.80000000000E+02  0.80000000000E+02 0.  0.
          5    1    3    3  501    0 -0.12868173259E+02  0.16219945379E+02  0.33900346442E+02  0.40000000000E+02  0.47000000000E+01 0. -1.
         -5    1    3    3    0  501  0.12868173259E+02 -0.16219945379E+02 -0.33900346442E+02  0.40000000000E+02  0.47000000000E+01 0.  1.
</event>
<event>
 5    1  0.4761089E-001  0.8000000E+02  0.7546771E-02  0.1203772E+00
         11   -1    0    0    0    0  0.00000000000E+00  0.00000000000E+00  0.40000000000E+02  0.40000000000E+02  0.00000000000E+00 0. -1.
        -11   -1    0    0    0    0 -0.00000000000E+00 -0.00000000000E+00 -0.40000000000E+02  0.40000000000E+02  0.00000000000E+00 0.  1.
         23    2    1    2    0    0  0.00000000000E+00  0.00000000000E+00  0.00000000000E+00  0.80000000000E+02  0.80000000000E+02 0.  0.
          5    1    3    3  501    0 -0.97174566095E+01  0.23572949096E+02  0.30459762113E+02  0.40000000000E+02  0.47000000000E+01 0. -1.
         -5    1    3    3    0  501  0.97174566095E+01 -0.23572949096E+02 -0.30459762113E+02  0.40000000000E+02  0.47000000000E+01 0.  1.
</event>
<event>
 5    1  0.4761089E-001  0.8000000E+02  0.7546771E-02  0.1203772E+00
         11   -1    0    0    0    0  0.00000000000E+00  0.00000000000E+00  0.40000000000E+02  0.40000000000E+02  0.00000000000E+00 0.  1.
        -11   -1    0    0    0    0 -0.00000000000E+00 -0.00000000000E+00 -0.40000000000E+02  0.40000000000E+02  0.00000000000E+00 0. -1.
         23    2    1    2    0    0  0.00000000000E+00  0.00000000000E+00  0.00000000000E+00  0.80000000000E+02  0.80000000000E+02 0.  0.
          5    1    3    3  501    0  0.28018582344E+01 -0.18396243532E+02 -0.35094697810E+02  0.40000000000E+02  0.47000000000E+01 0. -1.
         -5    1    3    3    0  501 -0.28018582344E+01  0.18396243532E+02  0.35094697810E+02  0.40000000000E+02  0.47000000000E+01 0.  1.
</event>
<event>
 5    1  0.4761089E-001  0.8000000E+02  0.7546771E-02  0.1203772E+00
         11   -1    0    0    0    0  0.00000000000E+00  0.00000000000E+00  0.40000000000E+02  0.40000000000E+02  0.00000000000E+00 0. -1.
        -11   -1    0    0    0    0 -0.00000000000E+00 -0.00000000000E+00 -0.40000000000E+02  0.40000000000E+02  0.00000000000E+00 0.  1.
         23    2    1    2    0    0  0.00000000000E+00  0.00000000000E+00  0.00000000000E+00  0.80000000000E+02  0.80000000000E+02 0.  0.
          5    1    3    3  501    0  0.29246872734E+02  0.25571826978E+02  0.82832421371E+01  0.40000000000E+02  0.47000000000E+01 0. -1.
         -5    1    3    3    0  501 -0.29246872734E+02 -0.25571826978E+02 -0.82832421371E+01  0.40000000000E+02  0.47000000000E+01 0.  1.
</event>
<event>
 5    1  0.4761089E-001  0.8000000E+02  0.7546771E-02  0.1203772E+00
         11   -1    0    0    0    0  0.00000000000E+00  0.00000000000E+00  0.40000000000E+02  0.40000000000E+02  0.00000000000E+00 0.  1.
        -11   -1    0    0    0    0 -0.00000000000E+00 -0.00000000000E+00 -0.40000000000E+02  0.40000000000E+02  0.00000000000E+00 0. -1.
         23    2    1    2    0    0  0.00000000000E+00  0.00000000000E+00  0.00000000000E+00  0.80000000000E+02  0.80000000000E+02 0.  0.
          5    1    3    3  501    0 -0.45243898197E+01  0.36456458088E+02 -0.15111802026E+02  0.40000000000E+02  0.47000000000E+01 0. -1.
         -5    1    3    3    0  501  0.45243898197E+01 -0.36456458088E+02  0.15111802026E+02  0.40000000000E+02  0.47000000000E+01 0.  1.
</event>
<event>
 5    1  0.4761089E-001  0.8000000E+02  0.7546771E-02  0.1203772E+00
         11   -1    0    0    0    0  0.00000000000E+00  0.00000000000E+00  0.40000000000E+02  0.40000000000E+02  0.00000000000E+00 0. -1.
        -11   -1    0    0    0    0 -0.00000000000E+00 -0.00000000000E+00 -0.40000000000E+02  0.40000000000E+02  0.00000000000E+00 0.  1.
         23    2    1    2    0    0  0.00000000000E+00  0.00000000000E+00  0.00000000000E+00  0.80000000000E+02  0.80000000000E+02 0.  0.
          5    1    3    3  501    0  0.16147768129E+02  0.35701673716E+02  0.65230421081E+01  0.40000000000E+02  0.47000000000E+01 0. -1.
         -5    1    3    3    0  501 -0.16147768129E+02 -0.35701673716E+02 -0.65230421081E+01  0.40000000000E+02  0.47000000000E+01 0.  1.
</event>
<event>
 5    1  0.4761089E-001  0.8000000E+02  0.7546771E-02  0.1203772E+00
         11   -1    0    0    0    0  0.00000000000E+00  0.00000000000E+00  0.40000000000E+02  0.40000000000E+02  0.00000000000E+00 0.  1.
        -11   -1    0    0    0    0 -0.00000000000E+00 -0.00000000000E+00 -0.40000000000E+02  0.40000000000E+02  0.00000000000E+00 0. -1.
         23    2    1    2    0    0  0.00000000000E+00  0.00000000000E+00  0.00000000000E+00  0.80000000000E+02  0.80000000000E+02 0.  0.
          5    1    3    3  501    0 -0.15392363624E+02 -0.82437031245E+01 -0.35679496925E+02  0.40000000000E+02  0.47000000000E+01 0. -1.
         -5    1    3    3    0  501  0.15392363624E+02  0.82437031245E+01  0.35679496925E+02  0.40000000000E+02  0.47000000000E+01 0.  1.
</event>
<event>
 5    1  0.4761089E-001  0.8000000E+02  0.7546771E-02  0.1203772E+00
         11   -1    0    0    0    0  0.00000000000E+00  0.00000000000E+00  0.40000000000E+02  0.40000000000E+02  0.00000000000E+00 0.  1.
        -11   -1    0    0    0    0 -0.00000000000E+00 -0.00000000000E+00 -0.40000000000E+02  0.40000000000E+02  0.00000000000E+00 0. -1.
         23    2    1    2    0    0  0.00000000000E+00  0.00000000000E+00  0.00000000000E+00  0.80000000000E+02  0.80000000000E+02 0.  0.
          5    1    3    3  501    0 -0.11199507202E+02 -0.32264326530E+02 -0.20285321590E+02  0.40000000000E+02  0.47000000000E+01 0. -1.
         -5    1    3    3    0  501  0.11199507202E+02  0.32264326530E+02  0.20285321590E+02  0.40000000000E+02  0.47000000000E+01 0.  1.
</event>
<event>
 5    1  0.4761089E-001  0.8000000E+02  0.7546771E-02  0.1203772E+00
         11   -1    0    0    0    0  0.00000000000E+00  0.00000000000E+00  0.40000000000E+02  0.40000000000E+02  0.00000000000E+00 0. -1.
        -11   -1    0    0    0    0 -0.00000000000E+00 -0.00000000000E+00 -0.40000000000E+02  0.40000000000E+02  0.00000000000E+00 0.  1.
         23    2    1    2    0    0  0.00000000000E+00  0.00000000000E+00  0.00000000000E+00  0.80000000000E+02  0.80000000000E+02 0.  0.
          5    1    3    3  501    0  0.23958361718E+02 -0.56626188281E+01  0.31174374923E+02  0.40000000000E+02  0.47000000000E+01 0. -1.
         -5    1    3    3    0  501 -0.23958361718E+02  0.56626188281E+01 -0.31174374923E+02  0.40000000000E+02  0.47000000000E+01 0.  1.
</event>
<event>
 5    1  0.4761089E-001  0.8000000E+02  0.7546771E-02  0.1203772E+00
         11   -1    0    0    0    0  0.00000000000E+00  0.00000000000E+00  0.40000000000E+02  0.40000000000E+02  0.00000000000E+00 0. -1.
        -11   -1    0    0    0    0 -0.00000000000E+00 -0.00000000000E+00 -0.40000000000E+02  0.40000000000E+02  0.00000000000E+00 0.  1.
         23    2    1    2    0    0  0.00000000000E+00  0.00000000000E+00  0.00000000000E+00  0.80000000000E+02  0.80000000000E+02 0.  0.
          5    1    3    3  501    0  0.31467650698E+02  0.14432604154E+02  0.19478113278E+02  0.40000000000E+02  0.47000000000E+01 0. -1.
         -5    1    3    3    0  501 -0.31467650698E+02 -0.14432604154E+02 -0.19478113278E+02  0.40000000000E+02  0.47000000000E+01 0.  1.
</event>
<event>
 5    1  0.4761089E-001  0.8000000E+02  0.7546771E-02  0.1203772E+00
         11   -1    0    0    0    0  0.00000000000E+00  0.00000000000E+00  0.40000000000E+02  0.40000000000E+02  0.00000000000E+00 0. -1.
        -11   -1    0    0    0    0 -0.00000000000E+00 -0.00000000000E+00 -0.40000000000E+02  0.40000000000E+02  0.00000000000E+00 0.  1.
         23    2    1    2    0    0  0.00000000000E+00  0.00000000000E+00  0.00000000000E+00  0.80000000000E+02  0.80000000000E+02 0.  0.
          5    1    3    3  501    0  0.16101558079E+02  0.21927950132E+02  0.28945031188E+02  0.40000000000E+02  0.47000000000E+01 0. -1.
         -5    1    3    3    0  501 -0.16101558079E+02 -0.21927950132E+02 -0.28945031188E+02  0.40000000000E+02  0.47000000000E+01 0.  1.
</event>
<event>
 5    1  0.4761089E-001  0.8000000E+02  0.7546771E-02  0.1203772E+00
         11   -1    0    0    0    0  0.00000000000E+00  0.00000000000E+00  0.40000000000E+02  0.40000000000E+02  0.00000000000E+00 0. -1.
        -11   -1    0    0    0    0 -0.00000000000E+00 -0.00000000000E+00 -0.40000000000E+02  0.40000000000E+02  0.00000000000E+00 0.  1.
         23    2    1    2    0    0  0.00000000000E+00  0.00000000000E+00  0.00000000000E+00  0.80000000000E+02  0.80000000000E+02 0.  0.
          5    1    3    3  501    0  0.39469989890E+02  0.36176800942E+01  0.26348223509E+01  0.40000000000E+02  0.47000000000E+01 0. -1.
         -5    1    3    3    0  501 -0.39469989890E+02 -0.36176800942E+01 -0.26348223509E+01  0.40000000000E+02  0.47000000000E+01 0.  1.
</event>
<event>
 5    1  0.4761089E-001  0.8000000E+02  0.7546771E-02  0.1203772E+00
         11   -1    0    0    0    0  0.00000000000E+00  0.00000000000E+00  0.40000000000E+02  0.40000000000E+02  0.00000000000E+00 0.  1.
        -11   -1    0    0    0    0 -0.00000000000E+00 -0.00000000000E+00 -0.40000000000E+02  0.40000000000E+02  0.00000000000E+00 0. -1.
         23    2    1    2    0    0  0.00000000000E+00  0.00000000000E+00  0.00000000000E+00  0.80000000000E+02  0.80000000000E+02 0.  0.
          5    1    3    3  501    0 -0.15218799542E+02 -0.11896260840E+01 -0.36672645531E+02  0.40000000000E+02  0.47000000000E+01 0. -1.
         -5    1    3    3    0  501  0.15218799542E+02  0.11896260840E+01  0.36672645531E+02  0.40000000000E+02  0.47000000000E+01 0.  1.
</event>
<event>
 5    1  0.4761089E-001  0.8000000E+02  0.7546771E-02  0.1203772E+00
         11   -1    0    0    0    0  0.00000000000E+00  0.00000000000E+00  0.40000000000E+02  0.40000000000E+02  0.00000000000E+00 0. -1.
        -11   -1    0    0    0    0 -0.00000000000E+00 -0.00000000000E+00 -0.40000000000E+02  0.40000000000E+02  0.00000000000E+00 0.  1.
         23    2    1    2    0    0  0.00000000000E+00  0.00000000000E+00  0.00000000000E+00  0.80000000000E+02  0.80000000000E+02 0.  0.
          5    1    3    3  501    0 -0.11997056341E+02 -0.33291948107E+01  0.37721308316E+02  0.40000000000E+02  0.47000000000E+01 0. -1.
         -5    1    3    3    0  501  0.11997056341E+02  0.33291948107E+01 -0.37721308316E+02  0.40000000000E+02  0.47000000000E+01 0.  1.
</event>
<event>
 5    1  0.4761089E-001  0.8000000E+02  0.7546771E-02  0.1203772E+00
         11   -1    0    0    0    0  0.00000000000E+00  0.00000000000E+00  0.40000000000E+02  0.40000000000E+02  0.00000000000E+00 0. -1.
        -11   -1    0    0    0    0 -0.00000000000E+00 -0.00000000000E+00 -0.40000000000E+02  0.40000000000E+02  0.00000000000E+00 0.  1.
         23    2    1    2    0    0  0.00000000000E+00  0.00000000000E+00  0.00000000000E+00  0.80000000000E+02  0.80000000000E+02 0.  0.
          5    1    3    3  501    0  0.34363698879E+02  0.12723974686E+02  0.15334492738E+02  0.40000000000E+02  0.47000000000E+01 0. -1.
         -5    1    3    3    0  501 -0.34363698879E+02 -0.12723974686E+02 -0.15334492738E+02  0.40000000000E+02  0.47000000000E+01 0.  1.
</event>
<event>
 5    1  0.4761089E-001  0.8000000E+02  0.7546771E-02  0.1203772E+00
         11   -1    0    0    0    0  0.00000000000E+00  0.00000000000E+00  0.40000000000E+02  0.40000000000E+02  0.00000000000E+00 0. -1.
        -11   -1    0    0    0    0 -0.00000000000E+00 -0.00000000000E+00 -0.40000000000E+02  0.40000000000E+02  0.00000000000E+00 0.  1.
         23    2    1    2    0    0  0.00000000000E+00  0.00000000000E+00  0.00000000000E+00  0.80000000000E+02  0.80000000000E+02 0.  0.
          5    1    3    3  501    0 -0.18944848021E+02 -0.29235728663E+02  0.19085987084E+02  0.40000000000E+02  0.47000000000E+01 0. -1.
         -5    1    3    3    0  501  0.18944848021E+02  0.29235728663E+02 -0.19085987084E+02  0.40000000000E+02  0.47000000000E+01 0.  1.
</event>
<event>
 5    1  0.4761089E-001  0.8000000E+02  0.7546771E-02  0.1203772E+00
         11   -1    0    0    0    0  0.00000000000E+00  0.00000000000E+00  0.40000000000E+02  0.40000000000E+02  0.00000000000E+00 0. -1.
        -11   -1    0    0    0    0 -0.00000000000E+00 -0.00000000000E+00 -0.40000000000E+02  0.40000000000E+02  0.00000000000E+00 0.  1.
         23    2    1    2    0    0  0.00000000000E+00  0.00000000000E+00  0.00000000000E+00  0.80000000000E+02  0.80000000000E+02 0.  0.
          5    1    3    3  501    0  0.10386215586E+00 -0.33688676725E+02 -0.21046906498E+02  0.40000000000E+02  0.47000000000E+01 0.  1.
         -5    1    3    3    0  501 -0.10386215586E+00  0.33688676725E+02  0.21046906498E+02  0.40000000000E+02  0.47000000000E+01 0. -1.
</event>
<event>
 5    1  0.4761089E-001  0.8000000E+02  0.7546771E-02  0.1203772E+00
         11   -1    0    0    0    0  0.00000000000E+00  0.00000000000E+00  0.40000000000E+02  0.40000000000E+02  0.00000000000E+00 0. -1.
        -11   -1    0    0    0    0 -0.00000000000E+00 -0.00000000000E+00 -0.40000000000E+02  0.40000000000E+02  0.00000000000E+00 0.  1.
         23    2    1    2    0    0  0.00000000000E+00  0.00000000000E+00  0.00000000000E+00  0.80000000000E+02  0.80000000000E+02 0.  0.
          5    1    3    3  501    0  0.14902747249E+02 -0.95653466536E+01  0.35557309626E+02  0.40000000000E+02  0.47000000000E+01 0. -1.
         -5    1    3    3    0  501 -0.14902747249E+02  0.95653466536E+01 -0.35557309626E+02  0.40000000000E+02  0.47000000000E+01 0.  1.
</event>
<event>
 5    1  0.4761089E-001  0.8000000E+02  0.7546771E-02  0.1203772E+00
         11   -1    0    0    0    0  0.00000000000E+00  0.00000000000E+00  0.40000000000E+02  0.40000000000E+02  0.00000000000E+00 0. -1.
        -11   -1    0    0    0    0 -0.00000000000E+00 -0.00000000000E+00 -0.40000000000E+02  0.40000000000E+02  0.00000000000E+00 0.  1.
         23    2    1    2    0    0  0.00000000000E+00  0.00000000000E+00  0.00000000000E+00  0.80000000000E+02  0.80000000000E+02 0.  0.
          5    1    3    3  501    0 -0.11352103244E+02  0.34937754329E+02  0.15112679259E+02  0.40000000000E+02  0.47000000000E+01 0. -1.
         -5    1    3    3    0  501  0.11352103244E+02 -0.34937754329E+02 -0.15112679259E+02  0.40000000000E+02  0.47000000000E+01 0.  1.
</event>
<event>
 5    1  0.4761089E-001  0.8000000E+02  0.7546771E-02  0.1203772E+00
         11   -1    0    0    0    0  0.00000000000E+00  0.00000000000E+00  0.40000000000E+02  0.40000000000E+02  0.00000000000E+00 0. -1.
        -11   -1    0    0    0    0 -0.00000000000E+00 -0.00000000000E+00 -0.40000000000E+02  0.40000000000E+02  0.00000000000E+00 0.  1.
         23    2    1    2    0    0  0.00000000000E+00  0.00000000000E+00  0.00000000000E+00  0.80000000000E+02  0.80000000000E+02 0.  0.
          5    1    3    3  501    0 -0.98264838301E+01 -0.60158909594E+01  0.38015250512E+02  0.40000000000E+02  0.47000000000E+01 0. -1.
         -5    1    3    3    0  501  0.98264838301E+01  0.60158909594E+01 -0.38015250512E+02  0.40000000000E+02  0.47000000000E+01 0.  1.
</event>
<event>
 5    1  0.4761089E-001  0.8000000E+02  0.7546771E-02  0.1203772E+00
         11   -1    0    0    0    0  0.00000000000E+00  0.00000000000E+00  0.40000000000E+02  0.40000000000E+02  0.00000000000E+00 0.  1.
        -11   -1    0    0    0    0 -0.00000000000E+00 -0.00000000000E+00 -0.40000000000E+02  0.40000000000E+02  0.00000000000E+00 0. -1.
         23    2    1    2    0    0  0.00000000000E+00  0.00000000000E+00  0.00000000000E+00  0.80000000000E+02  0.80000000000E+02 0.  0.
          5    1    3    3  501    0 -0.38099553202E+02  0.11204439455E+02 -0.89139345555E+00  0.40000000000E+02  0.47000000000E+01 0. -1.
         -5    1    3    3    0  501  0.38099553202E+02 -0.11204439455E+02  0.89139345555E+00  0.40000000000E+02  0.47000000000E+01 0.  1.
</event>
<event>
 5    1  0.4761089E-001  0.8000000E+02  0.7546771E-02  0.1203772E+00
         11   -1    0    0    0    0  0.00000000000E+00  0.00000000000E+00  0.40000000000E+02  0.40000000000E+02  0.00000000000E+00 0.  1.
        -11   -1    0    0    0    0 -0.00000000000E+00 -0.00000000000E+00 -0.40000000000E+02  0.40000000000E+02  0.00000000000E+00 0. -1.
         23    2    1    2    0    0  0.00000000000E+00  0.00000000000E+00  0.00000000000E+00  0.80000000000E+02  0.80000000000E+02 0.  0.
          5    1    3    3  501    0 -0.16084219517E+02 -0.36055857280E+02  0.43798445598E+01  0.40000000000E+02  0.47000000000E+01 0. -1.
         -5    1    3    3    0  501  0.16084219517E+02  0.36055857280E+02 -0.43798445598E+01  0.40000000000E+02  0.47000000000E+01 0.  1.
</event>
<event>
 5    1  0.4761089E-001  0.8000000E+02  0.7546771E-02  0.1203772E+00
         11   -1    0    0    0    0  0.00000000000E+00  0.00000000000E+00  0.40000000000E+02  0.40000000000E+02  0.00000000000E+00 0. -1.
        -11   -1    0    0    0    0 -0.00000000000E+00 -0.00000000000E+00 -0.40000000000E+02  0.40000000000E+02  0.00000000000E+00 0.  1.
         23    2    1    2    0    0  0.00000000000E+00  0.00000000000E+00  0.00000000000E+00  0.80000000000E+02  0.80000000000E+02 0.  0.
          5    1    3    3  501    0  0.17357667478E+01  0.46530585461E+01  0.39411244080E+02  0.40000000000E+02  0.47000000000E+01 0. -1.
         -5    1    3    3    0  501 -0.17357667478E+01 -0.46530585461E+01 -0.39411244080E+02  0.40000000000E+02  0.47000000000E+01 0.  1.
</event>
<event>
 5    1  0.4761089E-001  0.8000000E+02  0.7546771E-02  0.1203772E+00
         11   -1    0    0    0    0  0.00000000000E+00  0.00000000000E+00  0.40000000000E+02  0.40000000000E+02  0.00000000000E+00 0.  1.
        -11   -1    0    0    0    0 -0.00000000000E+00 -0.00000000000E+00 -0.40000000000E+02  0.40000000000E+02  0.00000000000E+00 0. -1.
         23    2    1    2    0    0  0.00000000000E+00  0.00000000000E+00  0.00000000000E+00  0.80000000000E+02  0.80000000000E+02 0.  0.
          5    1    3    3  501    0  0.38706106651E+02  0.85704153510E+01 -0.25090413726E+01  0.40000000000E+02  0.47000000000E+01 0. -1.
         -5    1    3    3    0  501 -0.38706106651E+02 -0.85704153510E+01  0.25090413726E+01  0.40000000000E+02  0.47000000000E+01 0.  1.
</event>
<event>
 5    1  0.4761089E-001  0.8000000E+02  0.7546771E-02  0.1203772E+00
         11   -1    0    0    0    0  0.00000000000E+00  0.00000000000E+00  0.40000000000E+02  0.40000000000E+02  0.00000000000E+00 0.  1.
        -11   -1    0    0    0    0 -0.00000000000E+00 -0.00000000000E+00 -0.40000000000E+02  0.40000000000E+02  0.00000000000E+00 0. -1.
         23    2    1    2    0    0  0.00000000000E+00  0.00000000000E+00  0.00000000000E+00  0.80000000000E+02  0.80000000000E+02 0.  0.
          5    1    3    3  501    0  0.16207439907E+02 -0.21447563322E+02 -0.29244331402E+02  0.40000000000E+02  0.47000000000E+01 0. -1.
         -5    1    3    3    0  501 -0.16207439907E+02  0.21447563322E+02  0.29244331402E+02  0.40000000000E+02  0.47000000000E+01 0.  1.
</event>
<event>
 5    1  0.4761089E-001  0.8000000E+02  0.7546771E-02  0.1203772E+00
         11   -1    0    0    0    0  0.00000000000E+00  0.00000000000E+00  0.40000000000E+02  0.40000000000E+02  0.00000000000E+00 0. -1.
        -11   -1    0    0    0    0 -0.00000000000E+00 -0.00000000000E+00 -0.40000000000E+02  0.40000000000E+02  0.00000000000E+00 0.  1.
         23    2    1    2    0    0  0.00000000000E+00  0.00000000000E+00  0.00000000000E+00  0.80000000000E+02  0.80000000000E+02 0.  0.
          5    1    3    3  501    0  0.96096803001E+01 -0.13770238650E+02  0.35999230159E+02  0.40000000000E+02  0.47000000000E+01 0. -1.
         -5    1    3    3    0  501 -0.96096803001E+01  0.13770238650E+02 -0.35999230159E+02  0.40000000000E+02  0.47000000000E+01 0.  1.
</event>
<event>
 5    1  0.4761089E-001  0.8000000E+02  0.7546771E-02  0.1203772E+00
         11   -1    0    0    0    0  0.00000000000E+00  0.00000000000E+00  0.40000000000E+02  0.40000000000E+02  0.00000000000E+00 0.  1.
        -11   -1    0    0    0    0 -0.00000000000E+00 -0.00000000000E+00 -0.40000000000E+02  0.40000000000E+02  0.00000000000E+00 0. -1.
         23    2    1    2    0    0  0.00000000000E+00  0.00000000000E+00  0.00000000000E+00  0.80000000000E+02  0.80000000000E+02 0.  0.
          5    1    3    3  501    0  0.22683105221E+02 -0.95794103574E+01 -0.31170845910E+02  0.40000000000E+02  0.47000000000E+01 0. -1.
         -5    1    3    3    0  501 -0.22683105221E+02  0.95794103574E+01  0.31170845910E+02  0.40000000000E+02  0.47000000000E+01 0.  1.
</event>
<event>
 5    1  0.4761089E-001  0.8000000E+02  0.7546771E-02  0.1203772E+00
         11   -1    0    0    0    0  0.00000000000E+00  0.00000000000E+00  0.40000000000E+02  0.40000000000E+02  0.00000000000E+00 0.  1.
        -11   -1    0    0    0    0 -0.00000000000E+00 -0.00000000000E+00 -0.40000000000E+02  0.40000000000E+02  0.00000000000E+00 0. -1.
         23    2    1    2    0    0  0.00000000000E+00  0.00000000000E+00  0.00000000000E+00  0.80000000000E+02  0.80000000000E+02 0.  0.
          5    1    3    3  501    0 -0.43485346516E+01 -0.12340854914E+02 -0.37506046798E+02  0.40000000000E+02  0.47000000000E+01 0. -1.
         -5    1    3    3    0  501  0.43485346516E+01  0.12340854914E+02  0.37506046798E+02  0.40000000000E+02  0.47000000000E+01 0.  1.
</event>
<event>
 5    1  0.4761089E-001  0.8000000E+02  0.7546771E-02  0.1203772E+00
         11   -1    0    0    0    0  0.00000000000E+00  0.00000000000E+00  0.40000000000E+02  0.40000000000E+02  0.00000000000E+00 0. -1.
        -11   -1    0    0    0    0 -0.00000000000E+00 -0.00000000000E+00 -0.40000000000E+02  0.40000000000E+02  0.00000000000E+00 0.  1.
         23    2    1    2    0    0  0.00000000000E+00  0.00000000000E+00  0.00000000000E+00  0.80000000000E+02  0.80000000000E+02 0.  0.
          5    1    3    3  501    0 -0.95662163380E+01 -0.31015060196E+02 -0.22901169097E+02  0.40000000000E+02  0.47000000000E+01 0.  1.
         -5    1    3    3    0  501  0.95662163380E+01  0.31015060196E+02  0.22901169097E+02  0.40000000000E+02  0.47000000000E+01 0. -1.
</event>
<event>
 5    1  0.4761089E-001  0.8000000E+02  0.7546771E-02  0.1203772E+00
         11   -1    0    0    0    0  0.00000000000E+00  0.00000000000E+00  0.40000000000E+02  0.40000000000E+02  0.00000000000E+00 0. -1.
        -11   -1    0    0    0    0 -0.00000000000E+00 -0.00000000000E+00 -0.40000000000E+02  0.40000000000E+02  0.00000000000E+00 0.  1.
         23    2    1    2    0    0  0.00000000000E+00  0.00000000000E+00  0.00000000000E+00  0.80000000000E+02  0.80000000000E+02 0.  0.
          5    1    3    3  501    0  0.17260938764E+02  0.35066674834E+02  0.70921300784E+01  0.40000000000E+02  0.47000000000E+01 0. -1.
         -5    1    3    3    0  501 -0.17260938764E+02 -0.35066674834E+02 -0.70921300784E+01  0.40000000000E+02  0.47000000000E+01 0.  1.
</event>
<event>
 5    1  0.4761089E-001  0.8000000E+02  0.7546771E-02  0.1203772E+00
         11   -1    0    0    0    0  0.00000000000E+00  0.00000000000E+00  0.40000000000E+02  0.40000000000E+02  0.00000000000E+00 0.  1.
        -11   -1    0    0    0    0 -0.00000000000E+00 -0.00000000000E+00 -0.40000000000E+02  0.40000000000E+02  0.00000000000E+00 0. -1.
         23    2    1    2    0    0  0.00000000000E+00  0.00000000000E+00  0.00000000000E+00  0.80000000000E+02  0.80000000000E+02 0.  0.
          5    1    3    3  501    0  0.13111383384E+02  0.53951340099E-01 -0.37496649384E+02  0.40000000000E+02  0.47000000000E+01 0. -1.
         -5    1    3    3    0  501 -0.13111383384E+02 -0.53951340099E-01  0.37496649384E+02  0.40000000000E+02  0.47000000000E+01 0.  1.
</event>
<event>
 5    1  0.4761089E-001  0.8000000E+02  0.7546771E-02  0.1203772E+00
         11   -1    0    0    0    0  0.00000000000E+00  0.00000000000E+00  0.40000000000E+02  0.40000000000E+02  0.00000000000E+00 0. -1.
        -11   -1    0    0    0    0 -0.00000000000E+00 -0.00000000000E+00 -0.40000000000E+02  0.40000000000E+02  0.00000000000E+00 0.  1.
         23    2    1    2    0    0  0.00000000000E+00  0.00000000000E+00  0.00000000000E+00  0.80000000000E+02  0.80000000000E+02 0.  0.
          5    1    3    3  501    0 -0.20718014910E+01 -0.12870598049E+02  0.37522864289E+02  0.40000000000E+02  0.47000000000E+01 0. -1.
         -5    1    3    3    0  501  0.20718014910E+01  0.12870598049E+02 -0.37522864289E+02  0.40000000000E+02  0.47000000000E+01 0.  1.
</event>
<event>
 5    1  0.4761089E-001  0.8000000E+02  0.7546771E-02  0.1203772E+00
         11   -1    0    0    0    0  0.00000000000E+00  0.00000000000E+00  0.40000000000E+02  0.40000000000E+02  0.00000000000E+00 0.  1.
        -11   -1    0    0    0    0 -0.00000000000E+00 -0.00000000000E+00 -0.40000000000E+02  0.40000000000E+02  0.00000000000E+00 0. -1.
         23    2    1    2    0    0  0.00000000000E+00  0.00000000000E+00  0.00000000000E+00  0.80000000000E+02  0.80000000000E+02 0.  0.
          5    1    3    3  501    0  0.14361776845E+02 -0.25894088989E+02 -0.26479152579E+02  0.40000000000E+02  0.47000000000E+01 0. -1.
         -5    1    3    3    0  501 -0.14361776845E+02  0.25894088989E+02  0.26479152579E+02  0.40000000000E+02  0.47000000000E+01 0.  1.
</event>
<event>
 5    1  0.4761089E-001  0.8000000E+02  0.7546771E-02  0.1203772E+00
         11   -1    0    0    0    0  0.00000000000E+00  0.00000000000E+00  0.40000000000E+02  0.40000000000E+02  0.00000000000E+00 0. -1.
        -11   -1    0    0    0    0 -0.00000000000E+00 -0.00000000000E+00 -0.40000000000E+02  0.40000000000E+02  0.00000000000E+00 0.  1.
         23    2    1    2    0    0  0.00000000000E+00  0.00000000000E+00  0.00000000000E+00  0.80000000000E+02  0.80000000000E+02 0.  0.
          5    1    3    3  501    0  0.11242806408E+02  0.18955847679E+02  0.33048224503E+02  0.40000000000E+02  0.47000000000E+01 0. -1.
         -5    1    3    3    0  501 -0.11242806408E+02 -0.18955847679E+02 -0.33048224503E+02  0.40000000000E+02  0.47000000000E+01 0.  1.
</event>
<event>
 5    1  0.4761089E-001  0.8000000E+02  0.7546771E-02  0.1203772E+00
         11   -1    0    0    0    0  0.00000000000E+00  0.00000000000E+00  0.40000000000E+02  0.40000000000E+02  0.00000000000E+00 0. -1.
        -11   -1    0    0    0    0 -0.00000000000E+00 -0.00000000000E+00 -0.40000000000E+02  0.40000000000E+02  0.00000000000E+00 0.  1.
         23    2    1    2    0    0  0.00000000000E+00  0.00000000000E+00  0.00000000000E+00  0.80000000000E+02  0.80000000000E+02 0.  0.
          5    1    3    3  501    0 -0.44007152107E+01  0.35009073597E+02  0.18245779553E+02  0.40000000000E+02  0.47000000000E+01 0. -1.
         -5    1    3    3    0  501  0.44007152107E+01 -0.35009073597E+02 -0.18245779553E+02  0.40000000000E+02  0.47000000000E+01 0.  1.
</event>
<event>
 5    1  0.4761089E-001  0.8000000E+02  0.7546771E-02  0.1203772E+00
         11   -1    0    0    0    0  0.00000000000E+00  0.00000000000E+00  0.40000000000E+02  0.40000000000E+02  0.00000000000E+00 0. -1.
        -11   -1    0    0    0    0 -0.00000000000E+00 -0.00000000000E+00 -0.40000000000E+02  0.40000000000E+02  0.00000000000E+00 0.  1.
         23    2    1    2    0    0  0.00000000000E+00  0.00000000000E+00  0.00000000000E+00  0.80000000000E+02  0.80000000000E+02 0.  0.
          5    1    3    3  501    0  0.18075882414E+02  0.25822619298E+02  0.24173638690E+02  0.40000000000E+02  0.47000000000E+01 0. -1.
         -5    1    3    3    0  501 -0.18075882414E+02 -0.25822619298E+02 -0.24173638690E+02  0.40000000000E+02  0.47000000000E+01 0.  1.
</event>
<event>
 5    1  0.4761089E-001  0.8000000E+02  0.7546771E-02  0.1203772E+00
         11   -1    0    0    0    0  0.00000000000E+00  0.00000000000E+00  0.40000000000E+02  0.40000000000E+02  0.00000000000E+00 0. -1.
        -11   -1    0    0    0    0 -0.00000000000E+00 -0.00000000000E+00 -0.40000000000E+02  0.40000000000E+02  0.00000000000E+00 0.  1.
         23    2    1    2    0    0  0.00000000000E+00  0.00000000000E+00  0.00000000000E+00  0.80000000000E+02  0.80000000000E+02 0.  0.
          5    1    3    3  501    0 -0.12976578994E+02 -0.21770942241E+02  0.30586671469E+02  0.40000000000E+02  0.47000000000E+01 0. -1.
         -5    1    3    3    0  501  0.12976578994E+02  0.21770942241E+02 -0.30586671469E+02  0.40000000000E+02  0.47000000000E+01 0.  1.
</event>
<event>
 5    1  0.4761089E-001  0.8000000E+02  0.7546771E-02  0.1203772E+00
         11   -1    0    0    0    0  0.00000000000E+00  0.00000000000E+00  0.40000000000E+02  0.40000000000E+02  0.00000000000E+00 0.  1.
        -11   -1    0    0    0    0 -0.00000000000E+00 -0.00000000000E+00 -0.40000000000E+02  0.40000000000E+02  0.00000000000E+00 0. -1.
         23    2    1    2    0    0  0.00000000000E+00  0.00000000000E+00  0.00000000000E+00  0.80000000000E+02  0.80000000000E+02 0.  0.
          5    1    3    3  501    0  0.17637524959E+02 -0.66831349591E+01 -0.34959453949E+02  0.40000000000E+02  0.47000000000E+01 0. -1.
         -5    1    3    3    0  501 -0.17637524959E+02  0.66831349591E+01  0.34959453949E+02  0.40000000000E+02  0.47000000000E+01 0.  1.
</event>
<event>
 5    1  0.4761089E-001  0.8000000E+02  0.7546771E-02  0.1203772E+00
         11   -1    0    0    0    0  0.00000000000E+00  0.00000000000E+00  0.40000000000E+02  0.40000000000E+02  0.00000000000E+00 0. -1.
        -11   -1    0    0    0    0 -0.00000000000E+00 -0.00000000000E+00 -0.40000000000E+02  0.40000000000E+02  0.00000000000E+00 0.  1.
         23    2    1    2    0    0  0.00000000000E+00  0.00000000000E+00  0.00000000000E+00  0.80000000000E+02  0.80000000000E+02 0.  0.
          5    1    3    3  501    0  0.61452592365E+01 -0.22896274425E+02 -0.31873286720E+02  0.40000000000E+02  0.47000000000E+01 0.  1.
         -5    1    3    3    0  501 -0.61452592365E+01  0.22896274425E+02  0.31873286720E+02  0.40000000000E+02  0.47000000000E+01 0. -1.
</event>
<event>
 5    1  0.4761089E-001  0.8000000E+02  0.7546771E-02  0.1203772E+00
         11   -1    0    0    0    0  0.00000000000E+00  0.00000000000E+00  0.40000000000E+02  0.40000000000E+02  0.00000000000E+00 0. -1.
        -11   -1    0    0    0    0 -0.00000000000E+00 -0.00000000000E+00 -0.40000000000E+02  0.40000000000E+02  0.00000000000E+00 0.  1.
         23    2    1    2    0    0  0.00000000000E+00  0.00000000000E+00  0.00000000000E+00  0.80000000000E+02  0.80000000000E+02 0.  0.
          5    1    3    3  501    0  0.20446840739E+02 -0.21739418320E+02  0.26215155824E+02  0.40000000000E+02  0.47000000000E+01 0. -1.
         -5    1    3    3    0  501 -0.20446840739E+02  0.21739418320E+02 -0.26215155824E+02  0.40000000000E+02  0.47000000000E+01 0.  1.
</event>
<event>
 5    1  0.4761089E-001  0.8000000E+02  0.7546771E-02  0.1203772E+00
         11   -1    0    0    0    0  0.00000000000E+00  0.00000000000E+00  0.40000000000E+02  0.40000000000E+02  0.00000000000E+00 0.  1.
        -11   -1    0    0    0    0 -0.00000000000E+00 -0.00000000000E+00 -0.40000000000E+02  0.40000000000E+02  0.00000000000E+00 0. -1.
         23    2    1    2    0    0  0.00000000000E+00  0.00000000000E+00  0.00000000000E+00  0.80000000000E+02  0.80000000000E+02 0.  0.
          5    1    3    3  501    0 -0.36168192405E+01  0.21755710964E+02 -0.33038124327E+02  0.40000000000E+02  0.47000000000E+01 0. -1.
         -5    1    3    3    0  501  0.36168192405E+01 -0.21755710964E+02  0.33038124327E+02  0.40000000000E+02  0.47000000000E+01 0.  1.
</event>
<event>
 5    1  0.4761089E-001  0.8000000E+02  0.7546771E-02  0.1203772E+00
         11   -1    0    0    0    0  0.00000000000E+00  0.00000000000E+00  0.40000000000E+02  0.40000000000E+02  0.00000000000E+00 0.  1.
        -11   -1    0    0    0    0 -0.00000000000E+00 -0.00000000000E+00 -0.40000000000E+02  0.40000000000E+02  0.00000000000E+00 0. -1.
         23    2    1    2    0    0  0.00000000000E+00  0.00000000000E+00  0.00000000000E+00  0.80000000000E+02  0.80000000000E+02 0.  0.
          5    1    3    3  501    0  0.20442409044E+02  0.14871758814E+02 -0.30640638085E+02  0.40000000000E+02  0.47000000000E+01 0. -1.
         -5    1    3    3    0  501 -0.20442409044E+02 -0.14871758814E+02  0.30640638085E+02  0.40000000000E+02  0.47000000000E+01 0.  1.
</event>
<event>
 5    1  0.4761089E-001  0.8000000E+02  0.7546771E-02  0.1203772E+00
         11   -1    0    0    0    0  0.00000000000E+00  0.00000000000E+00  0.40000000000E+02  0.40000000000E+02  0.00000000000E+00 0.  1.
        -11   -1    0    0    0    0 -0.00000000000E+00 -0.00000000000E+00 -0.40000000000E+02  0.40000000000E+02  0.00000000000E+00 0. -1.
         23    2    1    2    0    0  0.00000000000E+00  0.00000000000E+00  0.00000000000E+00  0.80000000000E+02  0.80000000000E+02 0.  0.
          5    1    3    3  501    0  0.19155711817E+02  0.21564991771E+02 -0.27311532998E+02  0.40000000000E+02  0.47000000000E+01 0. -1.
         -5    1    3    3    0  501 -0.19155711817E+02 -0.21564991771E+02  0.27311532998E+02  0.40000000000E+02  0.47000000000E+01 0.  1.
</event>
<event>
 5    1  0.4761089E-001  0.8000000E+02  0.7546771E-02  0.1203772E+00
         11   -1    0    0    0    0  0.00000000000E+00  0.00000000000E+00  0.40000000000E+02  0.40000000000E+02  0.00000000000E+00 0.  1.
        -11   -1    0    0    0    0 -0.00000000000E+00 -0.00000000000E+00 -0.40000000000E+02  0.40000000000E+02  0.00000000000E+00 0. -1.
         23    2    1    2    0    0  0.00000000000E+00  0.00000000000E+00  0.00000000000E+00  0.80000000000E+02  0.80000000000E+02 0.  0.
          5    1    3    3  501    0  0.87528143051E+01 -0.26579629759E+01 -0.38655316252E+02  0.40000000000E+02  0.47000000000E+01 0. -1.
         -5    1    3    3    0  501 -0.87528143051E+01  0.26579629759E+01  0.38655316252E+02  0.40000000000E+02  0.47000000000E+01 0.  1.
</event>
<event>
 5    1  0.4761089E-001  0.8000000E+02  0.7546771E-02  0.1203772E+00
         11   -1    0    0    0    0  0.00000000000E+00  0.00000000000E+00  0.40000000000E+02  0.40000000000E+02  0.00000000000E+00 0. -1.
        -11   -1    0    0    0    0 -0.00000000000E+00 -0.00000000000E+00 -0.40000000000E+02  0.40000000000E+02  0.00000000000E+00 0.  1.
         23    2    1    2    0    0  0.00000000000E+00  0.00000000000E+00  0.00000000000E+00  0.80000000000E+02  0.80000000000E+02 0.  0.
          5    1    3    3  501    0 -0.28858927455E+02  0.91339272527E+01  0.25722435326E+02  0.40000000000E+02  0.47000000000E+01 0. -1.
         -5    1    3    3    0  501  0.28858927455E+02 -0.91339272527E+01 -0.25722435326E+02  0.40000000000E+02  0.47000000000E+01 0.  1.
</event>
<event>
 5    1  0.4761089E-001  0.8000000E+02  0.7546771E-02  0.1203772E+00
         11   -1    0    0    0    0  0.00000000000E+00  0.00000000000E+00  0.40000000000E+02  0.40000000000E+02  0.00000000000E+00 0. -1.
        -11   -1    0    0    0    0 -0.00000000000E+00 -0.00000000000E+00 -0.40000000000E+02  0.40000000000E+02  0.00000000000E+00 0.  1.
         23    2    1    2    0    0  0.00000000000E+00  0.00000000000E+00  0.00000000000E+00  0.80000000000E+02  0.80000000000E+02 0.  0.
          5    1    3    3  501    0 -0.27767761578E+02 -0.15957685164E+00  0.28404857897E+02  0.40000000000E+02  0.47000000000E+01 0. -1.
         -5    1    3    3    0  501  0.27767761578E+02  0.15957685164E+00 -0.28404857897E+02  0.40000000000E+02  0.47000000000E+01 0.  1.
</event>
<event>
 5    1  0.4761089E-001  0.8000000E+02  0.7546771E-02  0.1203772E+00
         11   -1    0    0    0    0  0.00000000000E+00  0.00000000000E+00  0.40000000000E+02  0.40000000000E+02  0.00000000000E+00 0.  1.
        -11   -1    0    0    0    0 -0.00000000000E+00 -0.00000000000E+00 -0.40000000000E+02  0.40000000000E+02  0.00000000000E+00 0. -1.
         23    2    1    2    0    0  0.00000000000E+00  0.00000000000E+00  0.00000000000E+00  0.80000000000E+02  0.80000000000E+02 0.  0.
          5    1    3    3  501    0  0.80672543851E+01  0.17434216055E+02 -0.34768915963E+02  0.40000000000E+02  0.47000000000E+01 0. -1.
         -5    1    3    3    0  501 -0.80672543851E+01 -0.17434216055E+02  0.34768915963E+02  0.40000000000E+02  0.47000000000E+01 0.  1.
</event>
<event>
 5    1  0.4761089E-001  0.8000000E+02  0.7546771E-02  0.1203772E+00
         11   -1    0    0    0    0  0.00000000000E+00  0.00000000000E+00  0.40000000000E+02  0.40000000000E+02  0.00000000000E+00 0. -1.
        -11   -1    0    0    0    0 -0.00000000000E+00 -0.00000000000E+00 -0.40000000000E+02  0.40000000000E+02  0.00000000000E+00 0.  1.
         23    2    1    2    0    0  0.00000000000E+00  0.00000000000E+00  0.00000000000E+00  0.80000000000E+02  0.80000000000E+02 0.  0.
          5    1    3    3  501    0 -0.20678017413E+02  0.20675679629E+02  0.26885793047E+02  0.40000000000E+02  0.47000000000E+01 0.  1.
         -5    1    3    3    0  501  0.20678017413E+02 -0.20675679629E+02 -0.26885793047E+02  0.40000000000E+02  0.47000000000E+01 0. -1.
</event>
<event>
 5    1  0.4761089E-001  0.8000000E+02  0.7546771E-02  0.1203772E+00
         11   -1    0    0    0    0  0.00000000000E+00  0.00000000000E+00  0.40000000000E+02  0.40000000000E+02  0.00000000000E+00 0. -1.
        -11   -1    0    0    0    0 -0.00000000000E+00 -0.00000000000E+00 -0.40000000000E+02  0.40000000000E+02  0.00000000000E+00 0.  1.
         23    2    1    2    0    0  0.00000000000E+00  0.00000000000E+00  0.00000000000E+00  0.80000000000E+02  0.80000000000E+02 0.  0.
          5    1    3    3  501    0  0.18851869429E+01  0.18152525694E+01 -0.39636610959E+02  0.40000000000E+02  0.47000000000E+01 0.  1.
         -5    1    3    3    0  501 -0.18851869429E+01 -0.18152525694E+01  0.39636610959E+02  0.40000000000E+02  0.47000000000E+01 0. -1.
</event>
<event>
 5    1  0.4761089E-001  0.8000000E+02  0.7546771E-02  0.1203772E+00
         11   -1    0    0    0    0  0.00000000000E+00  0.00000000000E+00  0.40000000000E+02  0.40000000000E+02  0.00000000000E+00 0. -1.
        -11   -1    0    0    0    0 -0.00000000000E+00 -0.00000000000E+00 -0.40000000000E+02  0.40000000000E+02  0.00000000000E+00 0.  1.
         23    2    1    2    0    0  0.00000000000E+00  0.00000000000E+00  0.00000000000E+00  0.80000000000E+02  0.80000000000E+02 0.  0.
          5    1    3    3  501    0  0.32707394877E+01  0.31577663581E+01  0.39461890158E+02  0.40000000000E+02  0.47000000000E+01 0. -1.
         -5    1    3    3    0  501 -0.32707394877E+01 -0.31577663581E+01 -0.39461890158E+02  0.40000000000E+02  0.47000000000E+01 0.  1.
</event>
<event>
 5    1  0.4761089E-001  0.8000000E+02  0.7546771E-02  0.1203772E+00
         11   -1    0    0    0    0  0.00000000000E+00  0.00000000000E+00  0.40000000000E+02  0.40000000000E+02  0.00000000000E+00 0. -1.
        -11   -1    0    0    0    0 -0.00000000000E+00 -0.00000000000E+00 -0.40000000000E+02  0.40000000000E+02  0.00000000000E+00 0.  1.
         23    2    1    2    0    0  0.00000000000E+00  0.00000000000E+00  0.00000000000E+00  0.80000000000E+02  0.80000000000E+02 0.  0.
          5    1    3    3  501    0 -0.27595695364E+02 -0.26750613764E+02  0.10039534880E+02  0.40000000000E+02  0.47000000000E+01 0. -1.
         -5    1    3    3    0  501  0.27595695364E+02  0.26750613764E+02 -0.10039534880E+02  0.40000000000E+02  0.47000000000E+01 0.  1.
</event>
<event>
 5    1  0.4761089E-001  0.8000000E+02  0.7546771E-02  0.1203772E+00
         11   -1    0    0    0    0  0.00000000000E+00  0.00000000000E+00  0.40000000000E+02  0.40000000000E+02  0.00000000000E+00 0. -1.
        -11   -1    0    0    0    0 -0.00000000000E+00 -0.00000000000E+00 -0.40000000000E+02  0.40000000000E+02  0.00000000000E+00 0.  1.
         23    2    1    2    0    0  0.00000000000E+00  0.00000000000E+00  0.00000000000E+00  0.80000000000E+02  0.80000000000E+02 0.  0.
          5    1    3    3  501    0  0.92002324018E+01  0.16262592972E+02 -0.35054155154E+02  0.40000000000E+02  0.47000000000E+01 0.  1.
         -5    1    3    3    0  501 -0.92002324018E+01 -0.16262592972E+02  0.35054155154E+02  0.40000000000E+02  0.47000000000E+01 0. -1.
</event>
<event>
 5    1  0.4761089E-001  0.8000000E+02  0.7546771E-02  0.1203772E+00
         11   -1    0    0    0    0  0.00000000000E+00  0.00000000000E+00  0.40000000000E+02  0.40000000000E+02  0.00000000000E+00 0.  1.
        -11   -1    0    0    0    0 -0.00000000000E+00 -0.00000000000E+00 -0.40000000000E+02  0.40000000000E+02  0.00000000000E+00 0. -1.
         23    2    1    2    0    0  0.00000000000E+00  0.00000000000E+00  0.00000000000E+00  0.80000000000E+02  0.80000000000E+02 0.  0.
          5    1    3    3  501    0  0.54407309478E+00  0.14060428200E+02 -0.37147252164E+02  0.40000000000E+02  0.47000000000E+01 0. -1.
         -5    1    3    3    0  501 -0.54407309478E+00 -0.14060428200E+02  0.37147252164E+02  0.40000000000E+02  0.47000000000E+01 0.  1.
</event>
<event>
 5    1  0.4761089E-001  0.8000000E+02  0.7546771E-02  0.1203772E+00
         11   -1    0    0    0    0  0.00000000000E+00  0.00000000000E+00  0.40000000000E+02  0.40000000000E+02  0.00000000000E+00 0. -1.
        -11   -1    0    0    0    0 -0.00000000000E+00 -0.00000000000E+00 -0.40000000000E+02  0.40000000000E+02  0.00000000000E+00 0.  1.
         23    2    1    2    0    0  0.00000000000E+00  0.00000000000E+00  0.00000000000E+00  0.80000000000E+02  0.80000000000E+02 0.  0.
          5    1    3    3  501    0 -0.13450499157E+02  0.13018772627E+02 -0.35035776454E+02  0.40000000000E+02  0.47000000000E+01 0.  1.
         -5    1    3    3    0  501  0.13450499157E+02 -0.13018772627E+02  0.35035776454E+02  0.40000000000E+02  0.47000000000E+01 0. -1.
</event>
<event>
 5    1  0.4761089E-001  0.8000000E+02  0.7546771E-02  0.1203772E+00
         11   -1    0    0    0    0  0.00000000000E+00  0.00000000000E+00  0.40000000000E+02  0.40000000000E+02  0.00000000000E+00 0. -1.
        -11   -1    0    0    0    0 -0.00000000000E+00 -0.00000000000E+00 -0.40000000000E+02  0.40000000000E+02  0.00000000000E+00 0.  1.
         23    2    1    2    0    0  0.00000000000E+00  0.00000000000E+00  0.00000000000E+00  0.80000000000E+02  0.80000000000E+02 0.  0.
          5    1    3    3  501    0  0.40393131623E+01  0.19018656540E+02  0.34639351215E+02  0.40000000000E+02  0.47000000000E+01 0. -1.
         -5    1    3    3    0  501 -0.40393131623E+01 -0.19018656540E+02 -0.34639351215E+02  0.40000000000E+02  0.47000000000E+01 0.  1.
</event>
<event>
 5    1  0.4761089E-001  0.8000000E+02  0.7546771E-02  0.1203772E+00
         11   -1    0    0    0    0  0.00000000000E+00  0.00000000000E+00  0.40000000000E+02  0.40000000000E+02  0.00000000000E+00 0.  1.
        -11   -1    0    0    0    0 -0.00000000000E+00 -0.00000000000E+00 -0.40000000000E+02  0.40000000000E+02  0.00000000000E+00 0. -1.
         23    2    1    2    0    0  0.00000000000E+00  0.00000000000E+00  0.00000000000E+00  0.80000000000E+02  0.80000000000E+02 0.  0.
          5    1    3    3  501    0  0.20937958202E+02 -0.28092251638E+02 -0.18717299599E+02  0.40000000000E+02  0.47000000000E+01 0. -1.
         -5    1    3    3    0  501 -0.20937958202E+02  0.28092251638E+02  0.18717299599E+02  0.40000000000E+02  0.47000000000E+01 0.  1.
</event>
<event>
 5    1  0.4761089E-001  0.8000000E+02  0.7546771E-02  0.1203772E+00
         11   -1    0    0    0    0  0.00000000000E+00  0.00000000000E+00  0.40000000000E+02  0.40000000000E+02  0.00000000000E+00 0. -1.
        -11   -1    0    0    0    0 -0.00000000000E+00 -0.00000000000E+00 -0.40000000000E+02  0.40000000000E+02  0.00000000000E+00 0.  1.
         23    2    1    2    0    0  0.00000000000E+00  0.00000000000E+00  0.00000000000E+00  0.80000000000E+02  0.80000000000E+02 0.  0.
          5    1    3    3  501    0 -0.11083313334E+02 -0.12577409003E+02  0.36012205546E+02  0.40000000000E+02  0.47000000000E+01 0. -1.
         -5    1    3    3    0  501  0.11083313334E+02  0.12577409003E+02 -0.36012205546E+02  0.40000000000E+02  0.47000000000E+01 0.  1.
</event>
<event>
 5    1  0.4761089E-001  0.8000000E+02  0.7546771E-02  0.1203772E+00
         11   -1    0    0    0    0  0.00000000000E+00  0.00000000000E+00  0.40000000000E+02  0.40000000000E+02  0.00000000000E+00 0. -1.
        -11   -1    0    0    0    0 -0.00000000000E+00 -0.00000000000E+00 -0.40000000000E+02  0.40000000000E+02  0.00000000000E+00 0.  1.
         23    2    1    2    0    0  0.00000000000E+00  0.00000000000E+00  0.00000000000E+00  0.80000000000E+02  0.80000000000E+02 0.  0.
          5    1    3    3  501    0  0.37083850318E+02 -0.86030994020E+01 -0.11343929048E+02  0.40000000000E+02  0.47000000000E+01 0.  1.
         -5    1    3    3    0  501 -0.37083850318E+02  0.86030994020E+01  0.11343929048E+02  0.40000000000E+02  0.47000000000E+01 0. -1.
</event>
<event>
 5    1  0.4761089E-001  0.8000000E+02  0.7546771E-02  0.1203772E+00
         11   -1    0    0    0    0  0.00000000000E+00  0.00000000000E+00  0.40000000000E+02  0.40000000000E+02  0.00000000000E+00 0.  1.
        -11   -1    0    0    0    0 -0.00000000000E+00 -0.00000000000E+00 -0.40000000000E+02  0.40000000000E+02  0.00000000000E+00 0. -1.
         23    2    1    2    0    0  0.00000000000E+00  0.00000000000E+00  0.00000000000E+00  0.80000000000E+02  0.80000000000E+02 0.  0.
          5    1    3    3  501    0 -0.32193117320E+02 -0.19269125031E+02 -0.13046609435E+02  0.40000000000E+02  0.47000000000E+01 0. -1.
         -5    1    3    3    0  501  0.32193117320E+02  0.19269125031E+02  0.13046609435E+02  0.40000000000E+02  0.47000000000E+01 0.  1.
</event>
<event>
 5    1  0.4761089E-001  0.8000000E+02  0.7546771E-02  0.1203772E+00
         11   -1    0    0    0    0  0.00000000000E+00  0.00000000000E+00  0.40000000000E+02  0.40000000000E+02  0.00000000000E+00 0. -1.
        -11   -1    0    0    0    0 -0.00000000000E+00 -0.00000000000E+00 -0.40000000000E+02  0.40000000000E+02  0.00000000000E+00 0.  1.
         23    2    1    2    0    0  0.00000000000E+00  0.00000000000E+00  0.00000000000E+00  0.80000000000E+02  0.80000000000E+02 0.  0.
          5    1    3    3  501    0  0.21680281517E+02 -0.13866176196E+02  0.30258958195E+02  0.40000000000E+02  0.47000000000E+01 0. -1.
         -5    1    3    3    0  501 -0.21680281517E+02  0.13866176196E+02 -0.30258958195E+02  0.40000000000E+02  0.47000000000E+01 0.  1.
</event>
<event>
 5    1  0.4761089E-001  0.8000000E+02  0.7546771E-02  0.1203772E+00
         11   -1    0    0    0    0  0.00000000000E+00  0.00000000000E+00  0.40000000000E+02  0.40000000000E+02  0.00000000000E+00 0.  1.
        -11   -1    0    0    0    0 -0.00000000000E+00 -0.00000000000E+00 -0.40000000000E+02  0.40000000000E+02  0.00000000000E+00 0. -1.
         23    2    1    2    0    0  0.00000000000E+00  0.00000000000E+00  0.00000000000E+00  0.80000000000E+02  0.80000000000E+02 0.  0.
          5    1    3    3  501    0 -0.81794707924E+01  0.38191953307E+02  0.72374691838E+01  0.40000000000E+02  0.47000000000E+01 0. -1.
         -5    1    3    3    0  501  0.81794707924E+01 -0.38191953307E+02 -0.72374691838E+01  0.40000000000E+02  0.47000000000E+01 0.  1.
</event>
<event>
 5    1  0.4761089E-001  0.8000000E+02  0.7546771E-02  0.1203772E+00
         11   -1    0    0    0    0  0.00000000000E+00  0.00000000000E+00  0.40000000000E+02  0.40000000000E+02  0.00000000000E+00 0. -1.
        -11   -1    0    0    0    0 -0.00000000000E+00 -0.00000000000E+00 -0.40000000000E+02  0.40000000000E+02  0.00000000000E+00 0.  1.
         23    2    1    2    0    0  0.00000000000E+00  0.00000000000E+00  0.00000000000E+00  0.80000000000E+02  0.80000000000E+02 0.  0.
          5    1    3    3  501    0 -0.16444892142E+01 -0.30559800999E+02  0.25323985036E+02  0.40000000000E+02  0.47000000000E+01 0. -1.
         -5    1    3    3    0  501  0.16444892142E+01  0.30559800999E+02 -0.25323985036E+02  0.40000000000E+02  0.47000000000E+01 0.  1.
</event>
<event>
 5    1  0.4761089E-001  0.8000000E+02  0.7546771E-02  0.1203772E+00
         11   -1    0    0    0    0  0.00000000000E+00  0.00000000000E+00  0.40000000000E+02  0.40000000000E+02  0.00000000000E+00 0. -1.
        -11   -1    0    0    0    0 -0.00000000000E+00 -0.00000000000E+00 -0.40000000000E+02  0.40000000000E+02  0.00000000000E+00 0.  1.
         23    2    1    2    0    0  0.00000000000E+00  0.00000000000E+00  0.00000000000E+00  0.80000000000E+02  0.80000000000E+02 0.  0.
          5    1    3    3  501    0 -0.35709677727E+02 -0.10718434516E+01 -0.17366060816E+02  0.40000000000E+02  0.47000000000E+01 0. -1.
         -5    1    3    3    0  501  0.35709677727E+02  0.10718434516E+01  0.17366060816E+02  0.40000000000E+02  0.47000000000E+01 0.  1.
</event>
<event>
 5    1  0.4761089E-001  0.8000000E+02  0.7546771E-02  0.1203772E+00
         11   -1    0    0    0    0  0.00000000000E+00  0.00000000000E+00  0.40000000000E+02  0.40000000000E+02  0.00000000000E+00 0. -1.
        -11   -1    0    0    0    0 -0.00000000000E+00 -0.00000000000E+00 -0.40000000000E+02  0.40000000000E+02  0.00000000000E+00 0.  1.
         23    2    1    2    0    0  0.00000000000E+00  0.00000000000E+00  0.00000000000E+00  0.80000000000E+02  0.80000000000E+02 0.  0.
          5    1    3    3  501    0  0.70427944547E+01  0.35970578495E+02  0.15310993731E+02  0.40000000000E+02  0.47000000000E+01 0. -1.
         -5    1    3    3    0  501 -0.70427944547E+01 -0.35970578495E+02 -0.15310993731E+02  0.40000000000E+02  0.47000000000E+01 0.  1.
</event>
<event>
 5    1  0.4761089E-001  0.8000000E+02  0.7546771E-02  0.1203772E+00
         11   -1    0    0    0    0  0.00000000000E+00  0.00000000000E+00  0.40000000000E+02  0.40000000000E+02  0.00000000000E+00 0.  1.
        -11   -1    0    0    0    0 -0.00000000000E+00 -0.00000000000E+00 -0.40000000000E+02  0.40000000000E+02  0.00000000000E+00 0. -1.
         23    2    1    2    0    0  0.00000000000E+00  0.00000000000E+00  0.00000000000E+00  0.80000000000E+02  0.80000000000E+02 0.  0.
          5    1    3    3  501    0  0.32117632215E+02  0.11714218614E+02 -0.20227327633E+02  0.40000000000E+02  0.47000000000E+01 0. -1.
         -5    1    3    3    0  501 -0.32117632215E+02 -0.11714218614E+02  0.20227327633E+02  0.40000000000E+02  0.47000000000E+01 0.  1.
</event>
<event>
 5    1  0.4761089E-001  0.8000000E+02  0.7546771E-02  0.1203772E+00
         11   -1    0    0    0    0  0.00000000000E+00  0.00000000000E+00  0.40000000000E+02  0.40000000000E+02  0.00000000000E+00 0.  1.
        -11   -1    0    0    0    0 -0.00000000000E+00 -0.00000000000E+00 -0.40000000000E+02  0.40000000000E+02  0.00000000000E+00 0. -1.
         23    2    1    2    0    0  0.00000000000E+00  0.00000000000E+00  0.00000000000E+00  0.80000000000E+02  0.80000000000E+02 0.  0.
          5    1    3    3  501    0  0.19874613067E+02 -0.26852523799E+02 -0.21490735703E+02  0.40000000000E+02  0.47000000000E+01 0. -1.
         -5    1    3    3    0  501 -0.19874613067E+02  0.26852523799E+02  0.21490735703E+02  0.40000000000E+02  0.47000000000E+01 0.  1.
</event>
<event>
 5    1  0.4761089E-001  0.8000000E+02  0.7546771E-02  0.1203772E+00
         11   -1    0    0    0    0  0.00000000000E+00  0.00000000000E+00  0.40000000000E+02  0.40000000000E+02  0.00000000000E+00 0.  1.
        -11   -1    0    0    0    0 -0.00000000000E+00 -0.00000000000E+00 -0.40000000000E+02  0.40000000000E+02  0.00000000000E+00 0. -1.
         23    2    1    2    0    0  0.00000000000E+00  0.00000000000E+00  0.00000000000E+00  0.80000000000E+02  0.80000000000E+02 0.  0.
          5    1    3    3  501    0 -0.22425814193E+02 -0.27098572141E+02 -0.18456983656E+02  0.40000000000E+02  0.47000000000E+01 0. -1.
         -5    1    3    3    0  501  0.22425814193E+02  0.27098572141E+02  0.18456983656E+02  0.40000000000E+02  0.47000000000E+01 0.  1.
</event>
<event>
 5    1  0.4761089E-001  0.8000000E+02  0.7546771E-02  0.1203772E+00
         11   -1    0    0    0    0  0.00000000000E+00  0.00000000000E+00  0.40000000000E+02  0.40000000000E+02  0.00000000000E+00 0.  1.
        -11   -1    0    0    0    0 -0.00000000000E+00 -0.00000000000E+00 -0.40000000000E+02  0.40000000000E+02  0.00000000000E+00 0. -1.
         23    2    1    2    0    0  0.00000000000E+00  0.00000000000E+00  0.00000000000E+00  0.80000000000E+02  0.80000000000E+02 0.  0.
          5    1    3    3  501    0 -0.38858858686E+02  0.65729470093E+01  0.49694536132E+01  0.40000000000E+02  0.47000000000E+01 0. -1.
         -5    1    3    3    0  501  0.38858858686E+02 -0.65729470093E+01 -0.49694536132E+01  0.40000000000E+02  0.47000000000E+01 0.  1.
</event>
<event>
 5    1  0.4761089E-001  0.8000000E+02  0.7546771E-02  0.1203772E+00
         11   -1    0    0    0    0  0.00000000000E+00  0.00000000000E+00  0.40000000000E+02  0.40000000000E+02  0.00000000000E+00 0. -1.
        -11   -1    0    0    0    0 -0.00000000000E+00 -0.00000000000E+00 -0.40000000000E+02  0.40000000000E+02  0.00000000000E+00 0.  1.
         23    2    1    2    0    0  0.00000000000E+00  0.00000000000E+00  0.00000000000E+00  0.80000000000E+02  0.80000000000E+02 0.  0.
          5    1    3    3  501    0 -0.20505146404E+02 -0.86999383058E+01  0.32890120772E+02  0.40000000000E+02  0.47000000000E+01 0. -1.
         -5    1    3    3    0  501  0.20505146404E+02  0.86999383058E+01 -0.32890120772E+02  0.40000000000E+02  0.47000000000E+01 0.  1.
</event>
<event>
 5    1  0.4761089E-001  0.8000000E+02  0.7546771E-02  0.1203772E+00
         11   -1    0    0    0    0  0.00000000000E+00  0.00000000000E+00  0.40000000000E+02  0.40000000000E+02  0.00000000000E+00 0. -1.
        -11   -1    0    0    0    0 -0.00000000000E+00 -0.00000000000E+00 -0.40000000000E+02  0.40000000000E+02  0.00000000000E+00 0.  1.
         23    2    1    2    0    0  0.00000000000E+00  0.00000000000E+00  0.00000000000E+00  0.80000000000E+02  0.80000000000E+02 0.  0.
          5    1    3    3  501    0 -0.29849217705E+02 -0.23492165217E+02  0.11621203716E+02  0.40000000000E+02  0.47000000000E+01 0. -1.
         -5    1    3    3    0  501  0.29849217705E+02  0.23492165217E+02 -0.11621203716E+02  0.40000000000E+02  0.47000000000E+01 0.  1.
</event>
<event>
 5    1  0.4761089E-001  0.8000000E+02  0.7546771E-02  0.1203772E+00
         11   -1    0    0    0    0  0.00000000000E+00  0.00000000000E+00  0.40000000000E+02  0.40000000000E+02  0.00000000000E+00 0.  1.
        -11   -1    0    0    0    0 -0.00000000000E+00 -0.00000000000E+00 -0.40000000000E+02  0.40000000000E+02  0.00000000000E+00 0. -1.
         23    2    1    2    0    0  0.00000000000E+00  0.00000000000E+00  0.00000000000E+00  0.80000000000E+02  0.80000000000E+02 0.  0.
          5    1    3    3  501    0 -0.10873065683E+02 -0.37160171057E+02 -0.88773943040E+01  0.40000000000E+02  0.47000000000E+01 0. -1.
         -5    1    3    3    0  501  0.10873065683E+02  0.37160171057E+02  0.88773943040E+01  0.40000000000E+02  0.47000000000E+01 0.  1.
</event>
<event>
 5    1  0.4761089E-001  0.8000000E+02  0.7546771E-02  0.1203772E+00
         11   -1    0    0    0    0  0.00000000000E+00  0.00000000000E+00  0.40000000000E+02  0.40000000000E+02  0.00000000000E+00 0. -1.
        -11   -1    0    0    0    0 -0.00000000000E+00 -0.00000000000E+00 -0.40000000000E+02  0.40000000000E+02  0.00000000000E+00 0.  1.
         23    2    1    2    0    0  0.00000000000E+00  0.00000000000E+00  0.00000000000E+00  0.80000000000E+02  0.80000000000E+02 0.  0.
          5    1    3    3  501    0 -0.70001251843E+01 -0.36641128174E+02  0.13650493526E+02  0.40000000000E+02  0.47000000000E+01 0. -1.
         -5    1    3    3    0  501  0.70001251843E+01  0.36641128174E+02 -0.13650493526E+02  0.40000000000E+02  0.47000000000E+01 0.  1.
</event>
<event>
 5    1  0.4761089E-001  0.8000000E+02  0.7546771E-02  0.1203772E+00
         11   -1    0    0    0    0  0.00000000000E+00  0.00000000000E+00  0.40000000000E+02  0.40000000000E+02  0.00000000000E+00 0.  1.
        -11   -1    0    0    0    0 -0.00000000000E+00 -0.00000000000E+00 -0.40000000000E+02  0.40000000000E+02  0.00000000000E+00 0. -1.
         23    2    1    2    0    0  0.00000000000E+00  0.00000000000E+00  0.00000000000E+00  0.80000000000E+02  0.80000000000E+02 0.  0.
          5    1    3    3  501    0 -0.77671558285E+01 -0.66365739895E+01 -0.38386679669E+02  0.40000000000E+02  0.47000000000E+01 0. -1.
         -5    1    3    3    0  501  0.77671558285E+01  0.66365739895E+01  0.38386679669E+02  0.40000000000E+02  0.47000000000E+01 0.  1.
</event>
<event>
 5    1  0.4761089E-001  0.8000000E+02  0.7546771E-02  0.1203772E+00
         11   -1    0    0    0    0  0.00000000000E+00  0.00000000000E+00  0.40000000000E+02  0.40000000000E+02  0.00000000000E+00 0.  1.
        -11   -1    0    0    0    0 -0.00000000000E+00 -0.00000000000E+00 -0.40000000000E+02  0.40000000000E+02  0.00000000000E+00 0. -1.
         23    2    1    2    0    0  0.00000000000E+00  0.00000000000E+00  0.00000000000E+00  0.80000000000E+02  0.80000000000E+02 0.  0.
          5    1    3    3  501    0 -0.10340284051E+02  0.14060018497E+02 -0.35683391173E+02  0.40000000000E+02  0.47000000000E+01 0. -1.
         -5    1    3    3    0  501  0.10340284051E+02 -0.14060018497E+02  0.35683391173E+02  0.40000000000E+02  0.47000000000E+01 0.  1.
</event>
<event>
 5    1  0.4761089E-001  0.8000000E+02  0.7546771E-02  0.1203772E+00
         11   -1    0    0    0    0  0.00000000000E+00  0.00000000000E+00  0.40000000000E+02  0.40000000000E+02  0.00000000000E+00 0. -1.
        -11   -1    0    0    0    0 -0.00000000000E+00 -0.00000000000E+00 -0.40000000000E+02  0.40000000000E+02  0.00000000000E+00 0.  1.
         23    2    1    2    0    0  0.00000000000E+00  0.00000000000E+00  0.00000000000E+00  0.80000000000E+02  0.80000000000E+02 0.  0.
          5    1    3    3  501    0 -0.43500159044E+01 -0.10692446486E+02  0.38008669403E+02  0.40000000000E+02  0.47000000000E+01 0. -1.
         -5    1    3    3    0  501  0.43500159044E+01  0.10692446486E+02 -0.38008669403E+02  0.40000000000E+02  0.47000000000E+01 0.  1.
</event>
<event>
 5    1  0.4761089E-001  0.8000000E+02  0.7546771E-02  0.1203772E+00
         11   -1    0    0    0    0  0.00000000000E+00  0.00000000000E+00  0.40000000000E+02  0.40000000000E+02  0.00000000000E+00 0.  1.
        -11   -1    0    0    0    0 -0.00000000000E+00 -0.00000000000E+00 -0.40000000000E+02  0.40000000000E+02  0.00000000000E+00 0. -1.
         23    2    1    2    0    0  0.00000000000E+00  0.00000000000E+00  0.00000000000E+00  0.80000000000E+02  0.80000000000E+02 0.  0.
          5    1    3    3  501    0 -0.34289309970E+02 -0.92493433181E+01  0.17793337798E+02  0.40000000000E+02  0.47000000000E+01 0. -1.
         -5    1    3    3    0  501  0.34289309970E+02  0.92493433181E+01 -0.17793337798E+02  0.40000000000E+02  0.47000000000E+01 0.  1.
</event>
<event>
 5    1  0.4761089E-001  0.8000000E+02  0.7546771E-02  0.1203772E+00
         11   -1    0    0    0    0  0.00000000000E+00  0.00000000000E+00  0.40000000000E+02  0.40000000000E+02  0.00000000000E+00 0.  1.
        -11   -1    0    0    0    0 -0.00000000000E+00 -0.00000000000E+00 -0.40000000000E+02  0.40000000000E+02  0.00000000000E+00 0. -1.
         23    2    1    2    0    0  0.00000000000E+00  0.00000000000E+00  0.00000000000E+00  0.80000000000E+02  0.80000000000E+02 0.  0.
          5    1    3    3  501    0 -0.13919777934E+02  0.36909492451E+02  0.46732375592E+01  0.40000000000E+02  0.47000000000E+01 0. -1.
         -5    1    3    3    0  501  0.13919777934E+02 -0.36909492451E+02 -0.46732375592E+01  0.40000000000E+02  0.47000000000E+01 0.  1.
</event>
<event>
 5    1  0.4761089E-001  0.8000000E+02  0.7546771E-02  0.1203772E+00
         11   -1    0    0    0    0  0.00000000000E+00  0.00000000000E+00  0.40000000000E+02  0.40000000000E+02  0.00000000000E+00 0.  1.
        -11   -1    0    0    0    0 -0.00000000000E+00 -0.00000000000E+00 -0.40000000000E+02  0.40000000000E+02  0.00000000000E+00 0. -1.
         23    2    1    2    0    0  0.00000000000E+00  0.00000000000E+00  0.00000000000E+00  0.80000000000E+02  0.80000000000E+02 0.  0.
          5    1    3    3  501    0  0.26985798587E+02  0.27149439835E+02 -0.10610588639E+02  0.40000000000E+02  0.47000000000E+01 0. -1.
         -5    1    3    3    0  501 -0.26985798587E+02 -0.27149439835E+02  0.10610588639E+02  0.40000000000E+02  0.47000000000E+01 0.  1.
</event>
<event>
 5    1  0.4761089E-001  0.8000000E+02  0.7546771E-02  0.1203772E+00
         11   -1    0    0    0    0  0.00000000000E+00  0.00000000000E+00  0.40000000000E+02  0.40000000000E+02  0.00000000000E+00 0.  1.
        -11   -1    0    0    0    0 -0.00000000000E+00 -0.00000000000E+00 -0.40000000000E+02  0.40000000000E+02  0.00000000000E+00 0. -1.
         23    2    1    2    0    0  0.00000000000E+00  0.00000000000E+00  0.00000000000E+00  0.80000000000E+02  0.80000000000E+02 0.  0.
          5    1    3    3  501    0 -0.19076127776E+02  0.20470971047E+02 -0.28194869985E+02  0.40000000000E+02  0.47000000000E+01 0. -1.
         -5    1    3    3    0  501  0.19076127776E+02 -0.20470971047E+02  0.28194869985E+02  0.40000000000E+02  0.47000000000E+01 0.  1.
</event>
<event>
 5    1  0.4761089E-001  0.8000000E+02  0.7546771E-02  0.1203772E+00
         11   -1    0    0    0    0  0.00000000000E+00  0.00000000000E+00  0.40000000000E+02  0.40000000000E+02  0.00000000000E+00 0.  1.
        -11   -1    0    0    0    0 -0.00000000000E+00 -0.00000000000E+00 -0.40000000000E+02  0.40000000000E+02  0.00000000000E+00 0. -1.
         23    2    1    2    0    0  0.00000000000E+00  0.00000000000E+00  0.00000000000E+00  0.80000000000E+02  0.80000000000E+02 0.  0.
          5    1    3    3  501    0 -0.16152381917E+02 -0.12395276409E+02 -0.34108176163E+02  0.40000000000E+02  0.47000000000E+01 0. -1.
         -5    1    3    3    0  501  0.16152381917E+02  0.12395276409E+02  0.34108176163E+02  0.40000000000E+02  0.47000000000E+01 0.  1.
</event>
<event>
 5    1  0.4761089E-001  0.8000000E+02  0.7546771E-02  0.1203772E+00
         11   -1    0    0    0    0  0.00000000000E+00  0.00000000000E+00  0.40000000000E+02  0.40000000000E+02  0.00000000000E+00 0.  1.
        -11   -1    0    0    0    0 -0.00000000000E+00 -0.00000000000E+00 -0.40000000000E+02  0.40000000000E+02  0.00000000000E+00 0. -1.
         23    2    1    2    0    0  0.00000000000E+00  0.00000000000E+00  0.00000000000E+00  0.80000000000E+02  0.80000000000E+02 0.  0.
          5    1    3    3  501    0 -0.81252346589E+01 -0.60527525613E+01 -0.38409045135E+02  0.40000000000E+02  0.47000000000E+01 0. -1.
         -5    1    3    3    0  501  0.81252346589E+01  0.60527525613E+01  0.38409045135E+02  0.40000000000E+02  0.47000000000E+01 0.  1.
</event>
<event>
 5    1  0.4761089E-001  0.8000000E+02  0.7546771E-02  0.1203772E+00
         11   -1    0    0    0    0  0.00000000000E+00  0.00000000000E+00  0.40000000000E+02  0.40000000000E+02  0.00000000000E+00 0.  1.
        -11   -1    0    0    0    0 -0.00000000000E+00 -0.00000000000E+00 -0.40000000000E+02  0.40000000000E+02  0.00000000000E+00 0. -1.
         23    2    1    2    0    0  0.00000000000E+00  0.00000000000E+00  0.00000000000E+00  0.80000000000E+02  0.80000000000E+02 0.  0.
          5    1    3    3  501    0 -0.11693738227E+01 -0.13305677521E+02 -0.37409911929E+02  0.40000000000E+02  0.47000000000E+01 0. -1.
         -5    1    3    3    0  501  0.11693738227E+01  0.13305677521E+02  0.37409911929E+02  0.40000000000E+02  0.47000000000E+01 0.  1.
</event>
<event>
 5    1  0.4761089E-001  0.8000000E+02  0.7546771E-02  0.1203772E+00
         11   -1    0    0    0    0  0.00000000000E+00  0.00000000000E+00  0.40000000000E+02  0.40000000000E+02  0.00000000000E+00 0. -1.
        -11   -1    0    0    0    0 -0.00000000000E+00 -0.00000000000E+00 -0.40000000000E+02  0.40000000000E+02  0.00000000000E+00 0.  1.
         23    2    1    2    0    0  0.00000000000E+00  0.00000000000E+00  0.00000000000E+00  0.80000000000E+02  0.80000000000E+02 0.  0.
          5    1    3    3  501    0  0.71949375295E+01  0.11979061119E+02  0.37183934281E+02  0.40000000000E+02  0.47000000000E+01 0. -1.
         -5    1    3    3    0  501 -0.71949375295E+01 -0.11979061119E+02 -0.37183934281E+02  0.40000000000E+02  0.47000000000E+01 0.  1.
</event>
<event>
 5    1  0.4761089E-001  0.8000000E+02  0.7546771E-02  0.1203772E+00
         11   -1    0    0    0    0  0.00000000000E+00  0.00000000000E+00  0.40000000000E+02  0.40000000000E+02  0.00000000000E+00 0. -1.
        -11   -1    0    0    0    0 -0.00000000000E+00 -0.00000000000E+00 -0.40000000000E+02  0.40000000000E+02  0.00000000000E+00 0.  1.
         23    2    1    2    0    0  0.00000000000E+00  0.00000000000E+00  0.00000000000E+00  0.80000000000E+02  0.80000000000E+02 0.  0.
          5    1    3    3  501    0 -0.14915613487E+02  0.20264810897E+02  0.30737142249E+02  0.40000000000E+02  0.47000000000E+01 0. -1.
         -5    1    3    3    0  501  0.14915613487E+02 -0.20264810897E+02 -0.30737142249E+02  0.40000000000E+02  0.47000000000E+01 0.  1.
</event>
<event>
 5    1  0.4761089E-001  0.8000000E+02  0.7546771E-02  0.1203772E+00
         11   -1    0    0    0    0  0.00000000000E+00  0.00000000000E+00  0.40000000000E+02  0.40000000000E+02  0.00000000000E+00 0.  1.
        -11   -1    0    0    0    0 -0.00000000000E+00 -0.00000000000E+00 -0.40000000000E+02  0.40000000000E+02  0.00000000000E+00 0. -1.
         23    2    1    2    0    0  0.00000000000E+00  0.00000000000E+00  0.00000000000E+00  0.80000000000E+02  0.80000000000E+02 0.  0.
          5    1    3    3  501    0  0.36936014372E+01  0.31311082608E+02 -0.24163679652E+02  0.40000000000E+02  0.47000000000E+01 0. -1.
         -5    1    3    3    0  501 -0.36936014372E+01 -0.31311082608E+02  0.24163679652E+02  0.40000000000E+02  0.47000000000E+01 0.  1.
</event>
<event>
 5    1  0.4761089E-001  0.8000000E+02  0.7546771E-02  0.1203772E+00
         11   -1    0    0    0    0  0.00000000000E+00  0.00000000000E+00  0.40000000000E+02  0.40000000000E+02  0.00000000000E+00 0. -1.
        -11   -1    0    0    0    0 -0.00000000000E+00 -0.00000000000E+00 -0.40000000000E+02  0.40000000000E+02  0.00000000000E+00 0.  1.
         23    2    1    2    0    0  0.00000000000E+00  0.00000000000E+00  0.00000000000E+00  0.80000000000E+02  0.80000000000E+02 0.  0.
          5    1    3    3  501    0  0.28513664982E+02 -0.27308602209E+02  0.43727742548E+01  0.40000000000E+02  0.47000000000E+01 0. -1.
         -5    1    3    3    0  501 -0.28513664982E+02  0.27308602209E+02 -0.43727742548E+01  0.40000000000E+02  0.47000000000E+01 0.  1.
</event>
<event>
 5    1  0.4761089E-001  0.8000000E+02  0.7546771E-02  0.1203772E+00
         11   -1    0    0    0    0  0.00000000000E+00  0.00000000000E+00  0.40000000000E+02  0.40000000000E+02  0.00000000000E+00 0.  1.
        -11   -1    0    0    0    0 -0.00000000000E+00 -0.00000000000E+00 -0.40000000000E+02  0.40000000000E+02  0.00000000000E+00 0. -1.
         23    2    1    2    0    0  0.00000000000E+00  0.00000000000E+00  0.00000000000E+00  0.80000000000E+02  0.80000000000E+02 0.  0.
          5    1    3    3  501    0  0.28897179768E+02 -0.26641505128E+02 -0.57526694672E+01  0.40000000000E+02  0.47000000000E+01 0. -1.
         -5    1    3    3    0  501 -0.28897179768E+02  0.26641505128E+02  0.57526694672E+01  0.40000000000E+02  0.47000000000E+01 0.  1.
</event>
<event>
 5    1  0.4761089E-001  0.8000000E+02  0.7546771E-02  0.1203772E+00
         11   -1    0    0    0    0  0.00000000000E+00  0.00000000000E+00  0.40000000000E+02  0.40000000000E+02  0.00000000000E+00 0. -1.
        -11   -1    0    0    0    0 -0.00000000000E+00 -0.00000000000E+00 -0.40000000000E+02  0.40000000000E+02  0.00000000000E+00 0.  1.
         23    2    1    2    0    0  0.00000000000E+00  0.00000000000E+00  0.00000000000E+00  0.80000000000E+02  0.80000000000E+02 0.  0.
          5    1    3    3  501    0  0.38127255894E+02  0.17728394987E+01  0.11003608412E+02  0.40000000000E+02  0.47000000000E+01 0. -1.
         -5    1    3    3    0  501 -0.38127255894E+02 -0.17728394987E+01 -0.11003608412E+02  0.40000000000E+02  0.47000000000E+01 0.  1.
</event>
<event>
 5    1  0.4761089E-001  0.8000000E+02  0.7546771E-02  0.1203772E+00
         11   -1    0    0    0    0  0.00000000000E+00  0.00000000000E+00  0.40000000000E+02  0.40000000000E+02  0.00000000000E+00 0.  1.
        -11   -1    0    0    0    0 -0.00000000000E+00 -0.00000000000E+00 -0.40000000000E+02  0.40000000000E+02  0.00000000000E+00 0. -1.
         23    2    1    2    0    0  0.00000000000E+00  0.00000000000E+00  0.00000000000E+00  0.80000000000E+02  0.80000000000E+02 0.  0.
          5    1    3    3  501    0 -0.30003133130E+02  0.15473169943E+02 -0.20935687577E+02  0.40000000000E+02  0.47000000000E+01 0. -1.
         -5    1    3    3    0  501  0.30003133130E+02 -0.15473169943E+02  0.20935687577E+02  0.40000000000E+02  0.47000000000E+01 0.  1.
</event>
<event>
 5    1  0.4761089E-001  0.8000000E+02  0.7546771E-02  0.1203772E+00
         11   -1    0    0    0    0  0.00000000000E+00  0.00000000000E+00  0.40000000000E+02  0.40000000000E+02  0.00000000000E+00 0. -1.
        -11   -1    0    0    0    0 -0.00000000000E+00 -0.00000000000E+00 -0.40000000000E+02  0.40000000000E+02  0.00000000000E+00 0.  1.
         23    2    1    2    0    0  0.00000000000E+00  0.00000000000E+00  0.00000000000E+00  0.80000000000E+02  0.80000000000E+02 0.  0.
          5    1    3    3  501    0 -0.37493205526E+02  0.67242491589E+01  0.11267387126E+02  0.40000000000E+02  0.47000000000E+01 0. -1.
         -5    1    3    3    0  501  0.37493205526E+02 -0.67242491589E+01 -0.11267387126E+02  0.40000000000E+02  0.47000000000E+01 0.  1.
</event>
<event>
 5    1  0.4761089E-001  0.8000000E+02  0.7546771E-02  0.1203772E+00
         11   -1    0    0    0    0  0.00000000000E+00  0.00000000000E+00  0.40000000000E+02  0.40000000000E+02  0.00000000000E+00 0. -1.
        -11   -1    0    0    0    0 -0.00000000000E+00 -0.00000000000E+00 -0.40000000000E+02  0.40000000000E+02  0.00000000000E+00 0.  1.
         23    2    1    2    0    0  0.00000000000E+00  0.00000000000E+00  0.00000000000E+00  0.80000000000E+02  0.80000000000E+02 0.  0.
          5    1    3    3  501    0 -0.37767495802E+00  0.23871042437E+02  0.31748081747E+02  0.40000000000E+02  0.47000000000E+01 0. -1.
         -5    1    3    3    0  501  0.37767495802E+00 -0.23871042437E+02 -0.31748081747E+02  0.40000000000E+02  0.47000000000E+01 0.  1.
</event>
<event>
 5    1  0.4761089E-001  0.8000000E+02  0.7546771E-02  0.1203772E+00
         11   -1    0    0    0    0  0.00000000000E+00  0.00000000000E+00  0.40000000000E+02  0.40000000000E+02  0.00000000000E+00 0.  1.
        -11   -1    0    0    0    0 -0.00000000000E+00 -0.00000000000E+00 -0.40000000000E+02  0.40000000000E+02  0.00000000000E+00 0. -1.
         23    2    1    2    0    0  0.00000000000E+00  0.00000000000E+00  0.00000000000E+00  0.80000000000E+02  0.80000000000E+02 0.  0.
          5    1    3    3  501    0 -0.14720126375E+02  0.11413810734E+02 -0.35084936996E+02  0.40000000000E+02  0.47000000000E+01 0. -1.
         -5    1    3    3    0  501  0.14720126375E+02 -0.11413810734E+02  0.35084936996E+02  0.40000000000E+02  0.47000000000E+01 0.  1.
</event>
<event>
 5    1  0.4761089E-001  0.8000000E+02  0.7546771E-02  0.1203772E+00
         11   -1    0    0    0    0  0.00000000000E+00  0.00000000000E+00  0.40000000000E+02  0.40000000000E+02  0.00000000000E+00 0. -1.
        -11   -1    0    0    0    0 -0.00000000000E+00 -0.00000000000E+00 -0.40000000000E+02  0.40000000000E+02  0.00000000000E+00 0.  1.
         23    2    1    2    0    0  0.00000000000E+00  0.00000000000E+00  0.00000000000E+00  0.80000000000E+02  0.80000000000E+02 0.  0.
          5    1    3    3  501    0 -0.18256541505E+02 -0.35266342472E+02 -0.94539989728E+00  0.40000000000E+02  0.47000000000E+01 0. -1.
         -5    1    3    3    0  501  0.18256541505E+02  0.35266342472E+02  0.94539989728E+00  0.40000000000E+02  0.47000000000E+01 0.  1.
</event>
<event>
 5    1  0.4761089E-001  0.8000000E+02  0.7546771E-02  0.1203772E+00
         11   -1    0    0    0    0  0.00000000000E+00  0.00000000000E+00  0.40000000000E+02  0.40000000000E+02  0.00000000000E+00 0. -1.
        -11   -1    0    0    0    0 -0.00000000000E+00 -0.00000000000E+00 -0.40000000000E+02  0.40000000000E+02  0.00000000000E+00 0.  1.
         23    2    1    2    0    0  0.00000000000E+00  0.00000000000E+00  0.00000000000E+00  0.80000000000E+02  0.80000000000E+02 0.  0.
          5    1    3    3  501    0  0.16868029490E+02  0.35539183188E+02 -0.55087239408E+01  0.40000000000E+02  0.47000000000E+01 0. -1.
         -5    1    3    3    0  501 -0.16868029490E+02 -0.35539183188E+02  0.55087239408E+01  0.40000000000E+02  0.47000000000E+01 0.  1.
</event>
<event>
 5    1  0.4761089E-001  0.8000000E+02  0.7546771E-02  0.1203772E+00
         11   -1    0    0    0    0  0.00000000000E+00  0.00000000000E+00  0.40000000000E+02  0.40000000000E+02  0.00000000000E+00 0. -1.
        -11   -1    0    0    0    0 -0.00000000000E+00 -0.00000000000E+00 -0.40000000000E+02  0.40000000000E+02  0.00000000000E+00 0.  1.
         23    2    1    2    0    0  0.00000000000E+00  0.00000000000E+00  0.00000000000E+00  0.80000000000E+02  0.80000000000E+02 0.  0.
          5    1    3    3  501    0 -0.33290509523E+02  0.46449344425E+01  0.21167818965E+02  0.40000000000E+02  0.47000000000E+01 0. -1.
         -5    1    3    3    0  501  0.33290509523E+02 -0.46449344425E+01 -0.21167818965E+02  0.40000000000E+02  0.47000000000E+01 0.  1.
</event>
<event>
 5    1  0.4761089E-001  0.8000000E+02  0.7546771E-02  0.1203772E+00
         11   -1    0    0    0    0  0.00000000000E+00  0.00000000000E+00  0.40000000000E+02  0.40000000000E+02  0.00000000000E+00 0. -1.
        -11   -1    0    0    0    0 -0.00000000000E+00 -0.00000000000E+00 -0.40000000000E+02  0.40000000000E+02  0.00000000000E+00 0.  1.
         23    2    1    2    0    0  0.00000000000E+00  0.00000000000E+00  0.00000000000E+00  0.80000000000E+02  0.80000000000E+02 0.  0.
          5    1    3    3  501    0  0.26205107585E+02  0.22882186068E+02 -0.19173103484E+02  0.40000000000E+02  0.47000000000E+01 0. -1.
         -5    1    3    3    0  501 -0.26205107585E+02 -0.22882186068E+02  0.19173103484E+02  0.40000000000E+02  0.47000000000E+01 0.  1.
</event>
<event>
 5    1  0.4761089E-001  0.8000000E+02  0.7546771E-02  0.1203772E+00
         11   -1    0    0    0    0  0.00000000000E+00  0.00000000000E+00  0.40000000000E+02  0.40000000000E+02  0.00000000000E+00 0.  1.
        -11   -1    0    0    0    0 -0.00000000000E+00 -0.00000000000E+00 -0.40000000000E+02  0.40000000000E+02  0.00000000000E+00 0. -1.
         23    2    1    2    0    0  0.00000000000E+00  0.00000000000E+00  0.00000000000E+00  0.80000000000E+02  0.80000000000E+02 0.  0.
          5    1    3    3  501    0 -0.88596391991E+01 -0.14050069797E+02 -0.36083407987E+02  0.40000000000E+02  0.47000000000E+01 0. -1.
         -5    1    3    3    0  501  0.88596391991E+01  0.14050069797E+02  0.36083407987E+02  0.40000000000E+02  0.47000000000E+01 0.  1.
</event>
<event>
 5    1  0.4761089E-001  0.8000000E+02  0.7546771E-02  0.1203772E+00
         11   -1    0    0    0    0  0.00000000000E+00  0.00000000000E+00  0.40000000000E+02  0.40000000000E+02  0.00000000000E+00 0. -1.
        -11   -1    0    0    0    0 -0.00000000000E+00 -0.00000000000E+00 -0.40000000000E+02  0.40000000000E+02  0.00000000000E+00 0.  1.
         23    2    1    2    0    0  0.00000000000E+00  0.00000000000E+00  0.00000000000E+00  0.80000000000E+02  0.80000000000E+02 0.  0.
          5    1    3    3  501    0  0.27142907386E+02 -0.28755562843E+02  0.37802360000E+01  0.40000000000E+02  0.47000000000E+01 0. -1.
         -5    1    3    3    0  501 -0.27142907386E+02  0.28755562843E+02 -0.37802360000E+01  0.40000000000E+02  0.47000000000E+01 0.  1.
</event>
<event>
 5    1  0.4761089E-001  0.8000000E+02  0.7546771E-02  0.1203772E+00
         11   -1    0    0    0    0  0.00000000000E+00  0.00000000000E+00  0.40000000000E+02  0.40000000000E+02  0.00000000000E+00 0. -1.
        -11   -1    0    0    0    0 -0.00000000000E+00 -0.00000000000E+00 -0.40000000000E+02  0.40000000000E+02  0.00000000000E+00 0.  1.
         23    2    1    2    0    0  0.00000000000E+00  0.00000000000E+00  0.00000000000E+00  0.80000000000E+02  0.80000000000E+02 0.  0.
          5    1    3    3  501    0 -0.38024314171E+02  0.57625453701E+01  0.99425651959E+01  0.40000000000E+02  0.47000000000E+01 0. -1.
         -5    1    3    3    0  501  0.38024314171E+02 -0.57625453701E+01 -0.99425651959E+01  0.40000000000E+02  0.47000000000E+01 0.  1.
</event>
<event>
 5    1  0.4761089E-001  0.8000000E+02  0.7546771E-02  0.1203772E+00
         11   -1    0    0    0    0  0.00000000000E+00  0.00000000000E+00  0.40000000000E+02  0.40000000000E+02  0.00000000000E+00 0. -1.
        -11   -1    0    0    0    0 -0.00000000000E+00 -0.00000000000E+00 -0.40000000000E+02  0.40000000000E+02  0.00000000000E+00 0.  1.
         23    2    1    2    0    0  0.00000000000E+00  0.00000000000E+00  0.00000000000E+00  0.80000000000E+02  0.80000000000E+02 0.  0.
          5    1    3    3  501    0 -0.45812207860E+01 -0.36870138270E+02  0.14054014374E+02  0.40000000000E+02  0.47000000000E+01 0. -1.
         -5    1    3    3    0  501  0.45812207860E+01  0.36870138270E+02 -0.14054014374E+02  0.40000000000E+02  0.47000000000E+01 0.  1.
</event>
<event>
 5    1  0.4761089E-001  0.8000000E+02  0.7546771E-02  0.1203772E+00
         11   -1    0    0    0    0  0.00000000000E+00  0.00000000000E+00  0.40000000000E+02  0.40000000000E+02  0.00000000000E+00 0. -1.
        -11   -1    0    0    0    0 -0.00000000000E+00 -0.00000000000E+00 -0.40000000000E+02  0.40000000000E+02  0.00000000000E+00 0.  1.
         23    2    1    2    0    0  0.00000000000E+00  0.00000000000E+00  0.00000000000E+00  0.80000000000E+02  0.80000000000E+02 0.  0.
          5    1    3    3  501    0  0.14093894268E+02  0.25582721868E+02  0.26922044614E+02  0.40000000000E+02  0.47000000000E+01 0. -1.
         -5    1    3    3    0  501 -0.14093894268E+02 -0.25582721868E+02 -0.26922044614E+02  0.40000000000E+02  0.47000000000E+01 0.  1.
</event>
<event>
 5    1  0.4761089E-001  0.8000000E+02  0.7546771E-02  0.1203772E+00
         11   -1    0    0    0    0  0.00000000000E+00  0.00000000000E+00  0.40000000000E+02  0.40000000000E+02  0.00000000000E+00 0. -1.
        -11   -1    0    0    0    0 -0.00000000000E+00 -0.00000000000E+00 -0.40000000000E+02  0.40000000000E+02  0.00000000000E+00 0.  1.
         23    2    1    2    0    0  0.00000000000E+00  0.00000000000E+00  0.00000000000E+00  0.80000000000E+02  0.80000000000E+02 0.  0.
          5    1    3    3  501    0 -0.13924648711E+02 -0.27733996453E+02  0.24795959328E+02  0.40000000000E+02  0.47000000000E+01 0. -1.
         -5    1    3    3    0  501  0.13924648711E+02  0.27733996453E+02 -0.24795959328E+02  0.40000000000E+02  0.47000000000E+01 0.  1.
</event>
<event>
 5    1  0.4761089E-001  0.8000000E+02  0.7546771E-02  0.1203772E+00
         11   -1    0    0    0    0  0.00000000000E+00  0.00000000000E+00  0.40000000000E+02  0.40000000000E+02  0.00000000000E+00 0. -1.
        -11   -1    0    0    0    0 -0.00000000000E+00 -0.00000000000E+00 -0.40000000000E+02  0.40000000000E+02  0.00000000000E+00 0.  1.
         23    2    1    2    0    0  0.00000000000E+00  0.00000000000E+00  0.00000000000E+00  0.80000000000E+02  0.80000000000E+02 0.  0.
          5    1    3    3  501    0 -0.15208086233E+01  0.39691866386E+02  0.39100372659E+00  0.40000000000E+02  0.47000000000E+01 0. -1.
         -5    1    3    3    0  501  0.15208086233E+01 -0.39691866386E+02 -0.39100372659E+00  0.40000000000E+02  0.47000000000E+01 0.  1.
</event>
<event>
 5    1  0.4761089E-001  0.8000000E+02  0.7546771E-02  0.1203772E+00
         11   -1    0    0    0    0  0.00000000000E+00  0.00000000000E+00  0.40000000000E+02  0.40000000000E+02  0.00000000000E+00 0.  1.
        -11   -1    0    0    0    0 -0.00000000000E+00 -0.00000000000E+00 -0.40000000000E+02  0.40000000000E+02  0.00000000000E+00 0. -1.
         23    2    1    2    0    0  0.00000000000E+00  0.00000000000E+00  0.00000000000E+00  0.80000000000E+02  0.80000000000E+02 0.  0.
          5    1    3    3  501    0  0.36693145194E+02  0.15199158822E+02 -0.71320886247E+00  0.40000000000E+02  0.47000000000E+01 0. -1.
         -5    1    3    3    0  501 -0.36693145194E+02 -0.15199158822E+02  0.71320886247E+00  0.40000000000E+02  0.47000000000E+01 0.  1.
</event>
<event>
 5    1  0.4761089E-001  0.8000000E+02  0.7546771E-02  0.1203772E+00
         11   -1    0    0    0    0  0.00000000000E+00  0.00000000000E+00  0.40000000000E+02  0.40000000000E+02  0.00000000000E+00 0.  1.
        -11   -1    0    0    0    0 -0.00000000000E+00 -0.00000000000E+00 -0.40000000000E+02  0.40000000000E+02  0.00000000000E+00 0. -1.
         23    2    1    2    0    0  0.00000000000E+00  0.00000000000E+00  0.00000000000E+00  0.80000000000E+02  0.80000000000E+02 0.  0.
          5    1    3    3  501    0 -0.13837944075E+02 -0.71377033515E+01 -0.36544144464E+02  0.40000000000E+02  0.47000000000E+01 0. -1.
         -5    1    3    3    0  501  0.13837944075E+02  0.71377033515E+01  0.36544144464E+02  0.40000000000E+02  0.47000000000E+01 0.  1.
</event>
<event>
 5    1  0.4761089E-001  0.8000000E+02  0.7546771E-02  0.1203772E+00
         11   -1    0    0    0    0  0.00000000000E+00  0.00000000000E+00  0.40000000000E+02  0.40000000000E+02  0.00000000000E+00 0. -1.
        -11   -1    0    0    0    0 -0.00000000000E+00 -0.00000000000E+00 -0.40000000000E+02  0.40000000000E+02  0.00000000000E+00 0.  1.
         23    2    1    2    0    0  0.00000000000E+00  0.00000000000E+00  0.00000000000E+00  0.80000000000E+02  0.80000000000E+02 0.  0.
          5    1    3    3  501    0  0.27987671302E+02 -0.17871981061E+02  0.21798911625E+02  0.40000000000E+02  0.47000000000E+01 0. -1.
         -5    1    3    3    0  501 -0.27987671302E+02  0.17871981061E+02 -0.21798911625E+02  0.40000000000E+02  0.47000000000E+01 0.  1.
</event>
<event>
 5    1  0.4761089E-001  0.8000000E+02  0.7546771E-02  0.1203772E+00
         11   -1    0    0    0    0  0.00000000000E+00  0.00000000000E+00  0.40000000000E+02  0.40000000000E+02  0.00000000000E+00 0.  1.
        -11   -1    0    0    0    0 -0.00000000000E+00 -0.00000000000E+00 -0.40000000000E+02  0.40000000000E+02  0.00000000000E+00 0. -1.
         23    2    1    2    0    0  0.00000000000E+00  0.00000000000E+00  0.00000000000E+00  0.80000000000E+02  0.80000000000E+02 0.  0.
          5    1    3    3  501    0 -0.60838028397E+01  0.26035369977E+02 -0.29377829279E+02  0.40000000000E+02  0.47000000000E+01 0. -1.
         -5    1    3    3    0  501  0.60838028397E+01 -0.26035369977E+02  0.29377829279E+02  0.40000000000E+02  0.47000000000E+01 0.  1.
</event>
<event>
 5    1  0.4761089E-001  0.8000000E+02  0.7546771E-02  0.1203772E+00
         11   -1    0    0    0    0  0.00000000000E+00  0.00000000000E+00  0.40000000000E+02  0.40000000000E+02  0.00000000000E+00 0.  1.
        -11   -1    0    0    0    0 -0.00000000000E+00 -0.00000000000E+00 -0.40000000000E+02  0.40000000000E+02  0.00000000000E+00 0. -1.
         23    2    1    2    0    0  0.00000000000E+00  0.00000000000E+00  0.00000000000E+00  0.80000000000E+02  0.80000000000E+02 0.  0.
          5    1    3    3  501    0  0.39681993477E+02  0.20959812771E-01  0.18024856063E+01  0.40000000000E+02  0.47000000000E+01 0. -1.
         -5    1    3    3    0  501 -0.39681993477E+02 -0.20959812771E-01 -0.18024856063E+01  0.40000000000E+02  0.47000000000E+01 0.  1.
</event>
<event>
 5    1  0.4761089E-001  0.8000000E+02  0.7546771E-02  0.1203772E+00
         11   -1    0    0    0    0  0.00000000000E+00  0.00000000000E+00  0.40000000000E+02  0.40000000000E+02  0.00000000000E+00 0.  1.
        -11   -1    0    0    0    0 -0.00000000000E+00 -0.00000000000E+00 -0.40000000000E+02  0.40000000000E+02  0.00000000000E+00 0. -1.
         23    2    1    2    0    0  0.00000000000E+00  0.00000000000E+00  0.00000000000E+00  0.80000000000E+02  0.80000000000E+02 0.  0.
          5    1    3    3  501    0 -0.16503156090E+02 -0.34091473624E+02 -0.11971936567E+02  0.40000000000E+02  0.47000000000E+01 0. -1.
         -5    1    3    3    0  501  0.16503156090E+02  0.34091473624E+02  0.11971936567E+02  0.40000000000E+02  0.47000000000E+01 0.  1.
</event>
<event>
 5    1  0.4761089E-001  0.8000000E+02  0.7546771E-02  0.1203772E+00
         11   -1    0    0    0    0  0.00000000000E+00  0.00000000000E+00  0.40000000000E+02  0.40000000000E+02  0.00000000000E+00 0.  1.
        -11   -1    0    0    0    0 -0.00000000000E+00 -0.00000000000E+00 -0.40000000000E+02  0.40000000000E+02  0.00000000000E+00 0. -1.
         23    2    1    2    0    0  0.00000000000E+00  0.00000000000E+00  0.00000000000E+00  0.80000000000E+02  0.80000000000E+02 0.  0.
          5    1    3    3  501    0  0.11991333784E+02 -0.14890984110E+02 -0.34819197382E+02  0.40000000000E+02  0.47000000000E+01 0. -1.
         -5    1    3    3    0  501 -0.11991333784E+02  0.14890984110E+02  0.34819197382E+02  0.40000000000E+02  0.47000000000E+01 0.  1.
</event>
<event>
 5    1  0.4761089E-001  0.8000000E+02  0.7546771E-02  0.1203772E+00
         11   -1    0    0    0    0  0.00000000000E+00  0.00000000000E+00  0.40000000000E+02  0.40000000000E+02  0.00000000000E+00 0. -1.
        -11   -1    0    0    0    0 -0.00000000000E+00 -0.00000000000E+00 -0.40000000000E+02  0.40000000000E+02  0.00000000000E+00 0.  1.
         23    2    1    2    0    0  0.00000000000E+00  0.00000000000E+00  0.00000000000E+00  0.80000000000E+02  0.80000000000E+02 0.  0.
          5    1    3    3  501    0  0.36785492611E+02 -0.13630684013E+02 -0.62403514921E+01  0.40000000000E+02  0.47000000000E+01 0. -1.
         -5    1    3    3    0  501 -0.36785492611E+02  0.13630684013E+02  0.62403514921E+01  0.40000000000E+02  0.47000000000E+01 0.  1.
</event>
<event>
 5    1  0.4761089E-001  0.8000000E+02  0.7546771E-02  0.1203772E+00
         11   -1    0    0    0    0  0.00000000000E+00  0.00000000000E+00  0.40000000000E+02  0.40000000000E+02  0.00000000000E+00 0.  1.
        -11   -1    0    0    0    0 -0.00000000000E+00 -0.00000000000E+00 -0.40000000000E+02  0.40000000000E+02  0.00000000000E+00 0. -1.
         23    2    1    2    0    0  0.00000000000E+00  0.00000000000E+00  0.00000000000E+00  0.80000000000E+02  0.80000000000E+02 0.  0.
          5    1    3    3  501    0  0.22665559783E+01 -0.36588749361E+02  0.15298239904E+02  0.40000000000E+02  0.47000000000E+01 0. -1.
         -5    1    3    3    0  501 -0.22665559783E+01  0.36588749361E+02 -0.15298239904E+02  0.40000000000E+02  0.47000000000E+01 0.  1.
</event>
<event>
 5    1  0.4761089E-001  0.8000000E+02  0.7546771E-02  0.1203772E+00
         11   -1    0    0    0    0  0.00000000000E+00  0.00000000000E+00  0.40000000000E+02  0.40000000000E+02  0.00000000000E+00 0.  1.
        -11   -1    0    0    0    0 -0.00000000000E+00 -0.00000000000E+00 -0.40000000000E+02  0.40000000000E+02  0.00000000000E+00 0. -1.
         23    2    1    2    0    0  0.00000000000E+00  0.00000000000E+00  0.00000000000E+00  0.80000000000E+02  0.80000000000E+02 0.  0.
          5    1    3    3  501    0  0.12887118336E+02  0.32743238261E+02 -0.18431292118E+02  0.40000000000E+02  0.47000000000E+01 0. -1.
         -5    1    3    3    0  501 -0.12887118336E+02 -0.32743238261E+02  0.18431292118E+02  0.40000000000E+02  0.47000000000E+01 0.  1.
</event>
<event>
 5    1  0.4761089E-001  0.8000000E+02  0.7546771E-02  0.1203772E+00
         11   -1    0    0    0    0  0.00000000000E+00  0.00000000000E+00  0.40000000000E+02  0.40000000000E+02  0.00000000000E+00 0. -1.
        -11   -1    0    0    0    0 -0.00000000000E+00 -0.00000000000E+00 -0.40000000000E+02  0.40000000000E+02  0.00000000000E+00 0.  1.
         23    2    1    2    0    0  0.00000000000E+00  0.00000000000E+00  0.00000000000E+00  0.80000000000E+02  0.80000000000E+02 0.  0.
          5    1    3    3  501    0  0.32301253401E+01  0.17986610625E+02  0.35269790594E+02  0.40000000000E+02  0.47000000000E+01 0. -1.
         -5    1    3    3    0  501 -0.32301253401E+01 -0.17986610625E+02 -0.35269790594E+02  0.40000000000E+02  0.47000000000E+01 0.  1.
</event>
<event>
 5    1  0.4761089E-001  0.8000000E+02  0.7546771E-02  0.1203772E+00
         11   -1    0    0    0    0  0.00000000000E+00  0.00000000000E+00  0.40000000000E+02  0.40000000000E+02  0.00000000000E+00 0. -1.
        -11   -1    0    0    0    0 -0.00000000000E+00 -0.00000000000E+00 -0.40000000000E+02  0.40000000000E+02  0.00000000000E+00 0.  1.
         23    2    1    2    0    0  0.00000000000E+00  0.00000000000E+00  0.00000000000E+00  0.80000000000E+02  0.80000000000E+02 0.  0.
          5    1    3    3  501    0  0.99350552808E+01 -0.20057064836E+02  0.32816441409E+02  0.40000000000E+02  0.47000000000E+01 0. -1.
         -5    1    3    3    0  501 -0.99350552808E+01  0.20057064836E+02 -0.32816441409E+02  0.40000000000E+02  0.47000000000E+01 0.  1.
</event>
<event>
 5    1  0.4761089E-001  0.8000000E+02  0.7546771E-02  0.1203772E+00
         11   -1    0    0    0    0  0.00000000000E+00  0.00000000000E+00  0.40000000000E+02  0.40000000000E+02  0.00000000000E+00 0. -1.
        -11   -1    0    0    0    0 -0.00000000000E+00 -0.00000000000E+00 -0.40000000000E+02  0.40000000000E+02  0.00000000000E+00 0.  1.
         23    2    1    2    0    0  0.00000000000E+00  0.00000000000E+00  0.00000000000E+00  0.80000000000E+02  0.80000000000E+02 0.  0.
          5    1    3    3  501    0 -0.18278701776E+02  0.28535792952E+02  0.20724564699E+02  0.40000000000E+02  0.47000000000E+01 0. -1.
         -5    1    3    3    0  501  0.18278701776E+02 -0.28535792952E+02 -0.20724564699E+02  0.40000000000E+02  0.47000000000E+01 0.  1.
</event>
<event>
 5    1  0.4761089E-001  0.8000000E+02  0.7546771E-02  0.1203772E+00
         11   -1    0    0    0    0  0.00000000000E+00  0.00000000000E+00  0.40000000000E+02  0.40000000000E+02  0.00000000000E+00 0. -1.
        -11   -1    0    0    0    0 -0.00000000000E+00 -0.00000000000E+00 -0.40000000000E+02  0.40000000000E+02  0.00000000000E+00 0.  1.
         23    2    1    2    0    0  0.00000000000E+00  0.00000000000E+00  0.00000000000E+00  0.80000000000E+02  0.80000000000E+02 0.  0.
          5    1    3    3  501    0 -0.22584685248E+01  0.36303615841E+02 -0.15964234926E+02  0.40000000000E+02  0.47000000000E+01 0. -1.
         -5    1    3    3    0  501  0.22584685248E+01 -0.36303615841E+02  0.15964234926E+02  0.40000000000E+02  0.47000000000E+01 0.  1.
</event>
<event>
 5    1  0.4761089E-001  0.8000000E+02  0.7546771E-02  0.1203772E+00
         11   -1    0    0    0    0  0.00000000000E+00  0.00000000000E+00  0.40000000000E+02  0.40000000000E+02  0.00000000000E+00 0.  1.
        -11   -1    0    0    0    0 -0.00000000000E+00 -0.00000000000E+00 -0.40000000000E+02  0.40000000000E+02  0.00000000000E+00 0. -1.
         23    2    1    2    0    0  0.00000000000E+00  0.00000000000E+00  0.00000000000E+00  0.80000000000E+02  0.80000000000E+02 0.  0.
          5    1    3    3  501    0 -0.19625986918E+02  0.17327452931E+02 -0.29874571334E+02  0.40000000000E+02  0.47000000000E+01 0. -1.
         -5    1    3    3    0  501  0.19625986918E+02 -0.17327452931E+02  0.29874571334E+02  0.40000000000E+02  0.47000000000E+01 0.  1.
</event>
<event>
 5    1  0.4761089E-001  0.8000000E+02  0.7546771E-02  0.1203772E+00
         11   -1    0    0    0    0  0.00000000000E+00  0.00000000000E+00  0.40000000000E+02  0.40000000000E+02  0.00000000000E+00 0. -1.
        -11   -1    0    0    0    0 -0.00000000000E+00 -0.00000000000E+00 -0.40000000000E+02  0.40000000000E+02  0.00000000000E+00 0.  1.
         23    2    1    2    0    0  0.00000000000E+00  0.00000000000E+00  0.00000000000E+00  0.80000000000E+02  0.80000000000E+02 0.  0.
          5    1    3    3  501    0  0.10978407291E+02  0.12495900763E+02  0.36072663299E+02  0.40000000000E+02  0.47000000000E+01 0. -1.
         -5    1    3    3    0  501 -0.10978407291E+02 -0.12495900763E+02 -0.36072663299E+02  0.40000000000E+02  0.47000000000E+01 0.  1.
</event>
<event>
 5    1  0.4761089E-001  0.8000000E+02  0.7546771E-02  0.1203772E+00
         11   -1    0    0    0    0  0.00000000000E+00  0.00000000000E+00  0.40000000000E+02  0.40000000000E+02  0.00000000000E+00 0. -1.
        -11   -1    0    0    0    0 -0.00000000000E+00 -0.00000000000E+00 -0.40000000000E+02  0.40000000000E+02  0.00000000000E+00 0.  1.
         23    2    1    2    0    0  0.00000000000E+00  0.00000000000E+00  0.00000000000E+00  0.80000000000E+02  0.80000000000E+02 0.  0.
          5    1    3    3  501    0 -0.88863348783E+01  0.18381695283E+02  0.34074276676E+02  0.40000000000E+02  0.47000000000E+01 0. -1.
         -5    1    3    3    0  501  0.88863348783E+01 -0.18381695283E+02 -0.34074276676E+02  0.40000000000E+02  0.47000000000E+01 0.  1.
</event>
<event>
 5    1  0.4761089E-001  0.8000000E+02  0.7546771E-02  0.1203772E+00
         11   -1    0    0    0    0  0.00000000000E+00  0.00000000000E+00  0.40000000000E+02  0.40000000000E+02  0.00000000000E+00 0. -1.
        -11   -1    0    0    0    0 -0.00000000000E+00 -0.00000000000E+00 -0.40000000000E+02  0.40000000000E+02  0.00000000000E+00 0.  1.
         23    2    1    2    0    0  0.00000000000E+00  0.00000000000E+00  0.00000000000E+00  0.80000000000E+02  0.80000000000E+02 0.  0.
          5    1    3    3  501    0  0.36370576526E+02  0.15815193926E+02  0.22295300563E+01  0.40000000000E+02  0.47000000000E+01 0. -1.
         -5    1    3    3    0  501 -0.36370576526E+02 -0.15815193926E+02 -0.22295300563E+01  0.40000000000E+02  0.47000000000E+01 0.  1.
</event>
<event>
 5    1  0.4761089E-001  0.8000000E+02  0.7546771E-02  0.1203772E+00
         11   -1    0    0    0    0  0.00000000000E+00  0.00000000000E+00  0.40000000000E+02  0.40000000000E+02  0.00000000000E+00 0.  1.
        -11   -1    0    0    0    0 -0.00000000000E+00 -0.00000000000E+00 -0.40000000000E+02  0.40000000000E+02  0.00000000000E+00 0. -1.
         23    2    1    2    0    0  0.00000000000E+00  0.00000000000E+00  0.00000000000E+00  0.80000000000E+02  0.80000000000E+02 0.  0.
          5    1    3    3  501    0  0.19036659868E+02  0.34387375323E+02  0.57466511523E+01  0.40000000000E+02  0.47000000000E+01 0. -1.
         -5    1    3    3    0  501 -0.19036659868E+02 -0.34387375323E+02 -0.57466511523E+01  0.40000000000E+02  0.47000000000E+01 0.  1.
</event>
<event>
 5    1  0.4761089E-001  0.8000000E+02  0.7546771E-02  0.1203772E+00
         11   -1    0    0    0    0  0.00000000000E+00  0.00000000000E+00  0.40000000000E+02  0.40000000000E+02  0.00000000000E+00 0.  1.
        -11   -1    0    0    0    0 -0.00000000000E+00 -0.00000000000E+00 -0.40000000000E+02  0.40000000000E+02  0.00000000000E+00 0. -1.
         23    2    1    2    0    0  0.00000000000E+00  0.00000000000E+00  0.00000000000E+00  0.80000000000E+02  0.80000000000E+02 0.  0.
          5    1    3    3  501    0 -0.29512289784E+02 -0.19684602422E+02 -0.17873197230E+02  0.40000000000E+02  0.47000000000E+01 0. -1.
         -5    1    3    3    0  501  0.29512289784E+02  0.19684602422E+02  0.17873197230E+02  0.40000000000E+02  0.47000000000E+01 0.  1.
</event>
<event>
 5    1  0.4761089E-001  0.8000000E+02  0.7546771E-02  0.1203772E+00
         11   -1    0    0    0    0  0.00000000000E+00  0.00000000000E+00  0.40000000000E+02  0.40000000000E+02  0.00000000000E+00 0. -1.
        -11   -1    0    0    0    0 -0.00000000000E+00 -0.00000000000E+00 -0.40000000000E+02  0.40000000000E+02  0.00000000000E+00 0.  1.
         23    2    1    2    0    0  0.00000000000E+00  0.00000000000E+00  0.00000000000E+00  0.80000000000E+02  0.80000000000E+02 0.  0.
          5    1    3    3  501    0  0.32538569050E+02  0.16090530656E+02 -0.16132152596E+02  0.40000000000E+02  0.47000000000E+01 0.  1.
         -5    1    3    3    0  501 -0.32538569050E+02 -0.16090530656E+02  0.16132152596E+02  0.40000000000E+02  0.47000000000E+01 0. -1.
</event>
<event>
 5    1  0.4761089E-001  0.8000000E+02  0.7546771E-02  0.1203772E+00
         11   -1    0    0    0    0  0.00000000000E+00  0.00000000000E+00  0.40000000000E+02  0.40000000000E+02  0.00000000000E+00 0.  1.
        -11   -1    0    0    0    0 -0.00000000000E+00 -0.00000000000E+00 -0.40000000000E+02  0.40000000000E+02  0.00000000000E+00 0. -1.
         23    2    1    2    0    0  0.00000000000E+00  0.00000000000E+00  0.00000000000E+00  0.80000000000E+02  0.80000000000E+02 0.  0.
          5    1    3    3  501    0  0.37428620711E+02 -0.10507557846E+02 -0.81608565600E+01  0.40000000000E+02  0.47000000000E+01 0. -1.
         -5    1    3    3    0  501 -0.37428620711E+02  0.10507557846E+02  0.81608565600E+01  0.40000000000E+02  0.47000000000E+01 0.  1.
</event>
<event>
 5    1  0.4761089E-001  0.8000000E+02  0.7546771E-02  0.1203772E+00
         11   -1    0    0    0    0  0.00000000000E+00  0.00000000000E+00  0.40000000000E+02  0.40000000000E+02  0.00000000000E+00 0. -1.
        -11   -1    0    0    0    0 -0.00000000000E+00 -0.00000000000E+00 -0.40000000000E+02  0.40000000000E+02  0.00000000000E+00 0.  1.
         23    2    1    2    0    0  0.00000000000E+00  0.00000000000E+00  0.00000000000E+00  0.80000000000E+02  0.80000000000E+02 0.  0.
          5    1    3    3  501    0 -0.37750098710E+01  0.15710699121E+02  0.36288196891E+02  0.40000000000E+02  0.47000000000E+01 0. -1.
         -5    1    3    3    0  501  0.37750098710E+01 -0.15710699121E+02 -0.36288196891E+02  0.40000000000E+02  0.47000000000E+01 0.  1.
</event>
<event>
 5    1  0.4761089E-001  0.8000000E+02  0.7546771E-02  0.1203772E+00
         11   -1    0    0    0    0  0.00000000000E+00  0.00000000000E+00  0.40000000000E+02  0.40000000000E+02  0.00000000000E+00 0.  1.
        -11   -1    0    0    0    0 -0.00000000000E+00 -0.00000000000E+00 -0.40000000000E+02  0.40000000000E+02  0.00000000000E+00 0. -1.
         23    2    1    2    0    0  0.00000000000E+00  0.00000000000E+00  0.00000000000E+00  0.80000000000E+02  0.80000000000E+02 0.  0.
          5    1    3    3  501    0  0.37776482644E+02 -0.95451406574E+01 -0.77290134463E+01  0.40000000000E+02  0.47000000000E+01 0. -1.
         -5    1    3    3    0  501 -0.37776482644E+02  0.95451406574E+01  0.77290134463E+01  0.40000000000E+02  0.47000000000E+01 0.  1.
</event>
<event>
 5    1  0.4761089E-001  0.8000000E+02  0.7546771E-02  0.1203772E+00
         11   -1    0    0    0    0  0.00000000000E+00  0.00000000000E+00  0.40000000000E+02  0.40000000000E+02  0.00000000000E+00 0. -1.
        -11   -1    0    0    0    0 -0.00000000000E+00 -0.00000000000E+00 -0.40000000000E+02  0.40000000000E+02  0.00000000000E+00 0.  1.
         23    2    1    2    0    0  0.00000000000E+00  0.00000000000E+00  0.00000000000E+00  0.80000000000E+02  0.80000000000E+02 0.  0.
          5    1    3    3  501    0  0.41890150317E+01 -0.39474620291E+02 -0.14548216071E+01  0.40000000000E+02  0.47000000000E+01 0. -1.
         -5    1    3    3    0  501 -0.41890150317E+01  0.39474620291E+02  0.14548216071E+01  0.40000000000E+02  0.47000000000E+01 0.  1.
</event>
<event>
 5    1  0.4761089E-001  0.8000000E+02  0.7546771E-02  0.1203772E+00
         11   -1    0    0    0    0  0.00000000000E+00  0.00000000000E+00  0.40000000000E+02  0.40000000000E+02  0.00000000000E+00 0.  1.
        -11   -1    0    0    0    0 -0.00000000000E+00 -0.00000000000E+00 -0.40000000000E+02  0.40000000000E+02  0.00000000000E+00 0. -1.
         23    2    1    2    0    0  0.00000000000E+00  0.00000000000E+00  0.00000000000E+00  0.80000000000E+02  0.80000000000E+02 0.  0.
          5    1    3    3  501    0 -0.10201437996E+02  0.38388883819E+02 -0.36641771460E+00  0.40000000000E+02  0.47000000000E+01 0. -1.
         -5    1    3    3    0  501  0.10201437996E+02 -0.38388883819E+02  0.36641771460E+00  0.40000000000E+02  0.47000000000E+01 0.  1.
</event>
<event>
 5    1  0.4761089E-001  0.8000000E+02  0.7546771E-02  0.1203772E+00
         11   -1    0    0    0    0  0.00000000000E+00  0.00000000000E+00  0.40000000000E+02  0.40000000000E+02  0.00000000000E+00 0.  1.
        -11   -1    0    0    0    0 -0.00000000000E+00 -0.00000000000E+00 -0.40000000000E+02  0.40000000000E+02  0.00000000000E+00 0. -1.
         23    2    1    2    0    0  0.00000000000E+00  0.00000000000E+00  0.00000000000E+00  0.80000000000E+02  0.80000000000E+02 0.  0.
          5    1    3    3  501    0  0.25376007215E+02  0.15463003807E+02 -0.26360268798E+02  0.40000000000E+02  0.47000000000E+01 0. -1.
         -5    1    3    3    0  501 -0.25376007215E+02 -0.15463003807E+02  0.26360268798E+02  0.40000000000E+02  0.47000000000E+01 0.  1.
</event>
<event>
 5    1  0.4761089E-001  0.8000000E+02  0.7546771E-02  0.1203772E+00
         11   -1    0    0    0    0  0.00000000000E+00  0.00000000000E+00  0.40000000000E+02  0.40000000000E+02  0.00000000000E+00 0. -1.
        -11   -1    0    0    0    0 -0.00000000000E+00 -0.00000000000E+00 -0.40000000000E+02  0.40000000000E+02  0.00000000000E+00 0.  1.
         23    2    1    2    0    0  0.00000000000E+00  0.00000000000E+00  0.00000000000E+00  0.80000000000E+02  0.80000000000E+02 0.  0.
          5    1    3    3  501    0  0.16599282364E+02 -0.22191625123E+02  0.28458840444E+02  0.40000000000E+02  0.47000000000E+01 0. -1.
         -5    1    3    3    0  501 -0.16599282364E+02  0.22191625123E+02 -0.28458840444E+02  0.40000000000E+02  0.47000000000E+01 0.  1.
</event>
<event>
 5    1  0.4761089E-001  0.8000000E+02  0.7546771E-02  0.1203772E+00
         11   -1    0    0    0    0  0.00000000000E+00  0.00000000000E+00  0.40000000000E+02  0.40000000000E+02  0.00000000000E+00 0.  1.
        -11   -1    0    0    0    0 -0.00000000000E+00 -0.00000000000E+00 -0.40000000000E+02  0.40000000000E+02  0.00000000000E+00 0. -1.
         23    2    1    2    0    0  0.00000000000E+00  0.00000000000E+00  0.00000000000E+00  0.80000000000E+02  0.80000000000E+02 0.  0.
          5    1    3    3  501    0 -0.10561961810E+02  0.11823229921E+02 -0.36422056463E+02  0.40000000000E+02  0.47000000000E+01 0. -1.
         -5    1    3    3    0  501  0.10561961810E+02 -0.11823229921E+02  0.36422056463E+02  0.40000000000E+02  0.47000000000E+01 0.  1.
</event>
<event>
 5    1  0.4761089E-001  0.8000000E+02  0.7546771E-02  0.1203772E+00
         11   -1    0    0    0    0  0.00000000000E+00  0.00000000000E+00  0.40000000000E+02  0.40000000000E+02  0.00000000000E+00 0.  1.
        -11   -1    0    0    0    0 -0.00000000000E+00 -0.00000000000E+00 -0.40000000000E+02  0.40000000000E+02  0.00000000000E+00 0. -1.
         23    2    1    2    0    0  0.00000000000E+00  0.00000000000E+00  0.00000000000E+00  0.80000000000E+02  0.80000000000E+02 0.  0.
          5    1    3    3  501    0 -0.31965963992E+02  0.17529813984E+02  0.15773166066E+02  0.40000000000E+02  0.47000000000E+01 0. -1.
         -5    1    3    3    0  501  0.31965963992E+02 -0.17529813984E+02 -0.15773166066E+02  0.40000000000E+02  0.47000000000E+01 0.  1.
</event>
<event>
 5    1  0.4761089E-001  0.8000000E+02  0.7546771E-02  0.1203772E+00
         11   -1    0    0    0    0  0.00000000000E+00  0.00000000000E+00  0.40000000000E+02  0.40000000000E+02  0.00000000000E+00 0.  1.
        -11   -1    0    0    0    0 -0.00000000000E+00 -0.00000000000E+00 -0.40000000000E+02  0.40000000000E+02  0.00000000000E+00 0. -1.
         23    2    1    2    0    0  0.00000000000E+00  0.00000000000E+00  0.00000000000E+00  0.80000000000E+02  0.80000000000E+02 0.  0.
          5    1    3    3  501    0 -0.27138163761E+02 -0.27736324231E+00 -0.29006087935E+02  0.40000000000E+02  0.47000000000E+01 0. -1.
         -5    1    3    3    0  501  0.27138163761E+02  0.27736324231E+00  0.29006087935E+02  0.40000000000E+02  0.47000000000E+01 0.  1.
</event>
<event>
 5    1  0.4761089E-001  0.8000000E+02  0.7546771E-02  0.1203772E+00
         11   -1    0    0    0    0  0.00000000000E+00  0.00000000000E+00  0.40000000000E+02  0.40000000000E+02  0.00000000000E+00 0. -1.
        -11   -1    0    0    0    0 -0.00000000000E+00 -0.00000000000E+00 -0.40000000000E+02  0.40000000000E+02  0.00000000000E+00 0.  1.
         23    2    1    2    0    0  0.00000000000E+00  0.00000000000E+00  0.00000000000E+00  0.80000000000E+02  0.80000000000E+02 0.  0.
          5    1    3    3  501    0  0.33676770763E+02  0.12694804906E+02  0.16811515082E+02  0.40000000000E+02  0.47000000000E+01 0. -1.
         -5    1    3    3    0  501 -0.33676770763E+02 -0.12694804906E+02 -0.16811515082E+02  0.40000000000E+02  0.47000000000E+01 0.  1.
</event>
<event>
 5    1  0.4761089E-001  0.8000000E+02  0.7546771E-02  0.1203772E+00
         11   -1    0    0    0    0  0.00000000000E+00  0.00000000000E+00  0.40000000000E+02  0.40000000000E+02  0.00000000000E+00 0.  1.
        -11   -1    0    0    0    0 -0.00000000000E+00 -0.00000000000E+00 -0.40000000000E+02  0.40000000000E+02  0.00000000000E+00 0. -1.
         23    2    1    2    0    0  0.00000000000E+00  0.00000000000E+00  0.00000000000E+00  0.80000000000E+02  0.80000000000E+02 0.  0.
          5    1    3    3  501    0  0.45769882579E+01  0.30340960997E+02 -0.25226717271E+02  0.40000000000E+02  0.47000000000E+01 0. -1.
         -5    1    3    3    0  501 -0.45769882579E+01 -0.30340960997E+02  0.25226717271E+02  0.40000000000E+02  0.47000000000E+01 0.  1.
</event>
<event>
 5    1  0.4761089E-001  0.8000000E+02  0.7546771E-02  0.1203772E+00
         11   -1    0    0    0    0  0.00000000000E+00  0.00000000000E+00  0.40000000000E+02  0.40000000000E+02  0.00000000000E+00 0.  1.
        -11   -1    0    0    0    0 -0.00000000000E+00 -0.00000000000E+00 -0.40000000000E+02  0.40000000000E+02  0.00000000000E+00 0. -1.
         23    2    1    2    0    0  0.00000000000E+00  0.00000000000E+00  0.00000000000E+00  0.80000000000E+02  0.80000000000E+02 0.  0.
          5    1    3    3  501    0 -0.61627394251E+01  0.29448117781E+01 -0.39131301108E+02  0.40000000000E+02  0.47000000000E+01 0. -1.
         -5    1    3    3    0  501  0.61627394251E+01 -0.29448117781E+01  0.39131301108E+02  0.40000000000E+02  0.47000000000E+01 0.  1.
</event>
<event>
 5    1  0.4761089E-001  0.8000000E+02  0.7546771E-02  0.1203772E+00
         11   -1    0    0    0    0  0.00000000000E+00  0.00000000000E+00  0.40000000000E+02  0.40000000000E+02  0.00000000000E+00 0.  1.
        -11   -1    0    0    0    0 -0.00000000000E+00 -0.00000000000E+00 -0.40000000000E+02  0.40000000000E+02  0.00000000000E+00 0. -1.
         23    2    1    2    0    0  0.00000000000E+00  0.00000000000E+00  0.00000000000E+00  0.80000000000E+02  0.80000000000E+02 0.  0.
          5    1    3    3  501    0 -0.24393653122E+01 -0.12924626788E+02 -0.37482176021E+02  0.40000000000E+02  0.47000000000E+01 0. -1.
         -5    1    3    3    0  501  0.24393653122E+01  0.12924626788E+02  0.37482176021E+02  0.40000000000E+02  0.47000000000E+01 0.  1.
</event>
<event>
 5    1  0.4761089E-001  0.8000000E+02  0.7546771E-02  0.1203772E+00
         11   -1    0    0    0    0  0.00000000000E+00  0.00000000000E+00  0.40000000000E+02  0.40000000000E+02  0.00000000000E+00 0.  1.
        -11   -1    0    0    0    0 -0.00000000000E+00 -0.00000000000E+00 -0.40000000000E+02  0.40000000000E+02  0.00000000000E+00 0. -1.
         23    2    1    2    0    0  0.00000000000E+00  0.00000000000E+00  0.00000000000E+00  0.80000000000E+02  0.80000000000E+02 0.  0.
          5    1    3    3  501    0 -0.11074057482E+01 -0.24318212943E+02 -0.31389618854E+02  0.40000000000E+02  0.47000000000E+01 0. -1.
         -5    1    3    3    0  501  0.11074057482E+01  0.24318212943E+02  0.31389618854E+02  0.40000000000E+02  0.47000000000E+01 0.  1.
</event>
<event>
 5    1  0.4761089E-001  0.8000000E+02  0.7546771E-02  0.1203772E+00
         11   -1    0    0    0    0  0.00000000000E+00  0.00000000000E+00  0.40000000000E+02  0.40000000000E+02  0.00000000000E+00 0. -1.
        -11   -1    0    0    0    0 -0.00000000000E+00 -0.00000000000E+00 -0.40000000000E+02  0.40000000000E+02  0.00000000000E+00 0.  1.
         23    2    1    2    0    0  0.00000000000E+00  0.00000000000E+00  0.00000000000E+00  0.80000000000E+02  0.80000000000E+02 0.  0.
          5    1    3    3  501    0 -0.36685572044E+02  0.13634773223E+02  0.67949807187E+01  0.40000000000E+02  0.47000000000E+01 0. -1.
         -5    1    3    3    0  501  0.36685572044E+02 -0.13634773223E+02 -0.67949807187E+01  0.40000000000E+02  0.47000000000E+01 0.  1.
</event>
<event>
 5    1  0.4761089E-001  0.8000000E+02  0.7546771E-02  0.1203772E+00
         11   -1    0    0    0    0  0.00000000000E+00  0.00000000000E+00  0.40000000000E+02  0.40000000000E+02  0.00000000000E+00 0. -1.
        -11   -1    0    0    0    0 -0.00000000000E+00 -0.00000000000E+00 -0.40000000000E+02  0.40000000000E+02  0.00000000000E+00 0.  1.
         23    2    1    2    0    0  0.00000000000E+00  0.00000000000E+00  0.00000000000E+00  0.80000000000E+02  0.80000000000E+02 0.  0.
          5    1    3    3  501    0  0.22711488420E+01  0.29310733173E+02  0.26713906562E+02  0.40000000000E+02  0.47000000000E+01 0. -1.
         -5    1    3    3    0  501 -0.22711488420E+01 -0.29310733173E+02 -0.26713906562E+02  0.40000000000E+02  0.47000000000E+01 0.  1.
</event>
<event>
 5    1  0.4761089E-001  0.8000000E+02  0.7546771E-02  0.1203772E+00
         11   -1    0    0    0    0  0.00000000000E+00  0.00000000000E+00  0.40000000000E+02  0.40000000000E+02  0.00000000000E+00 0.  1.
        -11   -1    0    0    0    0 -0.00000000000E+00 -0.00000000000E+00 -0.40000000000E+02  0.40000000000E+02  0.00000000000E+00 0. -1.
         23    2    1    2    0    0  0.00000000000E+00  0.00000000000E+00  0.00000000000E+00  0.80000000000E+02  0.80000000000E+02 0.  0.
          5    1    3    3  501    0 -0.43948124495E+01  0.10472697886E+02 -0.38064658445E+02  0.40000000000E+02  0.47000000000E+01 0. -1.
         -5    1    3    3    0  501  0.43948124495E+01 -0.10472697886E+02  0.38064658445E+02  0.40000000000E+02  0.47000000000E+01 0.  1.
</event>
<event>
 5    1  0.4761089E-001  0.8000000E+02  0.7546771E-02  0.1203772E+00
         11   -1    0    0    0    0  0.00000000000E+00  0.00000000000E+00  0.40000000000E+02  0.40000000000E+02  0.00000000000E+00 0.  1.
        -11   -1    0    0    0    0 -0.00000000000E+00 -0.00000000000E+00 -0.40000000000E+02  0.40000000000E+02  0.00000000000E+00 0. -1.
         23    2    1    2    0    0  0.00000000000E+00  0.00000000000E+00  0.00000000000E+00  0.80000000000E+02  0.80000000000E+02 0.  0.
          5    1    3    3  501    0  0.90273305244E+01 -0.17783445573E+02 -0.34353549557E+02  0.40000000000E+02  0.47000000000E+01 0. -1.
         -5    1    3    3    0  501 -0.90273305244E+01  0.17783445573E+02  0.34353549557E+02  0.40000000000E+02  0.47000000000E+01 0.  1.
</event>
<event>
 5    1  0.4761089E-001  0.8000000E+02  0.7546771E-02  0.1203772E+00
         11   -1    0    0    0    0  0.00000000000E+00  0.00000000000E+00  0.40000000000E+02  0.40000000000E+02  0.00000000000E+00 0. -1.
        -11   -1    0    0    0    0 -0.00000000000E+00 -0.00000000000E+00 -0.40000000000E+02  0.40000000000E+02  0.00000000000E+00 0.  1.
         23    2    1    2    0    0  0.00000000000E+00  0.00000000000E+00  0.00000000000E+00  0.80000000000E+02  0.80000000000E+02 0.  0.
          5    1    3    3  501    0 -0.10330845709E+02  0.16169130112E+02  0.34781357914E+02  0.40000000000E+02  0.47000000000E+01 0. -1.
         -5    1    3    3    0  501  0.10330845709E+02 -0.16169130112E+02 -0.34781357914E+02  0.40000000000E+02  0.47000000000E+01 0.  1.
</event>
<event>
 5    1  0.4761089E-001  0.8000000E+02  0.7546771E-02  0.1203772E+00
         11   -1    0    0    0    0  0.00000000000E+00  0.00000000000E+00  0.40000000000E+02  0.40000000000E+02  0.00000000000E+00 0. -1.
        -11   -1    0    0    0    0 -0.00000000000E+00 -0.00000000000E+00 -0.40000000000E+02  0.40000000000E+02  0.00000000000E+00 0.  1.
         23    2    1    2    0    0  0.00000000000E+00  0.00000000000E+00  0.00000000000E+00  0.80000000000E+02  0.80000000000E+02 0.  0.
          5    1    3    3  501    0 -0.24693650526E+02 -0.15370359589E+02  0.27053385551E+02  0.40000000000E+02  0.47000000000E+01 0. -1.
         -5    1    3    3    0  501  0.24693650526E+02  0.15370359589E+02 -0.27053385551E+02  0.40000000000E+02  0.47000000000E+01 0.  1.
</event>
<event>
 5    1  0.4761089E-001  0.8000000E+02  0.7546771E-02  0.1203772E+00
         11   -1    0    0    0    0  0.00000000000E+00  0.00000000000E+00  0.40000000000E+02  0.40000000000E+02  0.00000000000E+00 0. -1.
        -11   -1    0    0    0    0 -0.00000000000E+00 -0.00000000000E+00 -0.40000000000E+02  0.40000000000E+02  0.00000000000E+00 0.  1.
         23    2    1    2    0    0  0.00000000000E+00  0.00000000000E+00  0.00000000000E+00  0.80000000000E+02  0.80000000000E+02 0.  0.
          5    1    3    3  501    0  0.32832302733E+02  0.33868722131E+01  0.22101560892E+02  0.40000000000E+02  0.47000000000E+01 0. -1.
         -5    1    3    3    0  501 -0.32832302733E+02 -0.33868722131E+01 -0.22101560892E+02  0.40000000000E+02  0.47000000000E+01 0.  1.
</event>
<event>
 5    1  0.4761089E-001  0.8000000E+02  0.7546771E-02  0.1203772E+00
         11   -1    0    0    0    0  0.00000000000E+00  0.00000000000E+00  0.40000000000E+02  0.40000000000E+02  0.00000000000E+00 0. -1.
        -11   -1    0    0    0    0 -0.00000000000E+00 -0.00000000000E+00 -0.40000000000E+02  0.40000000000E+02  0.00000000000E+00 0.  1.
         23    2    1    2    0    0  0.00000000000E+00  0.00000000000E+00  0.00000000000E+00  0.80000000000E+02  0.80000000000E+02 0.  0.
          5    1    3    3  501    0 -0.33214871871E+02 -0.10806857241E+02  0.18918089839E+02  0.40000000000E+02  0.47000000000E+01 0. -1.
         -5    1    3    3    0  501  0.33214871871E+02  0.10806857241E+02 -0.18918089839E+02  0.40000000000E+02  0.47000000000E+01 0.  1.
</event>
<event>
 5    1  0.4761089E-001  0.8000000E+02  0.7546771E-02  0.1203772E+00
         11   -1    0    0    0    0  0.00000000000E+00  0.00000000000E+00  0.40000000000E+02  0.40000000000E+02  0.00000000000E+00 0. -1.
        -11   -1    0    0    0    0 -0.00000000000E+00 -0.00000000000E+00 -0.40000000000E+02  0.40000000000E+02  0.00000000000E+00 0.  1.
         23    2    1    2    0    0  0.00000000000E+00  0.00000000000E+00  0.00000000000E+00  0.80000000000E+02  0.80000000000E+02 0.  0.
          5    1    3    3  501    0  0.35955497381E+02 -0.97916251052E+01 -0.13756318034E+02  0.40000000000E+02  0.47000000000E+01 0.  1.
         -5    1    3    3    0  501 -0.35955497381E+02  0.97916251052E+01  0.13756318034E+02  0.40000000000E+02  0.47000000000E+01 0. -1.
</event>
<event>
 5    1  0.4761089E-001  0.8000000E+02  0.7546771E-02  0.1203772E+00
         11   -1    0    0    0    0  0.00000000000E+00  0.00000000000E+00  0.40000000000E+02  0.40000000000E+02  0.00000000000E+00 0.  1.
        -11   -1    0    0    0    0 -0.00000000000E+00 -0.00000000000E+00 -0.40000000000E+02  0.40000000000E+02  0.00000000000E+00 0. -1.
         23    2    1    2    0    0  0.00000000000E+00  0.00000000000E+00  0.00000000000E+00  0.80000000000E+02  0.80000000000E+02 0.  0.
          5    1    3    3  501    0 -0.88988514145E+01 -0.24084944033E+01 -0.38638317746E+02  0.40000000000E+02  0.47000000000E+01 0. -1.
         -5    1    3    3    0  501  0.88988514145E+01  0.24084944033E+01  0.38638317746E+02  0.40000000000E+02  0.47000000000E+01 0.  1.
</event>
<event>
 5    1  0.4761089E-001  0.8000000E+02  0.7546771E-02  0.1203772E+00
         11   -1    0    0    0    0  0.00000000000E+00  0.00000000000E+00  0.40000000000E+02  0.40000000000E+02  0.00000000000E+00 0.  1.
        -11   -1    0    0    0    0 -0.00000000000E+00 -0.00000000000E+00 -0.40000000000E+02  0.40000000000E+02  0.00000000000E+00 0. -1.
         23    2    1    2    0    0  0.00000000000E+00  0.00000000000E+00  0.00000000000E+00  0.80000000000E+02  0.80000000000E+02 0.  0.
          5    1    3    3  501    0 -0.29711627229E+01  0.40667660538E+01 -0.39402329956E+02  0.40000000000E+02  0.47000000000E+01 0. -1.
         -5    1    3    3    0  501  0.29711627229E+01 -0.40667660538E+01  0.39402329956E+02  0.40000000000E+02  0.47000000000E+01 0.  1.
</event>
<event>
 5    1  0.4761089E-001  0.8000000E+02  0.7546771E-02  0.1203772E+00
         11   -1    0    0    0    0  0.00000000000E+00  0.00000000000E+00  0.40000000000E+02  0.40000000000E+02  0.00000000000E+00 0.  1.
        -11   -1    0    0    0    0 -0.00000000000E+00 -0.00000000000E+00 -0.40000000000E+02  0.40000000000E+02  0.00000000000E+00 0. -1.
         23    2    1    2    0    0  0.00000000000E+00  0.00000000000E+00  0.00000000000E+00  0.80000000000E+02  0.80000000000E+02 0.  0.
          5    1    3    3  501    0  0.13010043649E+02 -0.47655551119E+01 -0.37228191586E+02  0.40000000000E+02  0.47000000000E+01 0. -1.
         -5    1    3    3    0  501 -0.13010043649E+02  0.47655551119E+01  0.37228191586E+02  0.40000000000E+02  0.47000000000E+01 0.  1.
</event>
<event>
 5    1  0.4761089E-001  0.8000000E+02  0.7546771E-02  0.1203772E+00
         11   -1    0    0    0    0  0.00000000000E+00  0.00000000000E+00  0.40000000000E+02  0.40000000000E+02  0.00000000000E+00 0. -1.
        -11   -1    0    0    0    0 -0.00000000000E+00 -0.00000000000E+00 -0.40000000000E+02  0.40000000000E+02  0.00000000000E+00 0.  1.
         23    2    1    2    0    0  0.00000000000E+00  0.00000000000E+00  0.00000000000E+00  0.80000000000E+02  0.80000000000E+02 0.  0.
          5    1    3    3  501    0 -0.29094786589E+02  0.88740055464E+01 -0.25547121539E+02  0.40000000000E+02  0.47000000000E+01 0.  1.
         -5    1    3    3    0  501  0.29094786589E+02 -0.88740055464E+01  0.25547121539E+02  0.40000000000E+02  0.47000000000E+01 0. -1.
</event>
<event>
 5    1  0.4761089E-001  0.8000000E+02  0.7546771E-02  0.1203772E+00
         11   -1    0    0    0    0  0.00000000000E+00  0.00000000000E+00  0.40000000000E+02  0.40000000000E+02  0.00000000000E+00 0.  1.
        -11   -1    0    0    0    0 -0.00000000000E+00 -0.00000000000E+00 -0.40000000000E+02  0.40000000000E+02  0.00000000000E+00 0. -1.
         23    2    1    2    0    0  0.00000000000E+00  0.00000000000E+00  0.00000000000E+00  0.80000000000E+02  0.80000000000E+02 0.  0.
          5    1    3    3  501    0 -0.33494372750E+02 -0.19532894268E+02 -0.86315140961E+01  0.40000000000E+02  0.47000000000E+01 0. -1.
         -5    1    3    3    0  501  0.33494372750E+02  0.19532894268E+02  0.86315140961E+01  0.40000000000E+02  0.47000000000E+01 0.  1.
</event>
<event>
 5    1  0.4761089E-001  0.8000000E+02  0.7546771E-02  0.1203772E+00
         11   -1    0    0    0    0  0.00000000000E+00  0.00000000000E+00  0.40000000000E+02  0.40000000000E+02  0.00000000000E+00 0.  1.
        -11   -1    0    0    0    0 -0.00000000000E+00 -0.00000000000E+00 -0.40000000000E+02  0.40000000000E+02  0.00000000000E+00 0. -1.
         23    2    1    2    0    0  0.00000000000E+00  0.00000000000E+00  0.00000000000E+00  0.80000000000E+02  0.80000000000E+02 0.  0.
          5    1    3    3  501    0  0.15767264852E+01 -0.25485073482E+01 -0.39609708960E+02  0.40000000000E+02  0.47000000000E+01 0. -1.
         -5    1    3    3    0  501 -0.15767264852E+01  0.25485073482E+01  0.39609708960E+02  0.40000000000E+02  0.47000000000E+01 0.  1.
</event>
<event>
 5    1  0.4761089E-001  0.8000000E+02  0.7546771E-02  0.1203772E+00
         11   -1    0    0    0    0  0.00000000000E+00  0.00000000000E+00  0.40000000000E+02  0.40000000000E+02  0.00000000000E+00 0.  1.
        -11   -1    0    0    0    0 -0.00000000000E+00 -0.00000000000E+00 -0.40000000000E+02  0.40000000000E+02  0.00000000000E+00 0. -1.
         23    2    1    2    0    0  0.00000000000E+00  0.00000000000E+00  0.00000000000E+00  0.80000000000E+02  0.80000000000E+02 0.  0.
          5    1    3    3  501    0 -0.33901315485E+01  0.30789513894E+01 -0.39458041847E+02  0.40000000000E+02  0.47000000000E+01 0. -1.
         -5    1    3    3    0  501  0.33901315485E+01 -0.30789513894E+01  0.39458041847E+02  0.40000000000E+02  0.47000000000E+01 0.  1.
</event>
<event>
 5    1  0.4761089E-001  0.8000000E+02  0.7546771E-02  0.1203772E+00
         11   -1    0    0    0    0  0.00000000000E+00  0.00000000000E+00  0.40000000000E+02  0.40000000000E+02  0.00000000000E+00 0. -1.
        -11   -1    0    0    0    0 -0.00000000000E+00 -0.00000000000E+00 -0.40000000000E+02  0.40000000000E+02  0.00000000000E+00 0.  1.
         23    2    1    2    0    0  0.00000000000E+00  0.00000000000E+00  0.00000000000E+00  0.80000000000E+02  0.80000000000E+02 0.  0.
          5    1    3    3  501    0  0.19085020041E+02  0.14908417706E+02  0.31486681177E+02  0.40000000000E+02  0.47000000000E+01 0. -1.
         -5    1    3    3    0  501 -0.19085020041E+02 -0.14908417706E+02 -0.31486681177E+02  0.40000000000E+02  0.47000000000E+01 0.  1.
</event>
<event>
 5    1  0.4761089E-001  0.8000000E+02  0.7546771E-02  0.1203772E+00
         11   -1    0    0    0    0  0.00000000000E+00  0.00000000000E+00  0.40000000000E+02  0.40000000000E+02  0.00000000000E+00 0.  1.
        -11   -1    0    0    0    0 -0.00000000000E+00 -0.00000000000E+00 -0.40000000000E+02  0.40000000000E+02  0.00000000000E+00 0. -1.
         23    2    1    2    0    0  0.00000000000E+00  0.00000000000E+00  0.00000000000E+00  0.80000000000E+02  0.80000000000E+02 0.  0.
          5    1    3    3  501    0 -0.17894005965E+02  0.35402583295E+02 -0.20908482870E+01  0.40000000000E+02  0.47000000000E+01 0. -1.
         -5    1    3    3    0  501  0.17894005965E+02 -0.35402583295E+02  0.20908482870E+01  0.40000000000E+02  0.47000000000E+01 0.  1.
</event>
<event>
 5    1  0.4761089E-001  0.8000000E+02  0.7546771E-02  0.1203772E+00
         11   -1    0    0    0    0  0.00000000000E+00  0.00000000000E+00  0.40000000000E+02  0.40000000000E+02  0.00000000000E+00 0.  1.
        -11   -1    0    0    0    0 -0.00000000000E+00 -0.00000000000E+00 -0.40000000000E+02  0.40000000000E+02  0.00000000000E+00 0. -1.
         23    2    1    2    0    0  0.00000000000E+00  0.00000000000E+00  0.00000000000E+00  0.80000000000E+02  0.80000000000E+02 0.  0.
          5    1    3    3  501    0 -0.11177912424E+02  0.12752837049E+02 -0.35921155619E+02  0.40000000000E+02  0.47000000000E+01 0. -1.
         -5    1    3    3    0  501  0.11177912424E+02 -0.12752837049E+02  0.35921155619E+02  0.40000000000E+02  0.47000000000E+01 0.  1.
</event>
<event>
 5    1  0.4761089E-001  0.8000000E+02  0.7546771E-02  0.1203772E+00
         11   -1    0    0    0    0  0.00000000000E+00  0.00000000000E+00  0.40000000000E+02  0.40000000000E+02  0.00000000000E+00 0. -1.
        -11   -1    0    0    0    0 -0.00000000000E+00 -0.00000000000E+00 -0.40000000000E+02  0.40000000000E+02  0.00000000000E+00 0.  1.
         23    2    1    2    0    0  0.00000000000E+00  0.00000000000E+00  0.00000000000E+00  0.80000000000E+02  0.80000000000E+02 0.  0.
          5    1    3    3  501    0 -0.23187662465E+02  0.33813667673E+01  0.32075047439E+02  0.40000000000E+02  0.47000000000E+01 0. -1.
         -5    1    3    3    0  501  0.23187662465E+02 -0.33813667673E+01 -0.32075047439E+02  0.40000000000E+02  0.47000000000E+01 0.  1.
</event>
<event>
 5    1  0.4761089E-001  0.8000000E+02  0.7546771E-02  0.1203772E+00
         11   -1    0    0    0    0  0.00000000000E+00  0.00000000000E+00  0.40000000000E+02  0.40000000000E+02  0.00000000000E+00 0.  1.
        -11   -1    0    0    0    0 -0.00000000000E+00 -0.00000000000E+00 -0.40000000000E+02  0.40000000000E+02  0.00000000000E+00 0. -1.
         23    2    1    2    0    0  0.00000000000E+00  0.00000000000E+00  0.00000000000E+00  0.80000000000E+02  0.80000000000E+02 0.  0.
          5    1    3    3  501    0 -0.34175709274E+01 -0.24648448938E+02 -0.30962625437E+02  0.40000000000E+02  0.47000000000E+01 0. -1.
         -5    1    3    3    0  501  0.34175709274E+01  0.24648448938E+02  0.30962625437E+02  0.40000000000E+02  0.47000000000E+01 0.  1.
</event>
<event>
 5    1  0.4761089E-001  0.8000000E+02  0.7546771E-02  0.1203772E+00
         11   -1    0    0    0    0  0.00000000000E+00  0.00000000000E+00  0.40000000000E+02  0.40000000000E+02  0.00000000000E+00 0.  1.
        -11   -1    0    0    0    0 -0.00000000000E+00 -0.00000000000E+00 -0.40000000000E+02  0.40000000000E+02  0.00000000000E+00 0. -1.
         23    2    1    2    0    0  0.00000000000E+00  0.00000000000E+00  0.00000000000E+00  0.80000000000E+02  0.80000000000E+02 0.  0.
          5    1    3    3  501    0 -0.12759269787E+02  0.16504945644E+02 -0.33803813451E+02  0.40000000000E+02  0.47000000000E+01 0. -1.
         -5    1    3    3    0  501  0.12759269787E+02 -0.16504945644E+02  0.33803813451E+02  0.40000000000E+02  0.47000000000E+01 0.  1.
</event>
<event>
 5    1  0.4761089E-001  0.8000000E+02  0.7546771E-02  0.1203772E+00
         11   -1    0    0    0    0  0.00000000000E+00  0.00000000000E+00  0.40000000000E+02  0.40000000000E+02  0.00000000000E+00 0. -1.
        -11   -1    0    0    0    0 -0.00000000000E+00 -0.00000000000E+00 -0.40000000000E+02  0.40000000000E+02  0.00000000000E+00 0.  1.
         23    2    1    2    0    0  0.00000000000E+00  0.00000000000E+00  0.00000000000E+00  0.80000000000E+02  0.80000000000E+02 0.  0.
          5    1    3    3  501    0  0.16204938530E+02 -0.16643338724E+02  0.32222806261E+02  0.40000000000E+02  0.47000000000E+01 0. -1.
         -5    1    3    3    0  501 -0.16204938530E+02  0.16643338724E+02 -0.32222806261E+02  0.40000000000E+02  0.47000000000E+01 0.  1.
</event>
<event>
 5    1  0.4761089E-001  0.8000000E+02  0.7546771E-02  0.1203772E+00
         11   -1    0    0    0    0  0.00000000000E+00  0.00000000000E+00  0.40000000000E+02  0.40000000000E+02  0.00000000000E+00 0. -1.
        -11   -1    0    0    0    0 -0.00000000000E+00 -0.00000000000E+00 -0.40000000000E+02  0.40000000000E+02  0.00000000000E+00 0.  1.
         23    2    1    2    0    0  0.00000000000E+00  0.00000000000E+00  0.00000000000E+00  0.80000000000E+02  0.80000000000E+02 0.  0.
          5    1    3    3  501    0  0.77171696945E+01 -0.38594271778E+02 -0.53700538039E+01  0.40000000000E+02  0.47000000000E+01 0. -1.
         -5    1    3    3    0  501 -0.77171696945E+01  0.38594271778E+02  0.53700538039E+01  0.40000000000E+02  0.47000000000E+01 0.  1.
</event>
<event>
 5    1  0.4761089E-001  0.8000000E+02  0.7546771E-02  0.1203772E+00
         11   -1    0    0    0    0  0.00000000000E+00  0.00000000000E+00  0.40000000000E+02  0.40000000000E+02  0.00000000000E+00 0. -1.
        -11   -1    0    0    0    0 -0.00000000000E+00 -0.00000000000E+00 -0.40000000000E+02  0.40000000000E+02  0.00000000000E+00 0.  1.
         23    2    1    2    0    0  0.00000000000E+00  0.00000000000E+00  0.00000000000E+00  0.80000000000E+02  0.80000000000E+02 0.  0.
          5    1    3    3  501    0  0.19551133789E+02  0.26727774118E+02 -0.21938305728E+02  0.40000000000E+02  0.47000000000E+01 0. -1.
         -5    1    3    3    0  501 -0.19551133789E+02 -0.26727774118E+02  0.21938305728E+02  0.40000000000E+02  0.47000000000E+01 0.  1.
</event>
<event>
 5    1  0.4761089E-001  0.8000000E+02  0.7546771E-02  0.1203772E+00
         11   -1    0    0    0    0  0.00000000000E+00  0.00000000000E+00  0.40000000000E+02  0.40000000000E+02  0.00000000000E+00 0. -1.
        -11   -1    0    0    0    0 -0.00000000000E+00 -0.00000000000E+00 -0.40000000000E+02  0.40000000000E+02  0.00000000000E+00 0.  1.
         23    2    1    2    0    0  0.00000000000E+00  0.00000000000E+00  0.00000000000E+00  0.80000000000E+02  0.80000000000E+02 0.  0.
          5    1    3    3  501    0 -0.32648898949E+02  0.16608835810E+02  0.15365740154E+02  0.40000000000E+02  0.47000000000E+01 0. -1.
         -5    1    3    3    0  501  0.32648898949E+02 -0.16608835810E+02 -0.15365740154E+02  0.40000000000E+02  0.47000000000E+01 0.  1.
</event>
<event>
 5    1  0.4761089E-001  0.8000000E+02  0.7546771E-02  0.1203772E+00
         11   -1    0    0    0    0  0.00000000000E+00  0.00000000000E+00  0.40000000000E+02  0.40000000000E+02  0.00000000000E+00 0.  1.
        -11   -1    0    0    0    0 -0.00000000000E+00 -0.00000000000E+00 -0.40000000000E+02  0.40000000000E+02  0.00000000000E+00 0. -1.
         23    2    1    2    0    0  0.00000000000E+00  0.00000000000E+00  0.00000000000E+00  0.80000000000E+02  0.80000000000E+02 0.  0.
          5    1    3    3  501    0  0.16078117178E+02  0.24181404002E+02 -0.27104683147E+02  0.40000000000E+02  0.47000000000E+01 0. -1.
         -5    1    3    3    0  501 -0.16078117178E+02 -0.24181404002E+02  0.27104683147E+02  0.40000000000E+02  0.47000000000E+01 0.  1.
</event>
<event>
 5    1  0.4761089E-001  0.8000000E+02  0.7546771E-02  0.1203772E+00
         11   -1    0    0    0    0  0.00000000000E+00  0.00000000000E+00  0.40000000000E+02  0.40000000000E+02  0.00000000000E+00 0.  1.
        -11   -1    0    0    0    0 -0.00000000000E+00 -0.00000000000E+00 -0.40000000000E+02  0.40000000000E+02  0.00000000000E+00 0. -1.
         23    2    1    2    0    0  0.00000000000E+00  0.00000000000E+00  0.00000000000E+00  0.80000000000E+02  0.80000000000E+02 0.  0.
          5    1    3    3  501    0  0.25938178051E+02  0.26045850936E+02 -0.15057707941E+02  0.40000000000E+02  0.47000000000E+01 0. -1.
         -5    1    3    3    0  501 -0.25938178051E+02 -0.26045850936E+02  0.15057707941E+02  0.40000000000E+02  0.47000000000E+01 0.  1.
</event>
<event>
 5    1  0.4761089E-001  0.8000000E+02  0.7546771E-02  0.1203772E+00
         11   -1    0    0    0    0  0.00000000000E+00  0.00000000000E+00  0.40000000000E+02  0.40000000000E+02  0.00000000000E+00 0.  1.
        -11   -1    0    0    0    0 -0.00000000000E+00 -0.00000000000E+00 -0.40000000000E+02  0.40000000000E+02  0.00000000000E+00 0. -1.
         23    2    1    2    0    0  0.00000000000E+00  0.00000000000E+00  0.00000000000E+00  0.80000000000E+02  0.80000000000E+02 0.  0.
          5    1    3    3  501    0  0.13116061629E+02 -0.16578996457E+02 -0.33630578405E+02  0.40000000000E+02  0.47000000000E+01 0. -1.
         -5    1    3    3    0  501 -0.13116061629E+02  0.16578996457E+02  0.33630578405E+02  0.40000000000E+02  0.47000000000E+01 0.  1.
</event>
<event>
 5    1  0.4761089E-001  0.8000000E+02  0.7546771E-02  0.1203772E+00
         11   -1    0    0    0    0  0.00000000000E+00  0.00000000000E+00  0.40000000000E+02  0.40000000000E+02  0.00000000000E+00 0. -1.
        -11   -1    0    0    0    0 -0.00000000000E+00 -0.00000000000E+00 -0.40000000000E+02  0.40000000000E+02  0.00000000000E+00 0.  1.
         23    2    1    2    0    0  0.00000000000E+00  0.00000000000E+00  0.00000000000E+00  0.80000000000E+02  0.80000000000E+02 0.  0.
          5    1    3    3  501    0  0.19968604897E+02  0.30471305452E+02  0.15832383348E+02  0.40000000000E+02  0.47000000000E+01 0. -1.
         -5    1    3    3    0  501 -0.19968604897E+02 -0.30471305452E+02 -0.15832383348E+02  0.40000000000E+02  0.47000000000E+01 0.  1.
</event>
<event>
 5    1  0.4761089E-001  0.8000000E+02  0.7546771E-02  0.1203772E+00
         11   -1    0    0    0    0  0.00000000000E+00  0.00000000000E+00  0.40000000000E+02  0.40000000000E+02  0.00000000000E+00 0.  1.
        -11   -1    0    0    0    0 -0.00000000000E+00 -0.00000000000E+00 -0.40000000000E+02  0.40000000000E+02  0.00000000000E+00 0. -1.
         23    2    1    2    0    0  0.00000000000E+00  0.00000000000E+00  0.00000000000E+00  0.80000000000E+02  0.80000000000E+02 0.  0.
          5    1    3    3  501    0  0.33660760397E+01  0.37561284783E+02 -0.12479159328E+02  0.40000000000E+02  0.47000000000E+01 0. -1.
         -5    1    3    3    0  501 -0.33660760397E+01 -0.37561284783E+02  0.12479159328E+02  0.40000000000E+02  0.47000000000E+01 0.  1.
</event>
<event>
 5    1  0.4761089E-001  0.8000000E+02  0.7546771E-02  0.1203772E+00
         11   -1    0    0    0    0  0.00000000000E+00  0.00000000000E+00  0.40000000000E+02  0.40000000000E+02  0.00000000000E+00 0.  1.
        -11   -1    0    0    0    0 -0.00000000000E+00 -0.00000000000E+00 -0.40000000000E+02  0.40000000000E+02  0.00000000000E+00 0. -1.
         23    2    1    2    0    0  0.00000000000E+00  0.00000000000E+00  0.00000000000E+00  0.80000000000E+02  0.80000000000E+02 0.  0.
          5    1    3    3  501    0  0.11160988172E+02  0.99967460209E+01 -0.36788685924E+02  0.40000000000E+02  0.47000000000E+01 0. -1.
         -5    1    3    3    0  501 -0.11160988172E+02 -0.99967460209E+01  0.36788685924E+02  0.40000000000E+02  0.47000000000E+01 0.  1.
</event>
<event>
 5    1  0.4761089E-001  0.8000000E+02  0.7546771E-02  0.1203772E+00
         11   -1    0    0    0    0  0.00000000000E+00  0.00000000000E+00  0.40000000000E+02  0.40000000000E+02  0.00000000000E+00 0. -1.
        -11   -1    0    0    0    0 -0.00000000000E+00 -0.00000000000E+00 -0.40000000000E+02  0.40000000000E+02  0.00000000000E+00 0.  1.
         23    2    1    2    0    0  0.00000000000E+00  0.00000000000E+00  0.00000000000E+00  0.80000000000E+02  0.80000000000E+02 0.  0.
          5    1    3    3  501    0 -0.11923650414E+01 -0.30119371407E+02  0.25871059732E+02  0.40000000000E+02  0.47000000000E+01 0. -1.
         -5    1    3    3    0  501  0.11923650414E+01  0.30119371407E+02 -0.25871059732E+02  0.40000000000E+02  0.47000000000E+01 0.  1.
</event>
<event>
 5    1  0.4761089E-001  0.8000000E+02  0.7546771E-02  0.1203772E+00
         11   -1    0    0    0    0  0.00000000000E+00  0.00000000000E+00  0.40000000000E+02  0.40000000000E+02  0.00000000000E+00 0.  1.
        -11   -1    0    0    0    0 -0.00000000000E+00 -0.00000000000E+00 -0.40000000000E+02  0.40000000000E+02  0.00000000000E+00 0. -1.
         23    2    1    2    0    0  0.00000000000E+00  0.00000000000E+00  0.00000000000E+00  0.80000000000E+02  0.80000000000E+02 0.  0.
          5    1    3    3  501    0 -0.14366196077E+02  0.14700350782E+02 -0.33991500366E+02  0.40000000000E+02  0.47000000000E+01 0. -1.
         -5    1    3    3    0  501  0.14366196077E+02 -0.14700350782E+02  0.33991500366E+02  0.40000000000E+02  0.47000000000E+01 0.  1.
</event>
<event>
 5    1  0.4761089E-001  0.8000000E+02  0.7546771E-02  0.1203772E+00
         11   -1    0    0    0    0  0.00000000000E+00  0.00000000000E+00  0.40000000000E+02  0.40000000000E+02  0.00000000000E+00 0.  1.
        -11   -1    0    0    0    0 -0.00000000000E+00 -0.00000000000E+00 -0.40000000000E+02  0.40000000000E+02  0.00000000000E+00 0. -1.
         23    2    1    2    0    0  0.00000000000E+00  0.00000000000E+00  0.00000000000E+00  0.80000000000E+02  0.80000000000E+02 0.  0.
          5    1    3    3  501    0  0.71532351672E+01  0.38832655314E+02  0.43319865987E+01  0.40000000000E+02  0.47000000000E+01 0. -1.
         -5    1    3    3    0  501 -0.71532351672E+01 -0.38832655314E+02 -0.43319865987E+01  0.40000000000E+02  0.47000000000E+01 0.  1.
</event>
<event>
 5    1  0.4761089E-001  0.8000000E+02  0.7546771E-02  0.1203772E+00
         11   -1    0    0    0    0  0.00000000000E+00  0.00000000000E+00  0.40000000000E+02  0.40000000000E+02  0.00000000000E+00 0. -1.
        -11   -1    0    0    0    0 -0.00000000000E+00 -0.00000000000E+00 -0.40000000000E+02  0.40000000000E+02  0.00000000000E+00 0.  1.
         23    2    1    2    0    0  0.00000000000E+00  0.00000000000E+00  0.00000000000E+00  0.80000000000E+02  0.80000000000E+02 0.  0.
          5    1    3    3  501    0 -0.38157818244E+02 -0.11040300956E+02  0.51591387358E-01  0.40000000000E+02  0.47000000000E+01 0. -1.
         -5    1    3    3    0  501  0.38157818244E+02  0.11040300956E+02 -0.51591387358E-01  0.40000000000E+02  0.47000000000E+01 0.  1.
</event>
<event>
 5    1  0.4761089E-001  0.8000000E+02  0.7546771E-02  0.1203772E+00
         11   -1    0    0    0    0  0.00000000000E+00  0.00000000000E+00  0.40000000000E+02  0.40000000000E+02  0.00000000000E+00 0.  1.
        -11   -1    0    0    0    0 -0.00000000000E+00 -0.00000000000E+00 -0.40000000000E+02  0.40000000000E+02  0.00000000000E+00 0. -1.
         23    2    1    2    0    0  0.00000000000E+00  0.00000000000E+00  0.00000000000E+00  0.80000000000E+02  0.80000000000E+02 0.  0.
          5    1    3    3  501    0 -0.10700007942E+02 -0.19834422792E+02 -0.32711091430E+02  0.40000000000E+02  0.47000000000E+01 0. -1.
         -5    1    3    3    0  501  0.10700007942E+02  0.19834422792E+02  0.32711091430E+02  0.40000000000E+02  0.47000000000E+01 0.  1.
</event>
<event>
 5    1  0.4761089E-001  0.8000000E+02  0.7546771E-02  0.1203772E+00
         11   -1    0    0    0    0  0.00000000000E+00  0.00000000000E+00  0.40000000000E+02  0.40000000000E+02  0.00000000000E+00 0. -1.
        -11   -1    0    0    0    0 -0.00000000000E+00 -0.00000000000E+00 -0.40000000000E+02  0.40000000000E+02  0.00000000000E+00 0.  1.
         23    2    1    2    0    0  0.00000000000E+00  0.00000000000E+00  0.00000000000E+00  0.80000000000E+02  0.80000000000E+02 0.  0.
          5    1    3    3  501    0 -0.81059555714E+01  0.38774779772E+02  0.29529540967E+01  0.40000000000E+02  0.47000000000E+01 0.  1.
         -5    1    3    3    0  501  0.81059555714E+01 -0.38774779772E+02 -0.29529540967E+01  0.40000000000E+02  0.47000000000E+01 0. -1.
</event>
<event>
 5    1  0.4761089E-001  0.8000000E+02  0.7546771E-02  0.1203772E+00
         11   -1    0    0    0    0  0.00000000000E+00  0.00000000000E+00  0.40000000000E+02  0.40000000000E+02  0.00000000000E+00 0. -1.
        -11   -1    0    0    0    0 -0.00000000000E+00 -0.00000000000E+00 -0.40000000000E+02  0.40000000000E+02  0.00000000000E+00 0.  1.
         23    2    1    2    0    0  0.00000000000E+00  0.00000000000E+00  0.00000000000E+00  0.80000000000E+02  0.80000000000E+02 0.  0.
          5    1    3    3  501    0 -0.10157545081E+02 -0.16195163272E+02  0.34820266577E+02  0.40000000000E+02  0.47000000000E+01 0. -1.
         -5    1    3    3    0  501  0.10157545081E+02  0.16195163272E+02 -0.34820266577E+02  0.40000000000E+02  0.47000000000E+01 0.  1.
</event>
<event>
 5    1  0.4761089E-001  0.8000000E+02  0.7546771E-02  0.1203772E+00
         11   -1    0    0    0    0  0.00000000000E+00  0.00000000000E+00  0.40000000000E+02  0.40000000000E+02  0.00000000000E+00 0. -1.
        -11   -1    0    0    0    0 -0.00000000000E+00 -0.00000000000E+00 -0.40000000000E+02  0.40000000000E+02  0.00000000000E+00 0.  1.
         23    2    1    2    0    0  0.00000000000E+00  0.00000000000E+00  0.00000000000E+00  0.80000000000E+02  0.80000000000E+02 0.  0.
          5    1    3    3  501    0  0.33122952017E+02  0.18304052837E+02  0.12072352688E+02  0.40000000000E+02  0.47000000000E+01 0. -1.
         -5    1    3    3    0  501 -0.33122952017E+02 -0.18304052837E+02 -0.12072352688E+02  0.40000000000E+02  0.47000000000E+01 0.  1.
</event>
<event>
 5    1  0.4761089E-001  0.8000000E+02  0.7546771E-02  0.1203772E+00
         11   -1    0    0    0    0  0.00000000000E+00  0.00000000000E+00  0.40000000000E+02  0.40000000000E+02  0.00000000000E+00 0.  1.
        -11   -1    0    0    0    0 -0.00000000000E+00 -0.00000000000E+00 -0.40000000000E+02  0.40000000000E+02  0.00000000000E+00 0. -1.
         23    2    1    2    0    0  0.00000000000E+00  0.00000000000E+00  0.00000000000E+00  0.80000000000E+02  0.80000000000E+02 0.  0.
          5    1    3    3  501    0  0.11082435621E+02 -0.26266815008E+02 -0.27661237319E+02  0.40000000000E+02  0.47000000000E+01 0. -1.
         -5    1    3    3    0  501 -0.11082435621E+02  0.26266815008E+02  0.27661237319E+02  0.40000000000E+02  0.47000000000E+01 0.  1.
</event>
<event>
 5    1  0.4761089E-001  0.8000000E+02  0.7546771E-02  0.1203772E+00
         11   -1    0    0    0    0  0.00000000000E+00  0.00000000000E+00  0.40000000000E+02  0.40000000000E+02  0.00000000000E+00 0.  1.
        -11   -1    0    0    0    0 -0.00000000000E+00 -0.00000000000E+00 -0.40000000000E+02  0.40000000000E+02  0.00000000000E+00 0. -1.
         23    2    1    2    0    0  0.00000000000E+00  0.00000000000E+00  0.00000000000E+00  0.80000000000E+02  0.80000000000E+02 0.  0.
          5    1    3    3  501    0  0.13786775771E+02  0.31807091863E+02 -0.19394425000E+02  0.40000000000E+02  0.47000000000E+01 0. -1.
         -5    1    3    3    0  501 -0.13786775771E+02 -0.31807091863E+02  0.19394425000E+02  0.40000000000E+02  0.47000000000E+01 0.  1.
</event>
<event>
 5    1  0.4761089E-001  0.8000000E+02  0.7546771E-02  0.1203772E+00
         11   -1    0    0    0    0  0.00000000000E+00  0.00000000000E+00  0.40000000000E+02  0.40000000000E+02  0.00000000000E+00 0.  1.
        -11   -1    0    0    0    0 -0.00000000000E+00 -0.00000000000E+00 -0.40000000000E+02  0.40000000000E+02  0.00000000000E+00 0. -1.
         23    2    1    2    0    0  0.00000000000E+00  0.00000000000E+00  0.00000000000E+00  0.80000000000E+02  0.80000000000E+02 0.  0.
          5    1    3    3  501    0 -0.28942010503E+02 -0.95526805716E+01  0.25475798750E+02  0.40000000000E+02  0.47000000000E+01 0. -1.
         -5    1    3    3    0  501  0.28942010503E+02  0.95526805716E+01 -0.25475798750E+02  0.40000000000E+02  0.47000000000E+01 0.  1.
</event>
<event>
 5    1  0.4761089E-001  0.8000000E+02  0.7546771E-02  0.1203772E+00
         11   -1    0    0    0    0  0.00000000000E+00  0.00000000000E+00  0.40000000000E+02  0.40000000000E+02  0.00000000000E+00 0. -1.
        -11   -1    0    0    0    0 -0.00000000000E+00 -0.00000000000E+00 -0.40000000000E+02  0.40000000000E+02  0.00000000000E+00 0.  1.
         23    2    1    2    0    0  0.00000000000E+00  0.00000000000E+00  0.00000000000E+00  0.80000000000E+02  0.80000000000E+02 0.  0.
          5    1    3    3  501    0  0.17731340782E+02  0.33755842680E+02  0.11137892038E+02  0.40000000000E+02  0.47000000000E+01 0. -1.
         -5    1    3    3    0  501 -0.17731340782E+02 -0.33755842680E+02 -0.11137892038E+02  0.40000000000E+02  0.47000000000E+01 0.  1.
</event>
<event>
 5    1  0.4761089E-001  0.8000000E+02  0.7546771E-02  0.1203772E+00
         11   -1    0    0    0    0  0.00000000000E+00  0.00000000000E+00  0.40000000000E+02  0.40000000000E+02  0.00000000000E+00 0.  1.
        -11   -1    0    0    0    0 -0.00000000000E+00 -0.00000000000E+00 -0.40000000000E+02  0.40000000000E+02  0.00000000000E+00 0. -1.
         23    2    1    2    0    0  0.00000000000E+00  0.00000000000E+00  0.00000000000E+00  0.80000000000E+02  0.80000000000E+02 0.  0.
          5    1    3    3  501    0  0.60612150599E+01  0.33904791295E+02 -0.19789815543E+02  0.40000000000E+02  0.47000000000E+01 0. -1.
         -5    1    3    3    0  501 -0.60612150599E+01 -0.33904791295E+02  0.19789815543E+02  0.40000000000E+02  0.47000000000E+01 0.  1.
</event>
<event>
 5    1  0.4761089E-001  0.8000000E+02  0.7546771E-02  0.1203772E+00
         11   -1    0    0    0    0  0.00000000000E+00  0.00000000000E+00  0.40000000000E+02  0.40000000000E+02  0.00000000000E+00 0.  1.
        -11   -1    0    0    0    0 -0.00000000000E+00 -0.00000000000E+00 -0.40000000000E+02  0.40000000000E+02  0.00000000000E+00 0. -1.
         23    2    1    2    0    0  0.00000000000E+00  0.00000000000E+00  0.00000000000E+00  0.80000000000E+02  0.80000000000E+02 0.  0.
          5    1    3    3  501    0  0.10671178661E+02 -0.34460119556E+02 -0.16629374798E+02  0.40000000000E+02  0.47000000000E+01 0. -1.
         -5    1    3    3    0  501 -0.10671178661E+02  0.34460119556E+02  0.16629374798E+02  0.40000000000E+02  0.47000000000E+01 0.  1.
</event>
<event>
 5    1  0.4761089E-001  0.8000000E+02  0.7546771E-02  0.1203772E+00
         11   -1    0    0    0    0  0.00000000000E+00  0.00000000000E+00  0.40000000000E+02  0.40000000000E+02  0.00000000000E+00 0. -1.
        -11   -1    0    0    0    0 -0.00000000000E+00 -0.00000000000E+00 -0.40000000000E+02  0.40000000000E+02  0.00000000000E+00 0.  1.
         23    2    1    2    0    0  0.00000000000E+00  0.00000000000E+00  0.00000000000E+00  0.80000000000E+02  0.80000000000E+02 0.  0.
          5    1    3    3  501    0 -0.25118918319E+02 -0.29540577644E+02  0.86199892674E+01  0.40000000000E+02  0.47000000000E+01 0. -1.
         -5    1    3    3    0  501  0.25118918319E+02  0.29540577644E+02 -0.86199892674E+01  0.40000000000E+02  0.47000000000E+01 0.  1.
</event>
<event>
 5    1  0.4761089E-001  0.8000000E+02  0.7546771E-02  0.1203772E+00
         11   -1    0    0    0    0  0.00000000000E+00  0.00000000000E+00  0.40000000000E+02  0.40000000000E+02  0.00000000000E+00 0.  1.
        -11   -1    0    0    0    0 -0.00000000000E+00 -0.00000000000E+00 -0.40000000000E+02  0.40000000000E+02  0.00000000000E+00 0. -1.
         23    2    1    2    0    0  0.00000000000E+00  0.00000000000E+00  0.00000000000E+00  0.80000000000E+02  0.80000000000E+02 0.  0.
          5    1    3    3  501    0 -0.65232907137E+01 -0.20860360151E+02 -0.33169293822E+02  0.40000000000E+02  0.47000000000E+01 0. -1.
         -5    1    3    3    0  501  0.65232907137E+01  0.20860360151E+02  0.33169293822E+02  0.40000000000E+02  0.47000000000E+01 0.  1.
</event>
<event>
 5    1  0.4761089E-001  0.8000000E+02  0.7546771E-02  0.1203772E+00
         11   -1    0    0    0    0  0.00000000000E+00  0.00000000000E+00  0.40000000000E+02  0.40000000000E+02  0.00000000000E+00 0. -1.
        -11   -1    0    0    0    0 -0.00000000000E+00 -0.00000000000E+00 -0.40000000000E+02  0.40000000000E+02  0.00000000000E+00 0.  1.
         23    2    1    2    0    0  0.00000000000E+00  0.00000000000E+00  0.00000000000E+00  0.80000000000E+02  0.80000000000E+02 0.  0.
          5    1    3    3  501    0 -0.18455524014E+02 -0.25834271730E+02  0.23872453529E+02  0.40000000000E+02  0.47000000000E+01 0. -1.
         -5    1    3    3    0  501  0.18455524014E+02  0.25834271730E+02 -0.23872453529E+02  0.40000000000E+02  0.47000000000E+01 0.  1.
</event>
<event>
 5    1  0.4761089E-001  0.8000000E+02  0.7546771E-02  0.1203772E+00
         11   -1    0    0    0    0  0.00000000000E+00  0.00000000000E+00  0.40000000000E+02  0.40000000000E+02  0.00000000000E+00 0.  1.
        -11   -1    0    0    0    0 -0.00000000000E+00 -0.00000000000E+00 -0.40000000000E+02  0.40000000000E+02  0.00000000000E+00 0. -1.
         23    2    1    2    0    0  0.00000000000E+00  0.00000000000E+00  0.00000000000E+00  0.80000000000E+02  0.80000000000E+02 0.  0.
          5    1    3    3  501    0  0.22028875464E+02  0.59490843721E+01 -0.32515335473E+02  0.40000000000E+02  0.47000000000E+01 0. -1.
         -5    1    3    3    0  501 -0.22028875464E+02 -0.59490843721E+01  0.32515335473E+02  0.40000000000E+02  0.47000000000E+01 0.  1.
</event>
<event>
 5    1  0.4761089E-001  0.8000000E+02  0.7546771E-02  0.1203772E+00
         11   -1    0    0    0    0  0.00000000000E+00  0.00000000000E+00  0.40000000000E+02  0.40000000000E+02  0.00000000000E+00 0. -1.
        -11   -1    0    0    0    0 -0.00000000000E+00 -0.00000000000E+00 -0.40000000000E+02  0.40000000000E+02  0.00000000000E+00 0.  1.
         23    2    1    2    0    0  0.00000000000E+00  0.00000000000E+00  0.00000000000E+00  0.80000000000E+02  0.80000000000E+02 0.  0.
          5    1    3    3  501    0 -0.34145889988E+02  0.13090486301E+02  0.15511523630E+02  0.40000000000E+02  0.47000000000E+01 0. -1.
         -5    1    3    3    0  501  0.34145889988E+02 -0.13090486301E+02 -0.15511523630E+02  0.40000000000E+02  0.47000000000E+01 0.  1.
</event>
<event>
 5    1  0.4761089E-001  0.8000000E+02  0.7546771E-02  0.1203772E+00
         11   -1    0    0    0    0  0.00000000000E+00  0.00000000000E+00  0.40000000000E+02  0.40000000000E+02  0.00000000000E+00 0. -1.
        -11   -1    0    0    0    0 -0.00000000000E+00 -0.00000000000E+00 -0.40000000000E+02  0.40000000000E+02  0.00000000000E+00 0.  1.
         23    2    1    2    0    0  0.00000000000E+00  0.00000000000E+00  0.00000000000E+00  0.80000000000E+02  0.80000000000E+02 0.  0.
          5    1    3    3  501    0 -0.11711573067E+02  0.13735177805E+01  0.37932341151E+02  0.40000000000E+02  0.47000000000E+01 0. -1.
         -5    1    3    3    0  501  0.11711573067E+02 -0.13735177805E+01 -0.37932341151E+02  0.40000000000E+02  0.47000000000E+01 0.  1.
</event>
<event>
 5    1  0.4761089E-001  0.8000000E+02  0.7546771E-02  0.1203772E+00
         11   -1    0    0    0    0  0.00000000000E+00  0.00000000000E+00  0.40000000000E+02  0.40000000000E+02  0.00000000000E+00 0.  1.
        -11   -1    0    0    0    0 -0.00000000000E+00 -0.00000000000E+00 -0.40000000000E+02  0.40000000000E+02  0.00000000000E+00 0. -1.
         23    2    1    2    0    0  0.00000000000E+00  0.00000000000E+00  0.00000000000E+00  0.80000000000E+02  0.80000000000E+02 0.  0.
          5    1    3    3  501    0 -0.15640665090E+02  0.36062918519E+02  0.57223686930E+01  0.40000000000E+02  0.47000000000E+01 0. -1.
         -5    1    3    3    0  501  0.15640665090E+02 -0.36062918519E+02 -0.57223686930E+01  0.40000000000E+02  0.47000000000E+01 0.  1.
</event>
<event>
 5    1  0.4761089E-001  0.8000000E+02  0.7546771E-02  0.1203772E+00
         11   -1    0    0    0    0  0.00000000000E+00  0.00000000000E+00  0.40000000000E+02  0.40000000000E+02  0.00000000000E+00 0. -1.
        -11   -1    0    0    0    0 -0.00000000000E+00 -0.00000000000E+00 -0.40000000000E+02  0.40000000000E+02  0.00000000000E+00 0.  1.
         23    2    1    2    0    0  0.00000000000E+00  0.00000000000E+00  0.00000000000E+00  0.80000000000E+02  0.80000000000E+02 0.  0.
          5    1    3    3  501    0 -0.16666407683E+02 -0.80872856735E+01 -0.35138819920E+02  0.40000000000E+02  0.47000000000E+01 0.  1.
         -5    1    3    3    0  501  0.16666407683E+02  0.80872856735E+01  0.35138819920E+02  0.40000000000E+02  0.47000000000E+01 0. -1.
</event>
<event>
 5    1  0.4761089E-001  0.8000000E+02  0.7546771E-02  0.1203772E+00
         11   -1    0    0    0    0  0.00000000000E+00  0.00000000000E+00  0.40000000000E+02  0.40000000000E+02  0.00000000000E+00 0. -1.
        -11   -1    0    0    0    0 -0.00000000000E+00 -0.00000000000E+00 -0.40000000000E+02  0.40000000000E+02  0.00000000000E+00 0.  1.
         23    2    1    2    0    0  0.00000000000E+00  0.00000000000E+00  0.00000000000E+00  0.80000000000E+02  0.80000000000E+02 0.  0.
          5    1    3    3  501    0  0.15931556020E+02  0.18918865552E+02  0.31083308206E+02  0.40000000000E+02  0.47000000000E+01 0. -1.
         -5    1    3    3    0  501 -0.15931556020E+02 -0.18918865552E+02 -0.31083308206E+02  0.40000000000E+02  0.47000000000E+01 0.  1.
</event>
<event>
 5    1  0.4761089E-001  0.8000000E+02  0.7546771E-02  0.1203772E+00
         11   -1    0    0    0    0  0.00000000000E+00  0.00000000000E+00  0.40000000000E+02  0.40000000000E+02  0.00000000000E+00 0. -1.
        -11   -1    0    0    0    0 -0.00000000000E+00 -0.00000000000E+00 -0.40000000000E+02  0.40000000000E+02  0.00000000000E+00 0.  1.
         23    2    1    2    0    0  0.00000000000E+00  0.00000000000E+00  0.00000000000E+00  0.80000000000E+02  0.80000000000E+02 0.  0.
          5    1    3    3  501    0 -0.16215863944E+02  0.30927166073E+02  0.18933202457E+02  0.40000000000E+02  0.47000000000E+01 0. -1.
         -5    1    3    3    0  501  0.16215863944E+02 -0.30927166073E+02 -0.18933202457E+02  0.40000000000E+02  0.47000000000E+01 0.  1.
</event>
<event>
 5    1  0.4761089E-001  0.8000000E+02  0.7546771E-02  0.1203772E+00
         11   -1    0    0    0    0  0.00000000000E+00  0.00000000000E+00  0.40000000000E+02  0.40000000000E+02  0.00000000000E+00 0.  1.
        -11   -1    0    0    0    0 -0.00000000000E+00 -0.00000000000E+00 -0.40000000000E+02  0.40000000000E+02  0.00000000000E+00 0. -1.
         23    2    1    2    0    0  0.00000000000E+00  0.00000000000E+00  0.00000000000E+00  0.80000000000E+02  0.80000000000E+02 0.  0.
          5    1    3    3  501    0  0.16466285769E+02  0.17376697846E+02 -0.31698924350E+02  0.40000000000E+02  0.47000000000E+01 0. -1.
         -5    1    3    3    0  501 -0.16466285769E+02 -0.17376697846E+02  0.31698924350E+02  0.40000000000E+02  0.47000000000E+01 0.  1.
</event>
<event>
 5    1  0.4761089E-001  0.8000000E+02  0.7546771E-02  0.1203772E+00
         11   -1    0    0    0    0  0.00000000000E+00  0.00000000000E+00  0.40000000000E+02  0.40000000000E+02  0.00000000000E+00 0. -1.
        -11   -1    0    0    0    0 -0.00000000000E+00 -0.00000000000E+00 -0.40000000000E+02  0.40000000000E+02  0.00000000000E+00 0.  1.
         23    2    1    2    0    0  0.00000000000E+00  0.00000000000E+00  0.00000000000E+00  0.80000000000E+02  0.80000000000E+02 0.  0.
          5    1    3    3  501    0 -0.14446726249E+02 -0.35686132197E+02  0.97827434557E+01  0.40000000000E+02  0.47000000000E+01 0. -1.
         -5    1    3    3    0  501  0.14446726249E+02  0.35686132197E+02 -0.97827434557E+01  0.40000000000E+02  0.47000000000E+01 0.  1.
</event>
<event>
 5    1  0.4761089E-001  0.8000000E+02  0.7546771E-02  0.1203772E+00
         11   -1    0    0    0    0  0.00000000000E+00  0.00000000000E+00  0.40000000000E+02  0.40000000000E+02  0.00000000000E+00 0. -1.
        -11   -1    0    0    0    0 -0.00000000000E+00 -0.00000000000E+00 -0.40000000000E+02  0.40000000000E+02  0.00000000000E+00 0.  1.
         23    2    1    2    0    0  0.00000000000E+00  0.00000000000E+00  0.00000000000E+00  0.80000000000E+02  0.80000000000E+02 0.  0.
          5    1    3    3  501    0  0.23896498323E+02  0.25822729913E+02 -0.18440552805E+02  0.40000000000E+02  0.47000000000E+01 0. -1.
         -5    1    3    3    0  501 -0.23896498323E+02 -0.25822729913E+02  0.18440552805E+02  0.40000000000E+02  0.47000000000E+01 0.  1.
</event>
<event>
 5    1  0.4761089E-001  0.8000000E+02  0.7546771E-02  0.1203772E+00
         11   -1    0    0    0    0  0.00000000000E+00  0.00000000000E+00  0.40000000000E+02  0.40000000000E+02  0.00000000000E+00 0. -1.
        -11   -1    0    0    0    0 -0.00000000000E+00 -0.00000000000E+00 -0.40000000000E+02  0.40000000000E+02  0.00000000000E+00 0.  1.
         23    2    1    2    0    0  0.00000000000E+00  0.00000000000E+00  0.00000000000E+00  0.80000000000E+02  0.80000000000E+02 0.  0.
          5    1    3    3  501    0  0.62833787222E+01  0.18987992644E+01  0.39176826227E+02  0.40000000000E+02  0.47000000000E+01 0. -1.
         -5    1    3    3    0  501 -0.62833787222E+01 -0.18987992644E+01 -0.39176826227E+02  0.40000000000E+02  0.47000000000E+01 0.  1.
</event>
<event>
 5    1  0.4761089E-001  0.8000000E+02  0.7546771E-02  0.1203772E+00
         11   -1    0    0    0    0  0.00000000000E+00  0.00000000000E+00  0.40000000000E+02  0.40000000000E+02  0.00000000000E+00 0.  1.
        -11   -1    0    0    0    0 -0.00000000000E+00 -0.00000000000E+00 -0.40000000000E+02  0.40000000000E+02  0.00000000000E+00 0. -1.
         23    2    1    2    0    0  0.00000000000E+00  0.00000000000E+00  0.00000000000E+00  0.80000000000E+02  0.80000000000E+02 0.  0.
          5    1    3    3  501    0 -0.11597644887E+02 -0.37360376594E+02 -0.68997749118E+01  0.40000000000E+02  0.47000000000E+01 0. -1.
         -5    1    3    3    0  501  0.11597644887E+02  0.37360376594E+02  0.68997749118E+01  0.40000000000E+02  0.47000000000E+01 0.  1.
</event>
<event>
 5    1  0.4761089E-001  0.8000000E+02  0.7546771E-02  0.1203772E+00
         11   -1    0    0    0    0  0.00000000000E+00  0.00000000000E+00  0.40000000000E+02  0.40000000000E+02  0.00000000000E+00 0.  1.
        -11   -1    0    0    0    0 -0.00000000000E+00 -0.00000000000E+00 -0.40000000000E+02  0.40000000000E+02  0.00000000000E+00 0. -1.
         23    2    1    2    0    0  0.00000000000E+00  0.00000000000E+00  0.00000000000E+00  0.80000000000E+02  0.80000000000E+02 0.  0.
          5    1    3    3  501    0 -0.31628603069E+02 -0.11287516843E+01 -0.24005569927E+02  0.40000000000E+02  0.47000000000E+01 0. -1.
         -5    1    3    3    0  501  0.31628603069E+02  0.11287516843E+01  0.24005569927E+02  0.40000000000E+02  0.47000000000E+01 0.  1.
</event>
<event>
 5    1  0.4761089E-001  0.8000000E+02  0.7546771E-02  0.1203772E+00
         11   -1    0    0    0    0  0.00000000000E+00  0.00000000000E+00  0.40000000000E+02  0.40000000000E+02  0.00000000000E+00 0. -1.
        -11   -1    0    0    0    0 -0.00000000000E+00 -0.00000000000E+00 -0.40000000000E+02  0.40000000000E+02  0.00000000000E+00 0.  1.
         23    2    1    2    0    0  0.00000000000E+00  0.00000000000E+00  0.00000000000E+00  0.80000000000E+02  0.80000000000E+02 0.  0.
          5    1    3    3  501    0  0.13577831316E+02 -0.26006926058E+02  0.26780446109E+02  0.40000000000E+02  0.47000000000E+01 0. -1.
         -5    1    3    3    0  501 -0.13577831316E+02  0.26006926058E+02 -0.26780446109E+02  0.40000000000E+02  0.47000000000E+01 0.  1.
</event>
<event>
 5    1  0.4761089E-001  0.8000000E+02  0.7546771E-02  0.1203772E+00
         11   -1    0    0    0    0  0.00000000000E+00  0.00000000000E+00  0.40000000000E+02  0.40000000000E+02  0.00000000000E+00 0. -1.
        -11   -1    0    0    0    0 -0.00000000000E+00 -0.00000000000E+00 -0.40000000000E+02  0.40000000000E+02  0.00000000000E+00 0.  1.
         23    2    1    2    0    0  0.00000000000E+00  0.00000000000E+00  0.00000000000E+00  0.80000000000E+02  0.80000000000E+02 0.  0.
          5    1    3    3  501    0 -0.38128630052E+02 -0.76149341202E+01  0.81320568551E+01  0.40000000000E+02  0.47000000000E+01 0. -1.
         -5    1    3    3    0  501  0.38128630052E+02  0.76149341202E+01 -0.81320568551E+01  0.40000000000E+02  0.47000000000E+01 0.  1.
</event>
<event>
 5    1  0.4761089E-001  0.8000000E+02  0.7546771E-02  0.1203772E+00
         11   -1    0    0    0    0  0.00000000000E+00  0.00000000000E+00  0.40000000000E+02  0.40000000000E+02  0.00000000000E+00 0. -1.
        -11   -1    0    0    0    0 -0.00000000000E+00 -0.00000000000E+00 -0.40000000000E+02  0.40000000000E+02  0.00000000000E+00 0.  1.
         23    2    1    2    0    0  0.00000000000E+00  0.00000000000E+00  0.00000000000E+00  0.80000000000E+02  0.80000000000E+02 0.  0.
          5    1    3    3  501    0  0.13892642679E+02  0.34648555492E+02 -0.13578736382E+02  0.40000000000E+02  0.47000000000E+01 0. -1.
         -5    1    3    3    0  501 -0.13892642679E+02 -0.34648555492E+02  0.13578736382E+02  0.40000000000E+02  0.47000000000E+01 0.  1.
</event>
<event>
 5    1  0.4761089E-001  0.8000000E+02  0.7546771E-02  0.1203772E+00
         11   -1    0    0    0    0  0.00000000000E+00  0.00000000000E+00  0.40000000000E+02  0.40000000000E+02  0.00000000000E+00 0. -1.
        -11   -1    0    0    0    0 -0.00000000000E+00 -0.00000000000E+00 -0.40000000000E+02  0.40000000000E+02  0.00000000000E+00 0.  1.
         23    2    1    2    0    0  0.00000000000E+00  0.00000000000E+00  0.00000000000E+00  0.80000000000E+02  0.80000000000E+02 0.  0.
          5    1    3    3  501    0 -0.30460048967E+02  0.23943805032E+02 -0.87629685321E+01  0.40000000000E+02  0.47000000000E+01 0. -1.
         -5    1    3    3    0  501  0.30460048967E+02 -0.23943805032E+02  0.87629685321E+01  0.40000000000E+02  0.47000000000E+01 0.  1.
</event>
<event>
 5    1  0.4761089E-001  0.8000000E+02  0.7546771E-02  0.1203772E+00
         11   -1    0    0    0    0  0.00000000000E+00  0.00000000000E+00  0.40000000000E+02  0.40000000000E+02  0.00000000000E+00 0.  1.
        -11   -1    0    0    0    0 -0.00000000000E+00 -0.00000000000E+00 -0.40000000000E+02  0.40000000000E+02  0.00000000000E+00 0. -1.
         23    2    1    2    0    0  0.00000000000E+00  0.00000000000E+00  0.00000000000E+00  0.80000000000E+02  0.80000000000E+02 0.  0.
          5    1    3    3  501    0  0.26333358615E+00  0.37127084994E+02 -0.14121622260E+02  0.40000000000E+02  0.47000000000E+01 0. -1.
         -5    1    3    3    0  501 -0.26333358615E+00 -0.37127084994E+02  0.14121622260E+02  0.40000000000E+02  0.47000000000E+01 0.  1.
</event>
<event>
 5    1  0.4761089E-001  0.8000000E+02  0.7546771E-02  0.1203772E+00
         11   -1    0    0    0    0  0.00000000000E+00  0.00000000000E+00  0.40000000000E+02  0.40000000000E+02  0.00000000000E+00 0.  1.
        -11   -1    0    0    0    0 -0.00000000000E+00 -0.00000000000E+00 -0.40000000000E+02  0.40000000000E+02  0.00000000000E+00 0. -1.
         23    2    1    2    0    0  0.00000000000E+00  0.00000000000E+00  0.00000000000E+00  0.80000000000E+02  0.80000000000E+02 0.  0.
          5    1    3    3  501    0 -0.13796505188E+02  0.16974044602E+02 -0.33157928983E+02  0.40000000000E+02  0.47000000000E+01 0. -1.
         -5    1    3    3    0  501  0.13796505188E+02 -0.16974044602E+02  0.33157928983E+02  0.40000000000E+02  0.47000000000E+01 0.  1.
</event>
<event>
 5    1  0.4761089E-001  0.8000000E+02  0.7546771E-02  0.1203772E+00
         11   -1    0    0    0    0  0.00000000000E+00  0.00000000000E+00  0.40000000000E+02  0.40000000000E+02  0.00000000000E+00 0. -1.
        -11   -1    0    0    0    0 -0.00000000000E+00 -0.00000000000E+00 -0.40000000000E+02  0.40000000000E+02  0.00000000000E+00 0.  1.
         23    2    1    2    0    0  0.00000000000E+00  0.00000000000E+00  0.00000000000E+00  0.80000000000E+02  0.80000000000E+02 0.  0.
          5    1    3    3  501    0  0.55668680467E+01 -0.36445023646E+02 -0.14787840667E+02  0.40000000000E+02  0.47000000000E+01 0.  1.
         -5    1    3    3    0  501 -0.55668680467E+01  0.36445023646E+02  0.14787840667E+02  0.40000000000E+02  0.47000000000E+01 0. -1.
</event>
<event>
 5    1  0.4761089E-001  0.8000000E+02  0.7546771E-02  0.1203772E+00
         11   -1    0    0    0    0  0.00000000000E+00  0.00000000000E+00  0.40000000000E+02  0.40000000000E+02  0.00000000000E+00 0. -1.
        -11   -1    0    0    0    0 -0.00000000000E+00 -0.00000000000E+00 -0.40000000000E+02  0.40000000000E+02  0.00000000000E+00 0.  1.
         23    2    1    2    0    0  0.00000000000E+00  0.00000000000E+00  0.00000000000E+00  0.80000000000E+02  0.80000000000E+02 0.  0.
          5    1    3    3  501    0 -0.28229449892E+02 -0.18843879455E+02  0.20637741298E+02  0.40000000000E+02  0.47000000000E+01 0. -1.
         -5    1    3    3    0  501  0.28229449892E+02  0.18843879455E+02 -0.20637741298E+02  0.40000000000E+02  0.47000000000E+01 0.  1.
</event>
<event>
 5    1  0.4761089E-001  0.8000000E+02  0.7546771E-02  0.1203772E+00
         11   -1    0    0    0    0  0.00000000000E+00  0.00000000000E+00  0.40000000000E+02  0.40000000000E+02  0.00000000000E+00 0.  1.
        -11   -1    0    0    0    0 -0.00000000000E+00 -0.00000000000E+00 -0.40000000000E+02  0.40000000000E+02  0.00000000000E+00 0. -1.
         23    2    1    2    0    0  0.00000000000E+00  0.00000000000E+00  0.00000000000E+00  0.80000000000E+02  0.80000000000E+02 0.  0.
          5    1    3    3  501    0  0.11067709248E+02 -0.93846635738E+01 -0.36977613520E+02  0.40000000000E+02  0.47000000000E+01 0. -1.
         -5    1    3    3    0  501 -0.11067709248E+02  0.93846635738E+01  0.36977613520E+02  0.40000000000E+02  0.47000000000E+01 0.  1.
</event>
<event>
 5    1  0.4761089E-001  0.8000000E+02  0.7546771E-02  0.1203772E+00
         11   -1    0    0    0    0  0.00000000000E+00  0.00000000000E+00  0.40000000000E+02  0.40000000000E+02  0.00000000000E+00 0. -1.
        -11   -1    0    0    0    0 -0.00000000000E+00 -0.00000000000E+00 -0.40000000000E+02  0.40000000000E+02  0.00000000000E+00 0.  1.
         23    2    1    2    0    0  0.00000000000E+00  0.00000000000E+00  0.00000000000E+00  0.80000000000E+02  0.80000000000E+02 0.  0.
          5    1    3    3  501    0  0.69766256678E+01  0.22673128505E+02  0.31861668790E+02  0.40000000000E+02  0.47000000000E+01 0. -1.
         -5    1    3    3    0  501 -0.69766256678E+01 -0.22673128505E+02 -0.31861668790E+02  0.40000000000E+02  0.47000000000E+01 0.  1.
</event>
<event>
 5    1  0.4761089E-001  0.8000000E+02  0.7546771E-02  0.1203772E+00
         11   -1    0    0    0    0  0.00000000000E+00  0.00000000000E+00  0.40000000000E+02  0.40000000000E+02  0.00000000000E+00 0. -1.
        -11   -1    0    0    0    0 -0.00000000000E+00 -0.00000000000E+00 -0.40000000000E+02  0.40000000000E+02  0.00000000000E+00 0.  1.
         23    2    1    2    0    0  0.00000000000E+00  0.00000000000E+00  0.00000000000E+00  0.80000000000E+02  0.80000000000E+02 0.  0.
          5    1    3    3  501    0 -0.90429336529E+01  0.33378991947E+02  0.19544263802E+02  0.40000000000E+02  0.47000000000E+01 0. -1.
         -5    1    3    3    0  501  0.90429336529E+01 -0.33378991947E+02 -0.19544263802E+02  0.40000000000E+02  0.47000000000E+01 0.  1.
</event>
<event>
 5    1  0.4761089E-001  0.8000000E+02  0.7546771E-02  0.1203772E+00
         11   -1    0    0    0    0  0.00000000000E+00  0.00000000000E+00  0.40000000000E+02  0.40000000000E+02  0.00000000000E+00 0. -1.
        -11   -1    0    0    0    0 -0.00000000000E+00 -0.00000000000E+00 -0.40000000000E+02  0.40000000000E+02  0.00000000000E+00 0.  1.
         23    2    1    2    0    0  0.00000000000E+00  0.00000000000E+00  0.00000000000E+00  0.80000000000E+02  0.80000000000E+02 0.  0.
          5    1    3    3  501    0 -0.35123845906E+01  0.44704785875E+00  0.39564798782E+02  0.40000000000E+02  0.47000000000E+01 0. -1.
         -5    1    3    3    0  501  0.35123845906E+01 -0.44704785875E+00 -0.39564798782E+02  0.40000000000E+02  0.47000000000E+01 0.  1.
</event>
<event>
 5    1  0.4761089E-001  0.8000000E+02  0.7546771E-02  0.1203772E+00
         11   -1    0    0    0    0  0.00000000000E+00  0.00000000000E+00  0.40000000000E+02  0.40000000000E+02  0.00000000000E+00 0. -1.
        -11   -1    0    0    0    0 -0.00000000000E+00 -0.00000000000E+00 -0.40000000000E+02  0.40000000000E+02  0.00000000000E+00 0.  1.
         23    2    1    2    0    0  0.00000000000E+00  0.00000000000E+00  0.00000000000E+00  0.80000000000E+02  0.80000000000E+02 0.  0.
          5    1    3    3  501    0  0.82515742647E+01  0.30806550903E+02  0.23680750487E+02  0.40000000000E+02  0.47000000000E+01 0. -1.
         -5    1    3    3    0  501 -0.82515742647E+01 -0.30806550903E+02 -0.23680750487E+02  0.40000000000E+02  0.47000000000E+01 0.  1.
</event>
<event>
 5    1  0.4761089E-001  0.8000000E+02  0.7546771E-02  0.1203772E+00
         11   -1    0    0    0    0  0.00000000000E+00  0.00000000000E+00  0.40000000000E+02  0.40000000000E+02  0.00000000000E+00 0. -1.
        -11   -1    0    0    0    0 -0.00000000000E+00 -0.00000000000E+00 -0.40000000000E+02  0.40000000000E+02  0.00000000000E+00 0.  1.
         23    2    1    2    0    0  0.00000000000E+00  0.00000000000E+00  0.00000000000E+00  0.80000000000E+02  0.80000000000E+02 0.  0.
          5    1    3    3  501    0 -0.36770160530E+01 -0.37094658889E+02  0.13725007645E+02  0.40000000000E+02  0.47000000000E+01 0. -1.
         -5    1    3    3    0  501  0.36770160530E+01  0.37094658889E+02 -0.13725007645E+02  0.40000000000E+02  0.47000000000E+01 0.  1.
</event>
<event>
 5    1  0.4761089E-001  0.8000000E+02  0.7546771E-02  0.1203772E+00
         11   -1    0    0    0    0  0.00000000000E+00  0.00000000000E+00  0.40000000000E+02  0.40000000000E+02  0.00000000000E+00 0.  1.
        -11   -1    0    0    0    0 -0.00000000000E+00 -0.00000000000E+00 -0.40000000000E+02  0.40000000000E+02  0.00000000000E+00 0. -1.
         23    2    1    2    0    0  0.00000000000E+00  0.00000000000E+00  0.00000000000E+00  0.80000000000E+02  0.80000000000E+02 0.  0.
          5    1    3    3  501    0  0.35152391449E+02 -0.11277856828E+02 -0.14663878095E+02  0.40000000000E+02  0.47000000000E+01 0. -1.
         -5    1    3    3    0  501 -0.35152391449E+02  0.11277856828E+02  0.14663878095E+02  0.40000000000E+02  0.47000000000E+01 0.  1.
</event>
<event>
 5    1  0.4761089E-001  0.8000000E+02  0.7546771E-02  0.1203772E+00
         11   -1    0    0    0    0  0.00000000000E+00  0.00000000000E+00  0.40000000000E+02  0.40000000000E+02  0.00000000000E+00 0.  1.
        -11   -1    0    0    0    0 -0.00000000000E+00 -0.00000000000E+00 -0.40000000000E+02  0.40000000000E+02  0.00000000000E+00 0. -1.
         23    2    1    2    0    0  0.00000000000E+00  0.00000000000E+00  0.00000000000E+00  0.80000000000E+02  0.80000000000E+02 0.  0.
          5    1    3    3  501    0  0.16136563456E+02  0.20130882388E+02 -0.30203789400E+02  0.40000000000E+02  0.47000000000E+01 0. -1.
         -5    1    3    3    0  501 -0.16136563456E+02 -0.20130882388E+02  0.30203789400E+02  0.40000000000E+02  0.47000000000E+01 0.  1.
</event>
<event>
 5    1  0.4761089E-001  0.8000000E+02  0.7546771E-02  0.1203772E+00
         11   -1    0    0    0    0  0.00000000000E+00  0.00000000000E+00  0.40000000000E+02  0.40000000000E+02  0.00000000000E+00 0.  1.
        -11   -1    0    0    0    0 -0.00000000000E+00 -0.00000000000E+00 -0.40000000000E+02  0.40000000000E+02  0.00000000000E+00 0. -1.
         23    2    1    2    0    0  0.00000000000E+00  0.00000000000E+00  0.00000000000E+00  0.80000000000E+02  0.80000000000E+02 0.  0.
          5    1    3    3  501    0 -0.32179414707E+02 -0.12581241251E+02  0.19598664182E+02  0.40000000000E+02  0.47000000000E+01 0. -1.
         -5    1    3    3    0  501  0.32179414707E+02  0.12581241251E+02 -0.19598664182E+02  0.40000000000E+02  0.47000000000E+01 0.  1.
</event>
<event>
 5    1  0.4761089E-001  0.8000000E+02  0.7546771E-02  0.1203772E+00
         11   -1    0    0    0    0  0.00000000000E+00  0.00000000000E+00  0.40000000000E+02  0.40000000000E+02  0.00000000000E+00 0.  1.
        -11   -1    0    0    0    0 -0.00000000000E+00 -0.00000000000E+00 -0.40000000000E+02  0.40000000000E+02  0.00000000000E+00 0. -1.
         23    2    1    2    0    0  0.00000000000E+00  0.00000000000E+00  0.00000000000E+00  0.80000000000E+02  0.80000000000E+02 0.  0.
          5    1    3    3  501    0 -0.37390874550E+02  0.12856782571E+02  0.38125637471E+01  0.40000000000E+02  0.47000000000E+01 0. -1.
         -5    1    3    3    0  501  0.37390874550E+02 -0.12856782571E+02 -0.38125637471E+01  0.40000000000E+02  0.47000000000E+01 0.  1.
</event>
<event>
 5    1  0.4761089E-001  0.8000000E+02  0.7546771E-02  0.1203772E+00
         11   -1    0    0    0    0  0.00000000000E+00  0.00000000000E+00  0.40000000000E+02  0.40000000000E+02  0.00000000000E+00 0.  1.
        -11   -1    0    0    0    0 -0.00000000000E+00 -0.00000000000E+00 -0.40000000000E+02  0.40000000000E+02  0.00000000000E+00 0. -1.
         23    2    1    2    0    0  0.00000000000E+00  0.00000000000E+00  0.00000000000E+00  0.80000000000E+02  0.80000000000E+02 0.  0.
          5    1    3    3  501    0 -0.90161177129E+01 -0.80854674542E+01 -0.37831796646E+02  0.40000000000E+02  0.47000000000E+01 0. -1.
         -5    1    3    3    0  501  0.90161177129E+01  0.80854674542E+01  0.37831796646E+02  0.40000000000E+02  0.47000000000E+01 0.  1.
</event>
<event>
 5    1  0.4761089E-001  0.8000000E+02  0.7546771E-02  0.1203772E+00
         11   -1    0    0    0    0  0.00000000000E+00  0.00000000000E+00  0.40000000000E+02  0.40000000000E+02  0.00000000000E+00 0. -1.
        -11   -1    0    0    0    0 -0.00000000000E+00 -0.00000000000E+00 -0.40000000000E+02  0.40000000000E+02  0.00000000000E+00 0.  1.
         23    2    1    2    0    0  0.00000000000E+00  0.00000000000E+00  0.00000000000E+00  0.80000000000E+02  0.80000000000E+02 0.  0.
          5    1    3    3  501    0  0.15060372386E+02  0.84962949101E+01  0.35761825407E+02  0.40000000000E+02  0.47000000000E+01 0. -1.
         -5    1    3    3    0  501 -0.15060372386E+02 -0.84962949101E+01 -0.35761825407E+02  0.40000000000E+02  0.47000000000E+01 0.  1.
</event>
<event>
 5    1  0.4761089E-001  0.8000000E+02  0.7546771E-02  0.1203772E+00
         11   -1    0    0    0    0  0.00000000000E+00  0.00000000000E+00  0.40000000000E+02  0.40000000000E+02  0.00000000000E+00 0. -1.
        -11   -1    0    0    0    0 -0.00000000000E+00 -0.00000000000E+00 -0.40000000000E+02  0.40000000000E+02  0.00000000000E+00 0.  1.
         23    2    1    2    0    0  0.00000000000E+00  0.00000000000E+00  0.00000000000E+00  0.80000000000E+02  0.80000000000E+02 0.  0.
          5    1    3    3  501    0 -0.25383028075E+02  0.17887999949E+02  0.24771583389E+02  0.40000000000E+02  0.47000000000E+01 0. -1.
         -5    1    3    3    0  501  0.25383028075E+02 -0.17887999949E+02 -0.24771583389E+02  0.40000000000E+02  0.47000000000E+01 0.  1.
</event>
<event>
 5    1  0.4761089E-001  0.8000000E+02  0.7546771E-02  0.1203772E+00
         11   -1    0    0    0    0  0.00000000000E+00  0.00000000000E+00  0.40000000000E+02  0.40000000000E+02  0.00000000000E+00 0.  1.
        -11   -1    0    0    0    0 -0.00000000000E+00 -0.00000000000E+00 -0.40000000000E+02  0.40000000000E+02  0.00000000000E+00 0. -1.
         23    2    1    2    0    0  0.00000000000E+00  0.00000000000E+00  0.00000000000E+00  0.80000000000E+02  0.80000000000E+02 0.  0.
          5    1    3    3  501    0  0.67781820441E+01  0.39007031096E+02 -0.32276575494E+01  0.40000000000E+02  0.47000000000E+01 0. -1.
         -5    1    3    3    0  501 -0.67781820441E+01 -0.39007031096E+02  0.32276575494E+01  0.40000000000E+02  0.47000000000E+01 0.  1.
</event>
<event>
 5    1  0.4761089E-001  0.8000000E+02  0.7546771E-02  0.1203772E+00
         11   -1    0    0    0    0  0.00000000000E+00  0.00000000000E+00  0.40000000000E+02  0.40000000000E+02  0.00000000000E+00 0. -1.
        -11   -1    0    0    0    0 -0.00000000000E+00 -0.00000000000E+00 -0.40000000000E+02  0.40000000000E+02  0.00000000000E+00 0.  1.
         23    2    1    2    0    0  0.00000000000E+00  0.00000000000E+00  0.00000000000E+00  0.80000000000E+02  0.80000000000E+02 0.  0.
          5    1    3    3  501    0 -0.82016990171E+01 -0.38148775795E+02  0.74372735979E+01  0.40000000000E+02  0.47000000000E+01 0. -1.
         -5    1    3    3    0  501  0.82016990171E+01  0.38148775795E+02 -0.74372735979E+01  0.40000000000E+02  0.47000000000E+01 0.  1.
</event>
<event>
 5    1  0.4761089E-001  0.8000000E+02  0.7546771E-02  0.1203772E+00
         11   -1    0    0    0    0  0.00000000000E+00  0.00000000000E+00  0.40000000000E+02  0.40000000000E+02  0.00000000000E+00 0. -1.
        -11   -1    0    0    0    0 -0.00000000000E+00 -0.00000000000E+00 -0.40000000000E+02  0.40000000000E+02  0.00000000000E+00 0.  1.
         23    2    1    2    0    0  0.00000000000E+00  0.00000000000E+00  0.00000000000E+00  0.80000000000E+02  0.80000000000E+02 0.  0.
          5    1    3    3  501    0  0.39084776419E+02 -0.70354840852E+01  0.89006513022E+00  0.40000000000E+02  0.47000000000E+01 0. -1.
         -5    1    3    3    0  501 -0.39084776419E+02  0.70354840852E+01 -0.89006513022E+00  0.40000000000E+02  0.47000000000E+01 0.  1.
</event>
<event>
 5    1  0.4761089E-001  0.8000000E+02  0.7546771E-02  0.1203772E+00
         11   -1    0    0    0    0  0.00000000000E+00  0.00000000000E+00  0.40000000000E+02  0.40000000000E+02  0.00000000000E+00 0.  1.
        -11   -1    0    0    0    0 -0.00000000000E+00 -0.00000000000E+00 -0.40000000000E+02  0.40000000000E+02  0.00000000000E+00 0. -1.
         23    2    1    2    0    0  0.00000000000E+00  0.00000000000E+00  0.00000000000E+00  0.80000000000E+02  0.80000000000E+02 0.  0.
          5    1    3    3  501    0  0.34338296255E+02 -0.40005139397E+01 -0.19564950768E+02  0.40000000000E+02  0.47000000000E+01 0. -1.
         -5    1    3    3    0  501 -0.34338296255E+02  0.40005139397E+01  0.19564950768E+02  0.40000000000E+02  0.47000000000E+01 0.  1.
</event>
<event>
 5    1  0.4761089E-001  0.8000000E+02  0.7546771E-02  0.1203772E+00
         11   -1    0    0    0    0  0.00000000000E+00  0.00000000000E+00  0.40000000000E+02  0.40000000000E+02  0.00000000000E+00 0.  1.
        -11   -1    0    0    0    0 -0.00000000000E+00 -0.00000000000E+00 -0.40000000000E+02  0.40000000000E+02  0.00000000000E+00 0. -1.
         23    2    1    2    0    0  0.00000000000E+00  0.00000000000E+00  0.00000000000E+00  0.80000000000E+02  0.80000000000E+02 0.  0.
          5    1    3    3  501    0 -0.36896529645E+02  0.14643987774E+02  0.14524882722E+01  0.40000000000E+02  0.47000000000E+01 0. -1.
         -5    1    3    3    0  501  0.36896529645E+02 -0.14643987774E+02 -0.14524882722E+01  0.40000000000E+02  0.47000000000E+01 0.  1.
</event>
<event>
 5    1  0.4761089E-001  0.8000000E+02  0.7546771E-02  0.1203772E+00
         11   -1    0    0    0    0  0.00000000000E+00  0.00000000000E+00  0.40000000000E+02  0.40000000000E+02  0.00000000000E+00 0.  1.
        -11   -1    0    0    0    0 -0.00000000000E+00 -0.00000000000E+00 -0.40000000000E+02  0.40000000000E+02  0.00000000000E+00 0. -1.
         23    2    1    2    0    0  0.00000000000E+00  0.00000000000E+00  0.00000000000E+00  0.80000000000E+02  0.80000000000E+02 0.  0.
          5    1    3    3  501    0 -0.72636051802E+00  0.22363572735E+02 -0.32821532793E+02  0.40000000000E+02  0.47000000000E+01 0. -1.
         -5    1    3    3    0  501  0.72636051802E+00 -0.22363572735E+02  0.32821532793E+02  0.40000000000E+02  0.47000000000E+01 0.  1.
</event>
<event>
 5    1  0.4761089E-001  0.8000000E+02  0.7546771E-02  0.1203772E+00
         11   -1    0    0    0    0  0.00000000000E+00  0.00000000000E+00  0.40000000000E+02  0.40000000000E+02  0.00000000000E+00 0. -1.
        -11   -1    0    0    0    0 -0.00000000000E+00 -0.00000000000E+00 -0.40000000000E+02  0.40000000000E+02  0.00000000000E+00 0.  1.
         23    2    1    2    0    0  0.00000000000E+00  0.00000000000E+00  0.00000000000E+00  0.80000000000E+02  0.80000000000E+02 0.  0.
          5    1    3    3  501    0 -0.19965813132E+02  0.61263936828E+00  0.34335127479E+02  0.40000000000E+02  0.47000000000E+01 0. -1.
         -5    1    3    3    0  501  0.19965813132E+02 -0.61263936828E+00 -0.34335127479E+02  0.40000000000E+02  0.47000000000E+01 0.  1.
</event>
<event>
 5    1  0.4761089E-001  0.8000000E+02  0.7546771E-02  0.1203772E+00
         11   -1    0    0    0    0  0.00000000000E+00  0.00000000000E+00  0.40000000000E+02  0.40000000000E+02  0.00000000000E+00 0.  1.
        -11   -1    0    0    0    0 -0.00000000000E+00 -0.00000000000E+00 -0.40000000000E+02  0.40000000000E+02  0.00000000000E+00 0. -1.
         23    2    1    2    0    0  0.00000000000E+00  0.00000000000E+00  0.00000000000E+00  0.80000000000E+02  0.80000000000E+02 0.  0.
          5    1    3    3  501    0  0.15666323522E+02  0.30892809616E+02 -0.19445066761E+02  0.40000000000E+02  0.47000000000E+01 0. -1.
         -5    1    3    3    0  501 -0.15666323522E+02 -0.30892809616E+02  0.19445066761E+02  0.40000000000E+02  0.47000000000E+01 0.  1.
</event>
<event>
 5    1  0.4761089E-001  0.8000000E+02  0.7546771E-02  0.1203772E+00
         11   -1    0    0    0    0  0.00000000000E+00  0.00000000000E+00  0.40000000000E+02  0.40000000000E+02  0.00000000000E+00 0. -1.
        -11   -1    0    0    0    0 -0.00000000000E+00 -0.00000000000E+00 -0.40000000000E+02  0.40000000000E+02  0.00000000000E+00 0.  1.
         23    2    1    2    0    0  0.00000000000E+00  0.00000000000E+00  0.00000000000E+00  0.80000000000E+02  0.80000000000E+02 0.  0.
          5    1    3    3  501    0 -0.18437731026E+02  0.92882971585E+01  0.33936523253E+02  0.40000000000E+02  0.47000000000E+01 0. -1.
         -5    1    3    3    0  501  0.18437731026E+02 -0.92882971585E+01 -0.33936523253E+02  0.40000000000E+02  0.47000000000E+01 0.  1.
</event>
<event>
 5    1  0.4761089E-001  0.8000000E+02  0.7546771E-02  0.1203772E+00
         11   -1    0    0    0    0  0.00000000000E+00  0.00000000000E+00  0.40000000000E+02  0.40000000000E+02  0.00000000000E+00 0. -1.
        -11   -1    0    0    0    0 -0.00000000000E+00 -0.00000000000E+00 -0.40000000000E+02  0.40000000000E+02  0.00000000000E+00 0.  1.
         23    2    1    2    0    0  0.00000000000E+00  0.00000000000E+00  0.00000000000E+00  0.80000000000E+02  0.80000000000E+02 0.  0.
          5    1    3    3  501    0  0.14632683650E+02  0.18131412476E+01  0.36885052366E+02  0.40000000000E+02  0.47000000000E+01 0. -1.
         -5    1    3    3    0  501 -0.14632683650E+02 -0.18131412476E+01 -0.36885052366E+02  0.40000000000E+02  0.47000000000E+01 0.  1.
</event>
<event>
 5    1  0.4761089E-001  0.8000000E+02  0.7546771E-02  0.1203772E+00
         11   -1    0    0    0    0  0.00000000000E+00  0.00000000000E+00  0.40000000000E+02  0.40000000000E+02  0.00000000000E+00 0.  1.
        -11   -1    0    0    0    0 -0.00000000000E+00 -0.00000000000E+00 -0.40000000000E+02  0.40000000000E+02  0.00000000000E+00 0. -1.
         23    2    1    2    0    0  0.00000000000E+00  0.00000000000E+00  0.00000000000E+00  0.80000000000E+02  0.80000000000E+02 0.  0.
          5    1    3    3  501    0 -0.31589379091E+02 -0.10446333664E+02 -0.21700120774E+02  0.40000000000E+02  0.47000000000E+01 0. -1.
         -5    1    3    3    0  501  0.31589379091E+02  0.10446333664E+02  0.21700120774E+02  0.40000000000E+02  0.47000000000E+01 0.  1.
</event>
<event>
 5    1  0.4761089E-001  0.8000000E+02  0.7546771E-02  0.1203772E+00
         11   -1    0    0    0    0  0.00000000000E+00  0.00000000000E+00  0.40000000000E+02  0.40000000000E+02  0.00000000000E+00 0. -1.
        -11   -1    0    0    0    0 -0.00000000000E+00 -0.00000000000E+00 -0.40000000000E+02  0.40000000000E+02  0.00000000000E+00 0.  1.
         23    2    1    2    0    0  0.00000000000E+00  0.00000000000E+00  0.00000000000E+00  0.80000000000E+02  0.80000000000E+02 0.  0.
          5    1    3    3  501    0 -0.28086431146E+02 -0.97599226121E+01  0.26340203038E+02  0.40000000000E+02  0.47000000000E+01 0. -1.
         -5    1    3    3    0  501  0.28086431146E+02  0.97599226121E+01 -0.26340203038E+02  0.40000000000E+02  0.47000000000E+01 0.  1.
</event>
<event>
 5    1  0.4761089E-001  0.8000000E+02  0.7546771E-02  0.1203772E+00
         11   -1    0    0    0    0  0.00000000000E+00  0.00000000000E+00  0.40000000000E+02  0.40000000000E+02  0.00000000000E+00 0. -1.
        -11   -1    0    0    0    0 -0.00000000000E+00 -0.00000000000E+00 -0.40000000000E+02  0.40000000000E+02  0.00000000000E+00 0.  1.
         23    2    1    2    0    0  0.00000000000E+00  0.00000000000E+00  0.00000000000E+00  0.80000000000E+02  0.80000000000E+02 0.  0.
          5    1    3    3  501    0  0.30800523783E+02 -0.11873536921E+02  0.22096534925E+02  0.40000000000E+02  0.47000000000E+01 0. -1.
         -5    1    3    3    0  501 -0.30800523783E+02  0.11873536921E+02 -0.22096534925E+02  0.40000000000E+02  0.47000000000E+01 0.  1.
</event>
<event>
 5    1  0.4761089E-001  0.8000000E+02  0.7546771E-02  0.1203772E+00
         11   -1    0    0    0    0  0.00000000000E+00  0.00000000000E+00  0.40000000000E+02  0.40000000000E+02  0.00000000000E+00 0.  1.
        -11   -1    0    0    0    0 -0.00000000000E+00 -0.00000000000E+00 -0.40000000000E+02  0.40000000000E+02  0.00000000000E+00 0. -1.
         23    2    1    2    0    0  0.00000000000E+00  0.00000000000E+00  0.00000000000E+00  0.80000000000E+02  0.80000000000E+02 0.  0.
          5    1    3    3  501    0  0.13027106860E+02  0.32169538422E+02 -0.19321627379E+02  0.40000000000E+02  0.47000000000E+01 0. -1.
         -5    1    3    3    0  501 -0.13027106860E+02 -0.32169538422E+02  0.19321627379E+02  0.40000000000E+02  0.47000000000E+01 0.  1.
</event>
<event>
 5    1  0.4761089E-001  0.8000000E+02  0.7546771E-02  0.1203772E+00
         11   -1    0    0    0    0  0.00000000000E+00  0.00000000000E+00  0.40000000000E+02  0.40000000000E+02  0.00000000000E+00 0.  1.
        -11   -1    0    0    0    0 -0.00000000000E+00 -0.00000000000E+00 -0.40000000000E+02  0.40000000000E+02  0.00000000000E+00 0. -1.
         23    2    1    2    0    0  0.00000000000E+00  0.00000000000E+00  0.00000000000E+00  0.80000000000E+02  0.80000000000E+02 0.  0.
          5    1    3    3  501    0 -0.20681203535E+02 -0.32629305230E+02 -0.92480409044E+01  0.40000000000E+02  0.47000000000E+01 0. -1.
         -5    1    3    3    0  501  0.20681203535E+02  0.32629305230E+02  0.92480409044E+01  0.40000000000E+02  0.47000000000E+01 0.  1.
</event>
<event>
 5    1  0.4761089E-001  0.8000000E+02  0.7546771E-02  0.1203772E+00
         11   -1    0    0    0    0  0.00000000000E+00  0.00000000000E+00  0.40000000000E+02  0.40000000000E+02  0.00000000000E+00 0. -1.
        -11   -1    0    0    0    0 -0.00000000000E+00 -0.00000000000E+00 -0.40000000000E+02  0.40000000000E+02  0.00000000000E+00 0.  1.
         23    2    1    2    0    0  0.00000000000E+00  0.00000000000E+00  0.00000000000E+00  0.80000000000E+02  0.80000000000E+02 0.  0.
          5    1    3    3  501    0 -0.38995510438E+02 -0.36481679497E+01 -0.66295577733E+01  0.40000000000E+02  0.47000000000E+01 0. -1.
         -5    1    3    3    0  501  0.38995510438E+02  0.36481679497E+01  0.66295577733E+01  0.40000000000E+02  0.47000000000E+01 0.  1.
</event>
<event>
 5    1  0.4761089E-001  0.8000000E+02  0.7546771E-02  0.1203772E+00
         11   -1    0    0    0    0  0.00000000000E+00  0.00000000000E+00  0.40000000000E+02  0.40000000000E+02  0.00000000000E+00 0.  1.
        -11   -1    0    0    0    0 -0.00000000000E+00 -0.00000000000E+00 -0.40000000000E+02  0.40000000000E+02  0.00000000000E+00 0. -1.
         23    2    1    2    0    0  0.00000000000E+00  0.00000000000E+00  0.00000000000E+00  0.80000000000E+02  0.80000000000E+02 0.  0.
          5    1    3    3  501    0  0.12598530987E+02 -0.10252450827E+02 -0.36250162331E+02  0.40000000000E+02  0.47000000000E+01 0. -1.
         -5    1    3    3    0  501 -0.12598530987E+02  0.10252450827E+02  0.36250162331E+02  0.40000000000E+02  0.47000000000E+01 0.  1.
</event>
<event>
 5    1  0.4761089E-001  0.8000000E+02  0.7546771E-02  0.1203772E+00
         11   -1    0    0    0    0  0.00000000000E+00  0.00000000000E+00  0.40000000000E+02  0.40000000000E+02  0.00000000000E+00 0. -1.
        -11   -1    0    0    0    0 -0.00000000000E+00 -0.00000000000E+00 -0.40000000000E+02  0.40000000000E+02  0.00000000000E+00 0.  1.
         23    2    1    2    0    0  0.00000000000E+00  0.00000000000E+00  0.00000000000E+00  0.80000000000E+02  0.80000000000E+02 0.  0.
          5    1    3    3  501    0  0.29250511061E+02  0.23354812784E+02  0.13299260224E+02  0.40000000000E+02  0.47000000000E+01 0. -1.
         -5    1    3    3    0  501 -0.29250511061E+02 -0.23354812784E+02 -0.13299260224E+02  0.40000000000E+02  0.47000000000E+01 0.  1.
</event>
<event>
 5    1  0.4761089E-001  0.8000000E+02  0.7546771E-02  0.1203772E+00
         11   -1    0    0    0    0  0.00000000000E+00  0.00000000000E+00  0.40000000000E+02  0.40000000000E+02  0.00000000000E+00 0.  1.
        -11   -1    0    0    0    0 -0.00000000000E+00 -0.00000000000E+00 -0.40000000000E+02  0.40000000000E+02  0.00000000000E+00 0. -1.
         23    2    1    2    0    0  0.00000000000E+00  0.00000000000E+00  0.00000000000E+00  0.80000000000E+02  0.80000000000E+02 0.  0.
          5    1    3    3  501    0 -0.30610428061E+02 -0.13653594103E+02 -0.21318795979E+02  0.40000000000E+02  0.47000000000E+01 0. -1.
         -5    1    3    3    0  501  0.30610428061E+02  0.13653594103E+02  0.21318795979E+02  0.40000000000E+02  0.47000000000E+01 0.  1.
</event>
<event>
 5    1  0.4761089E-001  0.8000000E+02  0.7546771E-02  0.1203772E+00
         11   -1    0    0    0    0  0.00000000000E+00  0.00000000000E+00  0.40000000000E+02  0.40000000000E+02  0.00000000000E+00 0.  1.
        -11   -1    0    0    0    0 -0.00000000000E+00 -0.00000000000E+00 -0.40000000000E+02  0.40000000000E+02  0.00000000000E+00 0. -1.
         23    2    1    2    0    0  0.00000000000E+00  0.00000000000E+00  0.00000000000E+00  0.80000000000E+02  0.80000000000E+02 0.  0.
          5    1    3    3  501    0 -0.29291659060E+02 -0.90389601859E+01 -0.25262737545E+02  0.40000000000E+02  0.47000000000E+01 0. -1.
         -5    1    3    3    0  501  0.29291659060E+02  0.90389601859E+01  0.25262737545E+02  0.40000000000E+02  0.47000000000E+01 0.  1.
</event>
<event>
 5    1  0.4761089E-001  0.8000000E+02  0.7546771E-02  0.1203772E+00
         11   -1    0    0    0    0  0.00000000000E+00  0.00000000000E+00  0.40000000000E+02  0.40000000000E+02  0.00000000000E+00 0. -1.
        -11   -1    0    0    0    0 -0.00000000000E+00 -0.00000000000E+00 -0.40000000000E+02  0.40000000000E+02  0.00000000000E+00 0.  1.
         23    2    1    2    0    0  0.00000000000E+00  0.00000000000E+00  0.00000000000E+00  0.80000000000E+02  0.80000000000E+02 0.  0.
          5    1    3    3  501    0 -0.32693447018E+02  0.28135325363E+01 -0.22385990188E+02  0.40000000000E+02  0.47000000000E+01 0.  1.
         -5    1    3    3    0  501  0.32693447018E+02 -0.28135325363E+01  0.22385990188E+02  0.40000000000E+02  0.47000000000E+01 0. -1.
</event>
<event>
 5    1  0.4761089E-001  0.8000000E+02  0.7546771E-02  0.1203772E+00
         11   -1    0    0    0    0  0.00000000000E+00  0.00000000000E+00  0.40000000000E+02  0.40000000000E+02  0.00000000000E+00 0. -1.
        -11   -1    0    0    0    0 -0.00000000000E+00 -0.00000000000E+00 -0.40000000000E+02  0.40000000000E+02  0.00000000000E+00 0.  1.
         23    2    1    2    0    0  0.00000000000E+00  0.00000000000E+00  0.00000000000E+00  0.80000000000E+02  0.80000000000E+02 0.  0.
          5    1    3    3  501    0  0.29708815581E+02  0.22293802759E+00  0.26367528808E+02  0.40000000000E+02  0.47000000000E+01 0. -1.
         -5    1    3    3    0  501 -0.29708815581E+02 -0.22293802759E+00 -0.26367528808E+02  0.40000000000E+02  0.47000000000E+01 0.  1.
</event>
<event>
 5    1  0.4761089E-001  0.8000000E+02  0.7546771E-02  0.1203772E+00
         11   -1    0    0    0    0  0.00000000000E+00  0.00000000000E+00  0.40000000000E+02  0.40000000000E+02  0.00000000000E+00 0.  1.
        -11   -1    0    0    0    0 -0.00000000000E+00 -0.00000000000E+00 -0.40000000000E+02  0.40000000000E+02  0.00000000000E+00 0. -1.
         23    2    1    2    0    0  0.00000000000E+00  0.00000000000E+00  0.00000000000E+00  0.80000000000E+02  0.80000000000E+02 0.  0.
          5    1    3    3  501    0  0.73203856698E+01 -0.38073864199E+02  0.86430792309E+01  0.40000000000E+02  0.47000000000E+01 0. -1.
         -5    1    3    3    0  501 -0.73203856698E+01  0.38073864199E+02 -0.86430792309E+01  0.40000000000E+02  0.47000000000E+01 0.  1.
</event>
<event>
 5    1  0.4761089E-001  0.8000000E+02  0.7546771E-02  0.1203772E+00
         11   -1    0    0    0    0  0.00000000000E+00  0.00000000000E+00  0.40000000000E+02  0.40000000000E+02  0.00000000000E+00 0. -1.
        -11   -1    0    0    0    0 -0.00000000000E+00 -0.00000000000E+00 -0.40000000000E+02  0.40000000000E+02  0.00000000000E+00 0.  1.
         23    2    1    2    0    0  0.00000000000E+00  0.00000000000E+00  0.00000000000E+00  0.80000000000E+02  0.80000000000E+02 0.  0.
          5    1    3    3  501    0  0.17141680612E+02  0.24902288645E+02 -0.25767204079E+02  0.40000000000E+02  0.47000000000E+01 0.  1.
         -5    1    3    3    0  501 -0.17141680612E+02 -0.24902288645E+02  0.25767204079E+02  0.40000000000E+02  0.47000000000E+01 0. -1.
</event>
<event>
 5    1  0.4761089E-001  0.8000000E+02  0.7546771E-02  0.1203772E+00
         11   -1    0    0    0    0  0.00000000000E+00  0.00000000000E+00  0.40000000000E+02  0.40000000000E+02  0.00000000000E+00 0. -1.
        -11   -1    0    0    0    0 -0.00000000000E+00 -0.00000000000E+00 -0.40000000000E+02  0.40000000000E+02  0.00000000000E+00 0.  1.
         23    2    1    2    0    0  0.00000000000E+00  0.00000000000E+00  0.00000000000E+00  0.80000000000E+02  0.80000000000E+02 0.  0.
          5    1    3    3  501    0 -0.16418827270E+02  0.33141826113E+02  0.14489702308E+02  0.40000000000E+02  0.47000000000E+01 0. -1.
         -5    1    3    3    0  501  0.16418827270E+02 -0.33141826113E+02 -0.14489702308E+02  0.40000000000E+02  0.47000000000E+01 0.  1.
</event>
<event>
 5    1  0.4761089E-001  0.8000000E+02  0.7546771E-02  0.1203772E+00
         11   -1    0    0    0    0  0.00000000000E+00  0.00000000000E+00  0.40000000000E+02  0.40000000000E+02  0.00000000000E+00 0. -1.
        -11   -1    0    0    0    0 -0.00000000000E+00 -0.00000000000E+00 -0.40000000000E+02  0.40000000000E+02  0.00000000000E+00 0.  1.
         23    2    1    2    0    0  0.00000000000E+00  0.00000000000E+00  0.00000000000E+00  0.80000000000E+02  0.80000000000E+02 0.  0.
          5    1    3    3  501    0 -0.19383553007E+02 -0.32156261957E+02  0.12967755772E+02  0.40000000000E+02  0.47000000000E+01 0. -1.
         -5    1    3    3    0  501  0.19383553007E+02  0.32156261957E+02 -0.12967755772E+02  0.40000000000E+02  0.47000000000E+01 0.  1.
</event>
<event>
 5    1  0.4761089E-001  0.8000000E+02  0.7546771E-02  0.1203772E+00
         11   -1    0    0    0    0  0.00000000000E+00  0.00000000000E+00  0.40000000000E+02  0.40000000000E+02  0.00000000000E+00 0. -1.
        -11   -1    0    0    0    0 -0.00000000000E+00 -0.00000000000E+00 -0.40000000000E+02  0.40000000000E+02  0.00000000000E+00 0.  1.
         23    2    1    2    0    0  0.00000000000E+00  0.00000000000E+00  0.00000000000E+00  0.80000000000E+02  0.80000000000E+02 0.  0.
          5    1    3    3  501    0  0.18522676031E+01  0.32920483683E+02  0.22152220177E+02  0.40000000000E+02  0.47000000000E+01 0. -1.
         -5    1    3    3    0  501 -0.18522676031E+01 -0.32920483683E+02 -0.22152220177E+02  0.40000000000E+02  0.47000000000E+01 0.  1.
</event>
<event>
 5    1  0.4761089E-001  0.8000000E+02  0.7546771E-02  0.1203772E+00
         11   -1    0    0    0    0  0.00000000000E+00  0.00000000000E+00  0.40000000000E+02  0.40000000000E+02  0.00000000000E+00 0. -1.
        -11   -1    0    0    0    0 -0.00000000000E+00 -0.00000000000E+00 -0.40000000000E+02  0.40000000000E+02  0.00000000000E+00 0.  1.
         23    2    1    2    0    0  0.00000000000E+00  0.00000000000E+00  0.00000000000E+00  0.80000000000E+02  0.80000000000E+02 0.  0.
          5    1    3    3  501    0 -0.25487407459E+02 -0.79846870468E+01  0.29403177274E+02  0.40000000000E+02  0.47000000000E+01 0. -1.
         -5    1    3    3    0  501  0.25487407459E+02  0.79846870468E+01 -0.29403177274E+02  0.40000000000E+02  0.47000000000E+01 0.  1.
</event>
<event>
 5    1  0.4761089E-001  0.8000000E+02  0.7546771E-02  0.1203772E+00
         11   -1    0    0    0    0  0.00000000000E+00  0.00000000000E+00  0.40000000000E+02  0.40000000000E+02  0.00000000000E+00 0. -1.
        -11   -1    0    0    0    0 -0.00000000000E+00 -0.00000000000E+00 -0.40000000000E+02  0.40000000000E+02  0.00000000000E+00 0.  1.
         23    2    1    2    0    0  0.00000000000E+00  0.00000000000E+00  0.00000000000E+00  0.80000000000E+02  0.80000000000E+02 0.  0.
          5    1    3    3  501    0  0.34402722198E+02 -0.58005773713E+01  0.18992525043E+02  0.40000000000E+02  0.47000000000E+01 0. -1.
         -5    1    3    3    0  501 -0.34402722198E+02  0.58005773713E+01 -0.18992525043E+02  0.40000000000E+02  0.47000000000E+01 0.  1.
</event>
<event>
 5    1  0.4761089E-001  0.8000000E+02  0.7546771E-02  0.1203772E+00
         11   -1    0    0    0    0  0.00000000000E+00  0.00000000000E+00  0.40000000000E+02  0.40000000000E+02  0.00000000000E+00 0.  1.
        -11   -1    0    0    0    0 -0.00000000000E+00 -0.00000000000E+00 -0.40000000000E+02  0.40000000000E+02  0.00000000000E+00 0. -1.
         23    2    1    2    0    0  0.00000000000E+00  0.00000000000E+00  0.00000000000E+00  0.80000000000E+02  0.80000000000E+02 0.  0.
          5    1    3    3  501    0  0.37014107633E+02 -0.13989111922E+02 -0.34886363808E+01  0.40000000000E+02  0.47000000000E+01 0. -1.
         -5    1    3    3    0  501 -0.37014107633E+02  0.13989111922E+02  0.34886363808E+01  0.40000000000E+02  0.47000000000E+01 0.  1.
</event>
<event>
 5    1  0.4761089E-001  0.8000000E+02  0.7546771E-02  0.1203772E+00
         11   -1    0    0    0    0  0.00000000000E+00  0.00000000000E+00  0.40000000000E+02  0.40000000000E+02  0.00000000000E+00 0. -1.
        -11   -1    0    0    0    0 -0.00000000000E+00 -0.00000000000E+00 -0.40000000000E+02  0.40000000000E+02  0.00000000000E+00 0.  1.
         23    2    1    2    0    0  0.00000000000E+00  0.00000000000E+00  0.00000000000E+00  0.80000000000E+02  0.80000000000E+02 0.  0.
          5    1    3    3  501    0 -0.19255765938E+01 -0.33171905761E+01  0.39537303923E+02  0.40000000000E+02  0.47000000000E+01 0. -1.
         -5    1    3    3    0  501  0.19255765938E+01  0.33171905761E+01 -0.39537303923E+02  0.40000000000E+02  0.47000000000E+01 0.  1.
</event>
<event>
 5    1  0.4761089E-001  0.8000000E+02  0.7546771E-02  0.1203772E+00
         11   -1    0    0    0    0  0.00000000000E+00  0.00000000000E+00  0.40000000000E+02  0.40000000000E+02  0.00000000000E+00 0. -1.
        -11   -1    0    0    0    0 -0.00000000000E+00 -0.00000000000E+00 -0.40000000000E+02  0.40000000000E+02  0.00000000000E+00 0.  1.
         23    2    1    2    0    0  0.00000000000E+00  0.00000000000E+00  0.00000000000E+00  0.80000000000E+02  0.80000000000E+02 0.  0.
          5    1    3    3  501    0 -0.23872300555E+02 -0.23866059442E+02  0.20938826923E+02  0.40000000000E+02  0.47000000000E+01 0. -1.
         -5    1    3    3    0  501  0.23872300555E+02  0.23866059442E+02 -0.20938826923E+02  0.40000000000E+02  0.47000000000E+01 0.  1.
</event>
<event>
 5    1  0.4761089E-001  0.8000000E+02  0.7546771E-02  0.1203772E+00
         11   -1    0    0    0    0  0.00000000000E+00  0.00000000000E+00  0.40000000000E+02  0.40000000000E+02  0.00000000000E+00 0.  1.
        -11   -1    0    0    0    0 -0.00000000000E+00 -0.00000000000E+00 -0.40000000000E+02  0.40000000000E+02  0.00000000000E+00 0. -1.
         23    2    1    2    0    0  0.00000000000E+00  0.00000000000E+00  0.00000000000E+00  0.80000000000E+02  0.80000000000E+02 0.  0.
          5    1    3    3  501    0  0.31530704799E+02 -0.89195704531E+01 -0.22453639300E+02  0.40000000000E+02  0.47000000000E+01 0. -1.
         -5    1    3    3    0  501 -0.31530704799E+02  0.89195704531E+01  0.22453639300E+02  0.40000000000E+02  0.47000000000E+01 0.  1.
</event>
<event>
 5    1  0.4761089E-001  0.8000000E+02  0.7546771E-02  0.1203772E+00
         11   -1    0    0    0    0  0.00000000000E+00  0.00000000000E+00  0.40000000000E+02  0.40000000000E+02  0.00000000000E+00 0. -1.
        -11   -1    0    0    0    0 -0.00000000000E+00 -0.00000000000E+00 -0.40000000000E+02  0.40000000000E+02  0.00000000000E+00 0.  1.
         23    2    1    2    0    0  0.00000000000E+00  0.00000000000E+00  0.00000000000E+00  0.80000000000E+02  0.80000000000E+02 0.  0.
          5    1    3    3  501    0 -0.39123951466E+02 -0.67164647025E+01 -0.14544839613E+01  0.40000000000E+02  0.47000000000E+01 0. -1.
         -5    1    3    3    0  501  0.39123951466E+02  0.67164647025E+01  0.14544839613E+01  0.40000000000E+02  0.47000000000E+01 0.  1.
</event>
<event>
 5    1  0.4761089E-001  0.8000000E+02  0.7546771E-02  0.1203772E+00
         11   -1    0    0    0    0  0.00000000000E+00  0.00000000000E+00  0.40000000000E+02  0.40000000000E+02  0.00000000000E+00 0.  1.
        -11   -1    0    0    0    0 -0.00000000000E+00 -0.00000000000E+00 -0.40000000000E+02  0.40000000000E+02  0.00000000000E+00 0. -1.
         23    2    1    2    0    0  0.00000000000E+00  0.00000000000E+00  0.00000000000E+00  0.80000000000E+02  0.80000000000E+02 0.  0.
          5    1    3    3  501    0  0.37751749026E+02 -0.12126125060E+02  0.23817087420E+01  0.40000000000E+02  0.47000000000E+01 0. -1.
         -5    1    3    3    0  501 -0.37751749026E+02  0.12126125060E+02 -0.23817087420E+01  0.40000000000E+02  0.47000000000E+01 0.  1.
</event>
<event>
 5    1  0.4761089E-001  0.8000000E+02  0.7546771E-02  0.1203772E+00
         11   -1    0    0    0    0  0.00000000000E+00  0.00000000000E+00  0.40000000000E+02  0.40000000000E+02  0.00000000000E+00 0.  1.
        -11   -1    0    0    0    0 -0.00000000000E+00 -0.00000000000E+00 -0.40000000000E+02  0.40000000000E+02  0.00000000000E+00 0. -1.
         23    2    1    2    0    0  0.00000000000E+00  0.00000000000E+00  0.00000000000E+00  0.80000000000E+02  0.80000000000E+02 0.  0.
          5    1    3    3  501    0 -0.21891648990E+02 -0.27036659538E+02 -0.19175107444E+02  0.40000000000E+02  0.47000000000E+01 0. -1.
         -5    1    3    3    0  501  0.21891648990E+02  0.27036659538E+02  0.19175107444E+02  0.40000000000E+02  0.47000000000E+01 0.  1.
</event>
<event>
 5    1  0.4761089E-001  0.8000000E+02  0.7546771E-02  0.1203772E+00
         11   -1    0    0    0    0  0.00000000000E+00  0.00000000000E+00  0.40000000000E+02  0.40000000000E+02  0.00000000000E+00 0.  1.
        -11   -1    0    0    0    0 -0.00000000000E+00 -0.00000000000E+00 -0.40000000000E+02  0.40000000000E+02  0.00000000000E+00 0. -1.
         23    2    1    2    0    0  0.00000000000E+00  0.00000000000E+00  0.00000000000E+00  0.80000000000E+02  0.80000000000E+02 0.  0.
          5    1    3    3  501    0  0.32311252163E+02  0.15981964043E+02 -0.16687414689E+02  0.40000000000E+02  0.47000000000E+01 0. -1.
         -5    1    3    3    0  501 -0.32311252163E+02 -0.15981964043E+02  0.16687414689E+02  0.40000000000E+02  0.47000000000E+01 0.  1.
</event>
<event>
 5    1  0.4761089E-001  0.8000000E+02  0.7546771E-02  0.1203772E+00
         11   -1    0    0    0    0  0.00000000000E+00  0.00000000000E+00  0.40000000000E+02  0.40000000000E+02  0.00000000000E+00 0. -1.
        -11   -1    0    0    0    0 -0.00000000000E+00 -0.00000000000E+00 -0.40000000000E+02  0.40000000000E+02  0.00000000000E+00 0.  1.
         23    2    1    2    0    0  0.00000000000E+00  0.00000000000E+00  0.00000000000E+00  0.80000000000E+02  0.80000000000E+02 0.  0.
          5    1    3    3  501    0 -0.69902523906E+01  0.37259641025E+02 -0.11864464682E+02  0.40000000000E+02  0.47000000000E+01 0.  1.
         -5    1    3    3    0  501  0.69902523906E+01 -0.37259641025E+02  0.11864464682E+02  0.40000000000E+02  0.47000000000E+01 0. -1.
</event>
<event>
 5    1  0.4761089E-001  0.8000000E+02  0.7546771E-02  0.1203772E+00
         11   -1    0    0    0    0  0.00000000000E+00  0.00000000000E+00  0.40000000000E+02  0.40000000000E+02  0.00000000000E+00 0. -1.
        -11   -1    0    0    0    0 -0.00000000000E+00 -0.00000000000E+00 -0.40000000000E+02  0.40000000000E+02  0.00000000000E+00 0.  1.
         23    2    1    2    0    0  0.00000000000E+00  0.00000000000E+00  0.00000000000E+00  0.80000000000E+02  0.80000000000E+02 0.  0.
          5    1    3    3  501    0  0.32074230702E+02  0.78553145399E+01  0.22078219094E+02  0.40000000000E+02  0.47000000000E+01 0. -1.
         -5    1    3    3    0  501 -0.32074230702E+02 -0.78553145399E+01 -0.22078219094E+02  0.40000000000E+02  0.47000000000E+01 0.  1.
</event>
<event>
 5    1  0.4761089E-001  0.8000000E+02  0.7546771E-02  0.1203772E+00
         11   -1    0    0    0    0  0.00000000000E+00  0.00000000000E+00  0.40000000000E+02  0.40000000000E+02  0.00000000000E+00 0.  1.
        -11   -1    0    0    0    0 -0.00000000000E+00 -0.00000000000E+00 -0.40000000000E+02  0.40000000000E+02  0.00000000000E+00 0. -1.
         23    2    1    2    0    0  0.00000000000E+00  0.00000000000E+00  0.00000000000E+00  0.80000000000E+02  0.80000000000E+02 0.  0.
          5    1    3    3  501    0  0.32412974988E+02  0.14667654187E+02 -0.17668304194E+02  0.40000000000E+02  0.47000000000E+01 0. -1.
         -5    1    3    3    0  501 -0.32412974988E+02 -0.14667654187E+02  0.17668304194E+02  0.40000000000E+02  0.47000000000E+01 0.  1.
</event>
<event>
 5    1  0.4761089E-001  0.8000000E+02  0.7546771E-02  0.1203772E+00
         11   -1    0    0    0    0  0.00000000000E+00  0.00000000000E+00  0.40000000000E+02  0.40000000000E+02  0.00000000000E+00 0.  1.
        -11   -1    0    0    0    0 -0.00000000000E+00 -0.00000000000E+00 -0.40000000000E+02  0.40000000000E+02  0.00000000000E+00 0. -1.
         23    2    1    2    0    0  0.00000000000E+00  0.00000000000E+00  0.00000000000E+00  0.80000000000E+02  0.80000000000E+02 0.  0.
          5    1    3    3  501    0 -0.58150903267E+01  0.82206838823E+01 -0.38425448351E+02  0.40000000000E+02  0.47000000000E+01 0. -1.
         -5    1    3    3    0  501  0.58150903267E+01 -0.82206838823E+01  0.38425448351E+02  0.40000000000E+02  0.47000000000E+01 0.  1.
</event>
<event>
 5    1  0.4761089E-001  0.8000000E+02  0.7546771E-02  0.1203772E+00
         11   -1    0    0    0    0  0.00000000000E+00  0.00000000000E+00  0.40000000000E+02  0.40000000000E+02  0.00000000000E+00 0. -1.
        -11   -1    0    0    0    0 -0.00000000000E+00 -0.00000000000E+00 -0.40000000000E+02  0.40000000000E+02  0.00000000000E+00 0.  1.
         23    2    1    2    0    0  0.00000000000E+00  0.00000000000E+00  0.00000000000E+00  0.80000000000E+02  0.80000000000E+02 0.  0.
          5    1    3    3  501    0 -0.19782521885E+02  0.29064243298E+02  0.18488688148E+02  0.40000000000E+02  0.47000000000E+01 0. -1.
         -5    1    3    3    0  501  0.19782521885E+02 -0.29064243298E+02 -0.18488688148E+02  0.40000000000E+02  0.47000000000E+01 0.  1.
</event>
<event>
 5    1  0.4761089E-001  0.8000000E+02  0.7546771E-02  0.1203772E+00
         11   -1    0    0    0    0  0.00000000000E+00  0.00000000000E+00  0.40000000000E+02  0.40000000000E+02  0.00000000000E+00 0.  1.
        -11   -1    0    0    0    0 -0.00000000000E+00 -0.00000000000E+00 -0.40000000000E+02  0.40000000000E+02  0.00000000000E+00 0. -1.
         23    2    1    2    0    0  0.00000000000E+00  0.00000000000E+00  0.00000000000E+00  0.80000000000E+02  0.80000000000E+02 0.  0.
          5    1    3    3  501    0  0.38266165745E+02  0.10644017214E+02  0.56165534063E+00  0.40000000000E+02  0.47000000000E+01 0. -1.
         -5    1    3    3    0  501 -0.38266165745E+02 -0.10644017214E+02 -0.56165534063E+00  0.40000000000E+02  0.47000000000E+01 0.  1.
</event>
<event>
 5    1  0.4761089E-001  0.8000000E+02  0.7546771E-02  0.1203772E+00
         11   -1    0    0    0    0  0.00000000000E+00  0.00000000000E+00  0.40000000000E+02  0.40000000000E+02  0.00000000000E+00 0. -1.
        -11   -1    0    0    0    0 -0.00000000000E+00 -0.00000000000E+00 -0.40000000000E+02  0.40000000000E+02  0.00000000000E+00 0.  1.
         23    2    1    2    0    0  0.00000000000E+00  0.00000000000E+00  0.00000000000E+00  0.80000000000E+02  0.80000000000E+02 0.  0.
          5    1    3    3  501    0 -0.21384182779E+02 -0.32934084172E+02  0.59977351238E+01  0.40000000000E+02  0.47000000000E+01 0. -1.
         -5    1    3    3    0  501  0.21384182779E+02  0.32934084172E+02 -0.59977351238E+01  0.40000000000E+02  0.47000000000E+01 0.  1.
</event>
<event>
 5    1  0.4761089E-001  0.8000000E+02  0.7546771E-02  0.1203772E+00
         11   -1    0    0    0    0  0.00000000000E+00  0.00000000000E+00  0.40000000000E+02  0.40000000000E+02  0.00000000000E+00 0.  1.
        -11   -1    0    0    0    0 -0.00000000000E+00 -0.00000000000E+00 -0.40000000000E+02  0.40000000000E+02  0.00000000000E+00 0. -1.
         23    2    1    2    0    0  0.00000000000E+00  0.00000000000E+00  0.00000000000E+00  0.80000000000E+02  0.80000000000E+02 0.  0.
          5    1    3    3  501    0 -0.76256872595E+01 -0.24519656609E+02 -0.30307512825E+02  0.40000000000E+02  0.47000000000E+01 0. -1.
         -5    1    3    3    0  501  0.76256872595E+01  0.24519656609E+02  0.30307512825E+02  0.40000000000E+02  0.47000000000E+01 0.  1.
</event>
<event>
 5    1  0.4761089E-001  0.8000000E+02  0.7546771E-02  0.1203772E+00
         11   -1    0    0    0    0  0.00000000000E+00  0.00000000000E+00  0.40000000000E+02  0.40000000000E+02  0.00000000000E+00 0.  1.
        -11   -1    0    0    0    0 -0.00000000000E+00 -0.00000000000E+00 -0.40000000000E+02  0.40000000000E+02  0.00000000000E+00 0. -1.
         23    2    1    2    0    0  0.00000000000E+00  0.00000000000E+00  0.00000000000E+00  0.80000000000E+02  0.80000000000E+02 0.  0.
          5    1    3    3  501    0  0.25326558734E+02  0.16119590609E+02  0.26012193704E+02  0.40000000000E+02  0.47000000000E+01 0. -1.
         -5    1    3    3    0  501 -0.25326558734E+02 -0.16119590609E+02 -0.26012193704E+02  0.40000000000E+02  0.47000000000E+01 0.  1.
</event>
<event>
 5    1  0.4761089E-001  0.8000000E+02  0.7546771E-02  0.1203772E+00
         11   -1    0    0    0    0  0.00000000000E+00  0.00000000000E+00  0.40000000000E+02  0.40000000000E+02  0.00000000000E+00 0.  1.
        -11   -1    0    0    0    0 -0.00000000000E+00 -0.00000000000E+00 -0.40000000000E+02  0.40000000000E+02  0.00000000000E+00 0. -1.
         23    2    1    2    0    0  0.00000000000E+00  0.00000000000E+00  0.00000000000E+00  0.80000000000E+02  0.80000000000E+02 0.  0.
          5    1    3    3  501    0  0.95181677941E+00  0.34430343019E+02  0.19787761986E+02  0.40000000000E+02  0.47000000000E+01 0. -1.
         -5    1    3    3    0  501 -0.95181677941E+00 -0.34430343019E+02 -0.19787761986E+02  0.40000000000E+02  0.47000000000E+01 0.  1.
</event>
<event>
 5    1  0.4761089E-001  0.8000000E+02  0.7546771E-02  0.1203772E+00
         11   -1    0    0    0    0  0.00000000000E+00  0.00000000000E+00  0.40000000000E+02  0.40000000000E+02  0.00000000000E+00 0. -1.
        -11   -1    0    0    0    0 -0.00000000000E+00 -0.00000000000E+00 -0.40000000000E+02  0.40000000000E+02  0.00000000000E+00 0.  1.
         23    2    1    2    0    0  0.00000000000E+00  0.00000000000E+00  0.00000000000E+00  0.80000000000E+02  0.80000000000E+02 0.  0.
          5    1    3    3  501    0 -0.10398956139E+02  0.38164405630E+02 -0.36400349056E+01  0.40000000000E+02  0.47000000000E+01 0. -1.
         -5    1    3    3    0  501  0.10398956139E+02 -0.38164405630E+02  0.36400349056E+01  0.40000000000E+02  0.47000000000E+01 0.  1.
</event>
<event>
 5    1  0.4761089E-001  0.8000000E+02  0.7546771E-02  0.1203772E+00
         11   -1    0    0    0    0  0.00000000000E+00  0.00000000000E+00  0.40000000000E+02  0.40000000000E+02  0.00000000000E+00 0.  1.
        -11   -1    0    0    0    0 -0.00000000000E+00 -0.00000000000E+00 -0.40000000000E+02  0.40000000000E+02  0.00000000000E+00 0. -1.
         23    2    1    2    0    0  0.00000000000E+00  0.00000000000E+00  0.00000000000E+00  0.80000000000E+02  0.80000000000E+02 0.  0.
          5    1    3    3  501    0 -0.24625967849E+02 -0.69100084313E+01 -0.30392819727E+02  0.40000000000E+02  0.47000000000E+01 0. -1.
         -5    1    3    3    0  501  0.24625967849E+02  0.69100084313E+01  0.30392819727E+02  0.40000000000E+02  0.47000000000E+01 0.  1.
</event>
<event>
 5    1  0.4761089E-001  0.8000000E+02  0.7546771E-02  0.1203772E+00
         11   -1    0    0    0    0  0.00000000000E+00  0.00000000000E+00  0.40000000000E+02  0.40000000000E+02  0.00000000000E+00 0. -1.
        -11   -1    0    0    0    0 -0.00000000000E+00 -0.00000000000E+00 -0.40000000000E+02  0.40000000000E+02  0.00000000000E+00 0.  1.
         23    2    1    2    0    0  0.00000000000E+00  0.00000000000E+00  0.00000000000E+00  0.80000000000E+02  0.80000000000E+02 0.  0.
          5    1    3    3  501    0 -0.37879251668E+02  0.89995972273E+01  0.78790572303E+01  0.40000000000E+02  0.47000000000E+01 0. -1.
         -5    1    3    3    0  501  0.37879251668E+02 -0.89995972273E+01 -0.78790572303E+01  0.40000000000E+02  0.47000000000E+01 0.  1.
</event>
<event>
 5    1  0.4761089E-001  0.8000000E+02  0.7546771E-02  0.1203772E+00
         11   -1    0    0    0    0  0.00000000000E+00  0.00000000000E+00  0.40000000000E+02  0.40000000000E+02  0.00000000000E+00 0. -1.
        -11   -1    0    0    0    0 -0.00000000000E+00 -0.00000000000E+00 -0.40000000000E+02  0.40000000000E+02  0.00000000000E+00 0.  1.
         23    2    1    2    0    0  0.00000000000E+00  0.00000000000E+00  0.00000000000E+00  0.80000000000E+02  0.80000000000E+02 0.  0.
          5    1    3    3  501    0  0.36529162730E+02  0.82694079586E+01  0.13234317596E+02  0.40000000000E+02  0.47000000000E+01 0. -1.
         -5    1    3    3    0  501 -0.36529162730E+02 -0.82694079586E+01 -0.13234317596E+02  0.40000000000E+02  0.47000000000E+01 0.  1.
</event>
<event>
 5    1  0.4761089E-001  0.8000000E+02  0.7546771E-02  0.1203772E+00
         11   -1    0    0    0    0  0.00000000000E+00  0.00000000000E+00  0.40000000000E+02  0.40000000000E+02  0.00000000000E+00 0. -1.
        -11   -1    0    0    0    0 -0.00000000000E+00 -0.00000000000E+00 -0.40000000000E+02  0.40000000000E+02  0.00000000000E+00 0.  1.
         23    2    1    2    0    0  0.00000000000E+00  0.00000000000E+00  0.00000000000E+00  0.80000000000E+02  0.80000000000E+02 0.  0.
          5    1    3    3  501    0  0.64834071446E+01 -0.74820960248E+00  0.39183103682E+02  0.40000000000E+02  0.47000000000E+01 0. -1.
         -5    1    3    3    0  501 -0.64834071446E+01  0.74820960248E+00 -0.39183103682E+02  0.40000000000E+02  0.47000000000E+01 0.  1.
</event>
<event>
 5    1  0.4761089E-001  0.8000000E+02  0.7546771E-02  0.1203772E+00
         11   -1    0    0    0    0  0.00000000000E+00  0.00000000000E+00  0.40000000000E+02  0.40000000000E+02  0.00000000000E+00 0. -1.
        -11   -1    0    0    0    0 -0.00000000000E+00 -0.00000000000E+00 -0.40000000000E+02  0.40000000000E+02  0.00000000000E+00 0.  1.
         23    2    1    2    0    0  0.00000000000E+00  0.00000000000E+00  0.00000000000E+00  0.80000000000E+02  0.80000000000E+02 0.  0.
          5    1    3    3  501    0  0.19149026882E+01  0.31389741587E+02  0.24267823775E+02  0.40000000000E+02  0.47000000000E+01 0. -1.
         -5    1    3    3    0  501 -0.19149026882E+01 -0.31389741587E+02 -0.24267823775E+02  0.40000000000E+02  0.47000000000E+01 0.  1.
</event>
<event>
 5    1  0.4761089E-001  0.8000000E+02  0.7546771E-02  0.1203772E+00
         11   -1    0    0    0    0  0.00000000000E+00  0.00000000000E+00  0.40000000000E+02  0.40000000000E+02  0.00000000000E+00 0. -1.
        -11   -1    0    0    0    0 -0.00000000000E+00 -0.00000000000E+00 -0.40000000000E+02  0.40000000000E+02  0.00000000000E+00 0.  1.
         23    2    1    2    0    0  0.00000000000E+00  0.00000000000E+00  0.00000000000E+00  0.80000000000E+02  0.80000000000E+02 0.  0.
          5    1    3    3  501    0 -0.12303920513E+02  0.28820149491E+02  0.24411524396E+02  0.40000000000E+02  0.47000000000E+01 0. -1.
         -5    1    3    3    0  501  0.12303920513E+02 -0.28820149491E+02 -0.24411524396E+02  0.40000000000E+02  0.47000000000E+01 0.  1.
</event>
<event>
 5    1  0.4761089E-001  0.8000000E+02  0.7546771E-02  0.1203772E+00
         11   -1    0    0    0    0  0.00000000000E+00  0.00000000000E+00  0.40000000000E+02  0.40000000000E+02  0.00000000000E+00 0. -1.
        -11   -1    0    0    0    0 -0.00000000000E+00 -0.00000000000E+00 -0.40000000000E+02  0.40000000000E+02  0.00000000000E+00 0.  1.
         23    2    1    2    0    0  0.00000000000E+00  0.00000000000E+00  0.00000000000E+00  0.80000000000E+02  0.80000000000E+02 0.  0.
          5    1    3    3  501    0 -0.13766788351E+02 -0.12963961028E+02 -0.34933096813E+02  0.40000000000E+02  0.47000000000E+01 0.  1.
         -5    1    3    3    0  501  0.13766788351E+02  0.12963961028E+02  0.34933096813E+02  0.40000000000E+02  0.47000000000E+01 0. -1.
</event>
<event>
 5    1  0.4761089E-001  0.8000000E+02  0.7546771E-02  0.1203772E+00
         11   -1    0    0    0    0  0.00000000000E+00  0.00000000000E+00  0.40000000000E+02  0.40000000000E+02  0.00000000000E+00 0.  1.
        -11   -1    0    0    0    0 -0.00000000000E+00 -0.00000000000E+00 -0.40000000000E+02  0.40000000000E+02  0.00000000000E+00 0. -1.
         23    2    1    2    0    0  0.00000000000E+00  0.00000000000E+00  0.00000000000E+00  0.80000000000E+02  0.80000000000E+02 0.  0.
          5    1    3    3  501    0  0.25545950558E+02  0.20225141399E+02 -0.22721313023E+02  0.40000000000E+02  0.47000000000E+01 0. -1.
         -5    1    3    3    0  501 -0.25545950558E+02 -0.20225141399E+02  0.22721313023E+02  0.40000000000E+02  0.47000000000E+01 0.  1.
</event>
<event>
 5    1  0.4761089E-001  0.8000000E+02  0.7546771E-02  0.1203772E+00
         11   -1    0    0    0    0  0.00000000000E+00  0.00000000000E+00  0.40000000000E+02  0.40000000000E+02  0.00000000000E+00 0. -1.
        -11   -1    0    0    0    0 -0.00000000000E+00 -0.00000000000E+00 -0.40000000000E+02  0.40000000000E+02  0.00000000000E+00 0.  1.
         23    2    1    2    0    0  0.00000000000E+00  0.00000000000E+00  0.00000000000E+00  0.80000000000E+02  0.80000000000E+02 0.  0.
          5    1    3    3  501    0  0.19305119311E+02 -0.59289300737E+01 -0.34206288261E+02  0.40000000000E+02  0.47000000000E+01 0.  1.
         -5    1    3    3    0  501 -0.19305119311E+02  0.59289300737E+01  0.34206288261E+02  0.40000000000E+02  0.47000000000E+01 0. -1.
</event>
<event>
 5    1  0.4761089E-001  0.8000000E+02  0.7546771E-02  0.1203772E+00
         11   -1    0    0    0    0  0.00000000000E+00  0.00000000000E+00  0.40000000000E+02  0.40000000000E+02  0.00000000000E+00 0.  1.
        -11   -1    0    0    0    0 -0.00000000000E+00 -0.00000000000E+00 -0.40000000000E+02  0.40000000000E+02  0.00000000000E+00 0. -1.
         23    2    1    2    0    0  0.00000000000E+00  0.00000000000E+00  0.00000000000E+00  0.80000000000E+02  0.80000000000E+02 0.  0.
          5    1    3    3  501    0  0.31739647655E+01  0.18129639279E+02 -0.35201592681E+02  0.40000000000E+02  0.47000000000E+01 0. -1.
         -5    1    3    3    0  501 -0.31739647655E+01 -0.18129639279E+02  0.35201592681E+02  0.40000000000E+02  0.47000000000E+01 0.  1.
</event>
<event>
 5    1  0.4761089E-001  0.8000000E+02  0.7546771E-02  0.1203772E+00
         11   -1    0    0    0    0  0.00000000000E+00  0.00000000000E+00  0.40000000000E+02  0.40000000000E+02  0.00000000000E+00 0.  1.
        -11   -1    0    0    0    0 -0.00000000000E+00 -0.00000000000E+00 -0.40000000000E+02  0.40000000000E+02  0.00000000000E+00 0. -1.
         23    2    1    2    0    0  0.00000000000E+00  0.00000000000E+00  0.00000000000E+00  0.80000000000E+02  0.80000000000E+02 0.  0.
          5    1    3    3  501    0  0.69533989513E+01 -0.25813680726E+02 -0.29380505959E+02  0.40000000000E+02  0.47000000000E+01 0. -1.
         -5    1    3    3    0  501 -0.69533989513E+01  0.25813680726E+02  0.29380505959E+02  0.40000000000E+02  0.47000000000E+01 0.  1.
</event>
<event>
 5    1  0.4761089E-001  0.8000000E+02  0.7546771E-02  0.1203772E+00
         11   -1    0    0    0    0  0.00000000000E+00  0.00000000000E+00  0.40000000000E+02  0.40000000000E+02  0.00000000000E+00 0.  1.
        -11   -1    0    0    0    0 -0.00000000000E+00 -0.00000000000E+00 -0.40000000000E+02  0.40000000000E+02  0.00000000000E+00 0. -1.
         23    2    1    2    0    0  0.00000000000E+00  0.00000000000E+00  0.00000000000E+00  0.80000000000E+02  0.80000000000E+02 0.  0.
          5    1    3    3  501    0  0.21100223139E+02  0.40069304323E+01 -0.33416090316E+02  0.40000000000E+02  0.47000000000E+01 0. -1.
         -5    1    3    3    0  501 -0.21100223139E+02 -0.40069304323E+01  0.33416090316E+02  0.40000000000E+02  0.47000000000E+01 0.  1.
</event>
<event>
 5    1  0.4761089E-001  0.8000000E+02  0.7546771E-02  0.1203772E+00
         11   -1    0    0    0    0  0.00000000000E+00  0.00000000000E+00  0.40000000000E+02  0.40000000000E+02  0.00000000000E+00 0.  1.
        -11   -1    0    0    0    0 -0.00000000000E+00 -0.00000000000E+00 -0.40000000000E+02  0.40000000000E+02  0.00000000000E+00 0. -1.
         23    2    1    2    0    0  0.00000000000E+00  0.00000000000E+00  0.00000000000E+00  0.80000000000E+02  0.80000000000E+02 0.  0.
          5    1    3    3  501    0  0.32760527855E+02 -0.22403496100E+02 -0.16556500674E+01  0.40000000000E+02  0.47000000000E+01 0. -1.
         -5    1    3    3    0  501 -0.32760527855E+02  0.22403496100E+02  0.16556500674E+01  0.40000000000E+02  0.47000000000E+01 0.  1.
</event>
<event>
 5    1  0.4761089E-001  0.8000000E+02  0.7546771E-02  0.1203772E+00
         11   -1    0    0    0    0  0.00000000000E+00  0.00000000000E+00  0.40000000000E+02  0.40000000000E+02  0.00000000000E+00 0.  1.
        -11   -1    0    0    0    0 -0.00000000000E+00 -0.00000000000E+00 -0.40000000000E+02  0.40000000000E+02  0.00000000000E+00 0. -1.
         23    2    1    2    0    0  0.00000000000E+00  0.00000000000E+00  0.00000000000E+00  0.80000000000E+02  0.80000000000E+02 0.  0.
          5    1    3    3  501    0 -0.15697813198E+02 -0.33596475877E+02  0.14239574061E+02  0.40000000000E+02  0.47000000000E+01 0. -1.
         -5    1    3    3    0  501  0.15697813198E+02  0.33596475877E+02 -0.14239574061E+02  0.40000000000E+02  0.47000000000E+01 0.  1.
</event>
<event>
 5    1  0.4761089E-001  0.8000000E+02  0.7546771E-02  0.1203772E+00
         11   -1    0    0    0    0  0.00000000000E+00  0.00000000000E+00  0.40000000000E+02  0.40000000000E+02  0.00000000000E+00 0. -1.
        -11   -1    0    0    0    0 -0.00000000000E+00 -0.00000000000E+00 -0.40000000000E+02  0.40000000000E+02  0.00000000000E+00 0.  1.
         23    2    1    2    0    0  0.00000000000E+00  0.00000000000E+00  0.00000000000E+00  0.80000000000E+02  0.80000000000E+02 0.  0.
          5    1    3    3  501    0 -0.14501470131E+02 -0.25264368263E+02  0.27006093022E+02  0.40000000000E+02  0.47000000000E+01 0. -1.
         -5    1    3    3    0  501  0.14501470131E+02  0.25264368263E+02 -0.27006093022E+02  0.40000000000E+02  0.47000000000E+01 0.  1.
</event>
<event>
 5    1  0.4761089E-001  0.8000000E+02  0.7546771E-02  0.1203772E+00
         11   -1    0    0    0    0  0.00000000000E+00  0.00000000000E+00  0.40000000000E+02  0.40000000000E+02  0.00000000000E+00 0. -1.
        -11   -1    0    0    0    0 -0.00000000000E+00 -0.00000000000E+00 -0.40000000000E+02  0.40000000000E+02  0.00000000000E+00 0.  1.
         23    2    1    2    0    0  0.00000000000E+00  0.00000000000E+00  0.00000000000E+00  0.80000000000E+02  0.80000000000E+02 0.  0.
          5    1    3    3  501    0 -0.24705112613E+02 -0.30685771526E+02  0.50941963725E+01  0.40000000000E+02  0.47000000000E+01 0. -1.
         -5    1    3    3    0  501  0.24705112613E+02  0.30685771526E+02 -0.50941963725E+01  0.40000000000E+02  0.47000000000E+01 0.  1.
</event>
<event>
 5    1  0.4761089E-001  0.8000000E+02  0.7546771E-02  0.1203772E+00
         11   -1    0    0    0    0  0.00000000000E+00  0.00000000000E+00  0.40000000000E+02  0.40000000000E+02  0.00000000000E+00 0.  1.
        -11   -1    0    0    0    0 -0.00000000000E+00 -0.00000000000E+00 -0.40000000000E+02  0.40000000000E+02  0.00000000000E+00 0. -1.
         23    2    1    2    0    0  0.00000000000E+00  0.00000000000E+00  0.00000000000E+00  0.80000000000E+02  0.80000000000E+02 0.  0.
          5    1    3    3  501    0 -0.13755674046E+02 -0.16042820636E+02 -0.33635090866E+02  0.40000000000E+02  0.47000000000E+01 0. -1.
         -5    1    3    3    0  501  0.13755674046E+02  0.16042820636E+02  0.33635090866E+02  0.40000000000E+02  0.47000000000E+01 0.  1.
</event>
<event>
 5    1  0.4761089E-001  0.8000000E+02  0.7546771E-02  0.1203772E+00
         11   -1    0    0    0    0  0.00000000000E+00  0.00000000000E+00  0.40000000000E+02  0.40000000000E+02  0.00000000000E+00 0.  1.
        -11   -1    0    0    0    0 -0.00000000000E+00 -0.00000000000E+00 -0.40000000000E+02  0.40000000000E+02  0.00000000000E+00 0. -1.
         23    2    1    2    0    0  0.00000000000E+00  0.00000000000E+00  0.00000000000E+00  0.80000000000E+02  0.80000000000E+02 0.  0.
          5    1    3    3  501    0  0.32366458162E+02 -0.13648548510E+02 -0.18548302069E+02  0.40000000000E+02  0.47000000000E+01 0. -1.
         -5    1    3    3    0  501 -0.32366458162E+02  0.13648548510E+02  0.18548302069E+02  0.40000000000E+02  0.47000000000E+01 0.  1.
</event>
<event>
 5    1  0.4761089E-001  0.8000000E+02  0.7546771E-02  0.1203772E+00
         11   -1    0    0    0    0  0.00000000000E+00  0.00000000000E+00  0.40000000000E+02  0.40000000000E+02  0.00000000000E+00 0. -1.
        -11   -1    0    0    0    0 -0.00000000000E+00 -0.00000000000E+00 -0.40000000000E+02  0.40000000000E+02  0.00000000000E+00 0.  1.
         23    2    1    2    0    0  0.00000000000E+00  0.00000000000E+00  0.00000000000E+00  0.80000000000E+02  0.80000000000E+02 0.  0.
          5    1    3    3  501    0 -0.22197484418E+01 -0.38716124793E+02  0.86049054554E+01  0.40000000000E+02  0.47000000000E+01 0. -1.
         -5    1    3    3    0  501  0.22197484418E+01  0.38716124793E+02 -0.86049054554E+01  0.40000000000E+02  0.47000000000E+01 0.  1.
</event>
<event>
 5    1  0.4761089E-001  0.8000000E+02  0.7546771E-02  0.1203772E+00
         11   -1    0    0    0    0  0.00000000000E+00  0.00000000000E+00  0.40000000000E+02  0.40000000000E+02  0.00000000000E+00 0. -1.
        -11   -1    0    0    0    0 -0.00000000000E+00 -0.00000000000E+00 -0.40000000000E+02  0.40000000000E+02  0.00000000000E+00 0.  1.
         23    2    1    2    0    0  0.00000000000E+00  0.00000000000E+00  0.00000000000E+00  0.80000000000E+02  0.80000000000E+02 0.  0.
          5    1    3    3  501    0 -0.16870471876E+01  0.28135291955E+02  0.27990520152E+02  0.40000000000E+02  0.47000000000E+01 0. -1.
         -5    1    3    3    0  501  0.16870471876E+01 -0.28135291955E+02 -0.27990520152E+02  0.40000000000E+02  0.47000000000E+01 0.  1.
</event>
<event>
 5    1  0.4761089E-001  0.8000000E+02  0.7546771E-02  0.1203772E+00
         11   -1    0    0    0    0  0.00000000000E+00  0.00000000000E+00  0.40000000000E+02  0.40000000000E+02  0.00000000000E+00 0.  1.
        -11   -1    0    0    0    0 -0.00000000000E+00 -0.00000000000E+00 -0.40000000000E+02  0.40000000000E+02  0.00000000000E+00 0. -1.
         23    2    1    2    0    0  0.00000000000E+00  0.00000000000E+00  0.00000000000E+00  0.80000000000E+02  0.80000000000E+02 0.  0.
          5    1    3    3  501    0  0.16126732920E+02  0.12509234256E+02 -0.34078696331E+02  0.40000000000E+02  0.47000000000E+01 0. -1.
         -5    1    3    3    0  501 -0.16126732920E+02 -0.12509234256E+02  0.34078696331E+02  0.40000000000E+02  0.47000000000E+01 0.  1.
</event>
<event>
 5    1  0.4761089E-001  0.8000000E+02  0.7546771E-02  0.1203772E+00
         11   -1    0    0    0    0  0.00000000000E+00  0.00000000000E+00  0.40000000000E+02  0.40000000000E+02  0.00000000000E+00 0.  1.
        -11   -1    0    0    0    0 -0.00000000000E+00 -0.00000000000E+00 -0.40000000000E+02  0.40000000000E+02  0.00000000000E+00 0. -1.
         23    2    1    2    0    0  0.00000000000E+00  0.00000000000E+00  0.00000000000E+00  0.80000000000E+02  0.80000000000E+02 0.  0.
          5    1    3    3  501    0  0.96049209764E+01 -0.15649289479E+02 -0.35224355662E+02  0.40000000000E+02  0.47000000000E+01 0. -1.
         -5    1    3    3    0  501 -0.96049209764E+01  0.15649289479E+02  0.35224355662E+02  0.40000000000E+02  0.47000000000E+01 0.  1.
</event>
<event>
 5    1  0.4761089E-001  0.8000000E+02  0.7546771E-02  0.1203772E+00
         11   -1    0    0    0    0  0.00000000000E+00  0.00000000000E+00  0.40000000000E+02  0.40000000000E+02  0.00000000000E+00 0. -1.
        -11   -1    0    0    0    0 -0.00000000000E+00 -0.00000000000E+00 -0.40000000000E+02  0.40000000000E+02  0.00000000000E+00 0.  1.
         23    2    1    2    0    0  0.00000000000E+00  0.00000000000E+00  0.00000000000E+00  0.80000000000E+02  0.80000000000E+02 0.  0.
          5    1    3    3  501    0  0.86226976526E+00 -0.16411289129E+02  0.36164016370E+02  0.40000000000E+02  0.47000000000E+01 0. -1.
         -5    1    3    3    0  501 -0.86226976526E+00  0.16411289129E+02 -0.36164016370E+02  0.40000000000E+02  0.47000000000E+01 0.  1.
</event>
<event>
 5    1  0.4761089E-001  0.8000000E+02  0.7546771E-02  0.1203772E+00
         11   -1    0    0    0    0  0.00000000000E+00  0.00000000000E+00  0.40000000000E+02  0.40000000000E+02  0.00000000000E+00 0.  1.
        -11   -1    0    0    0    0 -0.00000000000E+00 -0.00000000000E+00 -0.40000000000E+02  0.40000000000E+02  0.00000000000E+00 0. -1.
         23    2    1    2    0    0  0.00000000000E+00  0.00000000000E+00  0.00000000000E+00  0.80000000000E+02  0.80000000000E+02 0.  0.
          5    1    3    3  501    0 -0.30203351145E+02 -0.19279959527E+02 -0.17144991697E+02  0.40000000000E+02  0.47000000000E+01 0. -1.
         -5    1    3    3    0  501  0.30203351145E+02  0.19279959527E+02  0.17144991697E+02  0.40000000000E+02  0.47000000000E+01 0.  1.
</event>
<event>
 5    1  0.4761089E-001  0.8000000E+02  0.7546771E-02  0.1203772E+00
         11   -1    0    0    0    0  0.00000000000E+00  0.00000000000E+00  0.40000000000E+02  0.40000000000E+02  0.00000000000E+00 0.  1.
        -11   -1    0    0    0    0 -0.00000000000E+00 -0.00000000000E+00 -0.40000000000E+02  0.40000000000E+02  0.00000000000E+00 0. -1.
         23    2    1    2    0    0  0.00000000000E+00  0.00000000000E+00  0.00000000000E+00  0.80000000000E+02  0.80000000000E+02 0.  0.
          5    1    3    3  501    0  0.34595353541E+02  0.38139779552E+01 -0.19144844881E+02  0.40000000000E+02  0.47000000000E+01 0. -1.
         -5    1    3    3    0  501 -0.34595353541E+02 -0.38139779552E+01  0.19144844881E+02  0.40000000000E+02  0.47000000000E+01 0.  1.
</event>
<event>
 5    1  0.4761089E-001  0.8000000E+02  0.7546771E-02  0.1203772E+00
         11   -1    0    0    0    0  0.00000000000E+00  0.00000000000E+00  0.40000000000E+02  0.40000000000E+02  0.00000000000E+00 0.  1.
        -11   -1    0    0    0    0 -0.00000000000E+00 -0.00000000000E+00 -0.40000000000E+02  0.40000000000E+02  0.00000000000E+00 0. -1.
         23    2    1    2    0    0  0.00000000000E+00  0.00000000000E+00  0.00000000000E+00  0.80000000000E+02  0.80000000000E+02 0.  0.
          5    1    3    3  501    0  0.38429918061E+02  0.99731968709E+01 -0.12596594909E+01  0.40000000000E+02  0.47000000000E+01 0. -1.
         -5    1    3    3    0  501 -0.38429918061E+02 -0.99731968709E+01  0.12596594909E+01  0.40000000000E+02  0.47000000000E+01 0.  1.
</event>
<event>
 5    1  0.4761089E-001  0.8000000E+02  0.7546771E-02  0.1203772E+00
         11   -1    0    0    0    0  0.00000000000E+00  0.00000000000E+00  0.40000000000E+02  0.40000000000E+02  0.00000000000E+00 0. -1.
        -11   -1    0    0    0    0 -0.00000000000E+00 -0.00000000000E+00 -0.40000000000E+02  0.40000000000E+02  0.00000000000E+00 0.  1.
         23    2    1    2    0    0  0.00000000000E+00  0.00000000000E+00  0.00000000000E+00  0.80000000000E+02  0.80000000000E+02 0.  0.
          5    1    3    3  501    0  0.29430478142E+02  0.24229433695E+02  0.11166534788E+02  0.40000000000E+02  0.47000000000E+01 0. -1.
         -5    1    3    3    0  501 -0.29430478142E+02 -0.24229433695E+02 -0.11166534788E+02  0.40000000000E+02  0.47000000000E+01 0.  1.
</event>
<event>
 5    1  0.4761089E-001  0.8000000E+02  0.7546771E-02  0.1203772E+00
         11   -1    0    0    0    0  0.00000000000E+00  0.00000000000E+00  0.40000000000E+02  0.40000000000E+02  0.00000000000E+00 0.  1.
        -11   -1    0    0    0    0 -0.00000000000E+00 -0.00000000000E+00 -0.40000000000E+02  0.40000000000E+02  0.00000000000E+00 0. -1.
         23    2    1    2    0    0  0.00000000000E+00  0.00000000000E+00  0.00000000000E+00  0.80000000000E+02  0.80000000000E+02 0.  0.
          5    1    3    3  501    0 -0.25746012400E+02  0.11163307207E+02 -0.28114647743E+02  0.40000000000E+02  0.47000000000E+01 0. -1.
         -5    1    3    3    0  501  0.25746012400E+02 -0.11163307207E+02  0.28114647743E+02  0.40000000000E+02  0.47000000000E+01 0.  1.
</event>
<event>
 5    1  0.4761089E-001  0.8000000E+02  0.7546771E-02  0.1203772E+00
         11   -1    0    0    0    0  0.00000000000E+00  0.00000000000E+00  0.40000000000E+02  0.40000000000E+02  0.00000000000E+00 0. -1.
        -11   -1    0    0    0    0 -0.00000000000E+00 -0.00000000000E+00 -0.40000000000E+02  0.40000000000E+02  0.00000000000E+00 0.  1.
         23    2    1    2    0    0  0.00000000000E+00  0.00000000000E+00  0.00000000000E+00  0.80000000000E+02  0.80000000000E+02 0.  0.
          5    1    3    3  501    0 -0.10869493204E+02 -0.20411213912E+02  0.32297778006E+02  0.40000000000E+02  0.47000000000E+01 0. -1.
         -5    1    3    3    0  501  0.10869493204E+02  0.20411213912E+02 -0.32297778006E+02  0.40000000000E+02  0.47000000000E+01 0.  1.
</event>
<event>
 5    1  0.4761089E-001  0.8000000E+02  0.7546771E-02  0.1203772E+00
         11   -1    0    0    0    0  0.00000000000E+00  0.00000000000E+00  0.40000000000E+02  0.40000000000E+02  0.00000000000E+00 0. -1.
        -11   -1    0    0    0    0 -0.00000000000E+00 -0.00000000000E+00 -0.40000000000E+02  0.40000000000E+02  0.00000000000E+00 0.  1.
         23    2    1    2    0    0  0.00000000000E+00  0.00000000000E+00  0.00000000000E+00  0.80000000000E+02  0.80000000000E+02 0.  0.
          5    1    3    3  501    0 -0.33564528867E+02  0.15643997816E+02  0.14373508071E+02  0.40000000000E+02  0.47000000000E+01 0. -1.
         -5    1    3    3    0  501  0.33564528867E+02 -0.15643997816E+02 -0.14373508071E+02  0.40000000000E+02  0.47000000000E+01 0.  1.
</event>
<event>
 5    1  0.4761089E-001  0.8000000E+02  0.7546771E-02  0.1203772E+00
         11   -1    0    0    0    0  0.00000000000E+00  0.00000000000E+00  0.40000000000E+02  0.40000000000E+02  0.00000000000E+00 0.  1.
        -11   -1    0    0    0    0 -0.00000000000E+00 -0.00000000000E+00 -0.40000000000E+02  0.40000000000E+02  0.00000000000E+00 0. -1.
         23    2    1    2    0    0  0.00000000000E+00  0.00000000000E+00  0.00000000000E+00  0.80000000000E+02  0.80000000000E+02 0.  0.
          5    1    3    3  501    0 -0.40872705390E+01 -0.30391872183E+02  0.25249521278E+02  0.40000000000E+02  0.47000000000E+01 0. -1.
         -5    1    3    3    0  501  0.40872705390E+01  0.30391872183E+02 -0.25249521278E+02  0.40000000000E+02  0.47000000000E+01 0.  1.
</event>
<event>
 5    1  0.4761089E-001  0.8000000E+02  0.7546771E-02  0.1203772E+00
         11   -1    0    0    0    0  0.00000000000E+00  0.00000000000E+00  0.40000000000E+02  0.40000000000E+02  0.00000000000E+00 0.  1.
        -11   -1    0    0    0    0 -0.00000000000E+00 -0.00000000000E+00 -0.40000000000E+02  0.40000000000E+02  0.00000000000E+00 0. -1.
         23    2    1    2    0    0  0.00000000000E+00  0.00000000000E+00  0.00000000000E+00  0.80000000000E+02  0.80000000000E+02 0.  0.
          5    1    3    3  501    0  0.18819353534E+02 -0.17758642750E+02 -0.30139219304E+02  0.40000000000E+02  0.47000000000E+01 0. -1.
         -5    1    3    3    0  501 -0.18819353534E+02  0.17758642750E+02  0.30139219304E+02  0.40000000000E+02  0.47000000000E+01 0.  1.
</event>
<event>
 5    1  0.4761089E-001  0.8000000E+02  0.7546771E-02  0.1203772E+00
         11   -1    0    0    0    0  0.00000000000E+00  0.00000000000E+00  0.40000000000E+02  0.40000000000E+02  0.00000000000E+00 0.  1.
        -11   -1    0    0    0    0 -0.00000000000E+00 -0.00000000000E+00 -0.40000000000E+02  0.40000000000E+02  0.00000000000E+00 0. -1.
         23    2    1    2    0    0  0.00000000000E+00  0.00000000000E+00  0.00000000000E+00  0.80000000000E+02  0.80000000000E+02 0.  0.
          5    1    3    3  501    0 -0.27218136508E+01 -0.30471858483E+02 -0.25337078977E+02  0.40000000000E+02  0.47000000000E+01 0. -1.
         -5    1    3    3    0  501  0.27218136508E+01  0.30471858483E+02  0.25337078977E+02  0.40000000000E+02  0.47000000000E+01 0.  1.
</event>
<event>
 5    1  0.4761089E-001  0.8000000E+02  0.7546771E-02  0.1203772E+00
         11   -1    0    0    0    0  0.00000000000E+00  0.00000000000E+00  0.40000000000E+02  0.40000000000E+02  0.00000000000E+00 0.  1.
        -11   -1    0    0    0    0 -0.00000000000E+00 -0.00000000000E+00 -0.40000000000E+02  0.40000000000E+02  0.00000000000E+00 0. -1.
         23    2    1    2    0    0  0.00000000000E+00  0.00000000000E+00  0.00000000000E+00  0.80000000000E+02  0.80000000000E+02 0.  0.
          5    1    3    3  501    0  0.32289081371E+02  0.11286286796E+02 -0.20197647254E+02  0.40000000000E+02  0.47000000000E+01 0. -1.
         -5    1    3    3    0  501 -0.32289081371E+02 -0.11286286796E+02  0.20197647254E+02  0.40000000000E+02  0.47000000000E+01 0.  1.
</event>
<event>
 5    1  0.4761089E-001  0.8000000E+02  0.7546771E-02  0.1203772E+00
         11   -1    0    0    0    0  0.00000000000E+00  0.00000000000E+00  0.40000000000E+02  0.40000000000E+02  0.00000000000E+00 0. -1.
        -11   -1    0    0    0    0 -0.00000000000E+00 -0.00000000000E+00 -0.40000000000E+02  0.40000000000E+02  0.00000000000E+00 0.  1.
         23    2    1    2    0    0  0.00000000000E+00  0.00000000000E+00  0.00000000000E+00  0.80000000000E+02  0.80000000000E+02 0.  0.
          5    1    3    3  501    0  0.85922496408E+01  0.33741841586E+02  0.19119920829E+02  0.40000000000E+02  0.47000000000E+01 0. -1.
         -5    1    3    3    0  501 -0.85922496408E+01 -0.33741841586E+02 -0.19119920829E+02  0.40000000000E+02  0.47000000000E+01 0.  1.
</event>
<event>
 5    1  0.4761089E-001  0.8000000E+02  0.7546771E-02  0.1203772E+00
         11   -1    0    0    0    0  0.00000000000E+00  0.00000000000E+00  0.40000000000E+02  0.40000000000E+02  0.00000000000E+00 0.  1.
        -11   -1    0    0    0    0 -0.00000000000E+00 -0.00000000000E+00 -0.40000000000E+02  0.40000000000E+02  0.00000000000E+00 0. -1.
         23    2    1    2    0    0  0.00000000000E+00  0.00000000000E+00  0.00000000000E+00  0.80000000000E+02  0.80000000000E+02 0.  0.
          5    1    3    3  501    0 -0.48393205910E+01  0.33701037041E+02 -0.20462919601E+02  0.40000000000E+02  0.47000000000E+01 0. -1.
         -5    1    3    3    0  501  0.48393205910E+01 -0.33701037041E+02  0.20462919601E+02  0.40000000000E+02  0.47000000000E+01 0.  1.
</event>
<event>
 5    1  0.4761089E-001  0.8000000E+02  0.7546771E-02  0.1203772E+00
         11   -1    0    0    0    0  0.00000000000E+00  0.00000000000E+00  0.40000000000E+02  0.40000000000E+02  0.00000000000E+00 0.  1.
        -11   -1    0    0    0    0 -0.00000000000E+00 -0.00000000000E+00 -0.40000000000E+02  0.40000000000E+02  0.00000000000E+00 0. -1.
         23    2    1    2    0    0  0.00000000000E+00  0.00000000000E+00  0.00000000000E+00  0.80000000000E+02  0.80000000000E+02 0.  0.
          5    1    3    3  501    0  0.20762400134E+02  0.25606153206E+02 -0.22162077038E+02  0.40000000000E+02  0.47000000000E+01 0. -1.
         -5    1    3    3    0  501 -0.20762400134E+02 -0.25606153206E+02  0.22162077038E+02  0.40000000000E+02  0.47000000000E+01 0.  1.
</event>
<event>
 5    1  0.4761089E-001  0.8000000E+02  0.7546771E-02  0.1203772E+00
         11   -1    0    0    0    0  0.00000000000E+00  0.00000000000E+00  0.40000000000E+02  0.40000000000E+02  0.00000000000E+00 0.  1.
        -11   -1    0    0    0    0 -0.00000000000E+00 -0.00000000000E+00 -0.40000000000E+02  0.40000000000E+02  0.00000000000E+00 0. -1.
         23    2    1    2    0    0  0.00000000000E+00  0.00000000000E+00  0.00000000000E+00  0.80000000000E+02  0.80000000000E+02 0.  0.
          5    1    3    3  501    0  0.88053572855E+01  0.22816724341E+01 -0.38667423679E+02  0.40000000000E+02  0.47000000000E+01 0. -1.
         -5    1    3    3    0  501 -0.88053572855E+01 -0.22816724341E+01  0.38667423679E+02  0.40000000000E+02  0.47000000000E+01 0.  1.
</event>
<event>
 5    1  0.4761089E-001  0.8000000E+02  0.7546771E-02  0.1203772E+00
         11   -1    0    0    0    0  0.00000000000E+00  0.00000000000E+00  0.40000000000E+02  0.40000000000E+02  0.00000000000E+00 0. -1.
        -11   -1    0    0    0    0 -0.00000000000E+00 -0.00000000000E+00 -0.40000000000E+02  0.40000000000E+02  0.00000000000E+00 0.  1.
         23    2    1    2    0    0  0.00000000000E+00  0.00000000000E+00  0.00000000000E+00  0.80000000000E+02  0.80000000000E+02 0.  0.
          5    1    3    3  501    0  0.82868281509E+01  0.38752963486E+02 -0.27287909928E+01  0.40000000000E+02  0.47000000000E+01 0.  1.
         -5    1    3    3    0  501 -0.82868281509E+01 -0.38752963486E+02  0.27287909928E+01  0.40000000000E+02  0.47000000000E+01 0. -1.
</event>
<event>
 5    1  0.4761089E-001  0.8000000E+02  0.7546771E-02  0.1203772E+00
         11   -1    0    0    0    0  0.00000000000E+00  0.00000000000E+00  0.40000000000E+02  0.40000000000E+02  0.00000000000E+00 0.  1.
        -11   -1    0    0    0    0 -0.00000000000E+00 -0.00000000000E+00 -0.40000000000E+02  0.40000000000E+02  0.00000000000E+00 0. -1.
         23    2    1    2    0    0  0.00000000000E+00  0.00000000000E+00  0.00000000000E+00  0.80000000000E+02  0.80000000000E+02 0.  0.
          5    1    3    3  501    0 -0.19198562930E+02 -0.89994723299E+01 -0.33590693342E+02  0.40000000000E+02  0.47000000000E+01 0. -1.
         -5    1    3    3    0  501  0.19198562930E+02  0.89994723299E+01  0.33590693342E+02  0.40000000000E+02  0.47000000000E+01 0.  1.
</event>
<event>
 5    1  0.4761089E-001  0.8000000E+02  0.7546771E-02  0.1203772E+00
         11   -1    0    0    0    0  0.00000000000E+00  0.00000000000E+00  0.40000000000E+02  0.40000000000E+02  0.00000000000E+00 0. -1.
        -11   -1    0    0    0    0 -0.00000000000E+00 -0.00000000000E+00 -0.40000000000E+02  0.40000000000E+02  0.00000000000E+00 0.  1.
         23    2    1    2    0    0  0.00000000000E+00  0.00000000000E+00  0.00000000000E+00  0.80000000000E+02  0.80000000000E+02 0.  0.
          5    1    3    3  501    0  0.26838927571E+01 -0.33454201644E+02  0.21249073203E+02  0.40000000000E+02  0.47000000000E+01 0. -1.
         -5    1    3    3    0  501 -0.26838927571E+01  0.33454201644E+02 -0.21249073203E+02  0.40000000000E+02  0.47000000000E+01 0.  1.
</event>
<event>
 5    1  0.4761089E-001  0.8000000E+02  0.7546771E-02  0.1203772E+00
         11   -1    0    0    0    0  0.00000000000E+00  0.00000000000E+00  0.40000000000E+02  0.40000000000E+02  0.00000000000E+00 0. -1.
        -11   -1    0    0    0    0 -0.00000000000E+00 -0.00000000000E+00 -0.40000000000E+02  0.40000000000E+02  0.00000000000E+00 0.  1.
         23    2    1    2    0    0  0.00000000000E+00  0.00000000000E+00  0.00000000000E+00  0.80000000000E+02  0.80000000000E+02 0.  0.
          5    1    3    3  501    0  0.23966473820E+02  0.81260473112E+00  0.31667930248E+02  0.40000000000E+02  0.47000000000E+01 0. -1.
         -5    1    3    3    0  501 -0.23966473820E+02 -0.81260473112E+00 -0.31667930248E+02  0.40000000000E+02  0.47000000000E+01 0.  1.
</event>
<event>
 5    1  0.4761089E-001  0.8000000E+02  0.7546771E-02  0.1203772E+00
         11   -1    0    0    0    0  0.00000000000E+00  0.00000000000E+00  0.40000000000E+02  0.40000000000E+02  0.00000000000E+00 0. -1.
        -11   -1    0    0    0    0 -0.00000000000E+00 -0.00000000000E+00 -0.40000000000E+02  0.40000000000E+02  0.00000000000E+00 0.  1.
         23    2    1    2    0    0  0.00000000000E+00  0.00000000000E+00  0.00000000000E+00  0.80000000000E+02  0.80000000000E+02 0.  0.
          5    1    3    3  501    0  0.39680670302E+02 -0.17712836158E+01 -0.46578832848E+00  0.40000000000E+02  0.47000000000E+01 0. -1.
         -5    1    3    3    0  501 -0.39680670302E+02  0.17712836158E+01  0.46578832848E+00  0.40000000000E+02  0.47000000000E+01 0.  1.
</event>
<event>
 5    1  0.4761089E-001  0.8000000E+02  0.7546771E-02  0.1203772E+00
         11   -1    0    0    0    0  0.00000000000E+00  0.00000000000E+00  0.40000000000E+02  0.40000000000E+02  0.00000000000E+00 0.  1.
        -11   -1    0    0    0    0 -0.00000000000E+00 -0.00000000000E+00 -0.40000000000E+02  0.40000000000E+02  0.00000000000E+00 0. -1.
         23    2    1    2    0    0  0.00000000000E+00  0.00000000000E+00  0.00000000000E+00  0.80000000000E+02  0.80000000000E+02 0.  0.
          5    1    3    3  501    0  0.16480276973E+01  0.18643672412E+01 -0.39644900548E+02  0.40000000000E+02  0.47000000000E+01 0. -1.
         -5    1    3    3    0  501 -0.16480276973E+01 -0.18643672412E+01  0.39644900548E+02  0.40000000000E+02  0.47000000000E+01 0.  1.
</event>
<event>
 5    1  0.4761089E-001  0.8000000E+02  0.7546771E-02  0.1203772E+00
         11   -1    0    0    0    0  0.00000000000E+00  0.00000000000E+00  0.40000000000E+02  0.40000000000E+02  0.00000000000E+00 0.  1.
        -11   -1    0    0    0    0 -0.00000000000E+00 -0.00000000000E+00 -0.40000000000E+02  0.40000000000E+02  0.00000000000E+00 0. -1.
         23    2    1    2    0    0  0.00000000000E+00  0.00000000000E+00  0.00000000000E+00  0.80000000000E+02  0.80000000000E+02 0.  0.
          5    1    3    3  501    0 -0.32583557597E+01 -0.14158967575E+02 -0.36970484916E+02  0.40000000000E+02  0.47000000000E+01 0. -1.
         -5    1    3    3    0  501  0.32583557597E+01  0.14158967575E+02  0.36970484916E+02  0.40000000000E+02  0.47000000000E+01 0.  1.
</event>
<event>
 5    1  0.4761089E-001  0.8000000E+02  0.7546771E-02  0.1203772E+00
         11   -1    0    0    0    0  0.00000000000E+00  0.00000000000E+00  0.40000000000E+02  0.40000000000E+02  0.00000000000E+00 0.  1.
        -11   -1    0    0    0    0 -0.00000000000E+00 -0.00000000000E+00 -0.40000000000E+02  0.40000000000E+02  0.00000000000E+00 0. -1.
         23    2    1    2    0    0  0.00000000000E+00  0.00000000000E+00  0.00000000000E+00  0.80000000000E+02  0.80000000000E+02 0.  0.
          5    1    3    3  501    0 -0.14336401384E+02  0.98968012367E+01 -0.35699172548E+02  0.40000000000E+02  0.47000000000E+01 0. -1.
         -5    1    3    3    0  501  0.14336401384E+02 -0.98968012367E+01  0.35699172548E+02  0.40000000000E+02  0.47000000000E+01 0.  1.
</event>
<event>
 5    1  0.4761089E-001  0.8000000E+02  0.7546771E-02  0.1203772E+00
         11   -1    0    0    0    0  0.00000000000E+00  0.00000000000E+00  0.40000000000E+02  0.40000000000E+02  0.00000000000E+00 0. -1.
        -11   -1    0    0    0    0 -0.00000000000E+00 -0.00000000000E+00 -0.40000000000E+02  0.40000000000E+02  0.00000000000E+00 0.  1.
         23    2    1    2    0    0  0.00000000000E+00  0.00000000000E+00  0.00000000000E+00  0.80000000000E+02  0.80000000000E+02 0.  0.
          5    1    3    3  501    0  0.28711033986E+01 -0.32919031316E+02  0.22045501639E+02  0.40000000000E+02  0.47000000000E+01 0. -1.
         -5    1    3    3    0  501 -0.28711033986E+01  0.32919031316E+02 -0.22045501639E+02  0.40000000000E+02  0.47000000000E+01 0.  1.
</event>
<event>
 5    1  0.4761089E-001  0.8000000E+02  0.7546771E-02  0.1203772E+00
         11   -1    0    0    0    0  0.00000000000E+00  0.00000000000E+00  0.40000000000E+02  0.40000000000E+02  0.00000000000E+00 0.  1.
        -11   -1    0    0    0    0 -0.00000000000E+00 -0.00000000000E+00 -0.40000000000E+02  0.40000000000E+02  0.00000000000E+00 0. -1.
         23    2    1    2    0    0  0.00000000000E+00  0.00000000000E+00  0.00000000000E+00  0.80000000000E+02  0.80000000000E+02 0.  0.
          5    1    3    3  501    0  0.12493861947E+02 -0.12989155347E+02 -0.35399085539E+02  0.40000000000E+02  0.47000000000E+01 0. -1.
         -5    1    3    3    0  501 -0.12493861947E+02  0.12989155347E+02  0.35399085539E+02  0.40000000000E+02  0.47000000000E+01 0.  1.
</event>
<event>
 5    1  0.4761089E-001  0.8000000E+02  0.7546771E-02  0.1203772E+00
         11   -1    0    0    0    0  0.00000000000E+00  0.00000000000E+00  0.40000000000E+02  0.40000000000E+02  0.00000000000E+00 0. -1.
        -11   -1    0    0    0    0 -0.00000000000E+00 -0.00000000000E+00 -0.40000000000E+02  0.40000000000E+02  0.00000000000E+00 0.  1.
         23    2    1    2    0    0  0.00000000000E+00  0.00000000000E+00  0.00000000000E+00  0.80000000000E+02  0.80000000000E+02 0.  0.
          5    1    3    3  501    0  0.12321011825E+01 -0.13226437234E+02  0.37435989165E+02  0.40000000000E+02  0.47000000000E+01 0. -1.
         -5    1    3    3    0  501 -0.12321011825E+01  0.13226437234E+02 -0.37435989165E+02  0.40000000000E+02  0.47000000000E+01 0.  1.
</event>
<event>
 5    1  0.4761089E-001  0.8000000E+02  0.7546771E-02  0.1203772E+00
         11   -1    0    0    0    0  0.00000000000E+00  0.00000000000E+00  0.40000000000E+02  0.40000000000E+02  0.00000000000E+00 0. -1.
        -11   -1    0    0    0    0 -0.00000000000E+00 -0.00000000000E+00 -0.40000000000E+02  0.40000000000E+02  0.00000000000E+00 0.  1.
         23    2    1    2    0    0  0.00000000000E+00  0.00000000000E+00  0.00000000000E+00  0.80000000000E+02  0.80000000000E+02 0.  0.
          5    1    3    3  501    0  0.12600554884E+02 -0.27941434340E+02 -0.25266821399E+02  0.40000000000E+02  0.47000000000E+01 0.  1.
         -5    1    3    3    0  501 -0.12600554884E+02  0.27941434340E+02  0.25266821399E+02  0.40000000000E+02  0.47000000000E+01 0. -1.
</event>
<event>
 5    1  0.4761089E-001  0.8000000E+02  0.7546771E-02  0.1203772E+00
         11   -1    0    0    0    0  0.00000000000E+00  0.00000000000E+00  0.40000000000E+02  0.40000000000E+02  0.00000000000E+00 0.  1.
        -11   -1    0    0    0    0 -0.00000000000E+00 -0.00000000000E+00 -0.40000000000E+02  0.40000000000E+02  0.00000000000E+00 0. -1.
         23    2    1    2    0    0  0.00000000000E+00  0.00000000000E+00  0.00000000000E+00  0.80000000000E+02  0.80000000000E+02 0.  0.
          5    1    3    3  501    0 -0.28271533678E+02  0.21448576008E+02 -0.17849060779E+02  0.40000000000E+02  0.47000000000E+01 0. -1.
         -5    1    3    3    0  501  0.28271533678E+02 -0.21448576008E+02  0.17849060779E+02  0.40000000000E+02  0.47000000000E+01 0.  1.
</event>
<event>
 5    1  0.4761089E-001  0.8000000E+02  0.7546771E-02  0.1203772E+00
         11   -1    0    0    0    0  0.00000000000E+00  0.00000000000E+00  0.40000000000E+02  0.40000000000E+02  0.00000000000E+00 0.  1.
        -11   -1    0    0    0    0 -0.00000000000E+00 -0.00000000000E+00 -0.40000000000E+02  0.40000000000E+02  0.00000000000E+00 0. -1.
         23    2    1    2    0    0  0.00000000000E+00  0.00000000000E+00  0.00000000000E+00  0.80000000000E+02  0.80000000000E+02 0.  0.
          5    1    3    3  501    0 -0.17915774154E+02 -0.64401899668E+01 -0.34863433418E+02  0.40000000000E+02  0.47000000000E+01 0. -1.
         -5    1    3    3    0  501  0.17915774154E+02  0.64401899668E+01  0.34863433418E+02  0.40000000000E+02  0.47000000000E+01 0.  1.
</event>
<event>
 5    1  0.4761089E-001  0.8000000E+02  0.7546771E-02  0.1203772E+00
         11   -1    0    0    0    0  0.00000000000E+00  0.00000000000E+00  0.40000000000E+02  0.40000000000E+02  0.00000000000E+00 0.  1.
        -11   -1    0    0    0    0 -0.00000000000E+00 -0.00000000000E+00 -0.40000000000E+02  0.40000000000E+02  0.00000000000E+00 0. -1.
         23    2    1    2    0    0  0.00000000000E+00  0.00000000000E+00  0.00000000000E+00  0.80000000000E+02  0.80000000000E+02 0.  0.
          5    1    3    3  501    0 -0.61054527999E+01  0.32297142739E+02 -0.22305336065E+02  0.40000000000E+02  0.47000000000E+01 0. -1.
         -5    1    3    3    0  501  0.61054527999E+01 -0.32297142739E+02  0.22305336065E+02  0.40000000000E+02  0.47000000000E+01 0.  1.
</event>
<event>
 5    1  0.4761089E-001  0.8000000E+02  0.7546771E-02  0.1203772E+00
         11   -1    0    0    0    0  0.00000000000E+00  0.00000000000E+00  0.40000000000E+02  0.40000000000E+02  0.00000000000E+00 0. -1.
        -11   -1    0    0    0    0 -0.00000000000E+00 -0.00000000000E+00 -0.40000000000E+02  0.40000000000E+02  0.00000000000E+00 0.  1.
         23    2    1    2    0    0  0.00000000000E+00  0.00000000000E+00  0.00000000000E+00  0.80000000000E+02  0.80000000000E+02 0.  0.
          5    1    3    3  501    0  0.11703600582E+02 -0.37598361089E+02 -0.52248422798E+01  0.40000000000E+02  0.47000000000E+01 0.  1.
         -5    1    3    3    0  501 -0.11703600582E+02  0.37598361089E+02  0.52248422798E+01  0.40000000000E+02  0.47000000000E+01 0. -1.
</event>
<event>
 5    1  0.4761089E-001  0.8000000E+02  0.7546771E-02  0.1203772E+00
         11   -1    0    0    0    0  0.00000000000E+00  0.00000000000E+00  0.40000000000E+02  0.40000000000E+02  0.00000000000E+00 0.  1.
        -11   -1    0    0    0    0 -0.00000000000E+00 -0.00000000000E+00 -0.40000000000E+02  0.40000000000E+02  0.00000000000E+00 0. -1.
         23    2    1    2    0    0  0.00000000000E+00  0.00000000000E+00  0.00000000000E+00  0.80000000000E+02  0.80000000000E+02 0.  0.
          5    1    3    3  501    0  0.74479299156E+01  0.25820199086E+02 -0.29253301679E+02  0.40000000000E+02  0.47000000000E+01 0. -1.
         -5    1    3    3    0  501 -0.74479299156E+01 -0.25820199086E+02  0.29253301679E+02  0.40000000000E+02  0.47000000000E+01 0.  1.
</event>
<event>
 5    1  0.4761089E-001  0.8000000E+02  0.7546771E-02  0.1203772E+00
         11   -1    0    0    0    0  0.00000000000E+00  0.00000000000E+00  0.40000000000E+02  0.40000000000E+02  0.00000000000E+00 0. -1.
        -11   -1    0    0    0    0 -0.00000000000E+00 -0.00000000000E+00 -0.40000000000E+02  0.40000000000E+02  0.00000000000E+00 0.  1.
         23    2    1    2    0    0  0.00000000000E+00  0.00000000000E+00  0.00000000000E+00  0.80000000000E+02  0.80000000000E+02 0.  0.
          5    1    3    3  501    0  0.32281939750E+01 -0.35737852197E+02  0.17038036389E+02  0.40000000000E+02  0.47000000000E+01 0. -1.
         -5    1    3    3    0  501 -0.32281939750E+01  0.35737852197E+02 -0.17038036389E+02  0.40000000000E+02  0.47000000000E+01 0.  1.
</event>
<event>
 5    1  0.4761089E-001  0.8000000E+02  0.7546771E-02  0.1203772E+00
         11   -1    0    0    0    0  0.00000000000E+00  0.00000000000E+00  0.40000000000E+02  0.40000000000E+02  0.00000000000E+00 0.  1.
        -11   -1    0    0    0    0 -0.00000000000E+00 -0.00000000000E+00 -0.40000000000E+02  0.40000000000E+02  0.00000000000E+00 0. -1.
         23    2    1    2    0    0  0.00000000000E+00  0.00000000000E+00  0.00000000000E+00  0.80000000000E+02  0.80000000000E+02 0.  0.
          5    1    3    3  501    0 -0.38069565861E+01  0.20876544025E+02 -0.33579562104E+02  0.40000000000E+02  0.47000000000E+01 0. -1.
         -5    1    3    3    0  501  0.38069565861E+01 -0.20876544025E+02  0.33579562104E+02  0.40000000000E+02  0.47000000000E+01 0.  1.
</event>
<event>
 5    1  0.4761089E-001  0.8000000E+02  0.7546771E-02  0.1203772E+00
         11   -1    0    0    0    0  0.00000000000E+00  0.00000000000E+00  0.40000000000E+02  0.40000000000E+02  0.00000000000E+00 0. -1.
        -11   -1    0    0    0    0 -0.00000000000E+00 -0.00000000000E+00 -0.40000000000E+02  0.40000000000E+02  0.00000000000E+00 0.  1.
         23    2    1    2    0    0  0.00000000000E+00  0.00000000000E+00  0.00000000000E+00  0.80000000000E+02  0.80000000000E+02 0.  0.
          5    1    3    3  501    0  0.28089006441E+02 -0.28071090449E+02 -0.96519332111E+00  0.40000000000E+02  0.47000000000E+01 0. -1.
         -5    1    3    3    0  501 -0.28089006441E+02  0.28071090449E+02  0.96519332111E+00  0.40000000000E+02  0.47000000000E+01 0.  1.
</event>
<event>
 5    1  0.4761089E-001  0.8000000E+02  0.7546771E-02  0.1203772E+00
         11   -1    0    0    0    0  0.00000000000E+00  0.00000000000E+00  0.40000000000E+02  0.40000000000E+02  0.00000000000E+00 0.  1.
        -11   -1    0    0    0    0 -0.00000000000E+00 -0.00000000000E+00 -0.40000000000E+02  0.40000000000E+02  0.00000000000E+00 0. -1.
         23    2    1    2    0    0  0.00000000000E+00  0.00000000000E+00  0.00000000000E+00  0.80000000000E+02  0.80000000000E+02 0.  0.
          5    1    3    3  501    0 -0.22725562566E+00  0.39719358430E+02  0.48054218694E+00  0.40000000000E+02  0.47000000000E+01 0. -1.
         -5    1    3    3    0  501  0.22725562566E+00 -0.39719358430E+02 -0.48054218694E+00  0.40000000000E+02  0.47000000000E+01 0.  1.
</event>
<event>
 5    1  0.4761089E-001  0.8000000E+02  0.7546771E-02  0.1203772E+00
         11   -1    0    0    0    0  0.00000000000E+00  0.00000000000E+00  0.40000000000E+02  0.40000000000E+02  0.00000000000E+00 0.  1.
        -11   -1    0    0    0    0 -0.00000000000E+00 -0.00000000000E+00 -0.40000000000E+02  0.40000000000E+02  0.00000000000E+00 0. -1.
         23    2    1    2    0    0  0.00000000000E+00  0.00000000000E+00  0.00000000000E+00  0.80000000000E+02  0.80000000000E+02 0.  0.
          5    1    3    3  501    0 -0.82317678531E+01  0.38723337560E+02  0.32636063255E+01  0.40000000000E+02  0.47000000000E+01 0. -1.
         -5    1    3    3    0  501  0.82317678531E+01 -0.38723337560E+02 -0.32636063255E+01  0.40000000000E+02  0.47000000000E+01 0.  1.
</event>
<event>
 5    1  0.4761089E-001  0.8000000E+02  0.7546771E-02  0.1203772E+00
         11   -1    0    0    0    0  0.00000000000E+00  0.00000000000E+00  0.40000000000E+02  0.40000000000E+02  0.00000000000E+00 0.  1.
        -11   -1    0    0    0    0 -0.00000000000E+00 -0.00000000000E+00 -0.40000000000E+02  0.40000000000E+02  0.00000000000E+00 0. -1.
         23    2    1    2    0    0  0.00000000000E+00  0.00000000000E+00  0.00000000000E+00  0.80000000000E+02  0.80000000000E+02 0.  0.
          5    1    3    3  501    0  0.38692782825E+01  0.38810733156E+02  0.75276608225E+01  0.40000000000E+02  0.47000000000E+01 0. -1.
         -5    1    3    3    0  501 -0.38692782825E+01 -0.38810733156E+02 -0.75276608225E+01  0.40000000000E+02  0.47000000000E+01 0.  1.
</event>
<event>
 5    1  0.4761089E-001  0.8000000E+02  0.7546771E-02  0.1203772E+00
         11   -1    0    0    0    0  0.00000000000E+00  0.00000000000E+00  0.40000000000E+02  0.40000000000E+02  0.00000000000E+00 0.  1.
        -11   -1    0    0    0    0 -0.00000000000E+00 -0.00000000000E+00 -0.40000000000E+02  0.40000000000E+02  0.00000000000E+00 0. -1.
         23    2    1    2    0    0  0.00000000000E+00  0.00000000000E+00  0.00000000000E+00  0.80000000000E+02  0.80000000000E+02 0.  0.
          5    1    3    3  501    0 -0.11642782905E+02 -0.26627951490E+02 -0.27079656675E+02  0.40000000000E+02  0.47000000000E+01 0. -1.
         -5    1    3    3    0  501  0.11642782905E+02  0.26627951490E+02  0.27079656675E+02  0.40000000000E+02  0.47000000000E+01 0.  1.
</event>
<event>
 5    1  0.4761089E-001  0.8000000E+02  0.7546771E-02  0.1203772E+00
         11   -1    0    0    0    0  0.00000000000E+00  0.00000000000E+00  0.40000000000E+02  0.40000000000E+02  0.00000000000E+00 0.  1.
        -11   -1    0    0    0    0 -0.00000000000E+00 -0.00000000000E+00 -0.40000000000E+02  0.40000000000E+02  0.00000000000E+00 0. -1.
         23    2    1    2    0    0  0.00000000000E+00  0.00000000000E+00  0.00000000000E+00  0.80000000000E+02  0.80000000000E+02 0.  0.
          5    1    3    3  501    0 -0.12091488610E+02 -0.31346246336E+02 -0.21192421849E+02  0.40000000000E+02  0.47000000000E+01 0. -1.
         -5    1    3    3    0  501  0.12091488610E+02  0.31346246336E+02  0.21192421849E+02  0.40000000000E+02  0.47000000000E+01 0.  1.
</event>
<event>
 5    1  0.4761089E-001  0.8000000E+02  0.7546771E-02  0.1203772E+00
         11   -1    0    0    0    0  0.00000000000E+00  0.00000000000E+00  0.40000000000E+02  0.40000000000E+02  0.00000000000E+00 0. -1.
        -11   -1    0    0    0    0 -0.00000000000E+00 -0.00000000000E+00 -0.40000000000E+02  0.40000000000E+02  0.00000000000E+00 0.  1.
         23    2    1    2    0    0  0.00000000000E+00  0.00000000000E+00  0.00000000000E+00  0.80000000000E+02  0.80000000000E+02 0.  0.
          5    1    3    3  501    0  0.36132262701E+01 -0.37485303681E+02  0.12637507818E+02  0.40000000000E+02  0.47000000000E+01 0. -1.
         -5    1    3    3    0  501 -0.36132262701E+01  0.37485303681E+02 -0.12637507818E+02  0.40000000000E+02  0.47000000000E+01 0.  1.
</event>
<event>
 5    1  0.4761089E-001  0.8000000E+02  0.7546771E-02  0.1203772E+00
         11   -1    0    0    0    0  0.00000000000E+00  0.00000000000E+00  0.40000000000E+02  0.40000000000E+02  0.00000000000E+00 0. -1.
        -11   -1    0    0    0    0 -0.00000000000E+00 -0.00000000000E+00 -0.40000000000E+02  0.40000000000E+02  0.00000000000E+00 0.  1.
         23    2    1    2    0    0  0.00000000000E+00  0.00000000000E+00  0.00000000000E+00  0.80000000000E+02  0.80000000000E+02 0.  0.
          5    1    3    3  501    0  0.17713847777E+02 -0.92700887614E+01  0.34324845976E+02  0.40000000000E+02  0.47000000000E+01 0. -1.
         -5    1    3    3    0  501 -0.17713847777E+02  0.92700887614E+01 -0.34324845976E+02  0.40000000000E+02  0.47000000000E+01 0.  1.
</event>
<event>
 5    1  0.4761089E-001  0.8000000E+02  0.7546771E-02  0.1203772E+00
         11   -1    0    0    0    0  0.00000000000E+00  0.00000000000E+00  0.40000000000E+02  0.40000000000E+02  0.00000000000E+00 0. -1.
        -11   -1    0    0    0    0 -0.00000000000E+00 -0.00000000000E+00 -0.40000000000E+02  0.40000000000E+02  0.00000000000E+00 0.  1.
         23    2    1    2    0    0  0.00000000000E+00  0.00000000000E+00  0.00000000000E+00  0.80000000000E+02  0.80000000000E+02 0.  0.
          5    1    3    3  501    0 -0.22727505379E+02  0.16140072074E+02  0.28299621423E+02  0.40000000000E+02  0.47000000000E+01 0. -1.
         -5    1    3    3    0  501  0.22727505379E+02 -0.16140072074E+02 -0.28299621423E+02  0.40000000000E+02  0.47000000000E+01 0.  1.
</event>
<event>
 5    1  0.4761089E-001  0.8000000E+02  0.7546771E-02  0.1203772E+00
         11   -1    0    0    0    0  0.00000000000E+00  0.00000000000E+00  0.40000000000E+02  0.40000000000E+02  0.00000000000E+00 0. -1.
        -11   -1    0    0    0    0 -0.00000000000E+00 -0.00000000000E+00 -0.40000000000E+02  0.40000000000E+02  0.00000000000E+00 0.  1.
         23    2    1    2    0    0  0.00000000000E+00  0.00000000000E+00  0.00000000000E+00  0.80000000000E+02  0.80000000000E+02 0.  0.
          5    1    3    3  501    0  0.32307819283E+02 -0.62106457411E+01  0.22260788231E+02  0.40000000000E+02  0.47000000000E+01 0. -1.
         -5    1    3    3    0  501 -0.32307819283E+02  0.62106457411E+01 -0.22260788231E+02  0.40000000000E+02  0.47000000000E+01 0.  1.
</event>
<event>
 5    1  0.4761089E-001  0.8000000E+02  0.7546771E-02  0.1203772E+00
         11   -1    0    0    0    0  0.00000000000E+00  0.00000000000E+00  0.40000000000E+02  0.40000000000E+02  0.00000000000E+00 0. -1.
        -11   -1    0    0    0    0 -0.00000000000E+00 -0.00000000000E+00 -0.40000000000E+02  0.40000000000E+02  0.00000000000E+00 0.  1.
         23    2    1    2    0    0  0.00000000000E+00  0.00000000000E+00  0.00000000000E+00  0.80000000000E+02  0.80000000000E+02 0.  0.
          5    1    3    3  501    0  0.11074378618E+02 -0.71643507609E+01  0.37469190229E+02  0.40000000000E+02  0.47000000000E+01 0. -1.
         -5    1    3    3    0  501 -0.11074378618E+02  0.71643507609E+01 -0.37469190229E+02  0.40000000000E+02  0.47000000000E+01 0.  1.
</event>
<event>
 5    1  0.4761089E-001  0.8000000E+02  0.7546771E-02  0.1203772E+00
         11   -1    0    0    0    0  0.00000000000E+00  0.00000000000E+00  0.40000000000E+02  0.40000000000E+02  0.00000000000E+00 0. -1.
        -11   -1    0    0    0    0 -0.00000000000E+00 -0.00000000000E+00 -0.40000000000E+02  0.40000000000E+02  0.00000000000E+00 0.  1.
         23    2    1    2    0    0  0.00000000000E+00  0.00000000000E+00  0.00000000000E+00  0.80000000000E+02  0.80000000000E+02 0.  0.
          5    1    3    3  501    0 -0.37300746362E+02  0.10928640366E+02 -0.81932374912E+01  0.40000000000E+02  0.47000000000E+01 0. -1.
         -5    1    3    3    0  501  0.37300746362E+02 -0.10928640366E+02  0.81932374912E+01  0.40000000000E+02  0.47000000000E+01 0.  1.
</event>
<event>
 5    1  0.4761089E-001  0.8000000E+02  0.7546771E-02  0.1203772E+00
         11   -1    0    0    0    0  0.00000000000E+00  0.00000000000E+00  0.40000000000E+02  0.40000000000E+02  0.00000000000E+00 0.  1.
        -11   -1    0    0    0    0 -0.00000000000E+00 -0.00000000000E+00 -0.40000000000E+02  0.40000000000E+02  0.00000000000E+00 0. -1.
         23    2    1    2    0    0  0.00000000000E+00  0.00000000000E+00  0.00000000000E+00  0.80000000000E+02  0.80000000000E+02 0.  0.
          5    1    3    3  501    0 -0.31095409201E+02 -0.15698745699E+02 -0.19092797336E+02  0.40000000000E+02  0.47000000000E+01 0. -1.
         -5    1    3    3    0  501  0.31095409201E+02  0.15698745699E+02  0.19092797336E+02  0.40000000000E+02  0.47000000000E+01 0.  1.
</event>
<event>
 5    1  0.4761089E-001  0.8000000E+02  0.7546771E-02  0.1203772E+00
         11   -1    0    0    0    0  0.00000000000E+00  0.00000000000E+00  0.40000000000E+02  0.40000000000E+02  0.00000000000E+00 0. -1.
        -11   -1    0    0    0    0 -0.00000000000E+00 -0.00000000000E+00 -0.40000000000E+02  0.40000000000E+02  0.00000000000E+00 0.  1.
         23    2    1    2    0    0  0.00000000000E+00  0.00000000000E+00  0.00000000000E+00  0.80000000000E+02  0.80000000000E+02 0.  0.
          5    1    3    3  501    0 -0.16660176932E+02  0.97450811451E+01  0.34718610255E+02  0.40000000000E+02  0.47000000000E+01 0. -1.
         -5    1    3    3    0  501  0.16660176932E+02 -0.97450811451E+01 -0.34718610255E+02  0.40000000000E+02  0.47000000000E+01 0.  1.
</event>
<event>
 5    1  0.4761089E-001  0.8000000E+02  0.7546771E-02  0.1203772E+00
         11   -1    0    0    0    0  0.00000000000E+00  0.00000000000E+00  0.40000000000E+02  0.40000000000E+02  0.00000000000E+00 0.  1.
        -11   -1    0    0    0    0 -0.00000000000E+00 -0.00000000000E+00 -0.40000000000E+02  0.40000000000E+02  0.00000000000E+00 0. -1.
         23    2    1    2    0    0  0.00000000000E+00  0.00000000000E+00  0.00000000000E+00  0.80000000000E+02  0.80000000000E+02 0.  0.
          5    1    3    3  501    0  0.11218708137E+02 -0.13478620342E+02 -0.35642353758E+02  0.40000000000E+02  0.47000000000E+01 0. -1.
         -5    1    3    3    0  501 -0.11218708137E+02  0.13478620342E+02  0.35642353758E+02  0.40000000000E+02  0.47000000000E+01 0.  1.
</event>
<event>
 5    1  0.4761089E-001  0.8000000E+02  0.7546771E-02  0.1203772E+00
         11   -1    0    0    0    0  0.00000000000E+00  0.00000000000E+00  0.40000000000E+02  0.40000000000E+02  0.00000000000E+00 0. -1.
        -11   -1    0    0    0    0 -0.00000000000E+00 -0.00000000000E+00 -0.40000000000E+02  0.40000000000E+02  0.00000000000E+00 0.  1.
         23    2    1    2    0    0  0.00000000000E+00  0.00000000000E+00  0.00000000000E+00  0.80000000000E+02  0.80000000000E+02 0.  0.
          5    1    3    3  501    0  0.30538654156E+02 -0.30145401263E+01  0.25223266049E+02  0.40000000000E+02  0.47000000000E+01 0. -1.
         -5    1    3    3    0  501 -0.30538654156E+02  0.30145401263E+01 -0.25223266049E+02  0.40000000000E+02  0.47000000000E+01 0.  1.
</event>
<event>
 5    1  0.4761089E-001  0.8000000E+02  0.7546771E-02  0.1203772E+00
         11   -1    0    0    0    0  0.00000000000E+00  0.00000000000E+00  0.40000000000E+02  0.40000000000E+02  0.00000000000E+00 0.  1.
        -11   -1    0    0    0    0 -0.00000000000E+00 -0.00000000000E+00 -0.40000000000E+02  0.40000000000E+02  0.00000000000E+00 0. -1.
         23    2    1    2    0    0  0.00000000000E+00  0.00000000000E+00  0.00000000000E+00  0.80000000000E+02  0.80000000000E+02 0.  0.
          5    1    3    3  501    0  0.86317797226E+01  0.24577169033E+02 -0.29989417152E+02  0.40000000000E+02  0.47000000000E+01 0. -1.
         -5    1    3    3    0  501 -0.86317797226E+01 -0.24577169033E+02  0.29989417152E+02  0.40000000000E+02  0.47000000000E+01 0.  1.
</event>
<event>
 5    1  0.4761089E-001  0.8000000E+02  0.7546771E-02  0.1203772E+00
         11   -1    0    0    0    0  0.00000000000E+00  0.00000000000E+00  0.40000000000E+02  0.40000000000E+02  0.00000000000E+00 0. -1.
        -11   -1    0    0    0    0 -0.00000000000E+00 -0.00000000000E+00 -0.40000000000E+02  0.40000000000E+02  0.00000000000E+00 0.  1.
         23    2    1    2    0    0  0.00000000000E+00  0.00000000000E+00  0.00000000000E+00  0.80000000000E+02  0.80000000000E+02 0.  0.
          5    1    3    3  501    0  0.36106876062E+02  0.78334398830E+01  0.14589061678E+02  0.40000000000E+02  0.47000000000E+01 0. -1.
         -5    1    3    3    0  501 -0.36106876062E+02 -0.78334398830E+01 -0.14589061678E+02  0.40000000000E+02  0.47000000000E+01 0.  1.
</event>
<event>
 5    1  0.4761089E-001  0.8000000E+02  0.7546771E-02  0.1203772E+00
         11   -1    0    0    0    0  0.00000000000E+00  0.00000000000E+00  0.40000000000E+02  0.40000000000E+02  0.00000000000E+00 0. -1.
        -11   -1    0    0    0    0 -0.00000000000E+00 -0.00000000000E+00 -0.40000000000E+02  0.40000000000E+02  0.00000000000E+00 0.  1.
         23    2    1    2    0    0  0.00000000000E+00  0.00000000000E+00  0.00000000000E+00  0.80000000000E+02  0.80000000000E+02 0.  0.
          5    1    3    3  501    0  0.59418313545E+01  0.96280174642E+01  0.38077630177E+02  0.40000000000E+02  0.47000000000E+01 0. -1.
         -5    1    3    3    0  501 -0.59418313545E+01 -0.96280174642E+01 -0.38077630177E+02  0.40000000000E+02  0.47000000000E+01 0.  1.
</event>
<event>
 5    1  0.4761089E-001  0.8000000E+02  0.7546771E-02  0.1203772E+00
         11   -1    0    0    0    0  0.00000000000E+00  0.00000000000E+00  0.40000000000E+02  0.40000000000E+02  0.00000000000E+00 0. -1.
        -11   -1    0    0    0    0 -0.00000000000E+00 -0.00000000000E+00 -0.40000000000E+02  0.40000000000E+02  0.00000000000E+00 0.  1.
         23    2    1    2    0    0  0.00000000000E+00  0.00000000000E+00  0.00000000000E+00  0.80000000000E+02  0.80000000000E+02 0.  0.
          5    1    3    3  501    0  0.28737449342E+02 -0.17444190826E+02  0.21160557926E+02  0.40000000000E+02  0.47000000000E+01 0. -1.
         -5    1    3    3    0  501 -0.28737449342E+02  0.17444190826E+02 -0.21160557926E+02  0.40000000000E+02  0.47000000000E+01 0.  1.
</event>
<event>
 5    1  0.4761089E-001  0.8000000E+02  0.7546771E-02  0.1203772E+00
         11   -1    0    0    0    0  0.00000000000E+00  0.00000000000E+00  0.40000000000E+02  0.40000000000E+02  0.00000000000E+00 0. -1.
        -11   -1    0    0    0    0 -0.00000000000E+00 -0.00000000000E+00 -0.40000000000E+02  0.40000000000E+02  0.00000000000E+00 0.  1.
         23    2    1    2    0    0  0.00000000000E+00  0.00000000000E+00  0.00000000000E+00  0.80000000000E+02  0.80000000000E+02 0.  0.
          5    1    3    3  501    0 -0.88131765120E+01 -0.11237547485E+02  0.37066905000E+02  0.40000000000E+02  0.47000000000E+01 0. -1.
         -5    1    3    3    0  501  0.88131765120E+01  0.11237547485E+02 -0.37066905000E+02  0.40000000000E+02  0.47000000000E+01 0.  1.
</event>
<event>
 5    1  0.4761089E-001  0.8000000E+02  0.7546771E-02  0.1203772E+00
         11   -1    0    0    0    0  0.00000000000E+00  0.00000000000E+00  0.40000000000E+02  0.40000000000E+02  0.00000000000E+00 0. -1.
        -11   -1    0    0    0    0 -0.00000000000E+00 -0.00000000000E+00 -0.40000000000E+02  0.40000000000E+02  0.00000000000E+00 0.  1.
         23    2    1    2    0    0  0.00000000000E+00  0.00000000000E+00  0.00000000000E+00  0.80000000000E+02  0.80000000000E+02 0.  0.
          5    1    3    3  501    0 -0.16682287017E+02 -0.23970280791E+02  0.26926509961E+02  0.40000000000E+02  0.47000000000E+01 0. -1.
         -5    1    3    3    0  501  0.16682287017E+02  0.23970280791E+02 -0.26926509961E+02  0.40000000000E+02  0.47000000000E+01 0.  1.
</event>
<event>
 5    1  0.4761089E-001  0.8000000E+02  0.7546771E-02  0.1203772E+00
         11   -1    0    0    0    0  0.00000000000E+00  0.00000000000E+00  0.40000000000E+02  0.40000000000E+02  0.00000000000E+00 0.  1.
        -11   -1    0    0    0    0 -0.00000000000E+00 -0.00000000000E+00 -0.40000000000E+02  0.40000000000E+02  0.00000000000E+00 0. -1.
         23    2    1    2    0    0  0.00000000000E+00  0.00000000000E+00  0.00000000000E+00  0.80000000000E+02  0.80000000000E+02 0.  0.
          5    1    3    3  501    0 -0.30169574985E+02  0.19366587093E+02 -0.17106783731E+02  0.40000000000E+02  0.47000000000E+01 0. -1.
         -5    1    3    3    0  501  0.30169574985E+02 -0.19366587093E+02  0.17106783731E+02  0.40000000000E+02  0.47000000000E+01 0.  1.
</event>
<event>
 5    1  0.4761089E-001  0.8000000E+02  0.7546771E-02  0.1203772E+00
         11   -1    0    0    0    0  0.00000000000E+00  0.00000000000E+00  0.40000000000E+02  0.40000000000E+02  0.00000000000E+00 0. -1.
        -11   -1    0    0    0    0 -0.00000000000E+00 -0.00000000000E+00 -0.40000000000E+02  0.40000000000E+02  0.00000000000E+00 0.  1.
         23    2    1    2    0    0  0.00000000000E+00  0.00000000000E+00  0.00000000000E+00  0.80000000000E+02  0.80000000000E+02 0.  0.
          5    1    3    3  501    0 -0.38256165088E+02 -0.67390806960E+01 -0.83042533782E+01  0.40000000000E+02  0.47000000000E+01 0. -1.
         -5    1    3    3    0  501  0.38256165088E+02  0.67390806960E+01  0.83042533782E+01  0.40000000000E+02  0.47000000000E+01 0.  1.
</event>
<event>
 5    1  0.4761089E-001  0.8000000E+02  0.7546771E-02  0.1203772E+00
         11   -1    0    0    0    0  0.00000000000E+00  0.00000000000E+00  0.40000000000E+02  0.40000000000E+02  0.00000000000E+00 0.  1.
        -11   -1    0    0    0    0 -0.00000000000E+00 -0.00000000000E+00 -0.40000000000E+02  0.40000000000E+02  0.00000000000E+00 0. -1.
         23    2    1    2    0    0  0.00000000000E+00  0.00000000000E+00  0.00000000000E+00  0.80000000000E+02  0.80000000000E+02 0.  0.
          5    1    3    3  501    0 -0.15808623007E+01  0.36059698651E+02 -0.16586410328E+02  0.40000000000E+02  0.47000000000E+01 0. -1.
         -5    1    3    3    0  501  0.15808623007E+01 -0.36059698651E+02  0.16586410328E+02  0.40000000000E+02  0.47000000000E+01 0.  1.
</event>
<event>
 5    1  0.4761089E-001  0.8000000E+02  0.7546771E-02  0.1203772E+00
         11   -1    0    0    0    0  0.00000000000E+00  0.00000000000E+00  0.40000000000E+02  0.40000000000E+02  0.00000000000E+00 0.  1.
        -11   -1    0    0    0    0 -0.00000000000E+00 -0.00000000000E+00 -0.40000000000E+02  0.40000000000E+02  0.00000000000E+00 0. -1.
         23    2    1    2    0    0  0.00000000000E+00  0.00000000000E+00  0.00000000000E+00  0.80000000000E+02  0.80000000000E+02 0.  0.
          5    1    3    3  501    0 -0.18233082393E+01 -0.27445141245E+02 -0.28659200427E+02  0.40000000000E+02  0.47000000000E+01 0. -1.
         -5    1    3    3    0  501  0.18233082393E+01  0.27445141245E+02  0.28659200427E+02  0.40000000000E+02  0.47000000000E+01 0.  1.
</event>
<event>
 5    1  0.4761089E-001  0.8000000E+02  0.7546771E-02  0.1203772E+00
         11   -1    0    0    0    0  0.00000000000E+00  0.00000000000E+00  0.40000000000E+02  0.40000000000E+02  0.00000000000E+00 0. -1.
        -11   -1    0    0    0    0 -0.00000000000E+00 -0.00000000000E+00 -0.40000000000E+02  0.40000000000E+02  0.00000000000E+00 0.  1.
         23    2    1    2    0    0  0.00000000000E+00  0.00000000000E+00  0.00000000000E+00  0.80000000000E+02  0.80000000000E+02 0.  0.
          5    1    3    3  501    0  0.36255535696E+02  0.15118871292E+02  0.59047321905E+01  0.40000000000E+02  0.47000000000E+01 0. -1.
         -5    1    3    3    0  501 -0.36255535696E+02 -0.15118871292E+02 -0.59047321905E+01  0.40000000000E+02  0.47000000000E+01 0.  1.
</event>
<event>
 5    1  0.4761089E-001  0.8000000E+02  0.7546771E-02  0.1203772E+00
         11   -1    0    0    0    0  0.00000000000E+00  0.00000000000E+00  0.40000000000E+02  0.40000000000E+02  0.00000000000E+00 0.  1.
        -11   -1    0    0    0    0 -0.00000000000E+00 -0.00000000000E+00 -0.40000000000E+02  0.40000000000E+02  0.00000000000E+00 0. -1.
         23    2    1    2    0    0  0.00000000000E+00  0.00000000000E+00  0.00000000000E+00  0.80000000000E+02  0.80000000000E+02 0.  0.
          5    1    3    3  501    0  0.75260536562E+00 -0.15864106296E+00 -0.39715468248E+02  0.40000000000E+02  0.47000000000E+01 0. -1.
         -5    1    3    3    0  501 -0.75260536562E+00  0.15864106296E+00  0.39715468248E+02  0.40000000000E+02  0.47000000000E+01 0.  1.
</event>
<event>
 5    1  0.4761089E-001  0.8000000E+02  0.7546771E-02  0.1203772E+00
         11   -1    0    0    0    0  0.00000000000E+00  0.00000000000E+00  0.40000000000E+02  0.40000000000E+02  0.00000000000E+00 0. -1.
        -11   -1    0    0    0    0 -0.00000000000E+00 -0.00000000000E+00 -0.40000000000E+02  0.40000000000E+02  0.00000000000E+00 0.  1.
         23    2    1    2    0    0  0.00000000000E+00  0.00000000000E+00  0.00000000000E+00  0.80000000000E+02  0.80000000000E+02 0.  0.
          5    1    3    3  501    0 -0.25797525415E+02 -0.23509216477E+02  0.18966138856E+02  0.40000000000E+02  0.47000000000E+01 0. -1.
         -5    1    3    3    0  501  0.25797525415E+02  0.23509216477E+02 -0.18966138856E+02  0.40000000000E+02  0.47000000000E+01 0.  1.
</event>
<event>
 5    1  0.4761089E-001  0.8000000E+02  0.7546771E-02  0.1203772E+00
         11   -1    0    0    0    0  0.00000000000E+00  0.00000000000E+00  0.40000000000E+02  0.40000000000E+02  0.00000000000E+00 0. -1.
        -11   -1    0    0    0    0 -0.00000000000E+00 -0.00000000000E+00 -0.40000000000E+02  0.40000000000E+02  0.00000000000E+00 0.  1.
         23    2    1    2    0    0  0.00000000000E+00  0.00000000000E+00  0.00000000000E+00  0.80000000000E+02  0.80000000000E+02 0.  0.
          5    1    3    3  501    0 -0.85682977172E+01  0.92724595560E+01  0.37663188500E+02  0.40000000000E+02  0.47000000000E+01 0. -1.
         -5    1    3    3    0  501  0.85682977172E+01 -0.92724595560E+01 -0.37663188500E+02  0.40000000000E+02  0.47000000000E+01 0.  1.
</event>
<event>
 5    1  0.4761089E-001  0.8000000E+02  0.7546771E-02  0.1203772E+00
         11   -1    0    0    0    0  0.00000000000E+00  0.00000000000E+00  0.40000000000E+02  0.40000000000E+02  0.00000000000E+00 0. -1.
        -11   -1    0    0    0    0 -0.00000000000E+00 -0.00000000000E+00 -0.40000000000E+02  0.40000000000E+02  0.00000000000E+00 0.  1.
         23    2    1    2    0    0  0.00000000000E+00  0.00000000000E+00  0.00000000000E+00  0.80000000000E+02  0.80000000000E+02 0.  0.
          5    1    3    3  501    0 -0.17838821690E+02  0.22194629068E+02  0.27696297248E+02  0.40000000000E+02  0.47000000000E+01 0. -1.
         -5    1    3    3    0  501  0.17838821690E+02 -0.22194629068E+02 -0.27696297248E+02  0.40000000000E+02  0.47000000000E+01 0.  1.
</event>
<event>
 5    1  0.4761089E-001  0.8000000E+02  0.7546771E-02  0.1203772E+00
         11   -1    0    0    0    0  0.00000000000E+00  0.00000000000E+00  0.40000000000E+02  0.40000000000E+02  0.00000000000E+00 0. -1.
        -11   -1    0    0    0    0 -0.00000000000E+00 -0.00000000000E+00 -0.40000000000E+02  0.40000000000E+02  0.00000000000E+00 0.  1.
         23    2    1    2    0    0  0.00000000000E+00  0.00000000000E+00  0.00000000000E+00  0.80000000000E+02  0.80000000000E+02 0.  0.
          5    1    3    3  501    0  0.31110096262E+02 -0.21981887728E+02 -0.11263592786E+02  0.40000000000E+02  0.47000000000E+01 0. -1.
         -5    1    3    3    0  501 -0.31110096262E+02  0.21981887728E+02  0.11263592786E+02  0.40000000000E+02  0.47000000000E+01 0.  1.
</event>
<event>
 5    1  0.4761089E-001  0.8000000E+02  0.7546771E-02  0.1203772E+00
         11   -1    0    0    0    0  0.00000000000E+00  0.00000000000E+00  0.40000000000E+02  0.40000000000E+02  0.00000000000E+00 0. -1.
        -11   -1    0    0    0    0 -0.00000000000E+00 -0.00000000000E+00 -0.40000000000E+02  0.40000000000E+02  0.00000000000E+00 0.  1.
         23    2    1    2    0    0  0.00000000000E+00  0.00000000000E+00  0.00000000000E+00  0.80000000000E+02  0.80000000000E+02 0.  0.
          5    1    3    3  501    0 -0.18024340263E+02  0.10510456187E+01  0.35382601109E+02  0.40000000000E+02  0.47000000000E+01 0. -1.
         -5    1    3    3    0  501  0.18024340263E+02 -0.10510456187E+01 -0.35382601109E+02  0.40000000000E+02  0.47000000000E+01 0.  1.
</event>
<event>
 5    1  0.4761089E-001  0.8000000E+02  0.7546771E-02  0.1203772E+00
         11   -1    0    0    0    0  0.00000000000E+00  0.00000000000E+00  0.40000000000E+02  0.40000000000E+02  0.00000000000E+00 0. -1.
        -11   -1    0    0    0    0 -0.00000000000E+00 -0.00000000000E+00 -0.40000000000E+02  0.40000000000E+02  0.00000000000E+00 0.  1.
         23    2    1    2    0    0  0.00000000000E+00  0.00000000000E+00  0.00000000000E+00  0.80000000000E+02  0.80000000000E+02 0.  0.
          5    1    3    3  501    0  0.22719746389E+02 -0.28616184147E+02 -0.15583232300E+02  0.40000000000E+02  0.47000000000E+01 0.  1.
         -5    1    3    3    0  501 -0.22719746389E+02  0.28616184147E+02  0.15583232300E+02  0.40000000000E+02  0.47000000000E+01 0. -1.
</event>
<event>
 5    1  0.4761089E-001  0.8000000E+02  0.7546771E-02  0.1203772E+00
         11   -1    0    0    0    0  0.00000000000E+00  0.00000000000E+00  0.40000000000E+02  0.40000000000E+02  0.00000000000E+00 0.  1.
        -11   -1    0    0    0    0 -0.00000000000E+00 -0.00000000000E+00 -0.40000000000E+02  0.40000000000E+02  0.00000000000E+00 0. -1.
         23    2    1    2    0    0  0.00000000000E+00  0.00000000000E+00  0.00000000000E+00  0.80000000000E+02  0.80000000000E+02 0.  0.
          5    1    3    3  501    0  0.17568353065E+02 -0.15894690682E+02 -0.31884506876E+02  0.40000000000E+02  0.47000000000E+01 0. -1.
         -5    1    3    3    0  501 -0.17568353065E+02  0.15894690682E+02  0.31884506876E+02  0.40000000000E+02  0.47000000000E+01 0.  1.
</event>
<event>
 5    1  0.4761089E-001  0.8000000E+02  0.7546771E-02  0.1203772E+00
         11   -1    0    0    0    0  0.00000000000E+00  0.00000000000E+00  0.40000000000E+02  0.40000000000E+02  0.00000000000E+00 0. -1.
        -11   -1    0    0    0    0 -0.00000000000E+00 -0.00000000000E+00 -0.40000000000E+02  0.40000000000E+02  0.00000000000E+00 0.  1.
         23    2    1    2    0    0  0.00000000000E+00  0.00000000000E+00  0.00000000000E+00  0.80000000000E+02  0.80000000000E+02 0.  0.
          5    1    3    3  501    0 -0.21763276853E+02 -0.32421200899E+02  0.72894110122E+01  0.40000000000E+02  0.47000000000E+01 0. -1.
         -5    1    3    3    0  501  0.21763276853E+02  0.32421200899E+02 -0.72894110122E+01  0.40000000000E+02  0.47000000000E+01 0.  1.
</event>
<event>
 5    1  0.4761089E-001  0.8000000E+02  0.7546771E-02  0.1203772E+00
         11   -1    0    0    0    0  0.00000000000E+00  0.00000000000E+00  0.40000000000E+02  0.40000000000E+02  0.00000000000E+00 0.  1.
        -11   -1    0    0    0    0 -0.00000000000E+00 -0.00000000000E+00 -0.40000000000E+02  0.40000000000E+02  0.00000000000E+00 0. -1.
         23    2    1    2    0    0  0.00000000000E+00  0.00000000000E+00  0.00000000000E+00  0.80000000000E+02  0.80000000000E+02 0.  0.
          5    1    3    3  501    0 -0.75346952588E+01 -0.93142617891E+01 -0.37873247744E+02  0.40000000000E+02  0.47000000000E+01 0. -1.
         -5    1    3    3    0  501  0.75346952588E+01  0.93142617891E+01  0.37873247744E+02  0.40000000000E+02  0.47000000000E+01 0.  1.
</event>
<event>
 5    1  0.4761089E-001  0.8000000E+02  0.7546771E-02  0.1203772E+00
         11   -1    0    0    0    0  0.00000000000E+00  0.00000000000E+00  0.40000000000E+02  0.40000000000E+02  0.00000000000E+00 0.  1.
        -11   -1    0    0    0    0 -0.00000000000E+00 -0.00000000000E+00 -0.40000000000E+02  0.40000000000E+02  0.00000000000E+00 0. -1.
         23    2    1    2    0    0  0.00000000000E+00  0.00000000000E+00  0.00000000000E+00  0.80000000000E+02  0.80000000000E+02 0.  0.
          5    1    3    3  501    0 -0.22193219291E+02 -0.32722795888E+02  0.38196396105E+01  0.40000000000E+02  0.47000000000E+01 0. -1.
         -5    1    3    3    0  501  0.22193219291E+02  0.32722795888E+02 -0.38196396105E+01  0.40000000000E+02  0.47000000000E+01 0.  1.
</event>
<event>
 5    1  0.4761089E-001  0.8000000E+02  0.7546771E-02  0.1203772E+00
         11   -1    0    0    0    0  0.00000000000E+00  0.00000000000E+00  0.40000000000E+02  0.40000000000E+02  0.00000000000E+00 0. -1.
        -11   -1    0    0    0    0 -0.00000000000E+00 -0.00000000000E+00 -0.40000000000E+02  0.40000000000E+02  0.00000000000E+00 0.  1.
         23    2    1    2    0    0  0.00000000000E+00  0.00000000000E+00  0.00000000000E+00  0.80000000000E+02  0.80000000000E+02 0.  0.
          5    1    3    3  501    0  0.16087391066E+02 -0.15735534466E+02  0.32733756334E+02  0.40000000000E+02  0.47000000000E+01 0. -1.
         -5    1    3    3    0  501 -0.16087391066E+02  0.15735534466E+02 -0.32733756334E+02  0.40000000000E+02  0.47000000000E+01 0.  1.
</event>
<event>
 5    1  0.4761089E-001  0.8000000E+02  0.7546771E-02  0.1203772E+00
         11   -1    0    0    0    0  0.00000000000E+00  0.00000000000E+00  0.40000000000E+02  0.40000000000E+02  0.00000000000E+00 0.  1.
        -11   -1    0    0    0    0 -0.00000000000E+00 -0.00000000000E+00 -0.40000000000E+02  0.40000000000E+02  0.00000000000E+00 0. -1.
         23    2    1    2    0    0  0.00000000000E+00  0.00000000000E+00  0.00000000000E+00  0.80000000000E+02  0.80000000000E+02 0.  0.
          5    1    3    3  501    0 -0.21323827656E+02  0.33372179546E+00 -0.33512579785E+02  0.40000000000E+02  0.47000000000E+01 0. -1.
         -5    1    3    3    0  501  0.21323827656E+02 -0.33372179546E+00  0.33512579785E+02  0.40000000000E+02  0.47000000000E+01 0.  1.
</event>
<event>
 5    1  0.4761089E-001  0.8000000E+02  0.7546771E-02  0.1203772E+00
         11   -1    0    0    0    0  0.00000000000E+00  0.00000000000E+00  0.40000000000E+02  0.40000000000E+02  0.00000000000E+00 0. -1.
        -11   -1    0    0    0    0 -0.00000000000E+00 -0.00000000000E+00 -0.40000000000E+02  0.40000000000E+02  0.00000000000E+00 0.  1.
         23    2    1    2    0    0  0.00000000000E+00  0.00000000000E+00  0.00000000000E+00  0.80000000000E+02  0.80000000000E+02 0.  0.
          5    1    3    3  501    0 -0.49539417025E+01 -0.39194262782E+02  0.41446624235E+01  0.40000000000E+02  0.47000000000E+01 0.  1.
         -5    1    3    3    0  501  0.49539417025E+01  0.39194262782E+02 -0.41446624235E+01  0.40000000000E+02  0.47000000000E+01 0. -1.
</event>
<event>
 5    1  0.4761089E-001  0.8000000E+02  0.7546771E-02  0.1203772E+00
         11   -1    0    0    0    0  0.00000000000E+00  0.00000000000E+00  0.40000000000E+02  0.40000000000E+02  0.00000000000E+00 0.  1.
        -11   -1    0    0    0    0 -0.00000000000E+00 -0.00000000000E+00 -0.40000000000E+02  0.40000000000E+02  0.00000000000E+00 0. -1.
         23    2    1    2    0    0  0.00000000000E+00  0.00000000000E+00  0.00000000000E+00  0.80000000000E+02  0.80000000000E+02 0.  0.
          5    1    3    3  501    0  0.13691311211E+01  0.34705148717E+02 -0.19276621398E+02  0.40000000000E+02  0.47000000000E+01 0. -1.
         -5    1    3    3    0  501 -0.13691311211E+01 -0.34705148717E+02  0.19276621398E+02  0.40000000000E+02  0.47000000000E+01 0.  1.
</event>
<event>
 5    1  0.4761089E-001  0.8000000E+02  0.7546771E-02  0.1203772E+00
         11   -1    0    0    0    0  0.00000000000E+00  0.00000000000E+00  0.40000000000E+02  0.40000000000E+02  0.00000000000E+00 0. -1.
        -11   -1    0    0    0    0 -0.00000000000E+00 -0.00000000000E+00 -0.40000000000E+02  0.40000000000E+02  0.00000000000E+00 0.  1.
         23    2    1    2    0    0  0.00000000000E+00  0.00000000000E+00  0.00000000000E+00  0.80000000000E+02  0.80000000000E+02 0.  0.
          5    1    3    3  501    0  0.24445455394E+02 -0.25609727869E+02  0.18013093822E+02  0.40000000000E+02  0.47000000000E+01 0. -1.
         -5    1    3    3    0  501 -0.24445455394E+02  0.25609727869E+02 -0.18013093822E+02  0.40000000000E+02  0.47000000000E+01 0.  1.
</event>
<event>
 5    1  0.4761089E-001  0.8000000E+02  0.7546771E-02  0.1203772E+00
         11   -1    0    0    0    0  0.00000000000E+00  0.00000000000E+00  0.40000000000E+02  0.40000000000E+02  0.00000000000E+00 0.  1.
        -11   -1    0    0    0    0 -0.00000000000E+00 -0.00000000000E+00 -0.40000000000E+02  0.40000000000E+02  0.00000000000E+00 0. -1.
         23    2    1    2    0    0  0.00000000000E+00  0.00000000000E+00  0.00000000000E+00  0.80000000000E+02  0.80000000000E+02 0.  0.
          5    1    3    3  501    0 -0.16544333993E+02  0.36083304413E+02  0.14799173579E+01  0.40000000000E+02  0.47000000000E+01 0. -1.
         -5    1    3    3    0  501  0.16544333993E+02 -0.36083304413E+02 -0.14799173579E+01  0.40000000000E+02  0.47000000000E+01 0.  1.
</event>
<event>
 5    1  0.4761089E-001  0.8000000E+02  0.7546771E-02  0.1203772E+00
         11   -1    0    0    0    0  0.00000000000E+00  0.00000000000E+00  0.40000000000E+02  0.40000000000E+02  0.00000000000E+00 0. -1.
        -11   -1    0    0    0    0 -0.00000000000E+00 -0.00000000000E+00 -0.40000000000E+02  0.40000000000E+02  0.00000000000E+00 0.  1.
         23    2    1    2    0    0  0.00000000000E+00  0.00000000000E+00  0.00000000000E+00  0.80000000000E+02  0.80000000000E+02 0.  0.
          5    1    3    3  501    0 -0.32896456651E+02  0.15737250621E+02  0.15750304211E+02  0.40000000000E+02  0.47000000000E+01 0. -1.
         -5    1    3    3    0  501  0.32896456651E+02 -0.15737250621E+02 -0.15750304211E+02  0.40000000000E+02  0.47000000000E+01 0.  1.
</event>
<event>
 5    1  0.4761089E-001  0.8000000E+02  0.7546771E-02  0.1203772E+00
         11   -1    0    0    0    0  0.00000000000E+00  0.00000000000E+00  0.40000000000E+02  0.40000000000E+02  0.00000000000E+00 0. -1.
        -11   -1    0    0    0    0 -0.00000000000E+00 -0.00000000000E+00 -0.40000000000E+02  0.40000000000E+02  0.00000000000E+00 0.  1.
         23    2    1    2    0    0  0.00000000000E+00  0.00000000000E+00  0.00000000000E+00  0.80000000000E+02  0.80000000000E+02 0.  0.
          5    1    3    3  501    0 -0.13040075150E+02  0.28543784093E+02  0.24354031077E+02  0.40000000000E+02  0.47000000000E+01 0. -1.
         -5    1    3    3    0  501  0.13040075150E+02 -0.28543784093E+02 -0.24354031077E+02  0.40000000000E+02  0.47000000000E+01 0.  1.
</event>
<event>
 5    1  0.4761089E-001  0.8000000E+02  0.7546771E-02  0.1203772E+00
         11   -1    0    0    0    0  0.00000000000E+00  0.00000000000E+00  0.40000000000E+02  0.40000000000E+02  0.00000000000E+00 0. -1.
        -11   -1    0    0    0    0 -0.00000000000E+00 -0.00000000000E+00 -0.40000000000E+02  0.40000000000E+02  0.00000000000E+00 0.  1.
         23    2    1    2    0    0  0.00000000000E+00  0.00000000000E+00  0.00000000000E+00  0.80000000000E+02  0.80000000000E+02 0.  0.
          5    1    3    3  501    0  0.34490224696E+02  0.16853211733E+02 -0.10212916071E+02  0.40000000000E+02  0.47000000000E+01 0. -1.
         -5    1    3    3    0  501 -0.34490224696E+02 -0.16853211733E+02  0.10212916071E+02  0.40000000000E+02  0.47000000000E+01 0.  1.
</event>
<event>
 5    1  0.4761089E-001  0.8000000E+02  0.7546771E-02  0.1203772E+00
         11   -1    0    0    0    0  0.00000000000E+00  0.00000000000E+00  0.40000000000E+02  0.40000000000E+02  0.00000000000E+00 0.  1.
        -11   -1    0    0    0    0 -0.00000000000E+00 -0.00000000000E+00 -0.40000000000E+02  0.40000000000E+02  0.00000000000E+00 0. -1.
         23    2    1    2    0    0  0.00000000000E+00  0.00000000000E+00  0.00000000000E+00  0.80000000000E+02  0.80000000000E+02 0.  0.
          5    1    3    3  501    0  0.36690662336E+02  0.37700930978E+01 -0.14747599649E+02  0.40000000000E+02  0.47000000000E+01 0. -1.
         -5    1    3    3    0  501 -0.36690662336E+02 -0.37700930978E+01  0.14747599649E+02  0.40000000000E+02  0.47000000000E+01 0.  1.
</event>
<event>
 5    1  0.4761089E-001  0.8000000E+02  0.7546771E-02  0.1203772E+00
         11   -1    0    0    0    0  0.00000000000E+00  0.00000000000E+00  0.40000000000E+02  0.40000000000E+02  0.00000000000E+00 0.  1.
        -11   -1    0    0    0    0 -0.00000000000E+00 -0.00000000000E+00 -0.40000000000E+02  0.40000000000E+02  0.00000000000E+00 0. -1.
         23    2    1    2    0    0  0.00000000000E+00  0.00000000000E+00  0.00000000000E+00  0.80000000000E+02  0.80000000000E+02 0.  0.
          5    1    3    3  501    0  0.86792314665E+01 -0.74392125399E+01 -0.38042595310E+02  0.40000000000E+02  0.47000000000E+01 0. -1.
         -5    1    3    3    0  501 -0.86792314665E+01  0.74392125399E+01  0.38042595310E+02  0.40000000000E+02  0.47000000000E+01 0.  1.
</event>
<event>
 5    1  0.4761089E-001  0.8000000E+02  0.7546771E-02  0.1203772E+00
         11   -1    0    0    0    0  0.00000000000E+00  0.00000000000E+00  0.40000000000E+02  0.40000000000E+02  0.00000000000E+00 0.  1.
        -11   -1    0    0    0    0 -0.00000000000E+00 -0.00000000000E+00 -0.40000000000E+02  0.40000000000E+02  0.00000000000E+00 0. -1.
         23    2    1    2    0    0  0.00000000000E+00  0.00000000000E+00  0.00000000000E+00  0.80000000000E+02  0.80000000000E+02 0.  0.
          5    1    3    3  501    0 -0.30927524454E+02  0.88256806758E+01 -0.23313206381E+02  0.40000000000E+02  0.47000000000E+01 0. -1.
         -5    1    3    3    0  501  0.30927524454E+02 -0.88256806758E+01  0.23313206381E+02  0.40000000000E+02  0.47000000000E+01 0.  1.
</event>
<event>
 5    1  0.4761089E-001  0.8000000E+02  0.7546771E-02  0.1203772E+00
         11   -1    0    0    0    0  0.00000000000E+00  0.00000000000E+00  0.40000000000E+02  0.40000000000E+02  0.00000000000E+00 0. -1.
        -11   -1    0    0    0    0 -0.00000000000E+00 -0.00000000000E+00 -0.40000000000E+02  0.40000000000E+02  0.00000000000E+00 0.  1.
         23    2    1    2    0    0  0.00000000000E+00  0.00000000000E+00  0.00000000000E+00  0.80000000000E+02  0.80000000000E+02 0.  0.
          5    1    3    3  501    0 -0.33014432930E+01  0.25648050728E+01  0.39502306858E+02  0.40000000000E+02  0.47000000000E+01 0. -1.
         -5    1    3    3    0  501  0.33014432930E+01 -0.25648050728E+01 -0.39502306858E+02  0.40000000000E+02  0.47000000000E+01 0.  1.
</event>
<event>
 5    1  0.4761089E-001  0.8000000E+02  0.7546771E-02  0.1203772E+00
         11   -1    0    0    0    0  0.00000000000E+00  0.00000000000E+00  0.40000000000E+02  0.40000000000E+02  0.00000000000E+00 0.  1.
        -11   -1    0    0    0    0 -0.00000000000E+00 -0.00000000000E+00 -0.40000000000E+02  0.40000000000E+02  0.00000000000E+00 0. -1.
         23    2    1    2    0    0  0.00000000000E+00  0.00000000000E+00  0.00000000000E+00  0.80000000000E+02  0.80000000000E+02 0.  0.
          5    1    3    3  501    0 -0.34694746566E+02  0.31964593762E+01 -0.19077924629E+02  0.40000000000E+02  0.47000000000E+01 0. -1.
         -5    1    3    3    0  501  0.34694746566E+02 -0.31964593762E+01  0.19077924629E+02  0.40000000000E+02  0.47000000000E+01 0.  1.
</event>
<event>
 5    1  0.4761089E-001  0.8000000E+02  0.7546771E-02  0.1203772E+00
         11   -1    0    0    0    0  0.00000000000E+00  0.00000000000E+00  0.40000000000E+02  0.40000000000E+02  0.00000000000E+00 0.  1.
        -11   -1    0    0    0    0 -0.00000000000E+00 -0.00000000000E+00 -0.40000000000E+02  0.40000000000E+02  0.00000000000E+00 0. -1.
         23    2    1    2    0    0  0.00000000000E+00  0.00000000000E+00  0.00000000000E+00  0.80000000000E+02  0.80000000000E+02 0.  0.
          5    1    3    3  501    0 -0.30658344893E+02  0.12677734226E+02 -0.21846073865E+02  0.40000000000E+02  0.47000000000E+01 0. -1.
         -5    1    3    3    0  501  0.30658344893E+02 -0.12677734226E+02  0.21846073865E+02  0.40000000000E+02  0.47000000000E+01 0.  1.
</event>
<event>
 5    1  0.4761089E-001  0.8000000E+02  0.7546771E-02  0.1203772E+00
         11   -1    0    0    0    0  0.00000000000E+00  0.00000000000E+00  0.40000000000E+02  0.40000000000E+02  0.00000000000E+00 0. -1.
        -11   -1    0    0    0    0 -0.00000000000E+00 -0.00000000000E+00 -0.40000000000E+02  0.40000000000E+02  0.00000000000E+00 0.  1.
         23    2    1    2    0    0  0.00000000000E+00  0.00000000000E+00  0.00000000000E+00  0.80000000000E+02  0.80000000000E+02 0.  0.
          5    1    3    3  501    0  0.10017856077E+02 -0.29501522271E+02 -0.24641687103E+02  0.40000000000E+02  0.47000000000E+01 0.  1.
         -5    1    3    3    0  501 -0.10017856077E+02  0.29501522271E+02  0.24641687103E+02  0.40000000000E+02  0.47000000000E+01 0. -1.
</event>
<event>
 5    1  0.4761089E-001  0.8000000E+02  0.7546771E-02  0.1203772E+00
         11   -1    0    0    0    0  0.00000000000E+00  0.00000000000E+00  0.40000000000E+02  0.40000000000E+02  0.00000000000E+00 0.  1.
        -11   -1    0    0    0    0 -0.00000000000E+00 -0.00000000000E+00 -0.40000000000E+02  0.40000000000E+02  0.00000000000E+00 0. -1.
         23    2    1    2    0    0  0.00000000000E+00  0.00000000000E+00  0.00000000000E+00  0.80000000000E+02  0.80000000000E+02 0.  0.
          5    1    3    3  501    0 -0.25386424606E+01 -0.19215421552E+02 -0.34673229862E+02  0.40000000000E+02  0.47000000000E+01 0. -1.
         -5    1    3    3    0  501  0.25386424606E+01  0.19215421552E+02  0.34673229862E+02  0.40000000000E+02  0.47000000000E+01 0.  1.
</event>
<event>
 5    1  0.4761089E-001  0.8000000E+02  0.7546771E-02  0.1203772E+00
         11   -1    0    0    0    0  0.00000000000E+00  0.00000000000E+00  0.40000000000E+02  0.40000000000E+02  0.00000000000E+00 0. -1.
        -11   -1    0    0    0    0 -0.00000000000E+00 -0.00000000000E+00 -0.40000000000E+02  0.40000000000E+02  0.00000000000E+00 0.  1.
         23    2    1    2    0    0  0.00000000000E+00  0.00000000000E+00  0.00000000000E+00  0.80000000000E+02  0.80000000000E+02 0.  0.
          5    1    3    3  501    0  0.97202700595E+01  0.14963755214E+02 -0.35489609463E+02  0.40000000000E+02  0.47000000000E+01 0.  1.
         -5    1    3    3    0  501 -0.97202700595E+01 -0.14963755214E+02  0.35489609463E+02  0.40000000000E+02  0.47000000000E+01 0. -1.
</event>
<event>
 5    1  0.4761089E-001  0.8000000E+02  0.7546771E-02  0.1203772E+00
         11   -1    0    0    0    0  0.00000000000E+00  0.00000000000E+00  0.40000000000E+02  0.40000000000E+02  0.00000000000E+00 0.  1.
        -11   -1    0    0    0    0 -0.00000000000E+00 -0.00000000000E+00 -0.40000000000E+02  0.40000000000E+02  0.00000000000E+00 0. -1.
         23    2    1    2    0    0  0.00000000000E+00  0.00000000000E+00  0.00000000000E+00  0.80000000000E+02  0.80000000000E+02 0.  0.
          5    1    3    3  501    0  0.38156589915E+02 -0.85999168956E+01 -0.69300848094E+01  0.40000000000E+02  0.47000000000E+01 0. -1.
         -5    1    3    3    0  501 -0.38156589915E+02  0.85999168956E+01  0.69300848094E+01  0.40000000000E+02  0.47000000000E+01 0.  1.
</event>
<event>
 5    1  0.4761089E-001  0.8000000E+02  0.7546771E-02  0.1203772E+00
         11   -1    0    0    0    0  0.00000000000E+00  0.00000000000E+00  0.40000000000E+02  0.40000000000E+02  0.00000000000E+00 0. -1.
        -11   -1    0    0    0    0 -0.00000000000E+00 -0.00000000000E+00 -0.40000000000E+02  0.40000000000E+02  0.00000000000E+00 0.  1.
         23    2    1    2    0    0  0.00000000000E+00  0.00000000000E+00  0.00000000000E+00  0.80000000000E+02  0.80000000000E+02 0.  0.
          5    1    3    3  501    0  0.88041267009E+01 -0.20934777684E+02 -0.32590373369E+02  0.40000000000E+02  0.47000000000E+01 0.  1.
         -5    1    3    3    0  501 -0.88041267009E+01  0.20934777684E+02  0.32590373369E+02  0.40000000000E+02  0.47000000000E+01 0. -1.
</event>
<event>
 5    1  0.4761089E-001  0.8000000E+02  0.7546771E-02  0.1203772E+00
         11   -1    0    0    0    0  0.00000000000E+00  0.00000000000E+00  0.40000000000E+02  0.40000000000E+02  0.00000000000E+00 0.  1.
        -11   -1    0    0    0    0 -0.00000000000E+00 -0.00000000000E+00 -0.40000000000E+02  0.40000000000E+02  0.00000000000E+00 0. -1.
         23    2    1    2    0    0  0.00000000000E+00  0.00000000000E+00  0.00000000000E+00  0.80000000000E+02  0.80000000000E+02 0.  0.
          5    1    3    3  501    0  0.82659170525E+01  0.29429327795E+02 -0.25367287612E+02  0.40000000000E+02  0.47000000000E+01 0. -1.
         -5    1    3    3    0  501 -0.82659170525E+01 -0.29429327795E+02  0.25367287612E+02  0.40000000000E+02  0.47000000000E+01 0.  1.
</event>
<event>
 5    1  0.4761089E-001  0.8000000E+02  0.7546771E-02  0.1203772E+00
         11   -1    0    0    0    0  0.00000000000E+00  0.00000000000E+00  0.40000000000E+02  0.40000000000E+02  0.00000000000E+00 0. -1.
        -11   -1    0    0    0    0 -0.00000000000E+00 -0.00000000000E+00 -0.40000000000E+02  0.40000000000E+02  0.00000000000E+00 0.  1.
         23    2    1    2    0    0  0.00000000000E+00  0.00000000000E+00  0.00000000000E+00  0.80000000000E+02  0.80000000000E+02 0.  0.
          5    1    3    3  501    0 -0.20339807685E+02  0.16180124686E+02  0.30040069715E+02  0.40000000000E+02  0.47000000000E+01 0. -1.
         -5    1    3    3    0  501  0.20339807685E+02 -0.16180124686E+02 -0.30040069715E+02  0.40000000000E+02  0.47000000000E+01 0.  1.
</event>
<event>
 5    1  0.4761089E-001  0.8000000E+02  0.7546771E-02  0.1203772E+00
         11   -1    0    0    0    0  0.00000000000E+00  0.00000000000E+00  0.40000000000E+02  0.40000000000E+02  0.00000000000E+00 0.  1.
        -11   -1    0    0    0    0 -0.00000000000E+00 -0.00000000000E+00 -0.40000000000E+02  0.40000000000E+02  0.00000000000E+00 0. -1.
         23    2    1    2    0    0  0.00000000000E+00  0.00000000000E+00  0.00000000000E+00  0.80000000000E+02  0.80000000000E+02 0.  0.
          5    1    3    3  501    0 -0.35625725947E+02 -0.16594070468E+02  0.57753334151E+01  0.40000000000E+02  0.47000000000E+01 0. -1.
         -5    1    3    3    0  501  0.35625725947E+02  0.16594070468E+02 -0.57753334151E+01  0.40000000000E+02  0.47000000000E+01 0.  1.
</event>
<event>
 5    1  0.4761089E-001  0.8000000E+02  0.7546771E-02  0.1203772E+00
         11   -1    0    0    0    0  0.00000000000E+00  0.00000000000E+00  0.40000000000E+02  0.40000000000E+02  0.00000000000E+00 0. -1.
        -11   -1    0    0    0    0 -0.00000000000E+00 -0.00000000000E+00 -0.40000000000E+02  0.40000000000E+02  0.00000000000E+00 0.  1.
         23    2    1    2    0    0  0.00000000000E+00  0.00000000000E+00  0.00000000000E+00  0.80000000000E+02  0.80000000000E+02 0.  0.
          5    1    3    3  501    0 -0.23800447141E+02 -0.25085097159E+02  0.19549593765E+02  0.40000000000E+02  0.47000000000E+01 0. -1.
         -5    1    3    3    0  501  0.23800447141E+02  0.25085097159E+02 -0.19549593765E+02  0.40000000000E+02  0.47000000000E+01 0.  1.
</event>
<event>
 5    1  0.4761089E-001  0.8000000E+02  0.7546771E-02  0.1203772E+00
         11   -1    0    0    0    0  0.00000000000E+00  0.00000000000E+00  0.40000000000E+02  0.40000000000E+02  0.00000000000E+00 0. -1.
        -11   -1    0    0    0    0 -0.00000000000E+00 -0.00000000000E+00 -0.40000000000E+02  0.40000000000E+02  0.00000000000E+00 0.  1.
         23    2    1    2    0    0  0.00000000000E+00  0.00000000000E+00  0.00000000000E+00  0.80000000000E+02  0.80000000000E+02 0.  0.
          5    1    3    3  501    0 -0.60642182098E+01 -0.18714172211E+02  0.34509636567E+02  0.40000000000E+02  0.47000000000E+01 0. -1.
         -5    1    3    3    0  501  0.60642182098E+01  0.18714172211E+02 -0.34509636567E+02  0.40000000000E+02  0.47000000000E+01 0.  1.
</event>
<event>
 5    1  0.4761089E-001  0.8000000E+02  0.7546771E-02  0.1203772E+00
         11   -1    0    0    0    0  0.00000000000E+00  0.00000000000E+00  0.40000000000E+02  0.40000000000E+02  0.00000000000E+00 0. -1.
        -11   -1    0    0    0    0 -0.00000000000E+00 -0.00000000000E+00 -0.40000000000E+02  0.40000000000E+02  0.00000000000E+00 0.  1.
         23    2    1    2    0    0  0.00000000000E+00  0.00000000000E+00  0.00000000000E+00  0.80000000000E+02  0.80000000000E+02 0.  0.
          5    1    3    3  501    0 -0.14042417172E+02  0.13497777611E+02 -0.34619799530E+02  0.40000000000E+02  0.47000000000E+01 0.  1.
         -5    1    3    3    0  501  0.14042417172E+02 -0.13497777611E+02  0.34619799530E+02  0.40000000000E+02  0.47000000000E+01 0. -1.
</event>
<event>
 5    1  0.4761089E-001  0.8000000E+02  0.7546771E-02  0.1203772E+00
         11   -1    0    0    0    0  0.00000000000E+00  0.00000000000E+00  0.40000000000E+02  0.40000000000E+02  0.00000000000E+00 0.  1.
        -11   -1    0    0    0    0 -0.00000000000E+00 -0.00000000000E+00 -0.40000000000E+02  0.40000000000E+02  0.00000000000E+00 0. -1.
         23    2    1    2    0    0  0.00000000000E+00  0.00000000000E+00  0.00000000000E+00  0.80000000000E+02  0.80000000000E+02 0.  0.
          5    1    3    3  501    0  0.33458233635E+02 -0.20388445788E+02  0.65397156188E+01  0.40000000000E+02  0.47000000000E+01 0. -1.
         -5    1    3    3    0  501 -0.33458233635E+02  0.20388445788E+02 -0.65397156188E+01  0.40000000000E+02  0.47000000000E+01 0.  1.
</event>
<event>
 5    1  0.4761089E-001  0.8000000E+02  0.7546771E-02  0.1203772E+00
         11   -1    0    0    0    0  0.00000000000E+00  0.00000000000E+00  0.40000000000E+02  0.40000000000E+02  0.00000000000E+00 0.  1.
        -11   -1    0    0    0    0 -0.00000000000E+00 -0.00000000000E+00 -0.40000000000E+02  0.40000000000E+02  0.00000000000E+00 0. -1.
         23    2    1    2    0    0  0.00000000000E+00  0.00000000000E+00  0.00000000000E+00  0.80000000000E+02  0.80000000000E+02 0.  0.
          5    1    3    3  501    0 -0.34654498524E+01 -0.64684543286E+00 -0.39566175558E+02  0.40000000000E+02  0.47000000000E+01 0. -1.
         -5    1    3    3    0  501  0.34654498524E+01  0.64684543286E+00  0.39566175558E+02  0.40000000000E+02  0.47000000000E+01 0.  1.
</event>
<event>
 5    1  0.4761089E-001  0.8000000E+02  0.7546771E-02  0.1203772E+00
         11   -1    0    0    0    0  0.00000000000E+00  0.00000000000E+00  0.40000000000E+02  0.40000000000E+02  0.00000000000E+00 0.  1.
        -11   -1    0    0    0    0 -0.00000000000E+00 -0.00000000000E+00 -0.40000000000E+02  0.40000000000E+02  0.00000000000E+00 0. -1.
         23    2    1    2    0    0  0.00000000000E+00  0.00000000000E+00  0.00000000000E+00  0.80000000000E+02  0.80000000000E+02 0.  0.
          5    1    3    3  501    0  0.36636373335E+02 -0.14398683330E+02 -0.53257926382E+01  0.40000000000E+02  0.47000000000E+01 0. -1.
         -5    1    3    3    0  501 -0.36636373335E+02  0.14398683330E+02  0.53257926382E+01  0.40000000000E+02  0.47000000000E+01 0.  1.
</event>
<event>
 5    1  0.4761089E-001  0.8000000E+02  0.7546771E-02  0.1203772E+00
         11   -1    0    0    0    0  0.00000000000E+00  0.00000000000E+00  0.40000000000E+02  0.40000000000E+02  0.00000000000E+00 0. -1.
        -11   -1    0    0    0    0 -0.00000000000E+00 -0.00000000000E+00 -0.40000000000E+02  0.40000000000E+02  0.00000000000E+00 0.  1.
         23    2    1    2    0    0  0.00000000000E+00  0.00000000000E+00  0.00000000000E+00  0.80000000000E+02  0.80000000000E+02 0.  0.
          5    1    3    3  501    0 -0.12977962457E+01 -0.31211172032E+02 -0.24537491014E+02  0.40000000000E+02  0.47000000000E+01 0.  1.
         -5    1    3    3    0  501  0.12977962457E+01  0.31211172032E+02  0.24537491014E+02  0.40000000000E+02  0.47000000000E+01 0. -1.
</event>
<event>
 5    1  0.4761089E-001  0.8000000E+02  0.7546771E-02  0.1203772E+00
         11   -1    0    0    0    0  0.00000000000E+00  0.00000000000E+00  0.40000000000E+02  0.40000000000E+02  0.00000000000E+00 0. -1.
        -11   -1    0    0    0    0 -0.00000000000E+00 -0.00000000000E+00 -0.40000000000E+02  0.40000000000E+02  0.00000000000E+00 0.  1.
         23    2    1    2    0    0  0.00000000000E+00  0.00000000000E+00  0.00000000000E+00  0.80000000000E+02  0.80000000000E+02 0.  0.
          5    1    3    3  501    0  0.19320259365E+02  0.24133071083E+02  0.24944587753E+02  0.40000000000E+02  0.47000000000E+01 0. -1.
         -5    1    3    3    0  501 -0.19320259365E+02 -0.24133071083E+02 -0.24944587753E+02  0.40000000000E+02  0.47000000000E+01 0.  1.
</event>
<event>
 5    1  0.4761089E-001  0.8000000E+02  0.7546771E-02  0.1203772E+00
         11   -1    0    0    0    0  0.00000000000E+00  0.00000000000E+00  0.40000000000E+02  0.40000000000E+02  0.00000000000E+00 0.  1.
        -11   -1    0    0    0    0 -0.00000000000E+00 -0.00000000000E+00 -0.40000000000E+02  0.40000000000E+02  0.00000000000E+00 0. -1.
         23    2    1    2    0    0  0.00000000000E+00  0.00000000000E+00  0.00000000000E+00  0.80000000000E+02  0.80000000000E+02 0.  0.
          5    1    3    3  501    0  0.31714119676E+02 -0.22058264328E+02 -0.92497344857E+01  0.40000000000E+02  0.47000000000E+01 0. -1.
         -5    1    3    3    0  501 -0.31714119676E+02  0.22058264328E+02  0.92497344857E+01  0.40000000000E+02  0.47000000000E+01 0.  1.
</event>
<event>
 5    1  0.4761089E-001  0.8000000E+02  0.7546771E-02  0.1203772E+00
         11   -1    0    0    0    0  0.00000000000E+00  0.00000000000E+00  0.40000000000E+02  0.40000000000E+02  0.00000000000E+00 0. -1.
        -11   -1    0    0    0    0 -0.00000000000E+00 -0.00000000000E+00 -0.40000000000E+02  0.40000000000E+02  0.00000000000E+00 0.  1.
         23    2    1    2    0    0  0.00000000000E+00  0.00000000000E+00  0.00000000000E+00  0.80000000000E+02  0.80000000000E+02 0.  0.
          5    1    3    3  501    0 -0.20629112969E+02  0.12506457269E+02 -0.31558488948E+02  0.40000000000E+02  0.47000000000E+01 0.  1.
         -5    1    3    3    0  501  0.20629112969E+02 -0.12506457269E+02  0.31558488948E+02  0.40000000000E+02  0.47000000000E+01 0. -1.
</event>
<event>
 5    1  0.4761089E-001  0.8000000E+02  0.7546771E-02  0.1203772E+00
         11   -1    0    0    0    0  0.00000000000E+00  0.00000000000E+00  0.40000000000E+02  0.40000000000E+02  0.00000000000E+00 0.  1.
        -11   -1    0    0    0    0 -0.00000000000E+00 -0.00000000000E+00 -0.40000000000E+02  0.40000000000E+02  0.00000000000E+00 0. -1.
         23    2    1    2    0    0  0.00000000000E+00  0.00000000000E+00  0.00000000000E+00  0.80000000000E+02  0.80000000000E+02 0.  0.
          5    1    3    3  501    0  0.82774668191E+01  0.31839011466E+02  0.22263667531E+02  0.40000000000E+02  0.47000000000E+01 0. -1.
         -5    1    3    3    0  501 -0.82774668191E+01 -0.31839011466E+02 -0.22263667531E+02  0.40000000000E+02  0.47000000000E+01 0.  1.
</event>
<event>
 5    1  0.4761089E-001  0.8000000E+02  0.7546771E-02  0.1203772E+00
         11   -1    0    0    0    0  0.00000000000E+00  0.00000000000E+00  0.40000000000E+02  0.40000000000E+02  0.00000000000E+00 0. -1.
        -11   -1    0    0    0    0 -0.00000000000E+00 -0.00000000000E+00 -0.40000000000E+02  0.40000000000E+02  0.00000000000E+00 0.  1.
         23    2    1    2    0    0  0.00000000000E+00  0.00000000000E+00  0.00000000000E+00  0.80000000000E+02  0.80000000000E+02 0.  0.
          5    1    3    3  501    0  0.35894682028E+02 -0.16999423564E+02  0.70809642688E+00  0.40000000000E+02  0.47000000000E+01 0. -1.
         -5    1    3    3    0  501 -0.35894682028E+02  0.16999423564E+02 -0.70809642688E+00  0.40000000000E+02  0.47000000000E+01 0.  1.
</event>
<event>
 5    1  0.4761089E-001  0.8000000E+02  0.7546771E-02  0.1203772E+00
         11   -1    0    0    0    0  0.00000000000E+00  0.00000000000E+00  0.40000000000E+02  0.40000000000E+02  0.00000000000E+00 0.  1.
        -11   -1    0    0    0    0 -0.00000000000E+00 -0.00000000000E+00 -0.40000000000E+02  0.40000000000E+02  0.00000000000E+00 0. -1.
         23    2    1    2    0    0  0.00000000000E+00  0.00000000000E+00  0.00000000000E+00  0.80000000000E+02  0.80000000000E+02 0.  0.
          5    1    3    3  501    0  0.33405001005E+02 -0.59323033080E+01 -0.20659711647E+02  0.40000000000E+02  0.47000000000E+01 0. -1.
         -5    1    3    3    0  501 -0.33405001005E+02  0.59323033080E+01  0.20659711647E+02  0.40000000000E+02  0.47000000000E+01 0.  1.
</event>
<event>
 5    1  0.4761089E-001  0.8000000E+02  0.7546771E-02  0.1203772E+00
         11   -1    0    0    0    0  0.00000000000E+00  0.00000000000E+00  0.40000000000E+02  0.40000000000E+02  0.00000000000E+00 0.  1.
        -11   -1    0    0    0    0 -0.00000000000E+00 -0.00000000000E+00 -0.40000000000E+02  0.40000000000E+02  0.00000000000E+00 0. -1.
         23    2    1    2    0    0  0.00000000000E+00  0.00000000000E+00  0.00000000000E+00  0.80000000000E+02  0.80000000000E+02 0.  0.
          5    1    3    3  501    0  0.85750680743E+01  0.38151651796E+02  0.69878231795E+01  0.40000000000E+02  0.47000000000E+01 0. -1.
         -5    1    3    3    0  501 -0.85750680743E+01 -0.38151651796E+02 -0.69878231795E+01  0.40000000000E+02  0.47000000000E+01 0.  1.
</event>
<event>
 5    1  0.4761089E-001  0.8000000E+02  0.7546771E-02  0.1203772E+00
         11   -1    0    0    0    0  0.00000000000E+00  0.00000000000E+00  0.40000000000E+02  0.40000000000E+02  0.00000000000E+00 0. -1.
        -11   -1    0    0    0    0 -0.00000000000E+00 -0.00000000000E+00 -0.40000000000E+02  0.40000000000E+02  0.00000000000E+00 0.  1.
         23    2    1    2    0    0  0.00000000000E+00  0.00000000000E+00  0.00000000000E+00  0.80000000000E+02  0.80000000000E+02 0.  0.
          5    1    3    3  501    0 -0.31997392823E+02 -0.23538257213E+02  0.16522684946E+00  0.40000000000E+02  0.47000000000E+01 0. -1.
         -5    1    3    3    0  501  0.31997392823E+02  0.23538257213E+02 -0.16522684946E+00  0.40000000000E+02  0.47000000000E+01 0.  1.
</event>
<event>
 5    1  0.4761089E-001  0.8000000E+02  0.7546771E-02  0.1203772E+00
         11   -1    0    0    0    0  0.00000000000E+00  0.00000000000E+00  0.40000000000E+02  0.40000000000E+02  0.00000000000E+00 0. -1.
        -11   -1    0    0    0    0 -0.00000000000E+00 -0.00000000000E+00 -0.40000000000E+02  0.40000000000E+02  0.00000000000E+00 0.  1.
         23    2    1    2    0    0  0.00000000000E+00  0.00000000000E+00  0.00000000000E+00  0.80000000000E+02  0.80000000000E+02 0.  0.
          5    1    3    3  501    0  0.14293750264E+02  0.25584013512E+01 -0.36973683694E+02  0.40000000000E+02  0.47000000000E+01 0.  1.
         -5    1    3    3    0  501 -0.14293750264E+02 -0.25584013512E+01  0.36973683694E+02  0.40000000000E+02  0.47000000000E+01 0. -1.
</event>
<event>
 5    1  0.4761089E-001  0.8000000E+02  0.7546771E-02  0.1203772E+00
         11   -1    0    0    0    0  0.00000000000E+00  0.00000000000E+00  0.40000000000E+02  0.40000000000E+02  0.00000000000E+00 0. -1.
        -11   -1    0    0    0    0 -0.00000000000E+00 -0.00000000000E+00 -0.40000000000E+02  0.40000000000E+02  0.00000000000E+00 0.  1.
         23    2    1    2    0    0  0.00000000000E+00  0.00000000000E+00  0.00000000000E+00  0.80000000000E+02  0.80000000000E+02 0.  0.
          5    1    3    3  501    0  0.25416573312E+02  0.29728281169E+02 -0.69380905014E+01  0.40000000000E+02  0.47000000000E+01 0. -1.
         -5    1    3    3    0  501 -0.25416573312E+02 -0.29728281169E+02  0.69380905014E+01  0.40000000000E+02  0.47000000000E+01 0.  1.
</event>
<event>
 5    1  0.4761089E-001  0.8000000E+02  0.7546771E-02  0.1203772E+00
         11   -1    0    0    0    0  0.00000000000E+00  0.00000000000E+00  0.40000000000E+02  0.40000000000E+02  0.00000000000E+00 0.  1.
        -11   -1    0    0    0    0 -0.00000000000E+00 -0.00000000000E+00 -0.40000000000E+02  0.40000000000E+02  0.00000000000E+00 0. -1.
         23    2    1    2    0    0  0.00000000000E+00  0.00000000000E+00  0.00000000000E+00  0.80000000000E+02  0.80000000000E+02 0.  0.
          5    1    3    3  501    0 -0.98410403040E+01 -0.11025104213E+01 -0.38468797700E+02  0.40000000000E+02  0.47000000000E+01 0. -1.
         -5    1    3    3    0  501  0.98410403040E+01  0.11025104213E+01  0.38468797700E+02  0.40000000000E+02  0.47000000000E+01 0.  1.
</event>
<event>
 5    1  0.4761089E-001  0.8000000E+02  0.7546771E-02  0.1203772E+00
         11   -1    0    0    0    0  0.00000000000E+00  0.00000000000E+00  0.40000000000E+02  0.40000000000E+02  0.00000000000E+00 0. -1.
        -11   -1    0    0    0    0 -0.00000000000E+00 -0.00000000000E+00 -0.40000000000E+02  0.40000000000E+02  0.00000000000E+00 0.  1.
         23    2    1    2    0    0  0.00000000000E+00  0.00000000000E+00  0.00000000000E+00  0.80000000000E+02  0.80000000000E+02 0.  0.
          5    1    3    3  501    0  0.23777614007E+02 -0.25423612172E+02  0.19135700046E+02  0.40000000000E+02  0.47000000000E+01 0. -1.
         -5    1    3    3    0  501 -0.23777614007E+02  0.25423612172E+02 -0.19135700046E+02  0.40000000000E+02  0.47000000000E+01 0.  1.
</event>
<event>
 5    1  0.4761089E-001  0.8000000E+02  0.7546771E-02  0.1203772E+00
         11   -1    0    0    0    0  0.00000000000E+00  0.00000000000E+00  0.40000000000E+02  0.40000000000E+02  0.00000000000E+00 0.  1.
        -11   -1    0    0    0    0 -0.00000000000E+00 -0.00000000000E+00 -0.40000000000E+02  0.40000000000E+02  0.00000000000E+00 0. -1.
         23    2    1    2    0    0  0.00000000000E+00  0.00000000000E+00  0.00000000000E+00  0.80000000000E+02  0.80000000000E+02 0.  0.
          5    1    3    3  501    0 -0.14763698801E+01 -0.10279856056E+02 -0.38341294859E+02  0.40000000000E+02  0.47000000000E+01 0. -1.
         -5    1    3    3    0  501  0.14763698801E+01  0.10279856056E+02  0.38341294859E+02  0.40000000000E+02  0.47000000000E+01 0.  1.
</event>
<event>
 5    1  0.4761089E-001  0.8000000E+02  0.7546771E-02  0.1203772E+00
         11   -1    0    0    0    0  0.00000000000E+00  0.00000000000E+00  0.40000000000E+02  0.40000000000E+02  0.00000000000E+00 0. -1.
        -11   -1    0    0    0    0 -0.00000000000E+00 -0.00000000000E+00 -0.40000000000E+02  0.40000000000E+02  0.00000000000E+00 0.  1.
         23    2    1    2    0    0  0.00000000000E+00  0.00000000000E+00  0.00000000000E+00  0.80000000000E+02  0.80000000000E+02 0.  0.
          5    1    3    3  501    0  0.25710568265E+02  0.17262022415E+02  0.24877686019E+02  0.40000000000E+02  0.47000000000E+01 0. -1.
         -5    1    3    3    0  501 -0.25710568265E+02 -0.17262022415E+02 -0.24877686019E+02  0.40000000000E+02  0.47000000000E+01 0.  1.
</event>
<event>
 5    1  0.4761089E-001  0.8000000E+02  0.7546771E-02  0.1203772E+00
         11   -1    0    0    0    0  0.00000000000E+00  0.00000000000E+00  0.40000000000E+02  0.40000000000E+02  0.00000000000E+00 0.  1.
        -11   -1    0    0    0    0 -0.00000000000E+00 -0.00000000000E+00 -0.40000000000E+02  0.40000000000E+02  0.00000000000E+00 0. -1.
         23    2    1    2    0    0  0.00000000000E+00  0.00000000000E+00  0.00000000000E+00  0.80000000000E+02  0.80000000000E+02 0.  0.
          5    1    3    3  501    0  0.30826974504E+01 -0.99869951961E+01 -0.38323190151E+02  0.40000000000E+02  0.47000000000E+01 0. -1.
         -5    1    3    3    0  501 -0.30826974504E+01  0.99869951961E+01  0.38323190151E+02  0.40000000000E+02  0.47000000000E+01 0.  1.
</event>
<event>
 5    1  0.4761089E-001  0.8000000E+02  0.7546771E-02  0.1203772E+00
         11   -1    0    0    0    0  0.00000000000E+00  0.00000000000E+00  0.40000000000E+02  0.40000000000E+02  0.00000000000E+00 0.  1.
        -11   -1    0    0    0    0 -0.00000000000E+00 -0.00000000000E+00 -0.40000000000E+02  0.40000000000E+02  0.00000000000E+00 0. -1.
         23    2    1    2    0    0  0.00000000000E+00  0.00000000000E+00  0.00000000000E+00  0.80000000000E+02  0.80000000000E+02 0.  0.
          5    1    3    3  501    0 -0.15181736754E+02 -0.12119403306E+02 -0.34648880684E+02  0.40000000000E+02  0.47000000000E+01 0. -1.
         -5    1    3    3    0  501  0.15181736754E+02  0.12119403306E+02  0.34648880684E+02  0.40000000000E+02  0.47000000000E+01 0.  1.
</event>
<event>
 5    1  0.4761089E-001  0.8000000E+02  0.7546771E-02  0.1203772E+00
         11   -1    0    0    0    0  0.00000000000E+00  0.00000000000E+00  0.40000000000E+02  0.40000000000E+02  0.00000000000E+00 0. -1.
        -11   -1    0    0    0    0 -0.00000000000E+00 -0.00000000000E+00 -0.40000000000E+02  0.40000000000E+02  0.00000000000E+00 0.  1.
         23    2    1    2    0    0  0.00000000000E+00  0.00000000000E+00  0.00000000000E+00  0.80000000000E+02  0.80000000000E+02 0.  0.
          5    1    3    3  501    0  0.35557211339E+02  0.11376767602E+02 -0.13570699345E+02  0.40000000000E+02  0.47000000000E+01 0.  1.
         -5    1    3    3    0  501 -0.35557211339E+02 -0.11376767602E+02  0.13570699345E+02  0.40000000000E+02  0.47000000000E+01 0. -1.
</event>
<event>
 5    1  0.4761089E-001  0.8000000E+02  0.7546771E-02  0.1203772E+00
         11   -1    0    0    0    0  0.00000000000E+00  0.00000000000E+00  0.40000000000E+02  0.40000000000E+02  0.00000000000E+00 0.  1.
        -11   -1    0    0    0    0 -0.00000000000E+00 -0.00000000000E+00 -0.40000000000E+02  0.40000000000E+02  0.00000000000E+00 0. -1.
         23    2    1    2    0    0  0.00000000000E+00  0.00000000000E+00  0.00000000000E+00  0.80000000000E+02  0.80000000000E+02 0.  0.
          5    1    3    3  501    0 -0.25055228835E+02 -0.13390409514E+02 -0.27764049436E+02  0.40000000000E+02  0.47000000000E+01 0. -1.
         -5    1    3    3    0  501  0.25055228835E+02  0.13390409514E+02  0.27764049436E+02  0.40000000000E+02  0.47000000000E+01 0.  1.
</event>
<event>
 5    1  0.4761089E-001  0.8000000E+02  0.7546771E-02  0.1203772E+00
         11   -1    0    0    0    0  0.00000000000E+00  0.00000000000E+00  0.40000000000E+02  0.40000000000E+02  0.00000000000E+00 0.  1.
        -11   -1    0    0    0    0 -0.00000000000E+00 -0.00000000000E+00 -0.40000000000E+02  0.40000000000E+02  0.00000000000E+00 0. -1.
         23    2    1    2    0    0  0.00000000000E+00  0.00000000000E+00  0.00000000000E+00  0.80000000000E+02  0.80000000000E+02 0.  0.
          5    1    3    3  501    0  0.23097753115E+02 -0.18704547193E+01 -0.32263062474E+02  0.40000000000E+02  0.47000000000E+01 0. -1.
         -5    1    3    3    0  501 -0.23097753115E+02  0.18704547193E+01  0.32263062474E+02  0.40000000000E+02  0.47000000000E+01 0.  1.
</event>
<event>
 5    1  0.4761089E-001  0.8000000E+02  0.7546771E-02  0.1203772E+00
         11   -1    0    0    0    0  0.00000000000E+00  0.00000000000E+00  0.40000000000E+02  0.40000000000E+02  0.00000000000E+00 0. -1.
        -11   -1    0    0    0    0 -0.00000000000E+00 -0.00000000000E+00 -0.40000000000E+02  0.40000000000E+02  0.00000000000E+00 0.  1.
         23    2    1    2    0    0  0.00000000000E+00  0.00000000000E+00  0.00000000000E+00  0.80000000000E+02  0.80000000000E+02 0.  0.
          5    1    3    3  501    0  0.27826653914E+02 -0.24772182095E+02  0.13781376064E+02  0.40000000000E+02  0.47000000000E+01 0. -1.
         -5    1    3    3    0  501 -0.27826653914E+02  0.24772182095E+02 -0.13781376064E+02  0.40000000000E+02  0.47000000000E+01 0.  1.
</event>
<event>
 5    1  0.4761089E-001  0.8000000E+02  0.7546771E-02  0.1203772E+00
         11   -1    0    0    0    0  0.00000000000E+00  0.00000000000E+00  0.40000000000E+02  0.40000000000E+02  0.00000000000E+00 0.  1.
        -11   -1    0    0    0    0 -0.00000000000E+00 -0.00000000000E+00 -0.40000000000E+02  0.40000000000E+02  0.00000000000E+00 0. -1.
         23    2    1    2    0    0  0.00000000000E+00  0.00000000000E+00  0.00000000000E+00  0.80000000000E+02  0.80000000000E+02 0.  0.
          5    1    3    3  501    0 -0.62279648510E+01  0.13333604127E+02 -0.36896306791E+02  0.40000000000E+02  0.47000000000E+01 0. -1.
         -5    1    3    3    0  501  0.62279648510E+01 -0.13333604127E+02  0.36896306791E+02  0.40000000000E+02  0.47000000000E+01 0.  1.
</event>
<event>
 5    1  0.4761089E-001  0.8000000E+02  0.7546771E-02  0.1203772E+00
         11   -1    0    0    0    0  0.00000000000E+00  0.00000000000E+00  0.40000000000E+02  0.40000000000E+02  0.00000000000E+00 0. -1.
        -11   -1    0    0    0    0 -0.00000000000E+00 -0.00000000000E+00 -0.40000000000E+02  0.40000000000E+02  0.00000000000E+00 0.  1.
         23    2    1    2    0    0  0.00000000000E+00  0.00000000000E+00  0.00000000000E+00  0.80000000000E+02  0.80000000000E+02 0.  0.
          5    1    3    3  501    0  0.13912068847E+02  0.15831494463E+02  0.33670879458E+02  0.40000000000E+02  0.47000000000E+01 0. -1.
         -5    1    3    3    0  501 -0.13912068847E+02 -0.15831494463E+02 -0.33670879458E+02  0.40000000000E+02  0.47000000000E+01 0.  1.
</event>
<event>
 5    1  0.4761089E-001  0.8000000E+02  0.7546771E-02  0.1203772E+00
         11   -1    0    0    0    0  0.00000000000E+00  0.00000000000E+00  0.40000000000E+02  0.40000000000E+02  0.00000000000E+00 0.  1.
        -11   -1    0    0    0    0 -0.00000000000E+00 -0.00000000000E+00 -0.40000000000E+02  0.40000000000E+02  0.00000000000E+00 0. -1.
         23    2    1    2    0    0  0.00000000000E+00  0.00000000000E+00  0.00000000000E+00  0.80000000000E+02  0.80000000000E+02 0.  0.
          5    1    3    3  501    0  0.23306381220E+02  0.94219527434E+01 -0.30756290429E+02  0.40000000000E+02  0.47000000000E+01 0. -1.
         -5    1    3    3    0  501 -0.23306381220E+02 -0.94219527434E+01  0.30756290429E+02  0.40000000000E+02  0.47000000000E+01 0.  1.
</event>
<event>
 5    1  0.4761089E-001  0.8000000E+02  0.7546771E-02  0.1203772E+00
         11   -1    0    0    0    0  0.00000000000E+00  0.00000000000E+00  0.40000000000E+02  0.40000000000E+02  0.00000000000E+00 0.  1.
        -11   -1    0    0    0    0 -0.00000000000E+00 -0.00000000000E+00 -0.40000000000E+02  0.40000000000E+02  0.00000000000E+00 0. -1.
         23    2    1    2    0    0  0.00000000000E+00  0.00000000000E+00  0.00000000000E+00  0.80000000000E+02  0.80000000000E+02 0.  0.
          5    1    3    3  501    0  0.12067044517E+02 -0.56372775981E+01 -0.37423489120E+02  0.40000000000E+02  0.47000000000E+01 0. -1.
         -5    1    3    3    0  501 -0.12067044517E+02  0.56372775981E+01  0.37423489120E+02  0.40000000000E+02  0.47000000000E+01 0.  1.
</event>
<event>
 5    1  0.4761089E-001  0.8000000E+02  0.7546771E-02  0.1203772E+00
         11   -1    0    0    0    0  0.00000000000E+00  0.00000000000E+00  0.40000000000E+02  0.40000000000E+02  0.00000000000E+00 0.  1.
        -11   -1    0    0    0    0 -0.00000000000E+00 -0.00000000000E+00 -0.40000000000E+02  0.40000000000E+02  0.00000000000E+00 0. -1.
         23    2    1    2    0    0  0.00000000000E+00  0.00000000000E+00  0.00000000000E+00  0.80000000000E+02  0.80000000000E+02 0.  0.
          5    1    3    3  501    0  0.19136011203E+02  0.15927848918E+02 -0.30952006463E+02  0.40000000000E+02  0.47000000000E+01 0. -1.
         -5    1    3    3    0  501 -0.19136011203E+02 -0.15927848918E+02  0.30952006463E+02  0.40000000000E+02  0.47000000000E+01 0.  1.
</event>
<event>
 5    1  0.4761089E-001  0.8000000E+02  0.7546771E-02  0.1203772E+00
         11   -1    0    0    0    0  0.00000000000E+00  0.00000000000E+00  0.40000000000E+02  0.40000000000E+02  0.00000000000E+00 0. -1.
        -11   -1    0    0    0    0 -0.00000000000E+00 -0.00000000000E+00 -0.40000000000E+02  0.40000000000E+02  0.00000000000E+00 0.  1.
         23    2    1    2    0    0  0.00000000000E+00  0.00000000000E+00  0.00000000000E+00  0.80000000000E+02  0.80000000000E+02 0.  0.
          5    1    3    3  501    0  0.15101523548E+02 -0.36739282701E+02 -0.28123506058E+00  0.40000000000E+02  0.47000000000E+01 0. -1.
         -5    1    3    3    0  501 -0.15101523548E+02  0.36739282701E+02  0.28123506058E+00  0.40000000000E+02  0.47000000000E+01 0.  1.
</event>
<event>
 5    1  0.4761089E-001  0.8000000E+02  0.7546771E-02  0.1203772E+00
         11   -1    0    0    0    0  0.00000000000E+00  0.00000000000E+00  0.40000000000E+02  0.40000000000E+02  0.00000000000E+00 0. -1.
        -11   -1    0    0    0    0 -0.00000000000E+00 -0.00000000000E+00 -0.40000000000E+02  0.40000000000E+02  0.00000000000E+00 0.  1.
         23    2    1    2    0    0  0.00000000000E+00  0.00000000000E+00  0.00000000000E+00  0.80000000000E+02  0.80000000000E+02 0.  0.
          5    1    3    3  501    0 -0.12383976350E+02  0.37742561279E+02  0.21493687131E+00  0.40000000000E+02  0.47000000000E+01 0.  1.
         -5    1    3    3    0  501  0.12383976350E+02 -0.37742561279E+02 -0.21493687131E+00  0.40000000000E+02  0.47000000000E+01 0. -1.
</event>
<event>
 5    1  0.4761089E-001  0.8000000E+02  0.7546771E-02  0.1203772E+00
         11   -1    0    0    0    0  0.00000000000E+00  0.00000000000E+00  0.40000000000E+02  0.40000000000E+02  0.00000000000E+00 0. -1.
        -11   -1    0    0    0    0 -0.00000000000E+00 -0.00000000000E+00 -0.40000000000E+02  0.40000000000E+02  0.00000000000E+00 0.  1.
         23    2    1    2    0    0  0.00000000000E+00  0.00000000000E+00  0.00000000000E+00  0.80000000000E+02  0.80000000000E+02 0.  0.
          5    1    3    3  501    0  0.21925378559E+02 -0.26460932917E+02  0.19925029591E+02  0.40000000000E+02  0.47000000000E+01 0. -1.
         -5    1    3    3    0  501 -0.21925378559E+02  0.26460932917E+02 -0.19925029591E+02  0.40000000000E+02  0.47000000000E+01 0.  1.
</event>
<event>
 5    1  0.4761089E-001  0.8000000E+02  0.7546771E-02  0.1203772E+00
         11   -1    0    0    0    0  0.00000000000E+00  0.00000000000E+00  0.40000000000E+02  0.40000000000E+02  0.00000000000E+00 0. -1.
        -11   -1    0    0    0    0 -0.00000000000E+00 -0.00000000000E+00 -0.40000000000E+02  0.40000000000E+02  0.00000000000E+00 0.  1.
         23    2    1    2    0    0  0.00000000000E+00  0.00000000000E+00  0.00000000000E+00  0.80000000000E+02  0.80000000000E+02 0.  0.
          5    1    3    3  501    0  0.10300837259E+02 -0.95717223349E+01  0.37150839604E+02  0.40000000000E+02  0.47000000000E+01 0. -1.
         -5    1    3    3    0  501 -0.10300837259E+02  0.95717223349E+01 -0.37150839604E+02  0.40000000000E+02  0.47000000000E+01 0.  1.
</event>
<event>
 5    1  0.4761089E-001  0.8000000E+02  0.7546771E-02  0.1203772E+00
         11   -1    0    0    0    0  0.00000000000E+00  0.00000000000E+00  0.40000000000E+02  0.40000000000E+02  0.00000000000E+00 0. -1.
        -11   -1    0    0    0    0 -0.00000000000E+00 -0.00000000000E+00 -0.40000000000E+02  0.40000000000E+02  0.00000000000E+00 0.  1.
         23    2    1    2    0    0  0.00000000000E+00  0.00000000000E+00  0.00000000000E+00  0.80000000000E+02  0.80000000000E+02 0.  0.
          5    1    3    3  501    0  0.31615791583E+02 -0.23665285064E+02 -0.42785517916E+01  0.40000000000E+02  0.47000000000E+01 0. -1.
         -5    1    3    3    0  501 -0.31615791583E+02  0.23665285064E+02  0.42785517916E+01  0.40000000000E+02  0.47000000000E+01 0.  1.
</event>
<event>
 5    1  0.4761089E-001  0.8000000E+02  0.7546771E-02  0.1203772E+00
         11   -1    0    0    0    0  0.00000000000E+00  0.00000000000E+00  0.40000000000E+02  0.40000000000E+02  0.00000000000E+00 0.  1.
        -11   -1    0    0    0    0 -0.00000000000E+00 -0.00000000000E+00 -0.40000000000E+02  0.40000000000E+02  0.00000000000E+00 0. -1.
         23    2    1    2    0    0  0.00000000000E+00  0.00000000000E+00  0.00000000000E+00  0.80000000000E+02  0.80000000000E+02 0.  0.
          5    1    3    3  501    0  0.15507096750E+02  0.30986018508E+02  0.19424381777E+02  0.40000000000E+02  0.47000000000E+01 0. -1.
         -5    1    3    3    0  501 -0.15507096750E+02 -0.30986018508E+02 -0.19424381777E+02  0.40000000000E+02  0.47000000000E+01 0.  1.
</event>
<event>
 5    1  0.4761089E-001  0.8000000E+02  0.7546771E-02  0.1203772E+00
         11   -1    0    0    0    0  0.00000000000E+00  0.00000000000E+00  0.40000000000E+02  0.40000000000E+02  0.00000000000E+00 0. -1.
        -11   -1    0    0    0    0 -0.00000000000E+00 -0.00000000000E+00 -0.40000000000E+02  0.40000000000E+02  0.00000000000E+00 0.  1.
         23    2    1    2    0    0  0.00000000000E+00  0.00000000000E+00  0.00000000000E+00  0.80000000000E+02  0.80000000000E+02 0.  0.
          5    1    3    3  501    0 -0.10503908249E+02  0.29665908577E+02  0.24238642284E+02  0.40000000000E+02  0.47000000000E+01 0. -1.
         -5    1    3    3    0  501  0.10503908249E+02 -0.29665908577E+02 -0.24238642284E+02  0.40000000000E+02  0.47000000000E+01 0.  1.
</event>
<event>
 5    1  0.4761089E-001  0.8000000E+02  0.7546771E-02  0.1203772E+00
         11   -1    0    0    0    0  0.00000000000E+00  0.00000000000E+00  0.40000000000E+02  0.40000000000E+02  0.00000000000E+00 0.  1.
        -11   -1    0    0    0    0 -0.00000000000E+00 -0.00000000000E+00 -0.40000000000E+02  0.40000000000E+02  0.00000000000E+00 0. -1.
         23    2    1    2    0    0  0.00000000000E+00  0.00000000000E+00  0.00000000000E+00  0.80000000000E+02  0.80000000000E+02 0.  0.
          5    1    3    3  501    0  0.37834599102E+02 -0.67068608876E+01 -0.10073287837E+02  0.40000000000E+02  0.47000000000E+01 0. -1.
         -5    1    3    3    0  501 -0.37834599102E+02  0.67068608876E+01  0.10073287837E+02  0.40000000000E+02  0.47000000000E+01 0.  1.
</event>
<event>
 5    1  0.4761089E-001  0.8000000E+02  0.7546771E-02  0.1203772E+00
         11   -1    0    0    0    0  0.00000000000E+00  0.00000000000E+00  0.40000000000E+02  0.40000000000E+02  0.00000000000E+00 0. -1.
        -11   -1    0    0    0    0 -0.00000000000E+00 -0.00000000000E+00 -0.40000000000E+02  0.40000000000E+02  0.00000000000E+00 0.  1.
         23    2    1    2    0    0  0.00000000000E+00  0.00000000000E+00  0.00000000000E+00  0.80000000000E+02  0.80000000000E+02 0.  0.
          5    1    3    3  501    0 -0.10668300962E+02 -0.13274432985E+02  0.35887139528E+02  0.40000000000E+02  0.47000000000E+01 0. -1.
         -5    1    3    3    0  501  0.10668300962E+02  0.13274432985E+02 -0.35887139528E+02  0.40000000000E+02  0.47000000000E+01 0.  1.
</event>
<event>
 5    1  0.4761089E-001  0.8000000E+02  0.7546771E-02  0.1203772E+00
         11   -1    0    0    0    0  0.00000000000E+00  0.00000000000E+00  0.40000000000E+02  0.40000000000E+02  0.00000000000E+00 0.  1.
        -11   -1    0    0    0    0 -0.00000000000E+00 -0.00000000000E+00 -0.40000000000E+02  0.40000000000E+02  0.00000000000E+00 0. -1.
         23    2    1    2    0    0  0.00000000000E+00  0.00000000000E+00  0.00000000000E+00  0.80000000000E+02  0.80000000000E+02 0.  0.
          5    1    3    3  501    0  0.92638329416E+01  0.12684087377E+02 -0.36485686600E+02  0.40000000000E+02  0.47000000000E+01 0. -1.
         -5    1    3    3    0  501 -0.92638329416E+01 -0.12684087377E+02  0.36485686600E+02  0.40000000000E+02  0.47000000000E+01 0.  1.
</event>
<event>
 5    1  0.4761089E-001  0.8000000E+02  0.7546771E-02  0.1203772E+00
         11   -1    0    0    0    0  0.00000000000E+00  0.00000000000E+00  0.40000000000E+02  0.40000000000E+02  0.00000000000E+00 0.  1.
        -11   -1    0    0    0    0 -0.00000000000E+00 -0.00000000000E+00 -0.40000000000E+02  0.40000000000E+02  0.00000000000E+00 0. -1.
         23    2    1    2    0    0  0.00000000000E+00  0.00000000000E+00  0.00000000000E+00  0.80000000000E+02  0.80000000000E+02 0.  0.
          5    1    3    3  501    0  0.29891734586E+02 -0.26025991924E+02 -0.26536668567E+01  0.40000000000E+02  0.47000000000E+01 0. -1.
         -5    1    3    3    0  501 -0.29891734586E+02  0.26025991924E+02  0.26536668567E+01  0.40000000000E+02  0.47000000000E+01 0.  1.
</event>
<event>
 5    1  0.4761089E-001  0.8000000E+02  0.7546771E-02  0.1203772E+00
         11   -1    0    0    0    0  0.00000000000E+00  0.00000000000E+00  0.40000000000E+02  0.40000000000E+02  0.00000000000E+00 0.  1.
        -11   -1    0    0    0    0 -0.00000000000E+00 -0.00000000000E+00 -0.40000000000E+02  0.40000000000E+02  0.00000000000E+00 0. -1.
         23    2    1    2    0    0  0.00000000000E+00  0.00000000000E+00  0.00000000000E+00  0.80000000000E+02  0.80000000000E+02 0.  0.
          5    1    3    3  501    0 -0.27376744837E+02 -0.84976134539E+01 -0.27499352860E+02  0.40000000000E+02  0.47000000000E+01 0. -1.
         -5    1    3    3    0  501  0.27376744837E+02  0.84976134539E+01  0.27499352860E+02  0.40000000000E+02  0.47000000000E+01 0.  1.
</event>
<event>
 5    1  0.4761089E-001  0.8000000E+02  0.7546771E-02  0.1203772E+00
         11   -1    0    0    0    0  0.00000000000E+00  0.00000000000E+00  0.40000000000E+02  0.40000000000E+02  0.00000000000E+00 0. -1.
        -11   -1    0    0    0    0 -0.00000000000E+00 -0.00000000000E+00 -0.40000000000E+02  0.40000000000E+02  0.00000000000E+00 0.  1.
         23    2    1    2    0    0  0.00000000000E+00  0.00000000000E+00  0.00000000000E+00  0.80000000000E+02  0.80000000000E+02 0.  0.
          5    1    3    3  501    0 -0.38296973221E+02 -0.26688826247E+01  0.10204357287E+02  0.40000000000E+02  0.47000000000E+01 0. -1.
         -5    1    3    3    0  501  0.38296973221E+02  0.26688826247E+01 -0.10204357287E+02  0.40000000000E+02  0.47000000000E+01 0.  1.
</event>
<event>
 5    1  0.4761089E-001  0.8000000E+02  0.7546771E-02  0.1203772E+00
         11   -1    0    0    0    0  0.00000000000E+00  0.00000000000E+00  0.40000000000E+02  0.40000000000E+02  0.00000000000E+00 0.  1.
        -11   -1    0    0    0    0 -0.00000000000E+00 -0.00000000000E+00 -0.40000000000E+02  0.40000000000E+02  0.00000000000E+00 0. -1.
         23    2    1    2    0    0  0.00000000000E+00  0.00000000000E+00  0.00000000000E+00  0.80000000000E+02  0.80000000000E+02 0.  0.
          5    1    3    3  501    0 -0.26193107427E+02  0.96047479144E+01 -0.28276844605E+02  0.40000000000E+02  0.47000000000E+01 0. -1.
         -5    1    3    3    0  501  0.26193107427E+02 -0.96047479144E+01  0.28276844605E+02  0.40000000000E+02  0.47000000000E+01 0.  1.
</event>
<event>
 5    1  0.4761089E-001  0.8000000E+02  0.7546771E-02  0.1203772E+00
         11   -1    0    0    0    0  0.00000000000E+00  0.00000000000E+00  0.40000000000E+02  0.40000000000E+02  0.00000000000E+00 0.  1.
        -11   -1    0    0    0    0 -0.00000000000E+00 -0.00000000000E+00 -0.40000000000E+02  0.40000000000E+02  0.00000000000E+00 0. -1.
         23    2    1    2    0    0  0.00000000000E+00  0.00000000000E+00  0.00000000000E+00  0.80000000000E+02  0.80000000000E+02 0.  0.
          5    1    3    3  501    0 -0.15542563899E+02 -0.86311662824E+00 -0.36545775914E+02  0.40000000000E+02  0.47000000000E+01 0. -1.
         -5    1    3    3    0  501  0.15542563899E+02  0.86311662824E+00  0.36545775914E+02  0.40000000000E+02  0.47000000000E+01 0.  1.
</event>
<event>
 5    1  0.4761089E-001  0.8000000E+02  0.7546771E-02  0.1203772E+00
         11   -1    0    0    0    0  0.00000000000E+00  0.00000000000E+00  0.40000000000E+02  0.40000000000E+02  0.00000000000E+00 0.  1.
        -11   -1    0    0    0    0 -0.00000000000E+00 -0.00000000000E+00 -0.40000000000E+02  0.40000000000E+02  0.00000000000E+00 0. -1.
         23    2    1    2    0    0  0.00000000000E+00  0.00000000000E+00  0.00000000000E+00  0.80000000000E+02  0.80000000000E+02 0.  0.
          5    1    3    3  501    0  0.77004269911E+01  0.37688897693E+02  0.99075937953E+01  0.40000000000E+02  0.47000000000E+01 0. -1.
         -5    1    3    3    0  501 -0.77004269911E+01 -0.37688897693E+02 -0.99075937953E+01  0.40000000000E+02  0.47000000000E+01 0.  1.
</event>
<event>
 5    1  0.4761089E-001  0.8000000E+02  0.7546771E-02  0.1203772E+00
         11   -1    0    0    0    0  0.00000000000E+00  0.00000000000E+00  0.40000000000E+02  0.40000000000E+02  0.00000000000E+00 0.  1.
        -11   -1    0    0    0    0 -0.00000000000E+00 -0.00000000000E+00 -0.40000000000E+02  0.40000000000E+02  0.00000000000E+00 0. -1.
         23    2    1    2    0    0  0.00000000000E+00  0.00000000000E+00  0.00000000000E+00  0.80000000000E+02  0.80000000000E+02 0.  0.
          5    1    3    3  501    0 -0.50532505724E+01  0.12031839950E+02 -0.37518122102E+02  0.40000000000E+02  0.47000000000E+01 0. -1.
         -5    1    3    3    0  501  0.50532505724E+01 -0.12031839950E+02  0.37518122102E+02  0.40000000000E+02  0.47000000000E+01 0.  1.
</event>
<event>
 5    1  0.4761089E-001  0.8000000E+02  0.7546771E-02  0.1203772E+00
         11   -1    0    0    0    0  0.00000000000E+00  0.00000000000E+00  0.40000000000E+02  0.40000000000E+02  0.00000000000E+00 0. -1.
        -11   -1    0    0    0    0 -0.00000000000E+00 -0.00000000000E+00 -0.40000000000E+02  0.40000000000E+02  0.00000000000E+00 0.  1.
         23    2    1    2    0    0  0.00000000000E+00  0.00000000000E+00  0.00000000000E+00  0.80000000000E+02  0.80000000000E+02 0.  0.
          5    1    3    3  501    0  0.39296631552E+02  0.60443123066E+00 -0.57722969024E+01  0.40000000000E+02  0.47000000000E+01 0. -1.
         -5    1    3    3    0  501 -0.39296631552E+02 -0.60443123066E+00  0.57722969024E+01  0.40000000000E+02  0.47000000000E+01 0.  1.
</event>
<event>
 5    1  0.4761089E-001  0.8000000E+02  0.7546771E-02  0.1203772E+00
         11   -1    0    0    0    0  0.00000000000E+00  0.00000000000E+00  0.40000000000E+02  0.40000000000E+02  0.00000000000E+00 0. -1.
        -11   -1    0    0    0    0 -0.00000000000E+00 -0.00000000000E+00 -0.40000000000E+02  0.40000000000E+02  0.00000000000E+00 0.  1.
         23    2    1    2    0    0  0.00000000000E+00  0.00000000000E+00  0.00000000000E+00  0.80000000000E+02  0.80000000000E+02 0.  0.
          5    1    3    3  501    0 -0.27123708451E+02 -0.21664427319E+01  0.28939954488E+02  0.40000000000E+02  0.47000000000E+01 0. -1.
         -5    1    3    3    0  501  0.27123708451E+02  0.21664427319E+01 -0.28939954488E+02  0.40000000000E+02  0.47000000000E+01 0.  1.
</event>
<event>
 5    1  0.4761089E-001  0.8000000E+02  0.7546771E-02  0.1203772E+00
         11   -1    0    0    0    0  0.00000000000E+00  0.00000000000E+00  0.40000000000E+02  0.40000000000E+02  0.00000000000E+00 0.  1.
        -11   -1    0    0    0    0 -0.00000000000E+00 -0.00000000000E+00 -0.40000000000E+02  0.40000000000E+02  0.00000000000E+00 0. -1.
         23    2    1    2    0    0  0.00000000000E+00  0.00000000000E+00  0.00000000000E+00  0.80000000000E+02  0.80000000000E+02 0.  0.
          5    1    3    3  501    0 -0.32783055250E+02  0.15899736816E+02 -0.15823389576E+02  0.40000000000E+02  0.47000000000E+01 0. -1.
         -5    1    3    3    0  501  0.32783055250E+02 -0.15899736816E+02  0.15823389576E+02  0.40000000000E+02  0.47000000000E+01 0.  1.
</event>
<event>
 5    1  0.4761089E-001  0.8000000E+02  0.7546771E-02  0.1203772E+00
         11   -1    0    0    0    0  0.00000000000E+00  0.00000000000E+00  0.40000000000E+02  0.40000000000E+02  0.00000000000E+00 0.  1.
        -11   -1    0    0    0    0 -0.00000000000E+00 -0.00000000000E+00 -0.40000000000E+02  0.40000000000E+02  0.00000000000E+00 0. -1.
         23    2    1    2    0    0  0.00000000000E+00  0.00000000000E+00  0.00000000000E+00  0.80000000000E+02  0.80000000000E+02 0.  0.
          5    1    3    3  501    0 -0.77143738768E+01  0.55582566290E+01 -0.38568176246E+02  0.40000000000E+02  0.47000000000E+01 0. -1.
         -5    1    3    3    0  501  0.77143738768E+01 -0.55582566290E+01  0.38568176246E+02  0.40000000000E+02  0.47000000000E+01 0.  1.
</event>
<event>
 5    1  0.4761089E-001  0.8000000E+02  0.7546771E-02  0.1203772E+00
         11   -1    0    0    0    0  0.00000000000E+00  0.00000000000E+00  0.40000000000E+02  0.40000000000E+02  0.00000000000E+00 0. -1.
        -11   -1    0    0    0    0 -0.00000000000E+00 -0.00000000000E+00 -0.40000000000E+02  0.40000000000E+02  0.00000000000E+00 0.  1.
         23    2    1    2    0    0  0.00000000000E+00  0.00000000000E+00  0.00000000000E+00  0.80000000000E+02  0.80000000000E+02 0.  0.
          5    1    3    3  501    0 -0.38569686160E+02  0.82556756106E+01  0.47045860296E+01  0.40000000000E+02  0.47000000000E+01 0. -1.
         -5    1    3    3    0  501  0.38569686160E+02 -0.82556756106E+01 -0.47045860296E+01  0.40000000000E+02  0.47000000000E+01 0.  1.
</event>
<event>
 5    1  0.4761089E-001  0.8000000E+02  0.7546771E-02  0.1203772E+00
         11   -1    0    0    0    0  0.00000000000E+00  0.00000000000E+00  0.40000000000E+02  0.40000000000E+02  0.00000000000E+00 0. -1.
        -11   -1    0    0    0    0 -0.00000000000E+00 -0.00000000000E+00 -0.40000000000E+02  0.40000000000E+02  0.00000000000E+00 0.  1.
         23    2    1    2    0    0  0.00000000000E+00  0.00000000000E+00  0.00000000000E+00  0.80000000000E+02  0.80000000000E+02 0.  0.
          5    1    3    3  501    0  0.35564192845E+02  0.17225233681E+02  0.40483962181E+01  0.40000000000E+02  0.47000000000E+01 0. -1.
         -5    1    3    3    0  501 -0.35564192845E+02 -0.17225233681E+02 -0.40483962181E+01  0.40000000000E+02  0.47000000000E+01 0.  1.
</event>
<event>
 5    1  0.4761089E-001  0.8000000E+02  0.7546771E-02  0.1203772E+00
         11   -1    0    0    0    0  0.00000000000E+00  0.00000000000E+00  0.40000000000E+02  0.40000000000E+02  0.00000000000E+00 0.  1.
        -11   -1    0    0    0    0 -0.00000000000E+00 -0.00000000000E+00 -0.40000000000E+02  0.40000000000E+02  0.00000000000E+00 0. -1.
         23    2    1    2    0    0  0.00000000000E+00  0.00000000000E+00  0.00000000000E+00  0.80000000000E+02  0.80000000000E+02 0.  0.
          5    1    3    3  501    0  0.33380726178E+02  0.45852055462E+01 -0.21038369944E+02  0.40000000000E+02  0.47000000000E+01 0. -1.
         -5    1    3    3    0  501 -0.33380726178E+02 -0.45852055462E+01  0.21038369944E+02  0.40000000000E+02  0.47000000000E+01 0.  1.
</event>
<event>
 5    1  0.4761089E-001  0.8000000E+02  0.7546771E-02  0.1203772E+00
         11   -1    0    0    0    0  0.00000000000E+00  0.00000000000E+00  0.40000000000E+02  0.40000000000E+02  0.00000000000E+00 0. -1.
        -11   -1    0    0    0    0 -0.00000000000E+00 -0.00000000000E+00 -0.40000000000E+02  0.40000000000E+02  0.00000000000E+00 0.  1.
         23    2    1    2    0    0  0.00000000000E+00  0.00000000000E+00  0.00000000000E+00  0.80000000000E+02  0.80000000000E+02 0.  0.
          5    1    3    3  501    0 -0.20474458371E+02 -0.15689702525E+02  0.30208273520E+02  0.40000000000E+02  0.47000000000E+01 0. -1.
         -5    1    3    3    0  501  0.20474458371E+02  0.15689702525E+02 -0.30208273520E+02  0.40000000000E+02  0.47000000000E+01 0.  1.
</event>
<event>
 5    1  0.4761089E-001  0.8000000E+02  0.7546771E-02  0.1203772E+00
         11   -1    0    0    0    0  0.00000000000E+00  0.00000000000E+00  0.40000000000E+02  0.40000000000E+02  0.00000000000E+00 0. -1.
        -11   -1    0    0    0    0 -0.00000000000E+00 -0.00000000000E+00 -0.40000000000E+02  0.40000000000E+02  0.00000000000E+00 0.  1.
         23    2    1    2    0    0  0.00000000000E+00  0.00000000000E+00  0.00000000000E+00  0.80000000000E+02  0.80000000000E+02 0.  0.
          5    1    3    3  501    0 -0.34861153778E+02 -0.16601043220E+02 -0.93282003241E+01  0.40000000000E+02  0.47000000000E+01 0. -1.
         -5    1    3    3    0  501  0.34861153778E+02  0.16601043220E+02  0.93282003241E+01  0.40000000000E+02  0.47000000000E+01 0.  1.
</event>
<event>
 5    1  0.4761089E-001  0.8000000E+02  0.7546771E-02  0.1203772E+00
         11   -1    0    0    0    0  0.00000000000E+00  0.00000000000E+00  0.40000000000E+02  0.40000000000E+02  0.00000000000E+00 0.  1.
        -11   -1    0    0    0    0 -0.00000000000E+00 -0.00000000000E+00 -0.40000000000E+02  0.40000000000E+02  0.00000000000E+00 0. -1.
         23    2    1    2    0    0  0.00000000000E+00  0.00000000000E+00  0.00000000000E+00  0.80000000000E+02  0.80000000000E+02 0.  0.
          5    1    3    3  501    0  0.23124039018E+01  0.22241981781E+02 -0.32830733081E+02  0.40000000000E+02  0.47000000000E+01 0. -1.
         -5    1    3    3    0  501 -0.23124039018E+01 -0.22241981781E+02  0.32830733081E+02  0.40000000000E+02  0.47000000000E+01 0.  1.
</event>
<event>
 5    1  0.4761089E-001  0.8000000E+02  0.7546771E-02  0.1203772E+00
         11   -1    0    0    0    0  0.00000000000E+00  0.00000000000E+00  0.40000000000E+02  0.40000000000E+02  0.00000000000E+00 0.  1.
        -11   -1    0    0    0    0 -0.00000000000E+00 -0.00000000000E+00 -0.40000000000E+02  0.40000000000E+02  0.00000000000E+00 0. -1.
         23    2    1    2    0    0  0.00000000000E+00  0.00000000000E+00  0.00000000000E+00  0.80000000000E+02  0.80000000000E+02 0.  0.
          5    1    3    3  501    0 -0.73201949748E+01 -0.38420568517E+02  0.69415171537E+01  0.40000000000E+02  0.47000000000E+01 0. -1.
         -5    1    3    3    0  501  0.73201949748E+01  0.38420568517E+02 -0.69415171537E+01  0.40000000000E+02  0.47000000000E+01 0.  1.
</event>
<event>
 5    1  0.4761089E-001  0.8000000E+02  0.7546771E-02  0.1203772E+00
         11   -1    0    0    0    0  0.00000000000E+00  0.00000000000E+00  0.40000000000E+02  0.40000000000E+02  0.00000000000E+00 0. -1.
        -11   -1    0    0    0    0 -0.00000000000E+00 -0.00000000000E+00 -0.40000000000E+02  0.40000000000E+02  0.00000000000E+00 0.  1.
         23    2    1    2    0    0  0.00000000000E+00  0.00000000000E+00  0.00000000000E+00  0.80000000000E+02  0.80000000000E+02 0.  0.
          5    1    3    3  501    0 -0.99034070014E+01  0.35899834775E+02  0.13821519195E+02  0.40000000000E+02  0.47000000000E+01 0. -1.
         -5    1    3    3    0  501  0.99034070014E+01 -0.35899834775E+02 -0.13821519195E+02  0.40000000000E+02  0.47000000000E+01 0.  1.
</event>
<event>
 5    1  0.4761089E-001  0.8000000E+02  0.7546771E-02  0.1203772E+00
         11   -1    0    0    0    0  0.00000000000E+00  0.00000000000E+00  0.40000000000E+02  0.40000000000E+02  0.00000000000E+00 0.  1.
        -11   -1    0    0    0    0 -0.00000000000E+00 -0.00000000000E+00 -0.40000000000E+02  0.40000000000E+02  0.00000000000E+00 0. -1.
         23    2    1    2    0    0  0.00000000000E+00  0.00000000000E+00  0.00000000000E+00  0.80000000000E+02  0.80000000000E+02 0.  0.
          5    1    3    3  501    0  0.33543423899E+02 -0.13456507308E+02 -0.16482448975E+02  0.40000000000E+02  0.47000000000E+01 0. -1.
         -5    1    3    3    0  501 -0.33543423899E+02  0.13456507308E+02  0.16482448975E+02  0.40000000000E+02  0.47000000000E+01 0.  1.
</event>
<event>
 5    1  0.4761089E-001  0.8000000E+02  0.7546771E-02  0.1203772E+00
         11   -1    0    0    0    0  0.00000000000E+00  0.00000000000E+00  0.40000000000E+02  0.40000000000E+02  0.00000000000E+00 0.  1.
        -11   -1    0    0    0    0 -0.00000000000E+00 -0.00000000000E+00 -0.40000000000E+02  0.40000000000E+02  0.00000000000E+00 0. -1.
         23    2    1    2    0    0  0.00000000000E+00  0.00000000000E+00  0.00000000000E+00  0.80000000000E+02  0.80000000000E+02 0.  0.
          5    1    3    3  501    0 -0.22284019315E+02  0.13038440841E+02 -0.30188268311E+02  0.40000000000E+02  0.47000000000E+01 0. -1.
         -5    1    3    3    0  501  0.22284019315E+02 -0.13038440841E+02  0.30188268311E+02  0.40000000000E+02  0.47000000000E+01 0.  1.
</event>
<event>
 5    1  0.4761089E-001  0.8000000E+02  0.7546771E-02  0.1203772E+00
         11   -1    0    0    0    0  0.00000000000E+00  0.00000000000E+00  0.40000000000E+02  0.40000000000E+02  0.00000000000E+00 0. -1.
        -11   -1    0    0    0    0 -0.00000000000E+00 -0.00000000000E+00 -0.40000000000E+02  0.40000000000E+02  0.00000000000E+00 0.  1.
         23    2    1    2    0    0  0.00000000000E+00  0.00000000000E+00  0.00000000000E+00  0.80000000000E+02  0.80000000000E+02 0.  0.
          5    1    3    3  501    0  0.22363562816E+02  0.26410842959E+02  0.19499959805E+02  0.40000000000E+02  0.47000000000E+01 0. -1.
         -5    1    3    3    0  501 -0.22363562816E+02 -0.26410842959E+02 -0.19499959805E+02  0.40000000000E+02  0.47000000000E+01 0.  1.
</event>
<event>
 5    1  0.4761089E-001  0.8000000E+02  0.7546771E-02  0.1203772E+00
         11   -1    0    0    0    0  0.00000000000E+00  0.00000000000E+00  0.40000000000E+02  0.40000000000E+02  0.00000000000E+00 0.  1.
        -11   -1    0    0    0    0 -0.00000000000E+00 -0.00000000000E+00 -0.40000000000E+02  0.40000000000E+02  0.00000000000E+00 0. -1.
         23    2    1    2    0    0  0.00000000000E+00  0.00000000000E+00  0.00000000000E+00  0.80000000000E+02  0.80000000000E+02 0.  0.
          5    1    3    3  501    0 -0.16643930271E+02 -0.21313795894E+02 -0.29096592407E+02  0.40000000000E+02  0.47000000000E+01 0. -1.
         -5    1    3    3    0  501  0.16643930271E+02  0.21313795894E+02  0.29096592407E+02  0.40000000000E+02  0.47000000000E+01 0.  1.
</event>
<event>
 5    1  0.4761089E-001  0.8000000E+02  0.7546771E-02  0.1203772E+00
         11   -1    0    0    0    0  0.00000000000E+00  0.00000000000E+00  0.40000000000E+02  0.40000000000E+02  0.00000000000E+00 0.  1.
        -11   -1    0    0    0    0 -0.00000000000E+00 -0.00000000000E+00 -0.40000000000E+02  0.40000000000E+02  0.00000000000E+00 0. -1.
         23    2    1    2    0    0  0.00000000000E+00  0.00000000000E+00  0.00000000000E+00  0.80000000000E+02  0.80000000000E+02 0.  0.
          5    1    3    3  501    0 -0.17227122705E+02  0.10426254961E+02 -0.34240757159E+02  0.40000000000E+02  0.47000000000E+01 0. -1.
         -5    1    3    3    0  501  0.17227122705E+02 -0.10426254961E+02  0.34240757159E+02  0.40000000000E+02  0.47000000000E+01 0.  1.
</event>
<event>
 5    1  0.4761089E-001  0.8000000E+02  0.7546771E-02  0.1203772E+00
         11   -1    0    0    0    0  0.00000000000E+00  0.00000000000E+00  0.40000000000E+02  0.40000000000E+02  0.00000000000E+00 0.  1.
        -11   -1    0    0    0    0 -0.00000000000E+00 -0.00000000000E+00 -0.40000000000E+02  0.40000000000E+02  0.00000000000E+00 0. -1.
         23    2    1    2    0    0  0.00000000000E+00  0.00000000000E+00  0.00000000000E+00  0.80000000000E+02  0.80000000000E+02 0.  0.
          5    1    3    3  501    0  0.54016246931E+01  0.11410737388E+02 -0.37663344553E+02  0.40000000000E+02  0.47000000000E+01 0. -1.
         -5    1    3    3    0  501 -0.54016246931E+01 -0.11410737388E+02  0.37663344553E+02  0.40000000000E+02  0.47000000000E+01 0.  1.
</event>
<event>
 5    1  0.4761089E-001  0.8000000E+02  0.7546771E-02  0.1203772E+00
         11   -1    0    0    0    0  0.00000000000E+00  0.00000000000E+00  0.40000000000E+02  0.40000000000E+02  0.00000000000E+00 0.  1.
        -11   -1    0    0    0    0 -0.00000000000E+00 -0.00000000000E+00 -0.40000000000E+02  0.40000000000E+02  0.00000000000E+00 0. -1.
         23    2    1    2    0    0  0.00000000000E+00  0.00000000000E+00  0.00000000000E+00  0.80000000000E+02  0.80000000000E+02 0.  0.
          5    1    3    3  501    0  0.35389386048E+01 -0.39245378851E+02 -0.50185807139E+01  0.40000000000E+02  0.47000000000E+01 0. -1.
         -5    1    3    3    0  501 -0.35389386048E+01  0.39245378851E+02  0.50185807139E+01  0.40000000000E+02  0.47000000000E+01 0.  1.
</event>
<event>
 5    1  0.4761089E-001  0.8000000E+02  0.7546771E-02  0.1203772E+00
         11   -1    0    0    0    0  0.00000000000E+00  0.00000000000E+00  0.40000000000E+02  0.40000000000E+02  0.00000000000E+00 0.  1.
        -11   -1    0    0    0    0 -0.00000000000E+00 -0.00000000000E+00 -0.40000000000E+02  0.40000000000E+02  0.00000000000E+00 0. -1.
         23    2    1    2    0    0  0.00000000000E+00  0.00000000000E+00  0.00000000000E+00  0.80000000000E+02  0.80000000000E+02 0.  0.
          5    1    3    3  501    0 -0.95039747420E+01 -0.22151471911E+02 -0.31573671885E+02  0.40000000000E+02  0.47000000000E+01 0. -1.
         -5    1    3    3    0  501  0.95039747420E+01  0.22151471911E+02  0.31573671885E+02  0.40000000000E+02  0.47000000000E+01 0.  1.
</event>
<event>
 5    1  0.4761089E-001  0.8000000E+02  0.7546771E-02  0.1203772E+00
         11   -1    0    0    0    0  0.00000000000E+00  0.00000000000E+00  0.40000000000E+02  0.40000000000E+02  0.00000000000E+00 0.  1.
        -11   -1    0    0    0    0 -0.00000000000E+00 -0.00000000000E+00 -0.40000000000E+02  0.40000000000E+02  0.00000000000E+00 0. -1.
         23    2    1    2    0    0  0.00000000000E+00  0.00000000000E+00  0.00000000000E+00  0.80000000000E+02  0.80000000000E+02 0.  0.
          5    1    3    3  501    0 -0.29528568367E+02 -0.39775763055E+01 -0.26270754404E+02  0.40000000000E+02  0.47000000000E+01 0. -1.
         -5    1    3    3    0  501  0.29528568367E+02  0.39775763055E+01  0.26270754404E+02  0.40000000000E+02  0.47000000000E+01 0.  1.
</event>
<event>
 5    1  0.4761089E-001  0.8000000E+02  0.7546771E-02  0.1203772E+00
         11   -1    0    0    0    0  0.00000000000E+00  0.00000000000E+00  0.40000000000E+02  0.40000000000E+02  0.00000000000E+00 0.  1.
        -11   -1    0    0    0    0 -0.00000000000E+00 -0.00000000000E+00 -0.40000000000E+02  0.40000000000E+02  0.00000000000E+00 0. -1.
         23    2    1    2    0    0  0.00000000000E+00  0.00000000000E+00  0.00000000000E+00  0.80000000000E+02  0.80000000000E+02 0.  0.
          5    1    3    3  501    0  0.25909543843E+02 -0.15770027344E+02 -0.25649790943E+02  0.40000000000E+02  0.47000000000E+01 0. -1.
         -5    1    3    3    0  501 -0.25909543843E+02  0.15770027344E+02  0.25649790943E+02  0.40000000000E+02  0.47000000000E+01 0.  1.
</event>
<event>
 5    1  0.4761089E-001  0.8000000E+02  0.7546771E-02  0.1203772E+00
         11   -1    0    0    0    0  0.00000000000E+00  0.00000000000E+00  0.40000000000E+02  0.40000000000E+02  0.00000000000E+00 0.  1.
        -11   -1    0    0    0    0 -0.00000000000E+00 -0.00000000000E+00 -0.40000000000E+02  0.40000000000E+02  0.00000000000E+00 0. -1.
         23    2    1    2    0    0  0.00000000000E+00  0.00000000000E+00  0.00000000000E+00  0.80000000000E+02  0.80000000000E+02 0.  0.
          5    1    3    3  501    0  0.33875176200E+02 -0.32838535789E+01 -0.20484109527E+02  0.40000000000E+02  0.47000000000E+01 0. -1.
         -5    1    3    3    0  501 -0.33875176200E+02  0.32838535789E+01  0.20484109527E+02  0.40000000000E+02  0.47000000000E+01 0.  1.
</event>
<event>
 5    1  0.4761089E-001  0.8000000E+02  0.7546771E-02  0.1203772E+00
         11   -1    0    0    0    0  0.00000000000E+00  0.00000000000E+00  0.40000000000E+02  0.40000000000E+02  0.00000000000E+00 0.  1.
        -11   -1    0    0    0    0 -0.00000000000E+00 -0.00000000000E+00 -0.40000000000E+02  0.40000000000E+02  0.00000000000E+00 0. -1.
         23    2    1    2    0    0  0.00000000000E+00  0.00000000000E+00  0.00000000000E+00  0.80000000000E+02  0.80000000000E+02 0.  0.
          5    1    3    3  501    0  0.12279499295E+02 -0.34891865166E+02 -0.14480388195E+02  0.40000000000E+02  0.47000000000E+01 0. -1.
         -5    1    3    3    0  501 -0.12279499295E+02  0.34891865166E+02  0.14480388195E+02  0.40000000000E+02  0.47000000000E+01 0.  1.
</event>
<event>
 5    1  0.4761089E-001  0.8000000E+02  0.7546771E-02  0.1203772E+00
         11   -1    0    0    0    0  0.00000000000E+00  0.00000000000E+00  0.40000000000E+02  0.40000000000E+02  0.00000000000E+00 0.  1.
        -11   -1    0    0    0    0 -0.00000000000E+00 -0.00000000000E+00 -0.40000000000E+02  0.40000000000E+02  0.00000000000E+00 0. -1.
         23    2    1    2    0    0  0.00000000000E+00  0.00000000000E+00  0.00000000000E+00  0.80000000000E+02  0.80000000000E+02 0.  0.
          5    1    3    3  501    0  0.22860125831E+02 -0.12862696438E+02 -0.29830784223E+02  0.40000000000E+02  0.47000000000E+01 0. -1.
         -5    1    3    3    0  501 -0.22860125831E+02  0.12862696438E+02  0.29830784223E+02  0.40000000000E+02  0.47000000000E+01 0.  1.
</event>
<event>
 5    1  0.4761089E-001  0.8000000E+02  0.7546771E-02  0.1203772E+00
         11   -1    0    0    0    0  0.00000000000E+00  0.00000000000E+00  0.40000000000E+02  0.40000000000E+02  0.00000000000E+00 0. -1.
        -11   -1    0    0    0    0 -0.00000000000E+00 -0.00000000000E+00 -0.40000000000E+02  0.40000000000E+02  0.00000000000E+00 0.  1.
         23    2    1    2    0    0  0.00000000000E+00  0.00000000000E+00  0.00000000000E+00  0.80000000000E+02  0.80000000000E+02 0.  0.
          5    1    3    3  501    0 -0.45649935169E+01 -0.18368607082E+02  0.34923704100E+02  0.40000000000E+02  0.47000000000E+01 0. -1.
         -5    1    3    3    0  501  0.45649935169E+01  0.18368607082E+02 -0.34923704100E+02  0.40000000000E+02  0.47000000000E+01 0.  1.
</event>
<event>
 5    1  0.4761089E-001  0.8000000E+02  0.7546771E-02  0.1203772E+00
         11   -1    0    0    0    0  0.00000000000E+00  0.00000000000E+00  0.40000000000E+02  0.40000000000E+02  0.00000000000E+00 0. -1.
        -11   -1    0    0    0    0 -0.00000000000E+00 -0.00000000000E+00 -0.40000000000E+02  0.40000000000E+02  0.00000000000E+00 0.  1.
         23    2    1    2    0    0  0.00000000000E+00  0.00000000000E+00  0.00000000000E+00  0.80000000000E+02  0.80000000000E+02 0.  0.
          5    1    3    3  501    0  0.27219120631E+01  0.29757872834E+02  0.26171935334E+02  0.40000000000E+02  0.47000000000E+01 0. -1.
         -5    1    3    3    0  501 -0.27219120631E+01 -0.29757872834E+02 -0.26171935334E+02  0.40000000000E+02  0.47000000000E+01 0.  1.
</event>
<event>
 5    1  0.4761089E-001  0.8000000E+02  0.7546771E-02  0.1203772E+00
         11   -1    0    0    0    0  0.00000000000E+00  0.00000000000E+00  0.40000000000E+02  0.40000000000E+02  0.00000000000E+00 0.  1.
        -11   -1    0    0    0    0 -0.00000000000E+00 -0.00000000000E+00 -0.40000000000E+02  0.40000000000E+02  0.00000000000E+00 0. -1.
         23    2    1    2    0    0  0.00000000000E+00  0.00000000000E+00  0.00000000000E+00  0.80000000000E+02  0.80000000000E+02 0.  0.
          5    1    3    3  501    0 -0.68609155161E+01  0.11161034391E+02 -0.37500255327E+02  0.40000000000E+02  0.47000000000E+01 0. -1.
         -5    1    3    3    0  501  0.68609155161E+01 -0.11161034391E+02  0.37500255327E+02  0.40000000000E+02  0.47000000000E+01 0.  1.
</event>
<event>
 5    1  0.4761089E-001  0.8000000E+02  0.7546771E-02  0.1203772E+00
         11   -1    0    0    0    0  0.00000000000E+00  0.00000000000E+00  0.40000000000E+02  0.40000000000E+02  0.00000000000E+00 0.  1.
        -11   -1    0    0    0    0 -0.00000000000E+00 -0.00000000000E+00 -0.40000000000E+02  0.40000000000E+02  0.00000000000E+00 0. -1.
         23    2    1    2    0    0  0.00000000000E+00  0.00000000000E+00  0.00000000000E+00  0.80000000000E+02  0.80000000000E+02 0.  0.
          5    1    3    3  501    0  0.16536026473E+02 -0.27176173765E+02 -0.23789186787E+02  0.40000000000E+02  0.47000000000E+01 0. -1.
         -5    1    3    3    0  501 -0.16536026473E+02  0.27176173765E+02  0.23789186787E+02  0.40000000000E+02  0.47000000000E+01 0.  1.
</event>
<event>
 5    1  0.4761089E-001  0.8000000E+02  0.7546771E-02  0.1203772E+00
         11   -1    0    0    0    0  0.00000000000E+00  0.00000000000E+00  0.40000000000E+02  0.40000000000E+02  0.00000000000E+00 0.  1.
        -11   -1    0    0    0    0 -0.00000000000E+00 -0.00000000000E+00 -0.40000000000E+02  0.40000000000E+02  0.00000000000E+00 0. -1.
         23    2    1    2    0    0  0.00000000000E+00  0.00000000000E+00  0.00000000000E+00  0.80000000000E+02  0.80000000000E+02 0.  0.
          5    1    3    3  501    0 -0.19458238512E+02  0.27176168937E+02 -0.21464920124E+02  0.40000000000E+02  0.47000000000E+01 0. -1.
         -5    1    3    3    0  501  0.19458238512E+02 -0.27176168937E+02  0.21464920124E+02  0.40000000000E+02  0.47000000000E+01 0.  1.
</event>
<event>
 5    1  0.4761089E-001  0.8000000E+02  0.7546771E-02  0.1203772E+00
         11   -1    0    0    0    0  0.00000000000E+00  0.00000000000E+00  0.40000000000E+02  0.40000000000E+02  0.00000000000E+00 0. -1.
        -11   -1    0    0    0    0 -0.00000000000E+00 -0.00000000000E+00 -0.40000000000E+02  0.40000000000E+02  0.00000000000E+00 0.  1.
         23    2    1    2    0    0  0.00000000000E+00  0.00000000000E+00  0.00000000000E+00  0.80000000000E+02  0.80000000000E+02 0.  0.
          5    1    3    3  501    0 -0.25324902589E+02 -0.17291094971E+02  0.25250293931E+02  0.40000000000E+02  0.47000000000E+01 0. -1.
         -5    1    3    3    0  501  0.25324902589E+02  0.17291094971E+02 -0.25250293931E+02  0.40000000000E+02  0.47000000000E+01 0.  1.
</event>
<event>
 5    1  0.4761089E-001  0.8000000E+02  0.7546771E-02  0.1203772E+00
         11   -1    0    0    0    0  0.00000000000E+00  0.00000000000E+00  0.40000000000E+02  0.40000000000E+02  0.00000000000E+00 0.  1.
        -11   -1    0    0    0    0 -0.00000000000E+00 -0.00000000000E+00 -0.40000000000E+02  0.40000000000E+02  0.00000000000E+00 0. -1.
         23    2    1    2    0    0  0.00000000000E+00  0.00000000000E+00  0.00000000000E+00  0.80000000000E+02  0.80000000000E+02 0.  0.
          5    1    3    3  501    0 -0.45338410155E+01  0.16164763260E+02 -0.36000759914E+02  0.40000000000E+02  0.47000000000E+01 0. -1.
         -5    1    3    3    0  501  0.45338410155E+01 -0.16164763260E+02  0.36000759914E+02  0.40000000000E+02  0.47000000000E+01 0.  1.
</event>
<event>
 5    1  0.4761089E-001  0.8000000E+02  0.7546771E-02  0.1203772E+00
         11   -1    0    0    0    0  0.00000000000E+00  0.00000000000E+00  0.40000000000E+02  0.40000000000E+02  0.00000000000E+00 0. -1.
        -11   -1    0    0    0    0 -0.00000000000E+00 -0.00000000000E+00 -0.40000000000E+02  0.40000000000E+02  0.00000000000E+00 0.  1.
         23    2    1    2    0    0  0.00000000000E+00  0.00000000000E+00  0.00000000000E+00  0.80000000000E+02  0.80000000000E+02 0.  0.
          5    1    3    3  501    0  0.29342008255E+02  0.16791243747E+02  0.20856909766E+02  0.40000000000E+02  0.47000000000E+01 0. -1.
         -5    1    3    3    0  501 -0.29342008255E+02 -0.16791243747E+02 -0.20856909766E+02  0.40000000000E+02  0.47000000000E+01 0.  1.
</event>
<event>
 5    1  0.4761089E-001  0.8000000E+02  0.7546771E-02  0.1203772E+00
         11   -1    0    0    0    0  0.00000000000E+00  0.00000000000E+00  0.40000000000E+02  0.40000000000E+02  0.00000000000E+00 0.  1.
        -11   -1    0    0    0    0 -0.00000000000E+00 -0.00000000000E+00 -0.40000000000E+02  0.40000000000E+02  0.00000000000E+00 0. -1.
         23    2    1    2    0    0  0.00000000000E+00  0.00000000000E+00  0.00000000000E+00  0.80000000000E+02  0.80000000000E+02 0.  0.
          5    1    3    3  501    0 -0.70669350272E+01  0.28268851989E+02 -0.26997044960E+02  0.40000000000E+02  0.47000000000E+01 0. -1.
         -5    1    3    3    0  501  0.70669350272E+01 -0.28268851989E+02  0.26997044960E+02  0.40000000000E+02  0.47000000000E+01 0.  1.
</event>
<event>
 5    1  0.4761089E-001  0.8000000E+02  0.7546771E-02  0.1203772E+00
         11   -1    0    0    0    0  0.00000000000E+00  0.00000000000E+00  0.40000000000E+02  0.40000000000E+02  0.00000000000E+00 0. -1.
        -11   -1    0    0    0    0 -0.00000000000E+00 -0.00000000000E+00 -0.40000000000E+02  0.40000000000E+02  0.00000000000E+00 0.  1.
         23    2    1    2    0    0  0.00000000000E+00  0.00000000000E+00  0.00000000000E+00  0.80000000000E+02  0.80000000000E+02 0.  0.
          5    1    3    3  501    0  0.29252701539E+02  0.19799949734E+02 -0.18170069983E+02  0.40000000000E+02  0.47000000000E+01 0. -1.
         -5    1    3    3    0  501 -0.29252701539E+02 -0.19799949734E+02  0.18170069983E+02  0.40000000000E+02  0.47000000000E+01 0.  1.
</event>
<event>
 5    1  0.4761089E-001  0.8000000E+02  0.7546771E-02  0.1203772E+00
         11   -1    0    0    0    0  0.00000000000E+00  0.00000000000E+00  0.40000000000E+02  0.40000000000E+02  0.00000000000E+00 0.  1.
        -11   -1    0    0    0    0 -0.00000000000E+00 -0.00000000000E+00 -0.40000000000E+02  0.40000000000E+02  0.00000000000E+00 0. -1.
         23    2    1    2    0    0  0.00000000000E+00  0.00000000000E+00  0.00000000000E+00  0.80000000000E+02  0.80000000000E+02 0.  0.
          5    1    3    3  501    0 -0.36601572475E+02 -0.43325263431E+01 -0.14814321038E+02  0.40000000000E+02  0.47000000000E+01 0. -1.
         -5    1    3    3    0  501  0.36601572475E+02  0.43325263431E+01  0.14814321038E+02  0.40000000000E+02  0.47000000000E+01 0.  1.
</event>
<event>
 5    1  0.4761089E-001  0.8000000E+02  0.7546771E-02  0.1203772E+00
         11   -1    0    0    0    0  0.00000000000E+00  0.00000000000E+00  0.40000000000E+02  0.40000000000E+02  0.00000000000E+00 0.  1.
        -11   -1    0    0    0    0 -0.00000000000E+00 -0.00000000000E+00 -0.40000000000E+02  0.40000000000E+02  0.00000000000E+00 0. -1.
         23    2    1    2    0    0  0.00000000000E+00  0.00000000000E+00  0.00000000000E+00  0.80000000000E+02  0.80000000000E+02 0.  0.
          5    1    3    3  501    0 -0.48864430020E+01  0.39345439813E+02 -0.24431620327E+01  0.40000000000E+02  0.47000000000E+01 0. -1.
         -5    1    3    3    0  501  0.48864430020E+01 -0.39345439813E+02  0.24431620327E+01  0.40000000000E+02  0.47000000000E+01 0.  1.
</event>
<event>
 5    1  0.4761089E-001  0.8000000E+02  0.7546771E-02  0.1203772E+00
         11   -1    0    0    0    0  0.00000000000E+00  0.00000000000E+00  0.40000000000E+02  0.40000000000E+02  0.00000000000E+00 0. -1.
        -11   -1    0    0    0    0 -0.00000000000E+00 -0.00000000000E+00 -0.40000000000E+02  0.40000000000E+02  0.00000000000E+00 0.  1.
         23    2    1    2    0    0  0.00000000000E+00  0.00000000000E+00  0.00000000000E+00  0.80000000000E+02  0.80000000000E+02 0.  0.
          5    1    3    3  501    0 -0.38798339780E+02 -0.71123779711E+01  0.46917917578E+01  0.40000000000E+02  0.47000000000E+01 0. -1.
         -5    1    3    3    0  501  0.38798339780E+02  0.71123779711E+01 -0.46917917578E+01  0.40000000000E+02  0.47000000000E+01 0.  1.
</event>
<event>
 5    1  0.4761089E-001  0.8000000E+02  0.7546771E-02  0.1203772E+00
         11   -1    0    0    0    0  0.00000000000E+00  0.00000000000E+00  0.40000000000E+02  0.40000000000E+02  0.00000000000E+00 0. -1.
        -11   -1    0    0    0    0 -0.00000000000E+00 -0.00000000000E+00 -0.40000000000E+02  0.40000000000E+02  0.00000000000E+00 0.  1.
         23    2    1    2    0    0  0.00000000000E+00  0.00000000000E+00  0.00000000000E+00  0.80000000000E+02  0.80000000000E+02 0.  0.
          5    1    3    3  501    0 -0.28173534626E+01 -0.36429313727E+02  0.15584531459E+02  0.40000000000E+02  0.47000000000E+01 0. -1.
         -5    1    3    3    0  501  0.28173534626E+01  0.36429313727E+02 -0.15584531459E+02  0.40000000000E+02  0.47000000000E+01 0.  1.
</event>
<event>
 5    1  0.4761089E-001  0.8000000E+02  0.7546771E-02  0.1203772E+00
         11   -1    0    0    0    0  0.00000000000E+00  0.00000000000E+00  0.40000000000E+02  0.40000000000E+02  0.00000000000E+00 0.  1.
        -11   -1    0    0    0    0 -0.00000000000E+00 -0.00000000000E+00 -0.40000000000E+02  0.40000000000E+02  0.00000000000E+00 0. -1.
         23    2    1    2    0    0  0.00000000000E+00  0.00000000000E+00  0.00000000000E+00  0.80000000000E+02  0.80000000000E+02 0.  0.
          5    1    3    3  501    0  0.25155732409E+02  0.23767196070E+02 -0.19499218392E+02  0.40000000000E+02  0.47000000000E+01 0. -1.
         -5    1    3    3    0  501 -0.25155732409E+02 -0.23767196070E+02  0.19499218392E+02  0.40000000000E+02  0.47000000000E+01 0.  1.
</event>
<event>
 5    1  0.4761089E-001  0.8000000E+02  0.7546771E-02  0.1203772E+00
         11   -1    0    0    0    0  0.00000000000E+00  0.00000000000E+00  0.40000000000E+02  0.40000000000E+02  0.00000000000E+00 0.  1.
        -11   -1    0    0    0    0 -0.00000000000E+00 -0.00000000000E+00 -0.40000000000E+02  0.40000000000E+02  0.00000000000E+00 0. -1.
         23    2    1    2    0    0  0.00000000000E+00  0.00000000000E+00  0.00000000000E+00  0.80000000000E+02  0.80000000000E+02 0.  0.
          5    1    3    3  501    0  0.51683286739E+01  0.38720417868E+02 -0.72060820758E+01  0.40000000000E+02  0.47000000000E+01 0. -1.
         -5    1    3    3    0  501 -0.51683286739E+01 -0.38720417868E+02  0.72060820758E+01  0.40000000000E+02  0.47000000000E+01 0.  1.
</event>
<event>
 5    1  0.4761089E-001  0.8000000E+02  0.7546771E-02  0.1203772E+00
         11   -1    0    0    0    0  0.00000000000E+00  0.00000000000E+00  0.40000000000E+02  0.40000000000E+02  0.00000000000E+00 0. -1.
        -11   -1    0    0    0    0 -0.00000000000E+00 -0.00000000000E+00 -0.40000000000E+02  0.40000000000E+02  0.00000000000E+00 0.  1.
         23    2    1    2    0    0  0.00000000000E+00  0.00000000000E+00  0.00000000000E+00  0.80000000000E+02  0.80000000000E+02 0.  0.
          5    1    3    3  501    0  0.18822096092E+02 -0.23939108984E+01 -0.34898537066E+02  0.40000000000E+02  0.47000000000E+01 0.  1.
         -5    1    3    3    0  501 -0.18822096092E+02  0.23939108984E+01  0.34898537066E+02  0.40000000000E+02  0.47000000000E+01 0. -1.
</event>
<event>
 5    1  0.4761089E-001  0.8000000E+02  0.7546771E-02  0.1203772E+00
         11   -1    0    0    0    0  0.00000000000E+00  0.00000000000E+00  0.40000000000E+02  0.40000000000E+02  0.00000000000E+00 0.  1.
        -11   -1    0    0    0    0 -0.00000000000E+00 -0.00000000000E+00 -0.40000000000E+02  0.40000000000E+02  0.00000000000E+00 0. -1.
         23    2    1    2    0    0  0.00000000000E+00  0.00000000000E+00  0.00000000000E+00  0.80000000000E+02  0.80000000000E+02 0.  0.
          5    1    3    3  501    0  0.21383339303E+02  0.32896308951E+02  0.62044868988E+01  0.40000000000E+02  0.47000000000E+01 0. -1.
         -5    1    3    3    0  501 -0.21383339303E+02 -0.32896308951E+02 -0.62044868988E+01  0.40000000000E+02  0.47000000000E+01 0.  1.
</event>
<event>
 5    1  0.4761089E-001  0.8000000E+02  0.7546771E-02  0.1203772E+00
         11   -1    0    0    0    0  0.00000000000E+00  0.00000000000E+00  0.40000000000E+02  0.40000000000E+02  0.00000000000E+00 0. -1.
        -11   -1    0    0    0    0 -0.00000000000E+00 -0.00000000000E+00 -0.40000000000E+02  0.40000000000E+02  0.00000000000E+00 0.  1.
         23    2    1    2    0    0  0.00000000000E+00  0.00000000000E+00  0.00000000000E+00  0.80000000000E+02  0.80000000000E+02 0.  0.
          5    1    3    3  501    0  0.14435255557E+02  0.24855274020E+02  0.27418036954E+02  0.40000000000E+02  0.47000000000E+01 0. -1.
         -5    1    3    3    0  501 -0.14435255557E+02 -0.24855274020E+02 -0.27418036954E+02  0.40000000000E+02  0.47000000000E+01 0.  1.
</event>
<event>
 5    1  0.4761089E-001  0.8000000E+02  0.7546771E-02  0.1203772E+00
         11   -1    0    0    0    0  0.00000000000E+00  0.00000000000E+00  0.40000000000E+02  0.40000000000E+02  0.00000000000E+00 0.  1.
        -11   -1    0    0    0    0 -0.00000000000E+00 -0.00000000000E+00 -0.40000000000E+02  0.40000000000E+02  0.00000000000E+00 0. -1.
         23    2    1    2    0    0  0.00000000000E+00  0.00000000000E+00  0.00000000000E+00  0.80000000000E+02  0.80000000000E+02 0.  0.
          5    1    3    3  501    0 -0.38034896721E+01 -0.93375529956E+01 -0.38422045369E+02  0.40000000000E+02  0.47000000000E+01 0. -1.
         -5    1    3    3    0  501  0.38034896721E+01  0.93375529956E+01  0.38422045369E+02  0.40000000000E+02  0.47000000000E+01 0.  1.
</event>
<event>
 5    1  0.4761089E-001  0.8000000E+02  0.7546771E-02  0.1203772E+00
         11   -1    0    0    0    0  0.00000000000E+00  0.00000000000E+00  0.40000000000E+02  0.40000000000E+02  0.00000000000E+00 0.  1.
        -11   -1    0    0    0    0 -0.00000000000E+00 -0.00000000000E+00 -0.40000000000E+02  0.40000000000E+02  0.00000000000E+00 0. -1.
         23    2    1    2    0    0  0.00000000000E+00  0.00000000000E+00  0.00000000000E+00  0.80000000000E+02  0.80000000000E+02 0.  0.
          5    1    3    3  501    0  0.69349880573E+01  0.22435307866E+02 -0.32038615788E+02  0.40000000000E+02  0.47000000000E+01 0. -1.
         -5    1    3    3    0  501 -0.69349880573E+01 -0.22435307866E+02  0.32038615788E+02  0.40000000000E+02  0.47000000000E+01 0.  1.
</event>
<event>
 5    1  0.4761089E-001  0.8000000E+02  0.7546771E-02  0.1203772E+00
         11   -1    0    0    0    0  0.00000000000E+00  0.00000000000E+00  0.40000000000E+02  0.40000000000E+02  0.00000000000E+00 0.  1.
        -11   -1    0    0    0    0 -0.00000000000E+00 -0.00000000000E+00 -0.40000000000E+02  0.40000000000E+02  0.00000000000E+00 0. -1.
         23    2    1    2    0    0  0.00000000000E+00  0.00000000000E+00  0.00000000000E+00  0.80000000000E+02  0.80000000000E+02 0.  0.
          5    1    3    3  501    0  0.58070295197E+01  0.12699561298E+02 -0.37187491862E+02  0.40000000000E+02  0.47000000000E+01 0. -1.
         -5    1    3    3    0  501 -0.58070295197E+01 -0.12699561298E+02  0.37187491862E+02  0.40000000000E+02  0.47000000000E+01 0.  1.
</event>
<event>
 5    1  0.4761089E-001  0.8000000E+02  0.7546771E-02  0.1203772E+00
         11   -1    0    0    0    0  0.00000000000E+00  0.00000000000E+00  0.40000000000E+02  0.40000000000E+02  0.00000000000E+00 0.  1.
        -11   -1    0    0    0    0 -0.00000000000E+00 -0.00000000000E+00 -0.40000000000E+02  0.40000000000E+02  0.00000000000E+00 0. -1.
         23    2    1    2    0    0  0.00000000000E+00  0.00000000000E+00  0.00000000000E+00  0.80000000000E+02  0.80000000000E+02 0.  0.
          5    1    3    3  501    0  0.35523726079E+02  0.48369930195E+01 -0.17104922801E+02  0.40000000000E+02  0.47000000000E+01 0. -1.
         -5    1    3    3    0  501 -0.35523726079E+02 -0.48369930195E+01  0.17104922801E+02  0.40000000000E+02  0.47000000000E+01 0.  1.
</event>
<event>
 5    1  0.4761089E-001  0.8000000E+02  0.7546771E-02  0.1203772E+00
         11   -1    0    0    0    0  0.00000000000E+00  0.00000000000E+00  0.40000000000E+02  0.40000000000E+02  0.00000000000E+00 0. -1.
        -11   -1    0    0    0    0 -0.00000000000E+00 -0.00000000000E+00 -0.40000000000E+02  0.40000000000E+02  0.00000000000E+00 0.  1.
         23    2    1    2    0    0  0.00000000000E+00  0.00000000000E+00  0.00000000000E+00  0.80000000000E+02  0.80000000000E+02 0.  0.
          5    1    3    3  501    0 -0.31675803077E+02 -0.16172772188E+02  0.17691662985E+02  0.40000000000E+02  0.47000000000E+01 0. -1.
         -5    1    3    3    0  501  0.31675803077E+02  0.16172772188E+02 -0.17691662985E+02  0.40000000000E+02  0.47000000000E+01 0.  1.
</event>
<event>
 5    1  0.4761089E-001  0.8000000E+02  0.7546771E-02  0.1203772E+00
         11   -1    0    0    0    0  0.00000000000E+00  0.00000000000E+00  0.40000000000E+02  0.40000000000E+02  0.00000000000E+00 0. -1.
        -11   -1    0    0    0    0 -0.00000000000E+00 -0.00000000000E+00 -0.40000000000E+02  0.40000000000E+02  0.00000000000E+00 0.  1.
         23    2    1    2    0    0  0.00000000000E+00  0.00000000000E+00  0.00000000000E+00  0.80000000000E+02  0.80000000000E+02 0.  0.
          5    1    3    3  501    0 -0.16288510704E+01  0.38597228673E+01  0.39501384578E+02  0.40000000000E+02  0.47000000000E+01 0. -1.
         -5    1    3    3    0  501  0.16288510704E+01 -0.38597228673E+01 -0.39501384578E+02  0.40000000000E+02  0.47000000000E+01 0.  1.
</event>
<event>
 5    1  0.4761089E-001  0.8000000E+02  0.7546771E-02  0.1203772E+00
         11   -1    0    0    0    0  0.00000000000E+00  0.00000000000E+00  0.40000000000E+02  0.40000000000E+02  0.00000000000E+00 0.  1.
        -11   -1    0    0    0    0 -0.00000000000E+00 -0.00000000000E+00 -0.40000000000E+02  0.40000000000E+02  0.00000000000E+00 0. -1.
         23    2    1    2    0    0  0.00000000000E+00  0.00000000000E+00  0.00000000000E+00  0.80000000000E+02  0.80000000000E+02 0.  0.
          5    1    3    3  501    0  0.29004105817E+02  0.84656074502E+01 -0.25787697382E+02  0.40000000000E+02  0.47000000000E+01 0. -1.
         -5    1    3    3    0  501 -0.29004105817E+02 -0.84656074502E+01  0.25787697382E+02  0.40000000000E+02  0.47000000000E+01 0.  1.
</event>
<event>
 5    1  0.4761089E-001  0.8000000E+02  0.7546771E-02  0.1203772E+00
         11   -1    0    0    0    0  0.00000000000E+00  0.00000000000E+00  0.40000000000E+02  0.40000000000E+02  0.00000000000E+00 0.  1.
        -11   -1    0    0    0    0 -0.00000000000E+00 -0.00000000000E+00 -0.40000000000E+02  0.40000000000E+02  0.00000000000E+00 0. -1.
         23    2    1    2    0    0  0.00000000000E+00  0.00000000000E+00  0.00000000000E+00  0.80000000000E+02  0.80000000000E+02 0.  0.
          5    1    3    3  501    0 -0.20831749260E+02  0.26163320372E+02 -0.21434292381E+02  0.40000000000E+02  0.47000000000E+01 0. -1.
         -5    1    3    3    0  501  0.20831749260E+02 -0.26163320372E+02  0.21434292381E+02  0.40000000000E+02  0.47000000000E+01 0.  1.
</event>
<event>
 5    1  0.4761089E-001  0.8000000E+02  0.7546771E-02  0.1203772E+00
         11   -1    0    0    0    0  0.00000000000E+00  0.00000000000E+00  0.40000000000E+02  0.40000000000E+02  0.00000000000E+00 0.  1.
        -11   -1    0    0    0    0 -0.00000000000E+00 -0.00000000000E+00 -0.40000000000E+02  0.40000000000E+02  0.00000000000E+00 0. -1.
         23    2    1    2    0    0  0.00000000000E+00  0.00000000000E+00  0.00000000000E+00  0.80000000000E+02  0.80000000000E+02 0.  0.
          5    1    3    3  501    0  0.16525813495E+02 -0.34795819155E+02 -0.96983739712E+01  0.40000000000E+02  0.47000000000E+01 0. -1.
         -5    1    3    3    0  501 -0.16525813495E+02  0.34795819155E+02  0.96983739712E+01  0.40000000000E+02  0.47000000000E+01 0.  1.
</event>
<event>
 5    1  0.4761089E-001  0.8000000E+02  0.7546771E-02  0.1203772E+00
         11   -1    0    0    0    0  0.00000000000E+00  0.00000000000E+00  0.40000000000E+02  0.40000000000E+02  0.00000000000E+00 0. -1.
        -11   -1    0    0    0    0 -0.00000000000E+00 -0.00000000000E+00 -0.40000000000E+02  0.40000000000E+02  0.00000000000E+00 0.  1.
         23    2    1    2    0    0  0.00000000000E+00  0.00000000000E+00  0.00000000000E+00  0.80000000000E+02  0.80000000000E+02 0.  0.
          5    1    3    3  501    0  0.29459211132E+02 -0.30023742308E+01  0.26477360677E+02  0.40000000000E+02  0.47000000000E+01 0. -1.
         -5    1    3    3    0  501 -0.29459211132E+02  0.30023742308E+01 -0.26477360677E+02  0.40000000000E+02  0.47000000000E+01 0.  1.
</event>
<event>
 5    1  0.4761089E-001  0.8000000E+02  0.7546771E-02  0.1203772E+00
         11   -1    0    0    0    0  0.00000000000E+00  0.00000000000E+00  0.40000000000E+02  0.40000000000E+02  0.00000000000E+00 0. -1.
        -11   -1    0    0    0    0 -0.00000000000E+00 -0.00000000000E+00 -0.40000000000E+02  0.40000000000E+02  0.00000000000E+00 0.  1.
         23    2    1    2    0    0  0.00000000000E+00  0.00000000000E+00  0.00000000000E+00  0.80000000000E+02  0.80000000000E+02 0.  0.
          5    1    3    3  501    0  0.12266685119E+02  0.20743843626E+01  0.37724466407E+02  0.40000000000E+02  0.47000000000E+01 0. -1.
         -5    1    3    3    0  501 -0.12266685119E+02 -0.20743843626E+01 -0.37724466407E+02  0.40000000000E+02  0.47000000000E+01 0.  1.
</event>
<event>
 5    1  0.4761089E-001  0.8000000E+02  0.7546771E-02  0.1203772E+00
         11   -1    0    0    0    0  0.00000000000E+00  0.00000000000E+00  0.40000000000E+02  0.40000000000E+02  0.00000000000E+00 0.  1.
        -11   -1    0    0    0    0 -0.00000000000E+00 -0.00000000000E+00 -0.40000000000E+02  0.40000000000E+02  0.00000000000E+00 0. -1.
         23    2    1    2    0    0  0.00000000000E+00  0.00000000000E+00  0.00000000000E+00  0.80000000000E+02  0.80000000000E+02 0.  0.
          5    1    3    3  501    0 -0.14717160528E+02 -0.16395583703E+02 -0.33052988080E+02  0.40000000000E+02  0.47000000000E+01 0. -1.
         -5    1    3    3    0  501  0.14717160528E+02  0.16395583703E+02  0.33052988080E+02  0.40000000000E+02  0.47000000000E+01 0.  1.
</event>
<event>
 5    1  0.4761089E-001  0.8000000E+02  0.7546771E-02  0.1203772E+00
         11   -1    0    0    0    0  0.00000000000E+00  0.00000000000E+00  0.40000000000E+02  0.40000000000E+02  0.00000000000E+00 0.  1.
        -11   -1    0    0    0    0 -0.00000000000E+00 -0.00000000000E+00 -0.40000000000E+02  0.40000000000E+02  0.00000000000E+00 0. -1.
         23    2    1    2    0    0  0.00000000000E+00  0.00000000000E+00  0.00000000000E+00  0.80000000000E+02  0.80000000000E+02 0.  0.
          5    1    3    3  501    0  0.11324933327E+02 -0.18803535275E+01 -0.38027886554E+02  0.40000000000E+02  0.47000000000E+01 0. -1.
         -5    1    3    3    0  501 -0.11324933327E+02  0.18803535275E+01  0.38027886554E+02  0.40000000000E+02  0.47000000000E+01 0.  1.
</event>
<event>
 5    1  0.4761089E-001  0.8000000E+02  0.7546771E-02  0.1203772E+00
         11   -1    0    0    0    0  0.00000000000E+00  0.00000000000E+00  0.40000000000E+02  0.40000000000E+02  0.00000000000E+00 0.  1.
        -11   -1    0    0    0    0 -0.00000000000E+00 -0.00000000000E+00 -0.40000000000E+02  0.40000000000E+02  0.00000000000E+00 0. -1.
         23    2    1    2    0    0  0.00000000000E+00  0.00000000000E+00  0.00000000000E+00  0.80000000000E+02  0.80000000000E+02 0.  0.
          5    1    3    3  501    0 -0.39036572972E+02 -0.70612253609E+01  0.20481862795E+01  0.40000000000E+02  0.47000000000E+01 0. -1.
         -5    1    3    3    0  501  0.39036572972E+02  0.70612253609E+01 -0.20481862795E+01  0.40000000000E+02  0.47000000000E+01 0.  1.
</event>
<event>
 5    1  0.4761089E-001  0.8000000E+02  0.7546771E-02  0.1203772E+00
         11   -1    0    0    0    0  0.00000000000E+00  0.00000000000E+00  0.40000000000E+02  0.40000000000E+02  0.00000000000E+00 0.  1.
        -11   -1    0    0    0    0 -0.00000000000E+00 -0.00000000000E+00 -0.40000000000E+02  0.40000000000E+02  0.00000000000E+00 0. -1.
         23    2    1    2    0    0  0.00000000000E+00  0.00000000000E+00  0.00000000000E+00  0.80000000000E+02  0.80000000000E+02 0.  0.
          5    1    3    3  501    0  0.38115518192E+02 -0.11185458257E+02  0.52882200081E-01  0.40000000000E+02  0.47000000000E+01 0. -1.
         -5    1    3    3    0  501 -0.38115518192E+02  0.11185458257E+02 -0.52882200081E-01  0.40000000000E+02  0.47000000000E+01 0.  1.
</event>
<event>
 5    1  0.4761089E-001  0.8000000E+02  0.7546771E-02  0.1203772E+00
         11   -1    0    0    0    0  0.00000000000E+00  0.00000000000E+00  0.40000000000E+02  0.40000000000E+02  0.00000000000E+00 0.  1.
        -11   -1    0    0    0    0 -0.00000000000E+00 -0.00000000000E+00 -0.40000000000E+02  0.40000000000E+02  0.00000000000E+00 0. -1.
         23    2    1    2    0    0  0.00000000000E+00  0.00000000000E+00  0.00000000000E+00  0.80000000000E+02  0.80000000000E+02 0.  0.
          5    1    3    3  501    0  0.17615113492E+02  0.26864979582E+02 -0.23364302873E+02  0.40000000000E+02  0.47000000000E+01 0. -1.
         -5    1    3    3    0  501 -0.17615113492E+02 -0.26864979582E+02  0.23364302873E+02  0.40000000000E+02  0.47000000000E+01 0.  1.
</event>
<event>
 5    1  0.4761089E-001  0.8000000E+02  0.7546771E-02  0.1203772E+00
         11   -1    0    0    0    0  0.00000000000E+00  0.00000000000E+00  0.40000000000E+02  0.40000000000E+02  0.00000000000E+00 0. -1.
        -11   -1    0    0    0    0 -0.00000000000E+00 -0.00000000000E+00 -0.40000000000E+02  0.40000000000E+02  0.00000000000E+00 0.  1.
         23    2    1    2    0    0  0.00000000000E+00  0.00000000000E+00  0.00000000000E+00  0.80000000000E+02  0.80000000000E+02 0.  0.
          5    1    3    3  501    0 -0.16147296438E+02 -0.21607990901E+02  0.29159381800E+02  0.40000000000E+02  0.47000000000E+01 0. -1.
         -5    1    3    3    0  501  0.16147296438E+02  0.21607990901E+02 -0.29159381800E+02  0.40000000000E+02  0.47000000000E+01 0.  1.
</event>
<event>
 5    1  0.4761089E-001  0.8000000E+02  0.7546771E-02  0.1203772E+00
         11   -1    0    0    0    0  0.00000000000E+00  0.00000000000E+00  0.40000000000E+02  0.40000000000E+02  0.00000000000E+00 0. -1.
        -11   -1    0    0    0    0 -0.00000000000E+00 -0.00000000000E+00 -0.40000000000E+02  0.40000000000E+02  0.00000000000E+00 0.  1.
         23    2    1    2    0    0  0.00000000000E+00  0.00000000000E+00  0.00000000000E+00  0.80000000000E+02  0.80000000000E+02 0.  0.
          5    1    3    3  501    0  0.39543360001E+02 -0.37365197375E+01  0.52067273055E+00  0.40000000000E+02  0.47000000000E+01 0.  1.
         -5    1    3    3    0  501 -0.39543360001E+02  0.37365197375E+01 -0.52067273055E+00  0.40000000000E+02  0.47000000000E+01 0. -1.
</event>
<event>
 5    1  0.4761089E-001  0.8000000E+02  0.7546771E-02  0.1203772E+00
         11   -1    0    0    0    0  0.00000000000E+00  0.00000000000E+00  0.40000000000E+02  0.40000000000E+02  0.00000000000E+00 0. -1.
        -11   -1    0    0    0    0 -0.00000000000E+00 -0.00000000000E+00 -0.40000000000E+02  0.40000000000E+02  0.00000000000E+00 0.  1.
         23    2    1    2    0    0  0.00000000000E+00  0.00000000000E+00  0.00000000000E+00  0.80000000000E+02  0.80000000000E+02 0.  0.
          5    1    3    3  501    0 -0.12474695452E+02 -0.37331430157E+02 -0.53531575574E+01  0.40000000000E+02  0.47000000000E+01 0. -1.
         -5    1    3    3    0  501  0.12474695452E+02  0.37331430157E+02  0.53531575574E+01  0.40000000000E+02  0.47000000000E+01 0.  1.
</event>
<event>
 5    1  0.4761089E-001  0.8000000E+02  0.7546771E-02  0.1203772E+00
         11   -1    0    0    0    0  0.00000000000E+00  0.00000000000E+00  0.40000000000E+02  0.40000000000E+02  0.00000000000E+00 0.  1.
        -11   -1    0    0    0    0 -0.00000000000E+00 -0.00000000000E+00 -0.40000000000E+02  0.40000000000E+02  0.00000000000E+00 0. -1.
         23    2    1    2    0    0  0.00000000000E+00  0.00000000000E+00  0.00000000000E+00  0.80000000000E+02  0.80000000000E+02 0.  0.
          5    1    3    3  501    0  0.12864354635E+02 -0.30620249564E+02 -0.21790334933E+02  0.40000000000E+02  0.47000000000E+01 0. -1.
         -5    1    3    3    0  501 -0.12864354635E+02  0.30620249564E+02  0.21790334933E+02  0.40000000000E+02  0.47000000000E+01 0.  1.
</event>
<event>
 5    1  0.4761089E-001  0.8000000E+02  0.7546771E-02  0.1203772E+00
         11   -1    0    0    0    0  0.00000000000E+00  0.00000000000E+00  0.40000000000E+02  0.40000000000E+02  0.00000000000E+00 0.  1.
        -11   -1    0    0    0    0 -0.00000000000E+00 -0.00000000000E+00 -0.40000000000E+02  0.40000000000E+02  0.00000000000E+00 0. -1.
         23    2    1    2    0    0  0.00000000000E+00  0.00000000000E+00  0.00000000000E+00  0.80000000000E+02  0.80000000000E+02 0.  0.
          5    1    3    3  501    0  0.31966451180E+02  0.10323764187E+02 -0.21200846492E+02  0.40000000000E+02  0.47000000000E+01 0. -1.
         -5    1    3    3    0  501 -0.31966451180E+02 -0.10323764187E+02  0.21200846492E+02  0.40000000000E+02  0.47000000000E+01 0.  1.
</event>
<event>
 5    1  0.4761089E-001  0.8000000E+02  0.7546771E-02  0.1203772E+00
         11   -1    0    0    0    0  0.00000000000E+00  0.00000000000E+00  0.40000000000E+02  0.40000000000E+02  0.00000000000E+00 0.  1.
        -11   -1    0    0    0    0 -0.00000000000E+00 -0.00000000000E+00 -0.40000000000E+02  0.40000000000E+02  0.00000000000E+00 0. -1.
         23    2    1    2    0    0  0.00000000000E+00  0.00000000000E+00  0.00000000000E+00  0.80000000000E+02  0.80000000000E+02 0.  0.
          5    1    3    3  501    0 -0.25475337555E+02  0.15104430353E+02 -0.26472124209E+02  0.40000000000E+02  0.47000000000E+01 0. -1.
         -5    1    3    3    0  501  0.25475337555E+02 -0.15104430353E+02  0.26472124209E+02  0.40000000000E+02  0.47000000000E+01 0.  1.
</event>
<event>
 5    1  0.4761089E-001  0.8000000E+02  0.7546771E-02  0.1203772E+00
         11   -1    0    0    0    0  0.00000000000E+00  0.00000000000E+00  0.40000000000E+02  0.40000000000E+02  0.00000000000E+00 0. -1.
        -11   -1    0    0    0    0 -0.00000000000E+00 -0.00000000000E+00 -0.40000000000E+02  0.40000000000E+02  0.00000000000E+00 0.  1.
         23    2    1    2    0    0  0.00000000000E+00  0.00000000000E+00  0.00000000000E+00  0.80000000000E+02  0.80000000000E+02 0.  0.
          5    1    3    3  501    0  0.14354283569E+02 -0.11811305442E+01  0.37019852429E+02  0.40000000000E+02  0.47000000000E+01 0. -1.
         -5    1    3    3    0  501 -0.14354283569E+02  0.11811305442E+01 -0.37019852429E+02  0.40000000000E+02  0.47000000000E+01 0.  1.
</event>
<event>
 5    1  0.4761089E-001  0.8000000E+02  0.7546771E-02  0.1203772E+00
         11   -1    0    0    0    0  0.00000000000E+00  0.00000000000E+00  0.40000000000E+02  0.40000000000E+02  0.00000000000E+00 0. -1.
        -11   -1    0    0    0    0 -0.00000000000E+00 -0.00000000000E+00 -0.40000000000E+02  0.40000000000E+02  0.00000000000E+00 0.  1.
         23    2    1    2    0    0  0.00000000000E+00  0.00000000000E+00  0.00000000000E+00  0.80000000000E+02  0.80000000000E+02 0.  0.
          5    1    3    3  501    0  0.21031416421E+02  0.31466299581E+02  0.12060742682E+02  0.40000000000E+02  0.47000000000E+01 0. -1.
         -5    1    3    3    0  501 -0.21031416421E+02 -0.31466299581E+02 -0.12060742682E+02  0.40000000000E+02  0.47000000000E+01 0.  1.
</event>
<event>
 5    1  0.4761089E-001  0.8000000E+02  0.7546771E-02  0.1203772E+00
         11   -1    0    0    0    0  0.00000000000E+00  0.00000000000E+00  0.40000000000E+02  0.40000000000E+02  0.00000000000E+00 0.  1.
        -11   -1    0    0    0    0 -0.00000000000E+00 -0.00000000000E+00 -0.40000000000E+02  0.40000000000E+02  0.00000000000E+00 0. -1.
         23    2    1    2    0    0  0.00000000000E+00  0.00000000000E+00  0.00000000000E+00  0.80000000000E+02  0.80000000000E+02 0.  0.
          5    1    3    3  501    0 -0.98174504845E+01 -0.75041777328E+01 -0.37752019582E+02  0.40000000000E+02  0.47000000000E+01 0. -1.
         -5    1    3    3    0  501  0.98174504845E+01  0.75041777328E+01  0.37752019582E+02  0.40000000000E+02  0.47000000000E+01 0.  1.
</event>
<event>
 5    1  0.4761089E-001  0.8000000E+02  0.7546771E-02  0.1203772E+00
         11   -1    0    0    0    0  0.00000000000E+00  0.00000000000E+00  0.40000000000E+02  0.40000000000E+02  0.00000000000E+00 0.  1.
        -11   -1    0    0    0    0 -0.00000000000E+00 -0.00000000000E+00 -0.40000000000E+02  0.40000000000E+02  0.00000000000E+00 0. -1.
         23    2    1    2    0    0  0.00000000000E+00  0.00000000000E+00  0.00000000000E+00  0.80000000000E+02  0.80000000000E+02 0.  0.
          5    1    3    3  501    0 -0.19344161203E+02 -0.28060086610E+02  0.20404532997E+02  0.40000000000E+02  0.47000000000E+01 0. -1.
         -5    1    3    3    0  501  0.19344161203E+02  0.28060086610E+02 -0.20404532997E+02  0.40000000000E+02  0.47000000000E+01 0.  1.
</event>
<event>
 5    1  0.4761089E-001  0.8000000E+02  0.7546771E-02  0.1203772E+00
         11   -1    0    0    0    0  0.00000000000E+00  0.00000000000E+00  0.40000000000E+02  0.40000000000E+02  0.00000000000E+00 0.  1.
        -11   -1    0    0    0    0 -0.00000000000E+00 -0.00000000000E+00 -0.40000000000E+02  0.40000000000E+02  0.00000000000E+00 0. -1.
         23    2    1    2    0    0  0.00000000000E+00  0.00000000000E+00  0.00000000000E+00  0.80000000000E+02  0.80000000000E+02 0.  0.
          5    1    3    3  501    0 -0.17889143405E+00 -0.24932379872E+02 -0.30923363849E+02  0.40000000000E+02  0.47000000000E+01 0. -1.
         -5    1    3    3    0  501  0.17889143405E+00  0.24932379872E+02  0.30923363849E+02  0.40000000000E+02  0.47000000000E+01 0.  1.
</event>
<event>
 5    1  0.4761089E-001  0.8000000E+02  0.7546771E-02  0.1203772E+00
         11   -1    0    0    0    0  0.00000000000E+00  0.00000000000E+00  0.40000000000E+02  0.40000000000E+02  0.00000000000E+00 0. -1.
        -11   -1    0    0    0    0 -0.00000000000E+00 -0.00000000000E+00 -0.40000000000E+02  0.40000000000E+02  0.00000000000E+00 0.  1.
         23    2    1    2    0    0  0.00000000000E+00  0.00000000000E+00  0.00000000000E+00  0.80000000000E+02  0.80000000000E+02 0.  0.
          5    1    3    3  501    0 -0.44540007528E+01 -0.13507682566E+02  0.37089275930E+02  0.40000000000E+02  0.47000000000E+01 0. -1.
         -5    1    3    3    0  501  0.44540007528E+01  0.13507682566E+02 -0.37089275930E+02  0.40000000000E+02  0.47000000000E+01 0.  1.
</event>
<event>
 5    1  0.4761089E-001  0.8000000E+02  0.7546771E-02  0.1203772E+00
         11   -1    0    0    0    0  0.00000000000E+00  0.00000000000E+00  0.40000000000E+02  0.40000000000E+02  0.00000000000E+00 0. -1.
        -11   -1    0    0    0    0 -0.00000000000E+00 -0.00000000000E+00 -0.40000000000E+02  0.40000000000E+02  0.00000000000E+00 0.  1.
         23    2    1    2    0    0  0.00000000000E+00  0.00000000000E+00  0.00000000000E+00  0.80000000000E+02  0.80000000000E+02 0.  0.
          5    1    3    3  501    0  0.22416380578E+02 -0.86440738619E+01  0.31633777341E+02  0.40000000000E+02  0.47000000000E+01 0. -1.
         -5    1    3    3    0  501 -0.22416380578E+02  0.86440738619E+01 -0.31633777341E+02  0.40000000000E+02  0.47000000000E+01 0.  1.
</event>
<event>
 5    1  0.4761089E-001  0.8000000E+02  0.7546771E-02  0.1203772E+00
         11   -1    0    0    0    0  0.00000000000E+00  0.00000000000E+00  0.40000000000E+02  0.40000000000E+02  0.00000000000E+00 0.  1.
        -11   -1    0    0    0    0 -0.00000000000E+00 -0.00000000000E+00 -0.40000000000E+02  0.40000000000E+02  0.00000000000E+00 0. -1.
         23    2    1    2    0    0  0.00000000000E+00  0.00000000000E+00  0.00000000000E+00  0.80000000000E+02  0.80000000000E+02 0.  0.
          5    1    3    3  501    0 -0.15439100881E+02  0.18030958874E+02 -0.31850097112E+02  0.40000000000E+02  0.47000000000E+01 0. -1.
         -5    1    3    3    0  501  0.15439100881E+02 -0.18030958874E+02  0.31850097112E+02  0.40000000000E+02  0.47000000000E+01 0.  1.
</event>
<event>
 5    1  0.4761089E-001  0.8000000E+02  0.7546771E-02  0.1203772E+00
         11   -1    0    0    0    0  0.00000000000E+00  0.00000000000E+00  0.40000000000E+02  0.40000000000E+02  0.00000000000E+00 0.  1.
        -11   -1    0    0    0    0 -0.00000000000E+00 -0.00000000000E+00 -0.40000000000E+02  0.40000000000E+02  0.00000000000E+00 0. -1.
         23    2    1    2    0    0  0.00000000000E+00  0.00000000000E+00  0.00000000000E+00  0.80000000000E+02  0.80000000000E+02 0.  0.
          5    1    3    3  501    0  0.42932735278E+01  0.10673024892E+02 -0.38020577877E+02  0.40000000000E+02  0.47000000000E+01 0. -1.
         -5    1    3    3    0  501 -0.42932735278E+01 -0.10673024892E+02  0.38020577877E+02  0.40000000000E+02  0.47000000000E+01 0.  1.
</event>
<event>
 5    1  0.4761089E-001  0.8000000E+02  0.7546771E-02  0.1203772E+00
         11   -1    0    0    0    0  0.00000000000E+00  0.00000000000E+00  0.40000000000E+02  0.40000000000E+02  0.00000000000E+00 0.  1.
        -11   -1    0    0    0    0 -0.00000000000E+00 -0.00000000000E+00 -0.40000000000E+02  0.40000000000E+02  0.00000000000E+00 0. -1.
         23    2    1    2    0    0  0.00000000000E+00  0.00000000000E+00  0.00000000000E+00  0.80000000000E+02  0.80000000000E+02 0.  0.
          5    1    3    3  501    0 -0.19023237129E+02  0.10965819571E+02 -0.33102526343E+02  0.40000000000E+02  0.47000000000E+01 0. -1.
         -5    1    3    3    0  501  0.19023237129E+02 -0.10965819571E+02  0.33102526343E+02  0.40000000000E+02  0.47000000000E+01 0.  1.
</event>
<event>
 5    1  0.4761089E-001  0.8000000E+02  0.7546771E-02  0.1203772E+00
         11   -1    0    0    0    0  0.00000000000E+00  0.00000000000E+00  0.40000000000E+02  0.40000000000E+02  0.00000000000E+00 0.  1.
        -11   -1    0    0    0    0 -0.00000000000E+00 -0.00000000000E+00 -0.40000000000E+02  0.40000000000E+02  0.00000000000E+00 0. -1.
         23    2    1    2    0    0  0.00000000000E+00  0.00000000000E+00  0.00000000000E+00  0.80000000000E+02  0.80000000000E+02 0.  0.
          5    1    3    3  501    0  0.82954286438E+01 -0.55310478998E+01 -0.38451311717E+02  0.40000000000E+02  0.47000000000E+01 0. -1.
         -5    1    3    3    0  501 -0.82954286438E+01  0.55310478998E+01  0.38451311717E+02  0.40000000000E+02  0.47000000000E+01 0.  1.
</event>
<event>
 5    1  0.4761089E-001  0.8000000E+02  0.7546771E-02  0.1203772E+00
         11   -1    0    0    0    0  0.00000000000E+00  0.00000000000E+00  0.40000000000E+02  0.40000000000E+02  0.00000000000E+00 0.  1.
        -11   -1    0    0    0    0 -0.00000000000E+00 -0.00000000000E+00 -0.40000000000E+02  0.40000000000E+02  0.00000000000E+00 0. -1.
         23    2    1    2    0    0  0.00000000000E+00  0.00000000000E+00  0.00000000000E+00  0.80000000000E+02  0.80000000000E+02 0.  0.
          5    1    3    3  501    0 -0.19802998779E+02 -0.34434151752E+02 -0.20107833696E+00  0.40000000000E+02  0.47000000000E+01 0. -1.
         -5    1    3    3    0  501  0.19802998779E+02  0.34434151752E+02  0.20107833696E+00  0.40000000000E+02  0.47000000000E+01 0.  1.
</event>
<event>
 5    1  0.4761089E-001  0.8000000E+02  0.7546771E-02  0.1203772E+00
         11   -1    0    0    0    0  0.00000000000E+00  0.00000000000E+00  0.40000000000E+02  0.40000000000E+02  0.00000000000E+00 0.  1.
        -11   -1    0    0    0    0 -0.00000000000E+00 -0.00000000000E+00 -0.40000000000E+02  0.40000000000E+02  0.00000000000E+00 0. -1.
         23    2    1    2    0    0  0.00000000000E+00  0.00000000000E+00  0.00000000000E+00  0.80000000000E+02  0.80000000000E+02 0.  0.
          5    1    3    3  501    0 -0.39506297414E+02  0.16408385039E+00  0.41395097719E+01  0.40000000000E+02  0.47000000000E+01 0. -1.
         -5    1    3    3    0  501  0.39506297414E+02 -0.16408385039E+00 -0.41395097719E+01  0.40000000000E+02  0.47000000000E+01 0.  1.
</event>
<event>
 5    1  0.4761089E-001  0.8000000E+02  0.7546771E-02  0.1203772E+00
         11   -1    0    0    0    0  0.00000000000E+00  0.00000000000E+00  0.40000000000E+02  0.40000000000E+02  0.00000000000E+00 0.  1.
        -11   -1    0    0    0    0 -0.00000000000E+00 -0.00000000000E+00 -0.40000000000E+02  0.40000000000E+02  0.00000000000E+00 0. -1.
         23    2    1    2    0    0  0.00000000000E+00  0.00000000000E+00  0.00000000000E+00  0.80000000000E+02  0.80000000000E+02 0.  0.
          5    1    3    3  501    0 -0.24856646851E+02 -0.21625460205E+02 -0.22190010775E+02  0.40000000000E+02  0.47000000000E+01 0. -1.
         -5    1    3    3    0  501  0.24856646851E+02  0.21625460205E+02  0.22190010775E+02  0.40000000000E+02  0.47000000000E+01 0.  1.
</event>
<event>
 5    1  0.4761089E-001  0.8000000E+02  0.7546771E-02  0.1203772E+00
         11   -1    0    0    0    0  0.00000000000E+00  0.00000000000E+00  0.40000000000E+02  0.40000000000E+02  0.00000000000E+00 0. -1.
        -11   -1    0    0    0    0 -0.00000000000E+00 -0.00000000000E+00 -0.40000000000E+02  0.40000000000E+02  0.00000000000E+00 0.  1.
         23    2    1    2    0    0  0.00000000000E+00  0.00000000000E+00  0.00000000000E+00  0.80000000000E+02  0.80000000000E+02 0.  0.
          5    1    3    3  501    0  0.19088085120E+02 -0.20316321768E+02  0.28298446534E+02  0.40000000000E+02  0.47000000000E+01 0. -1.
         -5    1    3    3    0  501 -0.19088085120E+02  0.20316321768E+02 -0.28298446534E+02  0.40000000000E+02  0.47000000000E+01 0.  1.
</event>
<event>
 5    1  0.4761089E-001  0.8000000E+02  0.7546771E-02  0.1203772E+00
         11   -1    0    0    0    0  0.00000000000E+00  0.00000000000E+00  0.40000000000E+02  0.40000000000E+02  0.00000000000E+00 0.  1.
        -11   -1    0    0    0    0 -0.00000000000E+00 -0.00000000000E+00 -0.40000000000E+02  0.40000000000E+02  0.00000000000E+00 0. -1.
         23    2    1    2    0    0  0.00000000000E+00  0.00000000000E+00  0.00000000000E+00  0.80000000000E+02  0.80000000000E+02 0.  0.
          5    1    3    3  501    0  0.14735725644E+02 -0.17941967726E+02 -0.32231260972E+02  0.40000000000E+02  0.47000000000E+01 0. -1.
         -5    1    3    3    0  501 -0.14735725644E+02  0.17941967726E+02  0.32231260972E+02  0.40000000000E+02  0.47000000000E+01 0.  1.
</event>
<event>
 5    1  0.4761089E-001  0.8000000E+02  0.7546771E-02  0.1203772E+00
         11   -1    0    0    0    0  0.00000000000E+00  0.00000000000E+00  0.40000000000E+02  0.40000000000E+02  0.00000000000E+00 0. -1.
        -11   -1    0    0    0    0 -0.00000000000E+00 -0.00000000000E+00 -0.40000000000E+02  0.40000000000E+02  0.00000000000E+00 0.  1.
         23    2    1    2    0    0  0.00000000000E+00  0.00000000000E+00  0.00000000000E+00  0.80000000000E+02  0.80000000000E+02 0.  0.
          5    1    3    3  501    0  0.22162203193E+02  0.29981695015E+02  0.13705645322E+02  0.40000000000E+02  0.47000000000E+01 0. -1.
         -5    1    3    3    0  501 -0.22162203193E+02 -0.29981695015E+02 -0.13705645322E+02  0.40000000000E+02  0.47000000000E+01 0.  1.
</event>
<event>
 5    1  0.4761089E-001  0.8000000E+02  0.7546771E-02  0.1203772E+00
         11   -1    0    0    0    0  0.00000000000E+00  0.00000000000E+00  0.40000000000E+02  0.40000000000E+02  0.00000000000E+00 0. -1.
        -11   -1    0    0    0    0 -0.00000000000E+00 -0.00000000000E+00 -0.40000000000E+02  0.40000000000E+02  0.00000000000E+00 0.  1.
         23    2    1    2    0    0  0.00000000000E+00  0.00000000000E+00  0.00000000000E+00  0.80000000000E+02  0.80000000000E+02 0.  0.
          5    1    3    3  501    0 -0.75486387574E+01 -0.72520444514E+00  0.38992334265E+02  0.40000000000E+02  0.47000000000E+01 0. -1.
         -5    1    3    3    0  501  0.75486387574E+01  0.72520444514E+00 -0.38992334265E+02  0.40000000000E+02  0.47000000000E+01 0.  1.
</event>
<event>
 5    1  0.4761089E-001  0.8000000E+02  0.7546771E-02  0.1203772E+00
         11   -1    0    0    0    0  0.00000000000E+00  0.00000000000E+00  0.40000000000E+02  0.40000000000E+02  0.00000000000E+00 0.  1.
        -11   -1    0    0    0    0 -0.00000000000E+00 -0.00000000000E+00 -0.40000000000E+02  0.40000000000E+02  0.00000000000E+00 0. -1.
         23    2    1    2    0    0  0.00000000000E+00  0.00000000000E+00  0.00000000000E+00  0.80000000000E+02  0.80000000000E+02 0.  0.
          5    1    3    3  501    0  0.24454881298E+02 -0.20206650221E+02 -0.23907322467E+02  0.40000000000E+02  0.47000000000E+01 0. -1.
         -5    1    3    3    0  501 -0.24454881298E+02  0.20206650221E+02  0.23907322467E+02  0.40000000000E+02  0.47000000000E+01 0.  1.
</event>
<event>
 5    1  0.4761089E-001  0.8000000E+02  0.7546771E-02  0.1203772E+00
         11   -1    0    0    0    0  0.00000000000E+00  0.00000000000E+00  0.40000000000E+02  0.40000000000E+02  0.00000000000E+00 0. -1.
        -11   -1    0    0    0    0 -0.00000000000E+00 -0.00000000000E+00 -0.40000000000E+02  0.40000000000E+02  0.00000000000E+00 0.  1.
         23    2    1    2    0    0  0.00000000000E+00  0.00000000000E+00  0.00000000000E+00  0.80000000000E+02  0.80000000000E+02 0.  0.
          5    1    3    3  501    0  0.10765925508E+02 -0.47792100346E+01  0.37936315048E+02  0.40000000000E+02  0.47000000000E+01 0. -1.
         -5    1    3    3    0  501 -0.10765925508E+02  0.47792100346E+01 -0.37936315048E+02  0.40000000000E+02  0.47000000000E+01 0.  1.
</event>
<event>
 5    1  0.4761089E-001  0.8000000E+02  0.7546771E-02  0.1203772E+00
         11   -1    0    0    0    0  0.00000000000E+00  0.00000000000E+00  0.40000000000E+02  0.40000000000E+02  0.00000000000E+00 0.  1.
        -11   -1    0    0    0    0 -0.00000000000E+00 -0.00000000000E+00 -0.40000000000E+02  0.40000000000E+02  0.00000000000E+00 0. -1.
         23    2    1    2    0    0  0.00000000000E+00  0.00000000000E+00  0.00000000000E+00  0.80000000000E+02  0.80000000000E+02 0.  0.
          5    1    3    3  501    0 -0.49544891539E+01 -0.24492290054E+02 -0.30878645779E+02  0.40000000000E+02  0.47000000000E+01 0. -1.
         -5    1    3    3    0  501  0.49544891539E+01  0.24492290054E+02  0.30878645779E+02  0.40000000000E+02  0.47000000000E+01 0.  1.
</event>
<event>
 5    1  0.4761089E-001  0.8000000E+02  0.7546771E-02  0.1203772E+00
         11   -1    0    0    0    0  0.00000000000E+00  0.00000000000E+00  0.40000000000E+02  0.40000000000E+02  0.00000000000E+00 0. -1.
        -11   -1    0    0    0    0 -0.00000000000E+00 -0.00000000000E+00 -0.40000000000E+02  0.40000000000E+02  0.00000000000E+00 0.  1.
         23    2    1    2    0    0  0.00000000000E+00  0.00000000000E+00  0.00000000000E+00  0.80000000000E+02  0.80000000000E+02 0.  0.
          5    1    3    3  501    0  0.12399854596E+02 -0.10065699073E+02 -0.36370802963E+02  0.40000000000E+02  0.47000000000E+01 0.  1.
         -5    1    3    3    0  501 -0.12399854596E+02  0.10065699073E+02  0.36370802963E+02  0.40000000000E+02  0.47000000000E+01 0. -1.
</event>
<event>
 5    1  0.4761089E-001  0.8000000E+02  0.7546771E-02  0.1203772E+00
         11   -1    0    0    0    0  0.00000000000E+00  0.00000000000E+00  0.40000000000E+02  0.40000000000E+02  0.00000000000E+00 0. -1.
        -11   -1    0    0    0    0 -0.00000000000E+00 -0.00000000000E+00 -0.40000000000E+02  0.40000000000E+02  0.00000000000E+00 0.  1.
         23    2    1    2    0    0  0.00000000000E+00  0.00000000000E+00  0.00000000000E+00  0.80000000000E+02  0.80000000000E+02 0.  0.
          5    1    3    3  501    0  0.37744903502E+02 -0.65996596011E+01  0.10472666937E+02  0.40000000000E+02  0.47000000000E+01 0. -1.
         -5    1    3    3    0  501 -0.37744903502E+02  0.65996596011E+01 -0.10472666937E+02  0.40000000000E+02  0.47000000000E+01 0.  1.
</event>
<event>
 5    1  0.4761089E-001  0.8000000E+02  0.7546771E-02  0.1203772E+00
         11   -1    0    0    0    0  0.00000000000E+00  0.00000000000E+00  0.40000000000E+02  0.40000000000E+02  0.00000000000E+00 0. -1.
        -11   -1    0    0    0    0 -0.00000000000E+00 -0.00000000000E+00 -0.40000000000E+02  0.40000000000E+02  0.00000000000E+00 0.  1.
         23    2    1    2    0    0  0.00000000000E+00  0.00000000000E+00  0.00000000000E+00  0.80000000000E+02  0.80000000000E+02 0.  0.
          5    1    3    3  501    0 -0.24417460622E+02  0.50600179302E+01  0.30920767056E+02  0.40000000000E+02  0.47000000000E+01 0. -1.
         -5    1    3    3    0  501  0.24417460622E+02 -0.50600179302E+01 -0.30920767056E+02  0.40000000000E+02  0.47000000000E+01 0.  1.
</event>
<event>
 5    1  0.4761089E-001  0.8000000E+02  0.7546771E-02  0.1203772E+00
         11   -1    0    0    0    0  0.00000000000E+00  0.00000000000E+00  0.40000000000E+02  0.40000000000E+02  0.00000000000E+00 0. -1.
        -11   -1    0    0    0    0 -0.00000000000E+00 -0.00000000000E+00 -0.40000000000E+02  0.40000000000E+02  0.00000000000E+00 0.  1.
         23    2    1    2    0    0  0.00000000000E+00  0.00000000000E+00  0.00000000000E+00  0.80000000000E+02  0.80000000000E+02 0.  0.
          5    1    3    3  501    0 -0.22574052011E+02 -0.14905132632E+02  0.29088815670E+02  0.40000000000E+02  0.47000000000E+01 0. -1.
         -5    1    3    3    0  501  0.22574052011E+02  0.14905132632E+02 -0.29088815670E+02  0.40000000000E+02  0.47000000000E+01 0.  1.
</event>
<event>
 5    1  0.4761089E-001  0.8000000E+02  0.7546771E-02  0.1203772E+00
         11   -1    0    0    0    0  0.00000000000E+00  0.00000000000E+00  0.40000000000E+02  0.40000000000E+02  0.00000000000E+00 0.  1.
        -11   -1    0    0    0    0 -0.00000000000E+00 -0.00000000000E+00 -0.40000000000E+02  0.40000000000E+02  0.00000000000E+00 0. -1.
         23    2    1    2    0    0  0.00000000000E+00  0.00000000000E+00  0.00000000000E+00  0.80000000000E+02  0.80000000000E+02 0.  0.
          5    1    3    3  501    0 -0.19964115191E+02  0.33393764535E+02 -0.80125273681E+01  0.40000000000E+02  0.47000000000E+01 0. -1.
         -5    1    3    3    0  501  0.19964115191E+02 -0.33393764535E+02  0.80125273681E+01  0.40000000000E+02  0.47000000000E+01 0.  1.
</event>
<event>
 5    1  0.4761089E-001  0.8000000E+02  0.7546771E-02  0.1203772E+00
         11   -1    0    0    0    0  0.00000000000E+00  0.00000000000E+00  0.40000000000E+02  0.40000000000E+02  0.00000000000E+00 0. -1.
        -11   -1    0    0    0    0 -0.00000000000E+00 -0.00000000000E+00 -0.40000000000E+02  0.40000000000E+02  0.00000000000E+00 0.  1.
         23    2    1    2    0    0  0.00000000000E+00  0.00000000000E+00  0.00000000000E+00  0.80000000000E+02  0.80000000000E+02 0.  0.
          5    1    3    3  501    0 -0.36096474767E+02  0.88047965547E+01  0.14050980998E+02  0.40000000000E+02  0.47000000000E+01 0. -1.
         -5    1    3    3    0  501  0.36096474767E+02 -0.88047965547E+01 -0.14050980998E+02  0.40000000000E+02  0.47000000000E+01 0.  1.
</event>
<event>
 5    1  0.4761089E-001  0.8000000E+02  0.7546771E-02  0.1203772E+00
         11   -1    0    0    0    0  0.00000000000E+00  0.00000000000E+00  0.40000000000E+02  0.40000000000E+02  0.00000000000E+00 0. -1.
        -11   -1    0    0    0    0 -0.00000000000E+00 -0.00000000000E+00 -0.40000000000E+02  0.40000000000E+02  0.00000000000E+00 0.  1.
         23    2    1    2    0    0  0.00000000000E+00  0.00000000000E+00  0.00000000000E+00  0.80000000000E+02  0.80000000000E+02 0.  0.
          5    1    3    3  501    0 -0.33659583504E+02 -0.10091399417E+02 -0.18523123284E+02  0.40000000000E+02  0.47000000000E+01 0. -1.
         -5    1    3    3    0  501  0.33659583504E+02  0.10091399417E+02  0.18523123284E+02  0.40000000000E+02  0.47000000000E+01 0.  1.
</event>
<event>
 5    1  0.4761089E-001  0.8000000E+02  0.7546771E-02  0.1203772E+00
         11   -1    0    0    0    0  0.00000000000E+00  0.00000000000E+00  0.40000000000E+02  0.40000000000E+02  0.00000000000E+00 0. -1.
        -11   -1    0    0    0    0 -0.00000000000E+00 -0.00000000000E+00 -0.40000000000E+02  0.40000000000E+02  0.00000000000E+00 0.  1.
         23    2    1    2    0    0  0.00000000000E+00  0.00000000000E+00  0.00000000000E+00  0.80000000000E+02  0.80000000000E+02 0.  0.
          5    1    3    3  501    0  0.20981423210E+02 -0.85224355555E+01  0.32635225942E+02  0.40000000000E+02  0.47000000000E+01 0. -1.
         -5    1    3    3    0  501 -0.20981423210E+02  0.85224355555E+01 -0.32635225942E+02  0.40000000000E+02  0.47000000000E+01 0.  1.
</event>
<event>
 5    1  0.4761089E-001  0.8000000E+02  0.7546771E-02  0.1203772E+00
         11   -1    0    0    0    0  0.00000000000E+00  0.00000000000E+00  0.40000000000E+02  0.40000000000E+02  0.00000000000E+00 0.  1.
        -11   -1    0    0    0    0 -0.00000000000E+00 -0.00000000000E+00 -0.40000000000E+02  0.40000000000E+02  0.00000000000E+00 0. -1.
         23    2    1    2    0    0  0.00000000000E+00  0.00000000000E+00  0.00000000000E+00  0.80000000000E+02  0.80000000000E+02 0.  0.
          5    1    3    3  501    0  0.20600461368E+02  0.18926018564E+02 -0.28201716485E+02  0.40000000000E+02  0.47000000000E+01 0. -1.
         -5    1    3    3    0  501 -0.20600461368E+02 -0.18926018564E+02  0.28201716485E+02  0.40000000000E+02  0.47000000000E+01 0.  1.
</event>
<event>
 5    1  0.4761089E-001  0.8000000E+02  0.7546771E-02  0.1203772E+00
         11   -1    0    0    0    0  0.00000000000E+00  0.00000000000E+00  0.40000000000E+02  0.40000000000E+02  0.00000000000E+00 0. -1.
        -11   -1    0    0    0    0 -0.00000000000E+00 -0.00000000000E+00 -0.40000000000E+02  0.40000000000E+02  0.00000000000E+00 0.  1.
         23    2    1    2    0    0  0.00000000000E+00  0.00000000000E+00  0.00000000000E+00  0.80000000000E+02  0.80000000000E+02 0.  0.
          5    1    3    3  501    0 -0.36857056264E+02  0.10147967178E+01  0.14779634338E+02  0.40000000000E+02  0.47000000000E+01 0. -1.
         -5    1    3    3    0  501  0.36857056264E+02 -0.10147967178E+01 -0.14779634338E+02  0.40000000000E+02  0.47000000000E+01 0.  1.
</event>
<event>
 5    1  0.4761089E-001  0.8000000E+02  0.7546771E-02  0.1203772E+00
         11   -1    0    0    0    0  0.00000000000E+00  0.00000000000E+00  0.40000000000E+02  0.40000000000E+02  0.00000000000E+00 0.  1.
        -11   -1    0    0    0    0 -0.00000000000E+00 -0.00000000000E+00 -0.40000000000E+02  0.40000000000E+02  0.00000000000E+00 0. -1.
         23    2    1    2    0    0  0.00000000000E+00  0.00000000000E+00  0.00000000000E+00  0.80000000000E+02  0.80000000000E+02 0.  0.
          5    1    3    3  501    0  0.35260636940E+02  0.71344924505E+01 -0.16843292435E+02  0.40000000000E+02  0.47000000000E+01 0. -1.
         -5    1    3    3    0  501 -0.35260636940E+02 -0.71344924505E+01  0.16843292435E+02  0.40000000000E+02  0.47000000000E+01 0.  1.
</event>
<event>
 5    1  0.4761089E-001  0.8000000E+02  0.7546771E-02  0.1203772E+00
         11   -1    0    0    0    0  0.00000000000E+00  0.00000000000E+00  0.40000000000E+02  0.40000000000E+02  0.00000000000E+00 0. -1.
        -11   -1    0    0    0    0 -0.00000000000E+00 -0.00000000000E+00 -0.40000000000E+02  0.40000000000E+02  0.00000000000E+00 0.  1.
         23    2    1    2    0    0  0.00000000000E+00  0.00000000000E+00  0.00000000000E+00  0.80000000000E+02  0.80000000000E+02 0.  0.
          5    1    3    3  501    0 -0.33188890359E+02  0.39198181223E+01  0.21471902166E+02  0.40000000000E+02  0.47000000000E+01 0. -1.
         -5    1    3    3    0  501  0.33188890359E+02 -0.39198181223E+01 -0.21471902166E+02  0.40000000000E+02  0.47000000000E+01 0.  1.
</event>
<event>
 5    1  0.4761089E-001  0.8000000E+02  0.7546771E-02  0.1203772E+00
         11   -1    0    0    0    0  0.00000000000E+00  0.00000000000E+00  0.40000000000E+02  0.40000000000E+02  0.00000000000E+00 0.  1.
        -11   -1    0    0    0    0 -0.00000000000E+00 -0.00000000000E+00 -0.40000000000E+02  0.40000000000E+02  0.00000000000E+00 0. -1.
         23    2    1    2    0    0  0.00000000000E+00  0.00000000000E+00  0.00000000000E+00  0.80000000000E+02  0.80000000000E+02 0.  0.
          5    1    3    3  501    0 -0.60919458861E+00 -0.14118162809E+02 -0.37124336504E+02  0.40000000000E+02  0.47000000000E+01 0. -1.
         -5    1    3    3    0  501  0.60919458861E+00  0.14118162809E+02  0.37124336504E+02  0.40000000000E+02  0.47000000000E+01 0.  1.
</event>
<event>
 5    1  0.4761089E-001  0.8000000E+02  0.7546771E-02  0.1203772E+00
         11   -1    0    0    0    0  0.00000000000E+00  0.00000000000E+00  0.40000000000E+02  0.40000000000E+02  0.00000000000E+00 0.  1.
        -11   -1    0    0    0    0 -0.00000000000E+00 -0.00000000000E+00 -0.40000000000E+02  0.40000000000E+02  0.00000000000E+00 0. -1.
         23    2    1    2    0    0  0.00000000000E+00  0.00000000000E+00  0.00000000000E+00  0.80000000000E+02  0.80000000000E+02 0.  0.
          5    1    3    3  501    0 -0.27731816234E+02  0.15113179910E+02 -0.24092491805E+02  0.40000000000E+02  0.47000000000E+01 0. -1.
         -5    1    3    3    0  501  0.27731816234E+02 -0.15113179910E+02  0.24092491805E+02  0.40000000000E+02  0.47000000000E+01 0.  1.
</event>
<event>
 5    1  0.4761089E-001  0.8000000E+02  0.7546771E-02  0.1203772E+00
         11   -1    0    0    0    0  0.00000000000E+00  0.00000000000E+00  0.40000000000E+02  0.40000000000E+02  0.00000000000E+00 0.  1.
        -11   -1    0    0    0    0 -0.00000000000E+00 -0.00000000000E+00 -0.40000000000E+02  0.40000000000E+02  0.00000000000E+00 0. -1.
         23    2    1    2    0    0  0.00000000000E+00  0.00000000000E+00  0.00000000000E+00  0.80000000000E+02  0.80000000000E+02 0.  0.
          5    1    3    3  501    0 -0.15354360900E+02  0.22962266254E+02 -0.28546241956E+02  0.40000000000E+02  0.47000000000E+01 0. -1.
         -5    1    3    3    0  501  0.15354360900E+02 -0.22962266254E+02  0.28546241956E+02  0.40000000000E+02  0.47000000000E+01 0.  1.
</event>
<event>
 5    1  0.4761089E-001  0.8000000E+02  0.7546771E-02  0.1203772E+00
         11   -1    0    0    0    0  0.00000000000E+00  0.00000000000E+00  0.40000000000E+02  0.40000000000E+02  0.00000000000E+00 0.  1.
        -11   -1    0    0    0    0 -0.00000000000E+00 -0.00000000000E+00 -0.40000000000E+02  0.40000000000E+02  0.00000000000E+00 0. -1.
         23    2    1    2    0    0  0.00000000000E+00  0.00000000000E+00  0.00000000000E+00  0.80000000000E+02  0.80000000000E+02 0.  0.
          5    1    3    3  501    0 -0.82602026478E+01 -0.21149165268E+01 -0.38796986743E+02  0.40000000000E+02  0.47000000000E+01 0. -1.
         -5    1    3    3    0  501  0.82602026478E+01  0.21149165268E+01  0.38796986743E+02  0.40000000000E+02  0.47000000000E+01 0.  1.
</event>
<event>
 5    1  0.4761089E-001  0.8000000E+02  0.7546771E-02  0.1203772E+00
         11   -1    0    0    0    0  0.00000000000E+00  0.00000000000E+00  0.40000000000E+02  0.40000000000E+02  0.00000000000E+00 0.  1.
        -11   -1    0    0    0    0 -0.00000000000E+00 -0.00000000000E+00 -0.40000000000E+02  0.40000000000E+02  0.00000000000E+00 0. -1.
         23    2    1    2    0    0  0.00000000000E+00  0.00000000000E+00  0.00000000000E+00  0.80000000000E+02  0.80000000000E+02 0.  0.
          5    1    3    3  501    0 -0.22305328106E+02  0.21273101623E+02 -0.25056685444E+02  0.40000000000E+02  0.47000000000E+01 0. -1.
         -5    1    3    3    0  501  0.22305328106E+02 -0.21273101623E+02  0.25056685444E+02  0.40000000000E+02  0.47000000000E+01 0.  1.
</event>
<event>
 5    1  0.4761089E-001  0.8000000E+02  0.7546771E-02  0.1203772E+00
         11   -1    0    0    0    0  0.00000000000E+00  0.00000000000E+00  0.40000000000E+02  0.40000000000E+02  0.00000000000E+00 0.  1.
        -11   -1    0    0    0    0 -0.00000000000E+00 -0.00000000000E+00 -0.40000000000E+02  0.40000000000E+02  0.00000000000E+00 0. -1.
         23    2    1    2    0    0  0.00000000000E+00  0.00000000000E+00  0.00000000000E+00  0.80000000000E+02  0.80000000000E+02 0.  0.
          5    1    3    3  501    0 -0.18263775519E+02 -0.34976272995E+02 -0.45831027866E+01  0.40000000000E+02  0.47000000000E+01 0. -1.
         -5    1    3    3    0  501  0.18263775519E+02  0.34976272995E+02  0.45831027866E+01  0.40000000000E+02  0.47000000000E+01 0.  1.
</event>
<event>
 5    1  0.4761089E-001  0.8000000E+02  0.7546771E-02  0.1203772E+00
         11   -1    0    0    0    0  0.00000000000E+00  0.00000000000E+00  0.40000000000E+02  0.40000000000E+02  0.00000000000E+00 0. -1.
        -11   -1    0    0    0    0 -0.00000000000E+00 -0.00000000000E+00 -0.40000000000E+02  0.40000000000E+02  0.00000000000E+00 0.  1.
         23    2    1    2    0    0  0.00000000000E+00  0.00000000000E+00  0.00000000000E+00  0.80000000000E+02  0.80000000000E+02 0.  0.
          5    1    3    3  501    0 -0.30884034474E+02 -0.15051551554E+02  0.19938335198E+02  0.40000000000E+02  0.47000000000E+01 0. -1.
         -5    1    3    3    0  501  0.30884034474E+02  0.15051551554E+02 -0.19938335198E+02  0.40000000000E+02  0.47000000000E+01 0.  1.
</event>
<event>
 5    1  0.4761089E-001  0.8000000E+02  0.7546771E-02  0.1203772E+00
         11   -1    0    0    0    0  0.00000000000E+00  0.00000000000E+00  0.40000000000E+02  0.40000000000E+02  0.00000000000E+00 0.  1.
        -11   -1    0    0    0    0 -0.00000000000E+00 -0.00000000000E+00 -0.40000000000E+02  0.40000000000E+02  0.00000000000E+00 0. -1.
         23    2    1    2    0    0  0.00000000000E+00  0.00000000000E+00  0.00000000000E+00  0.80000000000E+02  0.80000000000E+02 0.  0.
          5    1    3    3  501    0  0.27761757287E+02  0.21048983438E+02 -0.19082325030E+02  0.40000000000E+02  0.47000000000E+01 0. -1.
         -5    1    3    3    0  501 -0.27761757287E+02 -0.21048983438E+02  0.19082325030E+02  0.40000000000E+02  0.47000000000E+01 0.  1.
</event>
<event>
 5    1  0.4761089E-001  0.8000000E+02  0.7546771E-02  0.1203772E+00
         11   -1    0    0    0    0  0.00000000000E+00  0.00000000000E+00  0.40000000000E+02  0.40000000000E+02  0.00000000000E+00 0. -1.
        -11   -1    0    0    0    0 -0.00000000000E+00 -0.00000000000E+00 -0.40000000000E+02  0.40000000000E+02  0.00000000000E+00 0.  1.
         23    2    1    2    0    0  0.00000000000E+00  0.00000000000E+00  0.00000000000E+00  0.80000000000E+02  0.80000000000E+02 0.  0.
          5    1    3    3  501    0  0.23109080801E+02  0.18242771601E+02  0.26666114619E+02  0.40000000000E+02  0.47000000000E+01 0. -1.
         -5    1    3    3    0  501 -0.23109080801E+02 -0.18242771601E+02 -0.26666114619E+02  0.40000000000E+02  0.47000000000E+01 0.  1.
</event>
<event>
 5    1  0.4761089E-001  0.8000000E+02  0.7546771E-02  0.1203772E+00
         11   -1    0    0    0    0  0.00000000000E+00  0.00000000000E+00  0.40000000000E+02  0.40000000000E+02  0.00000000000E+00 0. -1.
        -11   -1    0    0    0    0 -0.00000000000E+00 -0.00000000000E+00 -0.40000000000E+02  0.40000000000E+02  0.00000000000E+00 0.  1.
         23    2    1    2    0    0  0.00000000000E+00  0.00000000000E+00  0.00000000000E+00  0.80000000000E+02  0.80000000000E+02 0.  0.
          5    1    3    3  501    0  0.37567049063E+02 -0.53209057988E+00 -0.12897430142E+02  0.40000000000E+02  0.47000000000E+01 0.  1.
         -5    1    3    3    0  501 -0.37567049063E+02  0.53209057988E+00  0.12897430142E+02  0.40000000000E+02  0.47000000000E+01 0. -1.
</event>
<event>
 5    1  0.4761089E-001  0.8000000E+02  0.7546771E-02  0.1203772E+00
         11   -1    0    0    0    0  0.00000000000E+00  0.00000000000E+00  0.40000000000E+02  0.40000000000E+02  0.00000000000E+00 0.  1.
        -11   -1    0    0    0    0 -0.00000000000E+00 -0.00000000000E+00 -0.40000000000E+02  0.40000000000E+02  0.00000000000E+00 0. -1.
         23    2    1    2    0    0  0.00000000000E+00  0.00000000000E+00  0.00000000000E+00  0.80000000000E+02  0.80000000000E+02 0.  0.
          5    1    3    3  501    0  0.38099294041E+02  0.67244315552E+01 -0.90075420545E+01  0.40000000000E+02  0.47000000000E+01 0. -1.
         -5    1    3    3    0  501 -0.38099294041E+02 -0.67244315552E+01  0.90075420545E+01  0.40000000000E+02  0.47000000000E+01 0.  1.
</event>
<event>
 5    1  0.4761089E-001  0.8000000E+02  0.7546771E-02  0.1203772E+00
         11   -1    0    0    0    0  0.00000000000E+00  0.00000000000E+00  0.40000000000E+02  0.40000000000E+02  0.00000000000E+00 0. -1.
        -11   -1    0    0    0    0 -0.00000000000E+00 -0.00000000000E+00 -0.40000000000E+02  0.40000000000E+02  0.00000000000E+00 0.  1.
         23    2    1    2    0    0  0.00000000000E+00  0.00000000000E+00  0.00000000000E+00  0.80000000000E+02  0.80000000000E+02 0.  0.
          5    1    3    3  501    0 -0.77327762664E+01 -0.30207496574E+02 -0.24609374676E+02  0.40000000000E+02  0.47000000000E+01 0.  1.
         -5    1    3    3    0  501  0.77327762664E+01  0.30207496574E+02  0.24609374676E+02  0.40000000000E+02  0.47000000000E+01 0. -1.
</event>
<event>
 5    1  0.4761089E-001  0.8000000E+02  0.7546771E-02  0.1203772E+00
         11   -1    0    0    0    0  0.00000000000E+00  0.00000000000E+00  0.40000000000E+02  0.40000000000E+02  0.00000000000E+00 0. -1.
        -11   -1    0    0    0    0 -0.00000000000E+00 -0.00000000000E+00 -0.40000000000E+02  0.40000000000E+02  0.00000000000E+00 0.  1.
         23    2    1    2    0    0  0.00000000000E+00  0.00000000000E+00  0.00000000000E+00  0.80000000000E+02  0.80000000000E+02 0.  0.
          5    1    3    3  501    0 -0.10135751189E+01  0.37753145186E+02  0.12311892382E+02  0.40000000000E+02  0.47000000000E+01 0. -1.
         -5    1    3    3    0  501  0.10135751189E+01 -0.37753145186E+02 -0.12311892382E+02  0.40000000000E+02  0.47000000000E+01 0.  1.
</event>
<event>
 5    1  0.4761089E-001  0.8000000E+02  0.7546771E-02  0.1203772E+00
         11   -1    0    0    0    0  0.00000000000E+00  0.00000000000E+00  0.40000000000E+02  0.40000000000E+02  0.00000000000E+00 0.  1.
        -11   -1    0    0    0    0 -0.00000000000E+00 -0.00000000000E+00 -0.40000000000E+02  0.40000000000E+02  0.00000000000E+00 0. -1.
         23    2    1    2    0    0  0.00000000000E+00  0.00000000000E+00  0.00000000000E+00  0.80000000000E+02  0.80000000000E+02 0.  0.
          5    1    3    3  501    0  0.37095113172E+02  0.35605731598E+01 -0.13754450099E+02  0.40000000000E+02  0.47000000000E+01 0. -1.
         -5    1    3    3    0  501 -0.37095113172E+02 -0.35605731598E+01  0.13754450099E+02  0.40000000000E+02  0.47000000000E+01 0.  1.
</event>
<event>
 5    1  0.4761089E-001  0.8000000E+02  0.7546771E-02  0.1203772E+00
         11   -1    0    0    0    0  0.00000000000E+00  0.00000000000E+00  0.40000000000E+02  0.40000000000E+02  0.00000000000E+00 0.  1.
        -11   -1    0    0    0    0 -0.00000000000E+00 -0.00000000000E+00 -0.40000000000E+02  0.40000000000E+02  0.00000000000E+00 0. -1.
         23    2    1    2    0    0  0.00000000000E+00  0.00000000000E+00  0.00000000000E+00  0.80000000000E+02  0.80000000000E+02 0.  0.
          5    1    3    3  501    0  0.19143021118E+02  0.32465200677E+02 -0.12548525310E+02  0.40000000000E+02  0.47000000000E+01 0. -1.
         -5    1    3    3    0  501 -0.19143021118E+02 -0.32465200677E+02  0.12548525310E+02  0.40000000000E+02  0.47000000000E+01 0.  1.
</event>
<event>
 5    1  0.4761089E-001  0.8000000E+02  0.7546771E-02  0.1203772E+00
         11   -1    0    0    0    0  0.00000000000E+00  0.00000000000E+00  0.40000000000E+02  0.40000000000E+02  0.00000000000E+00 0.  1.
        -11   -1    0    0    0    0 -0.00000000000E+00 -0.00000000000E+00 -0.40000000000E+02  0.40000000000E+02  0.00000000000E+00 0. -1.
         23    2    1    2    0    0  0.00000000000E+00  0.00000000000E+00  0.00000000000E+00  0.80000000000E+02  0.80000000000E+02 0.  0.
          5    1    3    3  501    0  0.26204435762E+02  0.29030921682E+02 -0.69601101071E+01  0.40000000000E+02  0.47000000000E+01 0. -1.
         -5    1    3    3    0  501 -0.26204435762E+02 -0.29030921682E+02  0.69601101071E+01  0.40000000000E+02  0.47000000000E+01 0.  1.
</event>
<event>
 5    1  0.4761089E-001  0.8000000E+02  0.7546771E-02  0.1203772E+00
         11   -1    0    0    0    0  0.00000000000E+00  0.00000000000E+00  0.40000000000E+02  0.40000000000E+02  0.00000000000E+00 0. -1.
        -11   -1    0    0    0    0 -0.00000000000E+00 -0.00000000000E+00 -0.40000000000E+02  0.40000000000E+02  0.00000000000E+00 0.  1.
         23    2    1    2    0    0  0.00000000000E+00  0.00000000000E+00  0.00000000000E+00  0.80000000000E+02  0.80000000000E+02 0.  0.
          5    1    3    3  501    0 -0.32590401981E+02  0.10011097631E+02  0.20385132400E+02  0.40000000000E+02  0.47000000000E+01 0. -1.
         -5    1    3    3    0  501  0.32590401981E+02 -0.10011097631E+02 -0.20385132400E+02  0.40000000000E+02  0.47000000000E+01 0.  1.
</event>
<event>
 5    1  0.4761089E-001  0.8000000E+02  0.7546771E-02  0.1203772E+00
         11   -1    0    0    0    0  0.00000000000E+00  0.00000000000E+00  0.40000000000E+02  0.40000000000E+02  0.00000000000E+00 0.  1.
        -11   -1    0    0    0    0 -0.00000000000E+00 -0.00000000000E+00 -0.40000000000E+02  0.40000000000E+02  0.00000000000E+00 0. -1.
         23    2    1    2    0    0  0.00000000000E+00  0.00000000000E+00  0.00000000000E+00  0.80000000000E+02  0.80000000000E+02 0.  0.
          5    1    3    3  501    0  0.21162704972E+02 -0.26889870368E+02 -0.20173864028E+02  0.40000000000E+02  0.47000000000E+01 0. -1.
         -5    1    3    3    0  501 -0.21162704972E+02  0.26889870368E+02  0.20173864028E+02  0.40000000000E+02  0.47000000000E+01 0.  1.
</event>
<event>
 5    1  0.4761089E-001  0.8000000E+02  0.7546771E-02  0.1203772E+00
         11   -1    0    0    0    0  0.00000000000E+00  0.00000000000E+00  0.40000000000E+02  0.40000000000E+02  0.00000000000E+00 0. -1.
        -11   -1    0    0    0    0 -0.00000000000E+00 -0.00000000000E+00 -0.40000000000E+02  0.40000000000E+02  0.00000000000E+00 0.  1.
         23    2    1    2    0    0  0.00000000000E+00  0.00000000000E+00  0.00000000000E+00  0.80000000000E+02  0.80000000000E+02 0.  0.
          5    1    3    3  501    0 -0.92890481885E+01  0.31888869324E+02  0.21788152675E+02  0.40000000000E+02  0.47000000000E+01 0. -1.
         -5    1    3    3    0  501  0.92890481885E+01 -0.31888869324E+02 -0.21788152675E+02  0.40000000000E+02  0.47000000000E+01 0.  1.
</event>
<event>
 5    1  0.4761089E-001  0.8000000E+02  0.7546771E-02  0.1203772E+00
         11   -1    0    0    0    0  0.00000000000E+00  0.00000000000E+00  0.40000000000E+02  0.40000000000E+02  0.00000000000E+00 0. -1.
        -11   -1    0    0    0    0 -0.00000000000E+00 -0.00000000000E+00 -0.40000000000E+02  0.40000000000E+02  0.00000000000E+00 0.  1.
         23    2    1    2    0    0  0.00000000000E+00  0.00000000000E+00  0.00000000000E+00  0.80000000000E+02  0.80000000000E+02 0.  0.
          5    1    3    3  501    0 -0.24077926979E+02 -0.17215913460E+02  0.26491050491E+02  0.40000000000E+02  0.47000000000E+01 0. -1.
         -5    1    3    3    0  501  0.24077926979E+02  0.17215913460E+02 -0.26491050491E+02  0.40000000000E+02  0.47000000000E+01 0.  1.
</event>
<event>
 5    1  0.4761089E-001  0.8000000E+02  0.7546771E-02  0.1203772E+00
         11   -1    0    0    0    0  0.00000000000E+00  0.00000000000E+00  0.40000000000E+02  0.40000000000E+02  0.00000000000E+00 0. -1.
        -11   -1    0    0    0    0 -0.00000000000E+00 -0.00000000000E+00 -0.40000000000E+02  0.40000000000E+02  0.00000000000E+00 0.  1.
         23    2    1    2    0    0  0.00000000000E+00  0.00000000000E+00  0.00000000000E+00  0.80000000000E+02  0.80000000000E+02 0.  0.
          5    1    3    3  501    0  0.21020198373E+02 -0.70306306480E+01  0.32964093997E+02  0.40000000000E+02  0.47000000000E+01 0. -1.
         -5    1    3    3    0  501 -0.21020198373E+02  0.70306306480E+01 -0.32964093997E+02  0.40000000000E+02  0.47000000000E+01 0.  1.
</event>
<event>
 5    1  0.4761089E-001  0.8000000E+02  0.7546771E-02  0.1203772E+00
         11   -1    0    0    0    0  0.00000000000E+00  0.00000000000E+00  0.40000000000E+02  0.40000000000E+02  0.00000000000E+00 0. -1.
        -11   -1    0    0    0    0 -0.00000000000E+00 -0.00000000000E+00 -0.40000000000E+02  0.40000000000E+02  0.00000000000E+00 0.  1.
         23    2    1    2    0    0  0.00000000000E+00  0.00000000000E+00  0.00000000000E+00  0.80000000000E+02  0.80000000000E+02 0.  0.
          5    1    3    3  501    0 -0.24091926280E+02  0.13691537580E+02  0.28461041562E+02  0.40000000000E+02  0.47000000000E+01 0. -1.
         -5    1    3    3    0  501  0.24091926280E+02 -0.13691537580E+02 -0.28461041562E+02  0.40000000000E+02  0.47000000000E+01 0.  1.
</event>
<event>
 5    1  0.4761089E-001  0.8000000E+02  0.7546771E-02  0.1203772E+00
         11   -1    0    0    0    0  0.00000000000E+00  0.00000000000E+00  0.40000000000E+02  0.40000000000E+02  0.00000000000E+00 0.  1.
        -11   -1    0    0    0    0 -0.00000000000E+00 -0.00000000000E+00 -0.40000000000E+02  0.40000000000E+02  0.00000000000E+00 0. -1.
         23    2    1    2    0    0  0.00000000000E+00  0.00000000000E+00  0.00000000000E+00  0.80000000000E+02  0.80000000000E+02 0.  0.
          5    1    3    3  501    0  0.31517866488E+02 -0.21896629166E+02  0.10250449903E+02  0.40000000000E+02  0.47000000000E+01 0. -1.
         -5    1    3    3    0  501 -0.31517866488E+02  0.21896629166E+02 -0.10250449903E+02  0.40000000000E+02  0.47000000000E+01 0.  1.
</event>
<event>
 5    1  0.4761089E-001  0.8000000E+02  0.7546771E-02  0.1203772E+00
         11   -1    0    0    0    0  0.00000000000E+00  0.00000000000E+00  0.40000000000E+02  0.40000000000E+02  0.00000000000E+00 0.  1.
        -11   -1    0    0    0    0 -0.00000000000E+00 -0.00000000000E+00 -0.40000000000E+02  0.40000000000E+02  0.00000000000E+00 0. -1.
         23    2    1    2    0    0  0.00000000000E+00  0.00000000000E+00  0.00000000000E+00  0.80000000000E+02  0.80000000000E+02 0.  0.
          5    1    3    3  501    0  0.50030922833E+01 -0.39204295175E+02 -0.39877697289E+01  0.40000000000E+02  0.47000000000E+01 0. -1.
         -5    1    3    3    0  501 -0.50030922833E+01  0.39204295175E+02  0.39877697289E+01  0.40000000000E+02  0.47000000000E+01 0.  1.
</event>
<event>
 5    1  0.4761089E-001  0.8000000E+02  0.7546771E-02  0.1203772E+00
         11   -1    0    0    0    0  0.00000000000E+00  0.00000000000E+00  0.40000000000E+02  0.40000000000E+02  0.00000000000E+00 0. -1.
        -11   -1    0    0    0    0 -0.00000000000E+00 -0.00000000000E+00 -0.40000000000E+02  0.40000000000E+02  0.00000000000E+00 0.  1.
         23    2    1    2    0    0  0.00000000000E+00  0.00000000000E+00  0.00000000000E+00  0.80000000000E+02  0.80000000000E+02 0.  0.
          5    1    3    3  501    0  0.21383655911E+01  0.52685364131E+01  0.39313864179E+02  0.40000000000E+02  0.47000000000E+01 0. -1.
         -5    1    3    3    0  501 -0.21383655911E+01 -0.52685364131E+01 -0.39313864179E+02  0.40000000000E+02  0.47000000000E+01 0.  1.
</event>
<event>
 5    1  0.4761089E-001  0.8000000E+02  0.7546771E-02  0.1203772E+00
         11   -1    0    0    0    0  0.00000000000E+00  0.00000000000E+00  0.40000000000E+02  0.40000000000E+02  0.00000000000E+00 0. -1.
        -11   -1    0    0    0    0 -0.00000000000E+00 -0.00000000000E+00 -0.40000000000E+02  0.40000000000E+02  0.00000000000E+00 0.  1.
         23    2    1    2    0    0  0.00000000000E+00  0.00000000000E+00  0.00000000000E+00  0.80000000000E+02  0.80000000000E+02 0.  0.
          5    1    3    3  501    0 -0.13456197054E+02  0.16502219110E+02 -0.33533826583E+02  0.40000000000E+02  0.47000000000E+01 0.  1.
         -5    1    3    3    0  501  0.13456197054E+02 -0.16502219110E+02  0.33533826583E+02  0.40000000000E+02  0.47000000000E+01 0. -1.
</event>
<event>
 5    1  0.4761089E-001  0.8000000E+02  0.7546771E-02  0.1203772E+00
         11   -1    0    0    0    0  0.00000000000E+00  0.00000000000E+00  0.40000000000E+02  0.40000000000E+02  0.00000000000E+00 0. -1.
        -11   -1    0    0    0    0 -0.00000000000E+00 -0.00000000000E+00 -0.40000000000E+02  0.40000000000E+02  0.00000000000E+00 0.  1.
         23    2    1    2    0    0  0.00000000000E+00  0.00000000000E+00  0.00000000000E+00  0.80000000000E+02  0.80000000000E+02 0.  0.
          5    1    3    3  501    0 -0.21864335242E+02 -0.10719292721E+01  0.33146822051E+02  0.40000000000E+02  0.47000000000E+01 0. -1.
         -5    1    3    3    0  501  0.21864335242E+02  0.10719292721E+01 -0.33146822051E+02  0.40000000000E+02  0.47000000000E+01 0.  1.
</event>
<event>
 5    1  0.4761089E-001  0.8000000E+02  0.7546771E-02  0.1203772E+00
         11   -1    0    0    0    0  0.00000000000E+00  0.00000000000E+00  0.40000000000E+02  0.40000000000E+02  0.00000000000E+00 0. -1.
        -11   -1    0    0    0    0 -0.00000000000E+00 -0.00000000000E+00 -0.40000000000E+02  0.40000000000E+02  0.00000000000E+00 0.  1.
         23    2    1    2    0    0  0.00000000000E+00  0.00000000000E+00  0.00000000000E+00  0.80000000000E+02  0.80000000000E+02 0.  0.
          5    1    3    3  501    0 -0.20899597164E+02 -0.29391158900E+01  0.33652316951E+02  0.40000000000E+02  0.47000000000E+01 0. -1.
         -5    1    3    3    0  501  0.20899597164E+02  0.29391158900E+01 -0.33652316951E+02  0.40000000000E+02  0.47000000000E+01 0.  1.
</event>
<event>
 5    1  0.4761089E-001  0.8000000E+02  0.7546771E-02  0.1203772E+00
         11   -1    0    0    0    0  0.00000000000E+00  0.00000000000E+00  0.40000000000E+02  0.40000000000E+02  0.00000000000E+00 0. -1.
        -11   -1    0    0    0    0 -0.00000000000E+00 -0.00000000000E+00 -0.40000000000E+02  0.40000000000E+02  0.00000000000E+00 0.  1.
         23    2    1    2    0    0  0.00000000000E+00  0.00000000000E+00  0.00000000000E+00  0.80000000000E+02  0.80000000000E+02 0.  0.
          5    1    3    3  501    0  0.23080019320E+02  0.79600402276E+00  0.32320103431E+02  0.40000000000E+02  0.47000000000E+01 0. -1.
         -5    1    3    3    0  501 -0.23080019320E+02 -0.79600402276E+00 -0.32320103431E+02  0.40000000000E+02  0.47000000000E+01 0.  1.
</event>
<event>
 5    1  0.4761089E-001  0.8000000E+02  0.7546771E-02  0.1203772E+00
         11   -1    0    0    0    0  0.00000000000E+00  0.00000000000E+00  0.40000000000E+02  0.40000000000E+02  0.00000000000E+00 0. -1.
        -11   -1    0    0    0    0 -0.00000000000E+00 -0.00000000000E+00 -0.40000000000E+02  0.40000000000E+02  0.00000000000E+00 0.  1.
         23    2    1    2    0    0  0.00000000000E+00  0.00000000000E+00  0.00000000000E+00  0.80000000000E+02  0.80000000000E+02 0.  0.
          5    1    3    3  501    0 -0.28692180977E+02  0.13140933408E+01 -0.27439786980E+02  0.40000000000E+02  0.47000000000E+01 0.  1.
         -5    1    3    3    0  501  0.28692180977E+02 -0.13140933408E+01  0.27439786980E+02  0.40000000000E+02  0.47000000000E+01 0. -1.
</event>
<event>
 5    1  0.4761089E-001  0.8000000E+02  0.7546771E-02  0.1203772E+00
         11   -1    0    0    0    0  0.00000000000E+00  0.00000000000E+00  0.40000000000E+02  0.40000000000E+02  0.00000000000E+00 0. -1.
        -11   -1    0    0    0    0 -0.00000000000E+00 -0.00000000000E+00 -0.40000000000E+02  0.40000000000E+02  0.00000000000E+00 0.  1.
         23    2    1    2    0    0  0.00000000000E+00  0.00000000000E+00  0.00000000000E+00  0.80000000000E+02  0.80000000000E+02 0.  0.
          5    1    3    3  501    0  0.34027104677E+02  0.10939547991E+02  0.17331833055E+02  0.40000000000E+02  0.47000000000E+01 0. -1.
         -5    1    3    3    0  501 -0.34027104677E+02 -0.10939547991E+02 -0.17331833055E+02  0.40000000000E+02  0.47000000000E+01 0.  1.
</event>
<event>
 5    1  0.4761089E-001  0.8000000E+02  0.7546771E-02  0.1203772E+00
         11   -1    0    0    0    0  0.00000000000E+00  0.00000000000E+00  0.40000000000E+02  0.40000000000E+02  0.00000000000E+00 0.  1.
        -11   -1    0    0    0    0 -0.00000000000E+00 -0.00000000000E+00 -0.40000000000E+02  0.40000000000E+02  0.00000000000E+00 0. -1.
         23    2    1    2    0    0  0.00000000000E+00  0.00000000000E+00  0.00000000000E+00  0.80000000000E+02  0.80000000000E+02 0.  0.
          5    1    3    3  501    0  0.36272017680E+02 -0.14671897594E+02 -0.68546447338E+01  0.40000000000E+02  0.47000000000E+01 0. -1.
         -5    1    3    3    0  501 -0.36272017680E+02  0.14671897594E+02  0.68546447338E+01  0.40000000000E+02  0.47000000000E+01 0.  1.
</event>
<event>
 5    1  0.4761089E-001  0.8000000E+02  0.7546771E-02  0.1203772E+00
         11   -1    0    0    0    0  0.00000000000E+00  0.00000000000E+00  0.40000000000E+02  0.40000000000E+02  0.00000000000E+00 0. -1.
        -11   -1    0    0    0    0 -0.00000000000E+00 -0.00000000000E+00 -0.40000000000E+02  0.40000000000E+02  0.00000000000E+00 0.  1.
         23    2    1    2    0    0  0.00000000000E+00  0.00000000000E+00  0.00000000000E+00  0.80000000000E+02  0.80000000000E+02 0.  0.
          5    1    3    3  501    0  0.32116680103E+02  0.26357377037E+01  0.23226746348E+02  0.40000000000E+02  0.47000000000E+01 0. -1.
         -5    1    3    3    0  501 -0.32116680103E+02 -0.26357377037E+01 -0.23226746348E+02  0.40000000000E+02  0.47000000000E+01 0.  1.
</event>
<event>
 5    1  0.4761089E-001  0.8000000E+02  0.7546771E-02  0.1203772E+00
         11   -1    0    0    0    0  0.00000000000E+00  0.00000000000E+00  0.40000000000E+02  0.40000000000E+02  0.00000000000E+00 0. -1.
        -11   -1    0    0    0    0 -0.00000000000E+00 -0.00000000000E+00 -0.40000000000E+02  0.40000000000E+02  0.00000000000E+00 0.  1.
         23    2    1    2    0    0  0.00000000000E+00  0.00000000000E+00  0.00000000000E+00  0.80000000000E+02  0.80000000000E+02 0.  0.
          5    1    3    3  501    0  0.27859596338E+02 -0.70787564744E+01  0.27416128441E+02  0.40000000000E+02  0.47000000000E+01 0. -1.
         -5    1    3    3    0  501 -0.27859596338E+02  0.70787564744E+01 -0.27416128441E+02  0.40000000000E+02  0.47000000000E+01 0.  1.
</event>
<event>
 5    1  0.4761089E-001  0.8000000E+02  0.7546771E-02  0.1203772E+00
         11   -1    0    0    0    0  0.00000000000E+00  0.00000000000E+00  0.40000000000E+02  0.40000000000E+02  0.00000000000E+00 0.  1.
        -11   -1    0    0    0    0 -0.00000000000E+00 -0.00000000000E+00 -0.40000000000E+02  0.40000000000E+02  0.00000000000E+00 0. -1.
         23    2    1    2    0    0  0.00000000000E+00  0.00000000000E+00  0.00000000000E+00  0.80000000000E+02  0.80000000000E+02 0.  0.
          5    1    3    3  501    0  0.87116979344E+01  0.24003886457E+02 -0.30427450666E+02  0.40000000000E+02  0.47000000000E+01 0. -1.
         -5    1    3    3    0  501 -0.87116979344E+01 -0.24003886457E+02  0.30427450666E+02  0.40000000000E+02  0.47000000000E+01 0.  1.
</event>
<event>
 5    1  0.4761089E-001  0.8000000E+02  0.7546771E-02  0.1203772E+00
         11   -1    0    0    0    0  0.00000000000E+00  0.00000000000E+00  0.40000000000E+02  0.40000000000E+02  0.00000000000E+00 0.  1.
        -11   -1    0    0    0    0 -0.00000000000E+00 -0.00000000000E+00 -0.40000000000E+02  0.40000000000E+02  0.00000000000E+00 0. -1.
         23    2    1    2    0    0  0.00000000000E+00  0.00000000000E+00  0.00000000000E+00  0.80000000000E+02  0.80000000000E+02 0.  0.
          5    1    3    3  501    0 -0.45072573373E+01 -0.23568155148E+02 -0.31656542676E+02  0.40000000000E+02  0.47000000000E+01 0. -1.
         -5    1    3    3    0  501  0.45072573373E+01  0.23568155148E+02  0.31656542676E+02  0.40000000000E+02  0.47000000000E+01 0.  1.
</event>
<event>
 5    1  0.4761089E-001  0.8000000E+02  0.7546771E-02  0.1203772E+00
         11   -1    0    0    0    0  0.00000000000E+00  0.00000000000E+00  0.40000000000E+02  0.40000000000E+02  0.00000000000E+00 0. -1.
        -11   -1    0    0    0    0 -0.00000000000E+00 -0.00000000000E+00 -0.40000000000E+02  0.40000000000E+02  0.00000000000E+00 0.  1.
         23    2    1    2    0    0  0.00000000000E+00  0.00000000000E+00  0.00000000000E+00  0.80000000000E+02  0.80000000000E+02 0.  0.
          5    1    3    3  501    0  0.33748177318E+02 -0.19612764414E+02  0.73695318532E+01  0.40000000000E+02  0.47000000000E+01 0. -1.
         -5    1    3    3    0  501 -0.33748177318E+02  0.19612764414E+02 -0.73695318532E+01  0.40000000000E+02  0.47000000000E+01 0.  1.
</event>
<event>
 5    1  0.4761089E-001  0.8000000E+02  0.7546771E-02  0.1203772E+00
         11   -1    0    0    0    0  0.00000000000E+00  0.00000000000E+00  0.40000000000E+02  0.40000000000E+02  0.00000000000E+00 0.  1.
        -11   -1    0    0    0    0 -0.00000000000E+00 -0.00000000000E+00 -0.40000000000E+02  0.40000000000E+02  0.00000000000E+00 0. -1.
         23    2    1    2    0    0  0.00000000000E+00  0.00000000000E+00  0.00000000000E+00  0.80000000000E+02  0.80000000000E+02 0.  0.
          5    1    3    3  501    0  0.28554330956E+02 -0.25578092052E+02  0.10407756273E+02  0.40000000000E+02  0.47000000000E+01 0. -1.
         -5    1    3    3    0  501 -0.28554330956E+02  0.25578092052E+02 -0.10407756273E+02  0.40000000000E+02  0.47000000000E+01 0.  1.
</event>
<event>
 5    1  0.4761089E-001  0.8000000E+02  0.7546771E-02  0.1203772E+00
         11   -1    0    0    0    0  0.00000000000E+00  0.00000000000E+00  0.40000000000E+02  0.40000000000E+02  0.00000000000E+00 0.  1.
        -11   -1    0    0    0    0 -0.00000000000E+00 -0.00000000000E+00 -0.40000000000E+02  0.40000000000E+02  0.00000000000E+00 0. -1.
         23    2    1    2    0    0  0.00000000000E+00  0.00000000000E+00  0.00000000000E+00  0.80000000000E+02  0.80000000000E+02 0.  0.
          5    1    3    3  501    0  0.11369418599E+02  0.81387874092E+01 -0.37180727000E+02  0.40000000000E+02  0.47000000000E+01 0. -1.
         -5    1    3    3    0  501 -0.11369418599E+02 -0.81387874092E+01  0.37180727000E+02  0.40000000000E+02  0.47000000000E+01 0.  1.
</event>
<event>
 5    1  0.4761089E-001  0.8000000E+02  0.7546771E-02  0.1203772E+00
         11   -1    0    0    0    0  0.00000000000E+00  0.00000000000E+00  0.40000000000E+02  0.40000000000E+02  0.00000000000E+00 0.  1.
        -11   -1    0    0    0    0 -0.00000000000E+00 -0.00000000000E+00 -0.40000000000E+02  0.40000000000E+02  0.00000000000E+00 0. -1.
         23    2    1    2    0    0  0.00000000000E+00  0.00000000000E+00  0.00000000000E+00  0.80000000000E+02  0.80000000000E+02 0.  0.
          5    1    3    3  501    0  0.10922889736E+02  0.37693165123E+02 -0.61502668933E+01  0.40000000000E+02  0.47000000000E+01 0. -1.
         -5    1    3    3    0  501 -0.10922889736E+02 -0.37693165123E+02  0.61502668933E+01  0.40000000000E+02  0.47000000000E+01 0.  1.
</event>
<event>
 5    1  0.4761089E-001  0.8000000E+02  0.7546771E-02  0.1203772E+00
         11   -1    0    0    0    0  0.00000000000E+00  0.00000000000E+00  0.40000000000E+02  0.40000000000E+02  0.00000000000E+00 0. -1.
        -11   -1    0    0    0    0 -0.00000000000E+00 -0.00000000000E+00 -0.40000000000E+02  0.40000000000E+02  0.00000000000E+00 0.  1.
         23    2    1    2    0    0  0.00000000000E+00  0.00000000000E+00  0.00000000000E+00  0.80000000000E+02  0.80000000000E+02 0.  0.
          5    1    3    3  501    0  0.94180860041E+01  0.38496432043E+02  0.26896795347E+01  0.40000000000E+02  0.47000000000E+01 0. -1.
         -5    1    3    3    0  501 -0.94180860041E+01 -0.38496432043E+02 -0.26896795347E+01  0.40000000000E+02  0.47000000000E+01 0.  1.
</event>
<event>
 5    1  0.4761089E-001  0.8000000E+02  0.7546771E-02  0.1203772E+00
         11   -1    0    0    0    0  0.00000000000E+00  0.00000000000E+00  0.40000000000E+02  0.40000000000E+02  0.00000000000E+00 0. -1.
        -11   -1    0    0    0    0 -0.00000000000E+00 -0.00000000000E+00 -0.40000000000E+02  0.40000000000E+02  0.00000000000E+00 0.  1.
         23    2    1    2    0    0  0.00000000000E+00  0.00000000000E+00  0.00000000000E+00  0.80000000000E+02  0.80000000000E+02 0.  0.
          5    1    3    3  501    0  0.24364163128E+02  0.80830416681E+01  0.30314385899E+02  0.40000000000E+02  0.47000000000E+01 0. -1.
         -5    1    3    3    0  501 -0.24364163128E+02 -0.80830416681E+01 -0.30314385899E+02  0.40000000000E+02  0.47000000000E+01 0.  1.
</event>
<event>
 5    1  0.4761089E-001  0.8000000E+02  0.7546771E-02  0.1203772E+00
         11   -1    0    0    0    0  0.00000000000E+00  0.00000000000E+00  0.40000000000E+02  0.40000000000E+02  0.00000000000E+00 0.  1.
        -11   -1    0    0    0    0 -0.00000000000E+00 -0.00000000000E+00 -0.40000000000E+02  0.40000000000E+02  0.00000000000E+00 0. -1.
         23    2    1    2    0    0  0.00000000000E+00  0.00000000000E+00  0.00000000000E+00  0.80000000000E+02  0.80000000000E+02 0.  0.
          5    1    3    3  501    0  0.11417364837E+02  0.25057187983E+02 -0.28630248175E+02  0.40000000000E+02  0.47000000000E+01 0. -1.
         -5    1    3    3    0  501 -0.11417364837E+02 -0.25057187983E+02  0.28630248175E+02  0.40000000000E+02  0.47000000000E+01 0.  1.
</event>
<event>
 5    1  0.4761089E-001  0.8000000E+02  0.7546771E-02  0.1203772E+00
         11   -1    0    0    0    0  0.00000000000E+00  0.00000000000E+00  0.40000000000E+02  0.40000000000E+02  0.00000000000E+00 0. -1.
        -11   -1    0    0    0    0 -0.00000000000E+00 -0.00000000000E+00 -0.40000000000E+02  0.40000000000E+02  0.00000000000E+00 0.  1.
         23    2    1    2    0    0  0.00000000000E+00  0.00000000000E+00  0.00000000000E+00  0.80000000000E+02  0.80000000000E+02 0.  0.
          5    1    3    3  501    0  0.26709584031E+02  0.20587583880E+02  0.20991891550E+02  0.40000000000E+02  0.47000000000E+01 0. -1.
         -5    1    3    3    0  501 -0.26709584031E+02 -0.20587583880E+02 -0.20991891550E+02  0.40000000000E+02  0.47000000000E+01 0.  1.
</event>
<event>
 5    1  0.4761089E-001  0.8000000E+02  0.7546771E-02  0.1203772E+00
         11   -1    0    0    0    0  0.00000000000E+00  0.00000000000E+00  0.40000000000E+02  0.40000000000E+02  0.00000000000E+00 0.  1.
        -11   -1    0    0    0    0 -0.00000000000E+00 -0.00000000000E+00 -0.40000000000E+02  0.40000000000E+02  0.00000000000E+00 0. -1.
         23    2    1    2    0    0  0.00000000000E+00  0.00000000000E+00  0.00000000000E+00  0.80000000000E+02  0.80000000000E+02 0.  0.
          5    1    3    3  501    0  0.28000587622E+02 -0.12604912810E+02 -0.25199072718E+02  0.40000000000E+02  0.47000000000E+01 0. -1.
         -5    1    3    3    0  501 -0.28000587622E+02  0.12604912810E+02  0.25199072718E+02  0.40000000000E+02  0.47000000000E+01 0.  1.
</event>
<event>
 5    1  0.4761089E-001  0.8000000E+02  0.7546771E-02  0.1203772E+00
         11   -1    0    0    0    0  0.00000000000E+00  0.00000000000E+00  0.40000000000E+02  0.40000000000E+02  0.00000000000E+00 0. -1.
        -11   -1    0    0    0    0 -0.00000000000E+00 -0.00000000000E+00 -0.40000000000E+02  0.40000000000E+02  0.00000000000E+00 0.  1.
         23    2    1    2    0    0  0.00000000000E+00  0.00000000000E+00  0.00000000000E+00  0.80000000000E+02  0.80000000000E+02 0.  0.
          5    1    3    3  501    0  0.15616519916E+02  0.30377163752E+02  0.20279601280E+02  0.40000000000E+02  0.47000000000E+01 0. -1.
         -5    1    3    3    0  501 -0.15616519916E+02 -0.30377163752E+02 -0.20279601280E+02  0.40000000000E+02  0.47000000000E+01 0.  1.
</event>
<event>
 5    1  0.4761089E-001  0.8000000E+02  0.7546771E-02  0.1203772E+00
         11   -1    0    0    0    0  0.00000000000E+00  0.00000000000E+00  0.40000000000E+02  0.40000000000E+02  0.00000000000E+00 0.  1.
        -11   -1    0    0    0    0 -0.00000000000E+00 -0.00000000000E+00 -0.40000000000E+02  0.40000000000E+02  0.00000000000E+00 0. -1.
         23    2    1    2    0    0  0.00000000000E+00  0.00000000000E+00  0.00000000000E+00  0.80000000000E+02  0.80000000000E+02 0.  0.
          5    1    3    3  501    0  0.21196165456E+02 -0.31328987669E+02 -0.12129596102E+02  0.40000000000E+02  0.47000000000E+01 0. -1.
         -5    1    3    3    0  501 -0.21196165456E+02  0.31328987669E+02  0.12129596102E+02  0.40000000000E+02  0.47000000000E+01 0.  1.
</event>
<event>
 5    1  0.4761089E-001  0.8000000E+02  0.7546771E-02  0.1203772E+00
         11   -1    0    0    0    0  0.00000000000E+00  0.00000000000E+00  0.40000000000E+02  0.40000000000E+02  0.00000000000E+00 0. -1.
        -11   -1    0    0    0    0 -0.00000000000E+00 -0.00000000000E+00 -0.40000000000E+02  0.40000000000E+02  0.00000000000E+00 0.  1.
         23    2    1    2    0    0  0.00000000000E+00  0.00000000000E+00  0.00000000000E+00  0.80000000000E+02  0.80000000000E+02 0.  0.
          5    1    3    3  501    0 -0.20509867475E+02 -0.20772399472E+02  0.26939984342E+02  0.40000000000E+02  0.47000000000E+01 0. -1.
         -5    1    3    3    0  501  0.20509867475E+02  0.20772399472E+02 -0.26939984342E+02  0.40000000000E+02  0.47000000000E+01 0.  1.
</event>
<event>
 5    1  0.4761089E-001  0.8000000E+02  0.7546771E-02  0.1203772E+00
         11   -1    0    0    0    0  0.00000000000E+00  0.00000000000E+00  0.40000000000E+02  0.40000000000E+02  0.00000000000E+00 0. -1.
        -11   -1    0    0    0    0 -0.00000000000E+00 -0.00000000000E+00 -0.40000000000E+02  0.40000000000E+02  0.00000000000E+00 0.  1.
         23    2    1    2    0    0  0.00000000000E+00  0.00000000000E+00  0.00000000000E+00  0.80000000000E+02  0.80000000000E+02 0.  0.
          5    1    3    3  501    0  0.38841400355E+02 -0.23683906116E+01  0.79778659014E+01  0.40000000000E+02  0.47000000000E+01 0. -1.
         -5    1    3    3    0  501 -0.38841400355E+02  0.23683906116E+01 -0.79778659014E+01  0.40000000000E+02  0.47000000000E+01 0.  1.
</event>
<event>
 5    1  0.4761089E-001  0.8000000E+02  0.7546771E-02  0.1203772E+00
         11   -1    0    0    0    0  0.00000000000E+00  0.00000000000E+00  0.40000000000E+02  0.40000000000E+02  0.00000000000E+00 0. -1.
        -11   -1    0    0    0    0 -0.00000000000E+00 -0.00000000000E+00 -0.40000000000E+02  0.40000000000E+02  0.00000000000E+00 0.  1.
         23    2    1    2    0    0  0.00000000000E+00  0.00000000000E+00  0.00000000000E+00  0.80000000000E+02  0.80000000000E+02 0.  0.
          5    1    3    3  501    0  0.37460348798E+02  0.13181884767E+02 -0.93283542366E+00  0.40000000000E+02  0.47000000000E+01 0. -1.
         -5    1    3    3    0  501 -0.37460348798E+02 -0.13181884767E+02  0.93283542366E+00  0.40000000000E+02  0.47000000000E+01 0.  1.
</event>
<event>
 5    1  0.4761089E-001  0.8000000E+02  0.7546771E-02  0.1203772E+00
         11   -1    0    0    0    0  0.00000000000E+00  0.00000000000E+00  0.40000000000E+02  0.40000000000E+02  0.00000000000E+00 0.  1.
        -11   -1    0    0    0    0 -0.00000000000E+00 -0.00000000000E+00 -0.40000000000E+02  0.40000000000E+02  0.00000000000E+00 0. -1.
         23    2    1    2    0    0  0.00000000000E+00  0.00000000000E+00  0.00000000000E+00  0.80000000000E+02  0.80000000000E+02 0.  0.
          5    1    3    3  501    0 -0.22160122342E+02 -0.41565313218E+00 -0.32964620584E+02  0.40000000000E+02  0.47000000000E+01 0. -1.
         -5    1    3    3    0  501  0.22160122342E+02  0.41565313218E+00  0.32964620584E+02  0.40000000000E+02  0.47000000000E+01 0.  1.
</event>
<event>
 5    1  0.4761089E-001  0.8000000E+02  0.7546771E-02  0.1203772E+00
         11   -1    0    0    0    0  0.00000000000E+00  0.00000000000E+00  0.40000000000E+02  0.40000000000E+02  0.00000000000E+00 0. -1.
        -11   -1    0    0    0    0 -0.00000000000E+00 -0.00000000000E+00 -0.40000000000E+02  0.40000000000E+02  0.00000000000E+00 0.  1.
         23    2    1    2    0    0  0.00000000000E+00  0.00000000000E+00  0.00000000000E+00  0.80000000000E+02  0.80000000000E+02 0.  0.
          5    1    3    3  501    0 -0.21735328090E+02 -0.25733620810E+02 -0.21053889731E+02  0.40000000000E+02  0.47000000000E+01 0.  1.
         -5    1    3    3    0  501  0.21735328090E+02  0.25733620810E+02  0.21053889731E+02  0.40000000000E+02  0.47000000000E+01 0. -1.
</event>
<event>
 5    1  0.4761089E-001  0.8000000E+02  0.7546771E-02  0.1203772E+00
         11   -1    0    0    0    0  0.00000000000E+00  0.00000000000E+00  0.40000000000E+02  0.40000000000E+02  0.00000000000E+00 0. -1.
        -11   -1    0    0    0    0 -0.00000000000E+00 -0.00000000000E+00 -0.40000000000E+02  0.40000000000E+02  0.00000000000E+00 0.  1.
         23    2    1    2    0    0  0.00000000000E+00  0.00000000000E+00  0.00000000000E+00  0.80000000000E+02  0.80000000000E+02 0.  0.
          5    1    3    3  501    0  0.14316008127E+02  0.35180708104E+02  0.11630979694E+02  0.40000000000E+02  0.47000000000E+01 0. -1.
         -5    1    3    3    0  501 -0.14316008127E+02 -0.35180708104E+02 -0.11630979694E+02  0.40000000000E+02  0.47000000000E+01 0.  1.
</event>
<event>
 5    1  0.4761089E-001  0.8000000E+02  0.7546771E-02  0.1203772E+00
         11   -1    0    0    0    0  0.00000000000E+00  0.00000000000E+00  0.40000000000E+02  0.40000000000E+02  0.00000000000E+00 0.  1.
        -11   -1    0    0    0    0 -0.00000000000E+00 -0.00000000000E+00 -0.40000000000E+02  0.40000000000E+02  0.00000000000E+00 0. -1.
         23    2    1    2    0    0  0.00000000000E+00  0.00000000000E+00  0.00000000000E+00  0.80000000000E+02  0.80000000000E+02 0.  0.
          5    1    3    3  501    0 -0.37327928304E+02 -0.29407871932E+01 -0.13262259959E+02  0.40000000000E+02  0.47000000000E+01 0. -1.
         -5    1    3    3    0  501  0.37327928304E+02  0.29407871932E+01  0.13262259959E+02  0.40000000000E+02  0.47000000000E+01 0.  1.
</event>
<event>
 5    1  0.4761089E-001  0.8000000E+02  0.7546771E-02  0.1203772E+00
         11   -1    0    0    0    0  0.00000000000E+00  0.00000000000E+00  0.40000000000E+02  0.40000000000E+02  0.00000000000E+00 0. -1.
        -11   -1    0    0    0    0 -0.00000000000E+00 -0.00000000000E+00 -0.40000000000E+02  0.40000000000E+02  0.00000000000E+00 0.  1.
         23    2    1    2    0    0  0.00000000000E+00  0.00000000000E+00  0.00000000000E+00  0.80000000000E+02  0.80000000000E+02 0.  0.
          5    1    3    3  501    0 -0.24866494016E+02 -0.22451950137E+02 -0.21341916746E+02  0.40000000000E+02  0.47000000000E+01 0.  1.
         -5    1    3    3    0  501  0.24866494016E+02  0.22451950137E+02  0.21341916746E+02  0.40000000000E+02  0.47000000000E+01 0. -1.
</event>
<event>
 5    1  0.4761089E-001  0.8000000E+02  0.7546771E-02  0.1203772E+00
         11   -1    0    0    0    0  0.00000000000E+00  0.00000000000E+00  0.40000000000E+02  0.40000000000E+02  0.00000000000E+00 0.  1.
        -11   -1    0    0    0    0 -0.00000000000E+00 -0.00000000000E+00 -0.40000000000E+02  0.40000000000E+02  0.00000000000E+00 0. -1.
         23    2    1    2    0    0  0.00000000000E+00  0.00000000000E+00  0.00000000000E+00  0.80000000000E+02  0.80000000000E+02 0.  0.
          5    1    3    3  501    0  0.67198992225E+01  0.36369006176E+02 -0.14493044684E+02  0.40000000000E+02  0.47000000000E+01 0. -1.
         -5    1    3    3    0  501 -0.67198992225E+01 -0.36369006176E+02  0.14493044684E+02  0.40000000000E+02  0.47000000000E+01 0.  1.
</event>
<event>
 5    1  0.4761089E-001  0.8000000E+02  0.7546771E-02  0.1203772E+00
         11   -1    0    0    0    0  0.00000000000E+00  0.00000000000E+00  0.40000000000E+02  0.40000000000E+02  0.00000000000E+00 0.  1.
        -11   -1    0    0    0    0 -0.00000000000E+00 -0.00000000000E+00 -0.40000000000E+02  0.40000000000E+02  0.00000000000E+00 0. -1.
         23    2    1    2    0    0  0.00000000000E+00  0.00000000000E+00  0.00000000000E+00  0.80000000000E+02  0.80000000000E+02 0.  0.
          5    1    3    3  501    0 -0.11639186657E+02  0.46307067047E+01 -0.37696099127E+02  0.40000000000E+02  0.47000000000E+01 0. -1.
         -5    1    3    3    0  501  0.11639186657E+02 -0.46307067047E+01  0.37696099127E+02  0.40000000000E+02  0.47000000000E+01 0.  1.
</event>
<event>
 5    1  0.4761089E-001  0.8000000E+02  0.7546771E-02  0.1203772E+00
         11   -1    0    0    0    0  0.00000000000E+00  0.00000000000E+00  0.40000000000E+02  0.40000000000E+02  0.00000000000E+00 0. -1.
        -11   -1    0    0    0    0 -0.00000000000E+00 -0.00000000000E+00 -0.40000000000E+02  0.40000000000E+02  0.00000000000E+00 0.  1.
         23    2    1    2    0    0  0.00000000000E+00  0.00000000000E+00  0.00000000000E+00  0.80000000000E+02  0.80000000000E+02 0.  0.
          5    1    3    3  501    0 -0.22517352588E+02  0.88939937027E+01  0.31492470662E+02  0.40000000000E+02  0.47000000000E+01 0. -1.
         -5    1    3    3    0  501  0.22517352588E+02 -0.88939937027E+01 -0.31492470662E+02  0.40000000000E+02  0.47000000000E+01 0.  1.
</event>
<event>
 5    1  0.4761089E-001  0.8000000E+02  0.7546771E-02  0.1203772E+00
         11   -1    0    0    0    0  0.00000000000E+00  0.00000000000E+00  0.40000000000E+02  0.40000000000E+02  0.00000000000E+00 0.  1.
        -11   -1    0    0    0    0 -0.00000000000E+00 -0.00000000000E+00 -0.40000000000E+02  0.40000000000E+02  0.00000000000E+00 0. -1.
         23    2    1    2    0    0  0.00000000000E+00  0.00000000000E+00  0.00000000000E+00  0.80000000000E+02  0.80000000000E+02 0.  0.
          5    1    3    3  501    0 -0.37270807356E+02 -0.15125126350E+00 -0.13739506617E+02  0.40000000000E+02  0.47000000000E+01 0. -1.
         -5    1    3    3    0  501  0.37270807356E+02  0.15125126350E+00  0.13739506617E+02  0.40000000000E+02  0.47000000000E+01 0.  1.
</event>
<event>
 5    1  0.4761089E-001  0.8000000E+02  0.7546771E-02  0.1203772E+00
         11   -1    0    0    0    0  0.00000000000E+00  0.00000000000E+00  0.40000000000E+02  0.40000000000E+02  0.00000000000E+00 0.  1.
        -11   -1    0    0    0    0 -0.00000000000E+00 -0.00000000000E+00 -0.40000000000E+02  0.40000000000E+02  0.00000000000E+00 0. -1.
         23    2    1    2    0    0  0.00000000000E+00  0.00000000000E+00  0.00000000000E+00  0.80000000000E+02  0.80000000000E+02 0.  0.
          5    1    3    3  501    0  0.28996577274E+02  0.26229066072E+02 -0.70103209218E+01  0.40000000000E+02  0.47000000000E+01 0. -1.
         -5    1    3    3    0  501 -0.28996577274E+02 -0.26229066072E+02  0.70103209218E+01  0.40000000000E+02  0.47000000000E+01 0.  1.
</event>
<event>
 5    1  0.4761089E-001  0.8000000E+02  0.7546771E-02  0.1203772E+00
         11   -1    0    0    0    0  0.00000000000E+00  0.00000000000E+00  0.40000000000E+02  0.40000000000E+02  0.00000000000E+00 0.  1.
        -11   -1    0    0    0    0 -0.00000000000E+00 -0.00000000000E+00 -0.40000000000E+02  0.40000000000E+02  0.00000000000E+00 0. -1.
         23    2    1    2    0    0  0.00000000000E+00  0.00000000000E+00  0.00000000000E+00  0.80000000000E+02  0.80000000000E+02 0.  0.
          5    1    3    3  501    0 -0.29682059079E+02 -0.77516508853E+01 -0.25234842528E+02  0.40000000000E+02  0.47000000000E+01 0. -1.
         -5    1    3    3    0  501  0.29682059079E+02  0.77516508853E+01  0.25234842528E+02  0.40000000000E+02  0.47000000000E+01 0.  1.
</event>
<event>
 5    1  0.4761089E-001  0.8000000E+02  0.7546771E-02  0.1203772E+00
         11   -1    0    0    0    0  0.00000000000E+00  0.00000000000E+00  0.40000000000E+02  0.40000000000E+02  0.00000000000E+00 0.  1.
        -11   -1    0    0    0    0 -0.00000000000E+00 -0.00000000000E+00 -0.40000000000E+02  0.40000000000E+02  0.00000000000E+00 0. -1.
         23    2    1    2    0    0  0.00000000000E+00  0.00000000000E+00  0.00000000000E+00  0.80000000000E+02  0.80000000000E+02 0.  0.
          5    1    3    3  501    0  0.12769338297E+02  0.29203935498E+02 -0.23706204903E+02  0.40000000000E+02  0.47000000000E+01 0. -1.
         -5    1    3    3    0  501 -0.12769338297E+02 -0.29203935498E+02  0.23706204903E+02  0.40000000000E+02  0.47000000000E+01 0.  1.
</event>
<event>
 5    1  0.4761089E-001  0.8000000E+02  0.7546771E-02  0.1203772E+00
         11   -1    0    0    0    0  0.00000000000E+00  0.00000000000E+00  0.40000000000E+02  0.40000000000E+02  0.00000000000E+00 0. -1.
        -11   -1    0    0    0    0 -0.00000000000E+00 -0.00000000000E+00 -0.40000000000E+02  0.40000000000E+02  0.00000000000E+00 0.  1.
         23    2    1    2    0    0  0.00000000000E+00  0.00000000000E+00  0.00000000000E+00  0.80000000000E+02  0.80000000000E+02 0.  0.
          5    1    3    3  501    0 -0.11937847475E+02  0.31698524616E+02  0.20750935757E+02  0.40000000000E+02  0.47000000000E+01 0. -1.
         -5    1    3    3    0  501  0.11937847475E+02 -0.31698524616E+02 -0.20750935757E+02  0.40000000000E+02  0.47000000000E+01 0.  1.
</event>
<event>
 5    1  0.4761089E-001  0.8000000E+02  0.7546771E-02  0.1203772E+00
         11   -1    0    0    0    0  0.00000000000E+00  0.00000000000E+00  0.40000000000E+02  0.40000000000E+02  0.00000000000E+00 0.  1.
        -11   -1    0    0    0    0 -0.00000000000E+00 -0.00000000000E+00 -0.40000000000E+02  0.40000000000E+02  0.00000000000E+00 0. -1.
         23    2    1    2    0    0  0.00000000000E+00  0.00000000000E+00  0.00000000000E+00  0.80000000000E+02  0.80000000000E+02 0.  0.
          5    1    3    3  501    0  0.23952785334E+02 -0.11416864103E+02 -0.29560603661E+02  0.40000000000E+02  0.47000000000E+01 0. -1.
         -5    1    3    3    0  501 -0.23952785334E+02  0.11416864103E+02  0.29560603661E+02  0.40000000000E+02  0.47000000000E+01 0.  1.
</event>
<event>
 5    1  0.4761089E-001  0.8000000E+02  0.7546771E-02  0.1203772E+00
         11   -1    0    0    0    0  0.00000000000E+00  0.00000000000E+00  0.40000000000E+02  0.40000000000E+02  0.00000000000E+00 0. -1.
        -11   -1    0    0    0    0 -0.00000000000E+00 -0.00000000000E+00 -0.40000000000E+02  0.40000000000E+02  0.00000000000E+00 0.  1.
         23    2    1    2    0    0  0.00000000000E+00  0.00000000000E+00  0.00000000000E+00  0.80000000000E+02  0.80000000000E+02 0.  0.
          5    1    3    3  501    0 -0.31924481648E+02  0.23229053765E+02  0.43759036429E+01  0.40000000000E+02  0.47000000000E+01 0. -1.
         -5    1    3    3    0  501  0.31924481648E+02 -0.23229053765E+02 -0.43759036429E+01  0.40000000000E+02  0.47000000000E+01 0.  1.
</event>
<event>
 5    1  0.4761089E-001  0.8000000E+02  0.7546771E-02  0.1203772E+00
         11   -1    0    0    0    0  0.00000000000E+00  0.00000000000E+00  0.40000000000E+02  0.40000000000E+02  0.00000000000E+00 0.  1.
        -11   -1    0    0    0    0 -0.00000000000E+00 -0.00000000000E+00 -0.40000000000E+02  0.40000000000E+02  0.00000000000E+00 0. -1.
         23    2    1    2    0    0  0.00000000000E+00  0.00000000000E+00  0.00000000000E+00  0.80000000000E+02  0.80000000000E+02 0.  0.
          5    1    3    3  501    0 -0.17194369579E+02  0.19305836269E+02 -0.30158719150E+02  0.40000000000E+02  0.47000000000E+01 0. -1.
         -5    1    3    3    0  501  0.17194369579E+02 -0.19305836269E+02  0.30158719150E+02  0.40000000000E+02  0.47000000000E+01 0.  1.
</event>
<event>
 5    1  0.4761089E-001  0.8000000E+02  0.7546771E-02  0.1203772E+00
         11   -1    0    0    0    0  0.00000000000E+00  0.00000000000E+00  0.40000000000E+02  0.40000000000E+02  0.00000000000E+00 0. -1.
        -11   -1    0    0    0    0 -0.00000000000E+00 -0.00000000000E+00 -0.40000000000E+02  0.40000000000E+02  0.00000000000E+00 0.  1.
         23    2    1    2    0    0  0.00000000000E+00  0.00000000000E+00  0.00000000000E+00  0.80000000000E+02  0.80000000000E+02 0.  0.
          5    1    3    3  501    0 -0.18710665632E+02  0.18397492368E+02  0.29822026527E+02  0.40000000000E+02  0.47000000000E+01 0. -1.
         -5    1    3    3    0  501  0.18710665632E+02 -0.18397492368E+02 -0.29822026527E+02  0.40000000000E+02  0.47000000000E+01 0.  1.
</event>
<event>
 5    1  0.4761089E-001  0.8000000E+02  0.7546771E-02  0.1203772E+00
         11   -1    0    0    0    0  0.00000000000E+00  0.00000000000E+00  0.40000000000E+02  0.40000000000E+02  0.00000000000E+00 0.  1.
        -11   -1    0    0    0    0 -0.00000000000E+00 -0.00000000000E+00 -0.40000000000E+02  0.40000000000E+02  0.00000000000E+00 0. -1.
         23    2    1    2    0    0  0.00000000000E+00  0.00000000000E+00  0.00000000000E+00  0.80000000000E+02  0.80000000000E+02 0.  0.
          5    1    3    3  501    0  0.20128547891E+02  0.98345696517E+01 -0.32802938886E+02  0.40000000000E+02  0.47000000000E+01 0. -1.
         -5    1    3    3    0  501 -0.20128547891E+02 -0.98345696517E+01  0.32802938886E+02  0.40000000000E+02  0.47000000000E+01 0.  1.
</event>
<event>
 5    1  0.4761089E-001  0.8000000E+02  0.7546771E-02  0.1203772E+00
         11   -1    0    0    0    0  0.00000000000E+00  0.00000000000E+00  0.40000000000E+02  0.40000000000E+02  0.00000000000E+00 0. -1.
        -11   -1    0    0    0    0 -0.00000000000E+00 -0.00000000000E+00 -0.40000000000E+02  0.40000000000E+02  0.00000000000E+00 0.  1.
         23    2    1    2    0    0  0.00000000000E+00  0.00000000000E+00  0.00000000000E+00  0.80000000000E+02  0.80000000000E+02 0.  0.
          5    1    3    3  501    0 -0.19082438376E+01  0.80839788030E+01  0.38844792343E+02  0.40000000000E+02  0.47000000000E+01 0. -1.
         -5    1    3    3    0  501  0.19082438376E+01 -0.80839788030E+01 -0.38844792343E+02  0.40000000000E+02  0.47000000000E+01 0.  1.
</event>
<event>
 5    1  0.4761089E-001  0.8000000E+02  0.7546771E-02  0.1203772E+00
         11   -1    0    0    0    0  0.00000000000E+00  0.00000000000E+00  0.40000000000E+02  0.40000000000E+02  0.00000000000E+00 0.  1.
        -11   -1    0    0    0    0 -0.00000000000E+00 -0.00000000000E+00 -0.40000000000E+02  0.40000000000E+02  0.00000000000E+00 0. -1.
         23    2    1    2    0    0  0.00000000000E+00  0.00000000000E+00  0.00000000000E+00  0.80000000000E+02  0.80000000000E+02 0.  0.
          5    1    3    3  501    0 -0.20009511110E+02  0.34283980551E+02 -0.14622389231E+01  0.40000000000E+02  0.47000000000E+01 0. -1.
         -5    1    3    3    0  501  0.20009511110E+02 -0.34283980551E+02  0.14622389231E+01  0.40000000000E+02  0.47000000000E+01 0.  1.
</event>
<event>
 5    1  0.4761089E-001  0.8000000E+02  0.7546771E-02  0.1203772E+00
         11   -1    0    0    0    0  0.00000000000E+00  0.00000000000E+00  0.40000000000E+02  0.40000000000E+02  0.00000000000E+00 0.  1.
        -11   -1    0    0    0    0 -0.00000000000E+00 -0.00000000000E+00 -0.40000000000E+02  0.40000000000E+02  0.00000000000E+00 0. -1.
         23    2    1    2    0    0  0.00000000000E+00  0.00000000000E+00  0.00000000000E+00  0.80000000000E+02  0.80000000000E+02 0.  0.
          5    1    3    3  501    0  0.16601194220E+02  0.29930186725E+02 -0.20161703129E+02  0.40000000000E+02  0.47000000000E+01 0. -1.
         -5    1    3    3    0  501 -0.16601194220E+02 -0.29930186725E+02  0.20161703129E+02  0.40000000000E+02  0.47000000000E+01 0.  1.
</event>
<event>
 5    1  0.4761089E-001  0.8000000E+02  0.7546771E-02  0.1203772E+00
         11   -1    0    0    0    0  0.00000000000E+00  0.00000000000E+00  0.40000000000E+02  0.40000000000E+02  0.00000000000E+00 0.  1.
        -11   -1    0    0    0    0 -0.00000000000E+00 -0.00000000000E+00 -0.40000000000E+02  0.40000000000E+02  0.00000000000E+00 0. -1.
         23    2    1    2    0    0  0.00000000000E+00  0.00000000000E+00  0.00000000000E+00  0.80000000000E+02  0.80000000000E+02 0.  0.
          5    1    3    3  501    0 -0.15446538096E+01 -0.26312224418E+02 -0.29718527736E+02  0.40000000000E+02  0.47000000000E+01 0. -1.
         -5    1    3    3    0  501  0.15446538096E+01  0.26312224418E+02  0.29718527736E+02  0.40000000000E+02  0.47000000000E+01 0.  1.
</event>
<event>
 5    1  0.4761089E-001  0.8000000E+02  0.7546771E-02  0.1203772E+00
         11   -1    0    0    0    0  0.00000000000E+00  0.00000000000E+00  0.40000000000E+02  0.40000000000E+02  0.00000000000E+00 0.  1.
        -11   -1    0    0    0    0 -0.00000000000E+00 -0.00000000000E+00 -0.40000000000E+02  0.40000000000E+02  0.00000000000E+00 0. -1.
         23    2    1    2    0    0  0.00000000000E+00  0.00000000000E+00  0.00000000000E+00  0.80000000000E+02  0.80000000000E+02 0.  0.
          5    1    3    3  501    0  0.39013312289E+02 -0.62389017829E+01  0.41167425003E+01  0.40000000000E+02  0.47000000000E+01 0. -1.
         -5    1    3    3    0  501 -0.39013312289E+02  0.62389017829E+01 -0.41167425003E+01  0.40000000000E+02  0.47000000000E+01 0.  1.
</event>
<event>
 5    1  0.4761089E-001  0.8000000E+02  0.7546771E-02  0.1203772E+00
         11   -1    0    0    0    0  0.00000000000E+00  0.00000000000E+00  0.40000000000E+02  0.40000000000E+02  0.00000000000E+00 0. -1.
        -11   -1    0    0    0    0 -0.00000000000E+00 -0.00000000000E+00 -0.40000000000E+02  0.40000000000E+02  0.00000000000E+00 0.  1.
         23    2    1    2    0    0  0.00000000000E+00  0.00000000000E+00  0.00000000000E+00  0.80000000000E+02  0.80000000000E+02 0.  0.
          5    1    3    3  501    0  0.90822778167E+01 -0.32029469638E+02  0.21668763333E+02  0.40000000000E+02  0.47000000000E+01 0. -1.
         -5    1    3    3    0  501 -0.90822778167E+01  0.32029469638E+02 -0.21668763333E+02  0.40000000000E+02  0.47000000000E+01 0.  1.
</event>
<event>
 5    1  0.4761089E-001  0.8000000E+02  0.7546771E-02  0.1203772E+00
         11   -1    0    0    0    0  0.00000000000E+00  0.00000000000E+00  0.40000000000E+02  0.40000000000E+02  0.00000000000E+00 0.  1.
        -11   -1    0    0    0    0 -0.00000000000E+00 -0.00000000000E+00 -0.40000000000E+02  0.40000000000E+02  0.00000000000E+00 0. -1.
         23    2    1    2    0    0  0.00000000000E+00  0.00000000000E+00  0.00000000000E+00  0.80000000000E+02  0.80000000000E+02 0.  0.
          5    1    3    3  501    0 -0.13803605652E+02 -0.34209625924E+02 -0.14733362315E+02  0.40000000000E+02  0.47000000000E+01 0. -1.
         -5    1    3    3    0  501  0.13803605652E+02  0.34209625924E+02  0.14733362315E+02  0.40000000000E+02  0.47000000000E+01 0.  1.
</event>
<event>
 5    1  0.4761089E-001  0.8000000E+02  0.7546771E-02  0.1203772E+00
         11   -1    0    0    0    0  0.00000000000E+00  0.00000000000E+00  0.40000000000E+02  0.40000000000E+02  0.00000000000E+00 0.  1.
        -11   -1    0    0    0    0 -0.00000000000E+00 -0.00000000000E+00 -0.40000000000E+02  0.40000000000E+02  0.00000000000E+00 0. -1.
         23    2    1    2    0    0  0.00000000000E+00  0.00000000000E+00  0.00000000000E+00  0.80000000000E+02  0.80000000000E+02 0.  0.
          5    1    3    3  501    0  0.19647424546E+02 -0.21840650497E+02 -0.26737140733E+02  0.40000000000E+02  0.47000000000E+01 0. -1.
         -5    1    3    3    0  501 -0.19647424546E+02  0.21840650497E+02  0.26737140733E+02  0.40000000000E+02  0.47000000000E+01 0.  1.
</event>
<event>
 5    1  0.4761089E-001  0.8000000E+02  0.7546771E-02  0.1203772E+00
         11   -1    0    0    0    0  0.00000000000E+00  0.00000000000E+00  0.40000000000E+02  0.40000000000E+02  0.00000000000E+00 0.  1.
        -11   -1    0    0    0    0 -0.00000000000E+00 -0.00000000000E+00 -0.40000000000E+02  0.40000000000E+02  0.00000000000E+00 0. -1.
         23    2    1    2    0    0  0.00000000000E+00  0.00000000000E+00  0.00000000000E+00  0.80000000000E+02  0.80000000000E+02 0.  0.
          5    1    3    3  501    0  0.31429592092E+02 -0.14955765089E+02 -0.19141991316E+02  0.40000000000E+02  0.47000000000E+01 0. -1.
         -5    1    3    3    0  501 -0.31429592092E+02  0.14955765089E+02  0.19141991316E+02  0.40000000000E+02  0.47000000000E+01 0.  1.
</event>
<event>
 5    1  0.4761089E-001  0.8000000E+02  0.7546771E-02  0.1203772E+00
         11   -1    0    0    0    0  0.00000000000E+00  0.00000000000E+00  0.40000000000E+02  0.40000000000E+02  0.00000000000E+00 0. -1.
        -11   -1    0    0    0    0 -0.00000000000E+00 -0.00000000000E+00 -0.40000000000E+02  0.40000000000E+02  0.00000000000E+00 0.  1.
         23    2    1    2    0    0  0.00000000000E+00  0.00000000000E+00  0.00000000000E+00  0.80000000000E+02  0.80000000000E+02 0.  0.
          5    1    3    3  501    0 -0.14075312668E+02 -0.24413273743E+02  0.27996207573E+02  0.40000000000E+02  0.47000000000E+01 0. -1.
         -5    1    3    3    0  501  0.14075312668E+02  0.24413273743E+02 -0.27996207573E+02  0.40000000000E+02  0.47000000000E+01 0.  1.
</event>
<event>
 5    1  0.4761089E-001  0.8000000E+02  0.7546771E-02  0.1203772E+00
         11   -1    0    0    0    0  0.00000000000E+00  0.00000000000E+00  0.40000000000E+02  0.40000000000E+02  0.00000000000E+00 0. -1.
        -11   -1    0    0    0    0 -0.00000000000E+00 -0.00000000000E+00 -0.40000000000E+02  0.40000000000E+02  0.00000000000E+00 0.  1.
         23    2    1    2    0    0  0.00000000000E+00  0.00000000000E+00  0.00000000000E+00  0.80000000000E+02  0.80000000000E+02 0.  0.
          5    1    3    3  501    0  0.13774953354E+02  0.83767542364E+01 -0.36304140929E+02  0.40000000000E+02  0.47000000000E+01 0.  1.
         -5    1    3    3    0  501 -0.13774953354E+02 -0.83767542364E+01  0.36304140929E+02  0.40000000000E+02  0.47000000000E+01 0. -1.
</event>
<event>
 5    1  0.4761089E-001  0.8000000E+02  0.7546771E-02  0.1203772E+00
         11   -1    0    0    0    0  0.00000000000E+00  0.00000000000E+00  0.40000000000E+02  0.40000000000E+02  0.00000000000E+00 0.  1.
        -11   -1    0    0    0    0 -0.00000000000E+00 -0.00000000000E+00 -0.40000000000E+02  0.40000000000E+02  0.00000000000E+00 0. -1.
         23    2    1    2    0    0  0.00000000000E+00  0.00000000000E+00  0.00000000000E+00  0.80000000000E+02  0.80000000000E+02 0.  0.
          5    1    3    3  501    0  0.14950329687E+02 -0.65760537522E+01 -0.36209848927E+02  0.40000000000E+02  0.47000000000E+01 0. -1.
         -5    1    3    3    0  501 -0.14950329687E+02  0.65760537522E+01  0.36209848927E+02  0.40000000000E+02  0.47000000000E+01 0.  1.
</event>
<event>
 5    1  0.4761089E-001  0.8000000E+02  0.7546771E-02  0.1203772E+00
         11   -1    0    0    0    0  0.00000000000E+00  0.00000000000E+00  0.40000000000E+02  0.40000000000E+02  0.00000000000E+00 0.  1.
        -11   -1    0    0    0    0 -0.00000000000E+00 -0.00000000000E+00 -0.40000000000E+02  0.40000000000E+02  0.00000000000E+00 0. -1.
         23    2    1    2    0    0  0.00000000000E+00  0.00000000000E+00  0.00000000000E+00  0.80000000000E+02  0.80000000000E+02 0.  0.
          5    1    3    3  501    0  0.25259174542E+02 -0.18230410547E+02 -0.24648250095E+02  0.40000000000E+02  0.47000000000E+01 0. -1.
         -5    1    3    3    0  501 -0.25259174542E+02  0.18230410547E+02  0.24648250095E+02  0.40000000000E+02  0.47000000000E+01 0.  1.
</event>
<event>
 5    1  0.4761089E-001  0.8000000E+02  0.7546771E-02  0.1203772E+00
         11   -1    0    0    0    0  0.00000000000E+00  0.00000000000E+00  0.40000000000E+02  0.40000000000E+02  0.00000000000E+00 0. -1.
        -11   -1    0    0    0    0 -0.00000000000E+00 -0.00000000000E+00 -0.40000000000E+02  0.40000000000E+02  0.00000000000E+00 0.  1.
         23    2    1    2    0    0  0.00000000000E+00  0.00000000000E+00  0.00000000000E+00  0.80000000000E+02  0.80000000000E+02 0.  0.
          5    1    3    3  501    0  0.66726768586E+01 -0.26918260554E+02  0.28439279743E+02  0.40000000000E+02  0.47000000000E+01 0. -1.
         -5    1    3    3    0  501 -0.66726768586E+01  0.26918260554E+02 -0.28439279743E+02  0.40000000000E+02  0.47000000000E+01 0.  1.
</event>
<event>
 5    1  0.4761089E-001  0.8000000E+02  0.7546771E-02  0.1203772E+00
         11   -1    0    0    0    0  0.00000000000E+00  0.00000000000E+00  0.40000000000E+02  0.40000000000E+02  0.00000000000E+00 0. -1.
        -11   -1    0    0    0    0 -0.00000000000E+00 -0.00000000000E+00 -0.40000000000E+02  0.40000000000E+02  0.00000000000E+00 0.  1.
         23    2    1    2    0    0  0.00000000000E+00  0.00000000000E+00  0.00000000000E+00  0.80000000000E+02  0.80000000000E+02 0.  0.
          5    1    3    3  501    0 -0.13523346378E+02  0.68715266938E+01  0.36712548585E+02  0.40000000000E+02  0.47000000000E+01 0. -1.
         -5    1    3    3    0  501  0.13523346378E+02 -0.68715266938E+01 -0.36712548585E+02  0.40000000000E+02  0.47000000000E+01 0.  1.
</event>
<event>
 5    1  0.4761089E-001  0.8000000E+02  0.7546771E-02  0.1203772E+00
         11   -1    0    0    0    0  0.00000000000E+00  0.00000000000E+00  0.40000000000E+02  0.40000000000E+02  0.00000000000E+00 0.  1.
        -11   -1    0    0    0    0 -0.00000000000E+00 -0.00000000000E+00 -0.40000000000E+02  0.40000000000E+02  0.00000000000E+00 0. -1.
         23    2    1    2    0    0  0.00000000000E+00  0.00000000000E+00  0.00000000000E+00  0.80000000000E+02  0.80000000000E+02 0.  0.
          5    1    3    3  501    0  0.35964445230E+02 -0.10770522241E+02 -0.12979388659E+02  0.40000000000E+02  0.47000000000E+01 0. -1.
         -5    1    3    3    0  501 -0.35964445230E+02  0.10770522241E+02  0.12979388659E+02  0.40000000000E+02  0.47000000000E+01 0.  1.
</event>
<event>
 5    1  0.4761089E-001  0.8000000E+02  0.7546771E-02  0.1203772E+00
         11   -1    0    0    0    0  0.00000000000E+00  0.00000000000E+00  0.40000000000E+02  0.40000000000E+02  0.00000000000E+00 0.  1.
        -11   -1    0    0    0    0 -0.00000000000E+00 -0.00000000000E+00 -0.40000000000E+02  0.40000000000E+02  0.00000000000E+00 0. -1.
         23    2    1    2    0    0  0.00000000000E+00  0.00000000000E+00  0.00000000000E+00  0.80000000000E+02  0.80000000000E+02 0.  0.
          5    1    3    3  501    0  0.50802133250E+01 -0.24794194135E+02 -0.30616161905E+02  0.40000000000E+02  0.47000000000E+01 0. -1.
         -5    1    3    3    0  501 -0.50802133250E+01  0.24794194135E+02  0.30616161905E+02  0.40000000000E+02  0.47000000000E+01 0.  1.
</event>
<event>
 5    1  0.4761089E-001  0.8000000E+02  0.7546771E-02  0.1203772E+00
         11   -1    0    0    0    0  0.00000000000E+00  0.00000000000E+00  0.40000000000E+02  0.40000000000E+02  0.00000000000E+00 0.  1.
        -11   -1    0    0    0    0 -0.00000000000E+00 -0.00000000000E+00 -0.40000000000E+02  0.40000000000E+02  0.00000000000E+00 0. -1.
         23    2    1    2    0    0  0.00000000000E+00  0.00000000000E+00  0.00000000000E+00  0.80000000000E+02  0.80000000000E+02 0.  0.
          5    1    3    3  501    0  0.34596094062E+02 -0.19448929579E+02  0.16611483653E+01  0.40000000000E+02  0.47000000000E+01 0. -1.
         -5    1    3    3    0  501 -0.34596094062E+02  0.19448929579E+02 -0.16611483653E+01  0.40000000000E+02  0.47000000000E+01 0.  1.
</event>
<event>
 5    1  0.4761089E-001  0.8000000E+02  0.7546771E-02  0.1203772E+00
         11   -1    0    0    0    0  0.00000000000E+00  0.00000000000E+00  0.40000000000E+02  0.40000000000E+02  0.00000000000E+00 0.  1.
        -11   -1    0    0    0    0 -0.00000000000E+00 -0.00000000000E+00 -0.40000000000E+02  0.40000000000E+02  0.00000000000E+00 0. -1.
         23    2    1    2    0    0  0.00000000000E+00  0.00000000000E+00  0.00000000000E+00  0.80000000000E+02  0.80000000000E+02 0.  0.
          5    1    3    3  501    0  0.32568512917E+02  0.87958801155E+01 -0.20972230673E+02  0.40000000000E+02  0.47000000000E+01 0. -1.
         -5    1    3    3    0  501 -0.32568512917E+02 -0.87958801155E+01  0.20972230673E+02  0.40000000000E+02  0.47000000000E+01 0.  1.
</event>
<event>
 5    1  0.4761089E-001  0.8000000E+02  0.7546771E-02  0.1203772E+00
         11   -1    0    0    0    0  0.00000000000E+00  0.00000000000E+00  0.40000000000E+02  0.40000000000E+02  0.00000000000E+00 0. -1.
        -11   -1    0    0    0    0 -0.00000000000E+00 -0.00000000000E+00 -0.40000000000E+02  0.40000000000E+02  0.00000000000E+00 0.  1.
         23    2    1    2    0    0  0.00000000000E+00  0.00000000000E+00  0.00000000000E+00  0.80000000000E+02  0.80000000000E+02 0.  0.
          5    1    3    3  501    0 -0.25566663166E+02  0.95277196255E+01  0.28870024130E+02  0.40000000000E+02  0.47000000000E+01 0. -1.
         -5    1    3    3    0  501  0.25566663166E+02 -0.95277196255E+01 -0.28870024130E+02  0.40000000000E+02  0.47000000000E+01 0.  1.
</event>
<event>
 5    1  0.4761089E-001  0.8000000E+02  0.7546771E-02  0.1203772E+00
         11   -1    0    0    0    0  0.00000000000E+00  0.00000000000E+00  0.40000000000E+02  0.40000000000E+02  0.00000000000E+00 0. -1.
        -11   -1    0    0    0    0 -0.00000000000E+00 -0.00000000000E+00 -0.40000000000E+02  0.40000000000E+02  0.00000000000E+00 0.  1.
         23    2    1    2    0    0  0.00000000000E+00  0.00000000000E+00  0.00000000000E+00  0.80000000000E+02  0.80000000000E+02 0.  0.
          5    1    3    3  501    0 -0.28558278235E+02 -0.53942467337E+01  0.27078346450E+02  0.40000000000E+02  0.47000000000E+01 0. -1.
         -5    1    3    3    0  501  0.28558278235E+02  0.53942467337E+01 -0.27078346450E+02  0.40000000000E+02  0.47000000000E+01 0.  1.
</event>
<event>
 5    1  0.4761089E-001  0.8000000E+02  0.7546771E-02  0.1203772E+00
         11   -1    0    0    0    0  0.00000000000E+00  0.00000000000E+00  0.40000000000E+02  0.40000000000E+02  0.00000000000E+00 0. -1.
        -11   -1    0    0    0    0 -0.00000000000E+00 -0.00000000000E+00 -0.40000000000E+02  0.40000000000E+02  0.00000000000E+00 0.  1.
         23    2    1    2    0    0  0.00000000000E+00  0.00000000000E+00  0.00000000000E+00  0.80000000000E+02  0.80000000000E+02 0.  0.
          5    1    3    3  501    0 -0.79901034589E+01 -0.16099713955E+02  0.35424108419E+02  0.40000000000E+02  0.47000000000E+01 0. -1.
         -5    1    3    3    0  501  0.79901034589E+01  0.16099713955E+02 -0.35424108419E+02  0.40000000000E+02  0.47000000000E+01 0.  1.
</event>
<event>
 5    1  0.4761089E-001  0.8000000E+02  0.7546771E-02  0.1203772E+00
         11   -1    0    0    0    0  0.00000000000E+00  0.00000000000E+00  0.40000000000E+02  0.40000000000E+02  0.00000000000E+00 0.  1.
        -11   -1    0    0    0    0 -0.00000000000E+00 -0.00000000000E+00 -0.40000000000E+02  0.40000000000E+02  0.00000000000E+00 0. -1.
         23    2    1    2    0    0  0.00000000000E+00  0.00000000000E+00  0.00000000000E+00  0.80000000000E+02  0.80000000000E+02 0.  0.
          5    1    3    3  501    0  0.19874931977E+02 -0.20587387505E+02 -0.27550981010E+02  0.40000000000E+02  0.47000000000E+01 0. -1.
         -5    1    3    3    0  501 -0.19874931977E+02  0.20587387505E+02  0.27550981010E+02  0.40000000000E+02  0.47000000000E+01 0.  1.
</event>
<event>
 5    1  0.4761089E-001  0.8000000E+02  0.7546771E-02  0.1203772E+00
         11   -1    0    0    0    0  0.00000000000E+00  0.00000000000E+00  0.40000000000E+02  0.40000000000E+02  0.00000000000E+00 0.  1.
        -11   -1    0    0    0    0 -0.00000000000E+00 -0.00000000000E+00 -0.40000000000E+02  0.40000000000E+02  0.00000000000E+00 0. -1.
         23    2    1    2    0    0  0.00000000000E+00  0.00000000000E+00  0.00000000000E+00  0.80000000000E+02  0.80000000000E+02 0.  0.
          5    1    3    3  501    0 -0.26612654029E+02 -0.18393491214E+02 -0.23051163235E+02  0.40000000000E+02  0.47000000000E+01 0. -1.
         -5    1    3    3    0  501  0.26612654029E+02  0.18393491214E+02  0.23051163235E+02  0.40000000000E+02  0.47000000000E+01 0.  1.
</event>
<event>
 5    1  0.4761089E-001  0.8000000E+02  0.7546771E-02  0.1203772E+00
         11   -1    0    0    0    0  0.00000000000E+00  0.00000000000E+00  0.40000000000E+02  0.40000000000E+02  0.00000000000E+00 0.  1.
        -11   -1    0    0    0    0 -0.00000000000E+00 -0.00000000000E+00 -0.40000000000E+02  0.40000000000E+02  0.00000000000E+00 0. -1.
         23    2    1    2    0    0  0.00000000000E+00  0.00000000000E+00  0.00000000000E+00  0.80000000000E+02  0.80000000000E+02 0.  0.
          5    1    3    3  501    0 -0.14964836720E+02 -0.30024691223E+02 -0.21271614394E+02  0.40000000000E+02  0.47000000000E+01 0. -1.
         -5    1    3    3    0  501  0.14964836720E+02  0.30024691223E+02  0.21271614394E+02  0.40000000000E+02  0.47000000000E+01 0.  1.
</event>
<event>
 5    1  0.4761089E-001  0.8000000E+02  0.7546771E-02  0.1203772E+00
         11   -1    0    0    0    0  0.00000000000E+00  0.00000000000E+00  0.40000000000E+02  0.40000000000E+02  0.00000000000E+00 0. -1.
        -11   -1    0    0    0    0 -0.00000000000E+00 -0.00000000000E+00 -0.40000000000E+02  0.40000000000E+02  0.00000000000E+00 0.  1.
         23    2    1    2    0    0  0.00000000000E+00  0.00000000000E+00  0.00000000000E+00  0.80000000000E+02  0.80000000000E+02 0.  0.
          5    1    3    3  501    0  0.17192991503E+02 -0.34589237548E+02  0.92679927199E+01  0.40000000000E+02  0.47000000000E+01 0. -1.
         -5    1    3    3    0  501 -0.17192991503E+02  0.34589237548E+02 -0.92679927199E+01  0.40000000000E+02  0.47000000000E+01 0.  1.
</event>
<event>
 5    1  0.4761089E-001  0.8000000E+02  0.7546771E-02  0.1203772E+00
         11   -1    0    0    0    0  0.00000000000E+00  0.00000000000E+00  0.40000000000E+02  0.40000000000E+02  0.00000000000E+00 0. -1.
        -11   -1    0    0    0    0 -0.00000000000E+00 -0.00000000000E+00 -0.40000000000E+02  0.40000000000E+02  0.00000000000E+00 0.  1.
         23    2    1    2    0    0  0.00000000000E+00  0.00000000000E+00  0.00000000000E+00  0.80000000000E+02  0.80000000000E+02 0.  0.
          5    1    3    3  501    0  0.10388332648E+02  0.76133608739E+01  0.37576978072E+02  0.40000000000E+02  0.47000000000E+01 0. -1.
         -5    1    3    3    0  501 -0.10388332648E+02 -0.76133608739E+01 -0.37576978072E+02  0.40000000000E+02  0.47000000000E+01 0.  1.
</event>
<event>
 5    1  0.4761089E-001  0.8000000E+02  0.7546771E-02  0.1203772E+00
         11   -1    0    0    0    0  0.00000000000E+00  0.00000000000E+00  0.40000000000E+02  0.40000000000E+02  0.00000000000E+00 0.  1.
        -11   -1    0    0    0    0 -0.00000000000E+00 -0.00000000000E+00 -0.40000000000E+02  0.40000000000E+02  0.00000000000E+00 0. -1.
         23    2    1    2    0    0  0.00000000000E+00  0.00000000000E+00  0.00000000000E+00  0.80000000000E+02  0.80000000000E+02 0.  0.
          5    1    3    3  501    0 -0.18693843714E+02 -0.62383465428E+01 -0.34489610604E+02  0.40000000000E+02  0.47000000000E+01 0. -1.
         -5    1    3    3    0  501  0.18693843714E+02  0.62383465428E+01  0.34489610604E+02  0.40000000000E+02  0.47000000000E+01 0.  1.
</event>
<event>
 5    1  0.4761089E-001  0.8000000E+02  0.7546771E-02  0.1203772E+00
         11   -1    0    0    0    0  0.00000000000E+00  0.00000000000E+00  0.40000000000E+02  0.40000000000E+02  0.00000000000E+00 0.  1.
        -11   -1    0    0    0    0 -0.00000000000E+00 -0.00000000000E+00 -0.40000000000E+02  0.40000000000E+02  0.00000000000E+00 0. -1.
         23    2    1    2    0    0  0.00000000000E+00  0.00000000000E+00  0.00000000000E+00  0.80000000000E+02  0.80000000000E+02 0.  0.
          5    1    3    3  501    0 -0.71686258027E+01 -0.39046029406E+02  0.13886654458E+01  0.40000000000E+02  0.47000000000E+01 0. -1.
         -5    1    3    3    0  501  0.71686258027E+01  0.39046029406E+02 -0.13886654458E+01  0.40000000000E+02  0.47000000000E+01 0.  1.
</event>
<event>
 5    1  0.4761089E-001  0.8000000E+02  0.7546771E-02  0.1203772E+00
         11   -1    0    0    0    0  0.00000000000E+00  0.00000000000E+00  0.40000000000E+02  0.40000000000E+02  0.00000000000E+00 0. -1.
        -11   -1    0    0    0    0 -0.00000000000E+00 -0.00000000000E+00 -0.40000000000E+02  0.40000000000E+02  0.00000000000E+00 0.  1.
         23    2    1    2    0    0  0.00000000000E+00  0.00000000000E+00  0.00000000000E+00  0.80000000000E+02  0.80000000000E+02 0.  0.
          5    1    3    3  501    0  0.37430095274E+01  0.33514687535E+02  0.20992036564E+02  0.40000000000E+02  0.47000000000E+01 0. -1.
         -5    1    3    3    0  501 -0.37430095274E+01 -0.33514687535E+02 -0.20992036564E+02  0.40000000000E+02  0.47000000000E+01 0.  1.
</event>
<event>
 5    1  0.4761089E-001  0.8000000E+02  0.7546771E-02  0.1203772E+00
         11   -1    0    0    0    0  0.00000000000E+00  0.00000000000E+00  0.40000000000E+02  0.40000000000E+02  0.00000000000E+00 0. -1.
        -11   -1    0    0    0    0 -0.00000000000E+00 -0.00000000000E+00 -0.40000000000E+02  0.40000000000E+02  0.00000000000E+00 0.  1.
         23    2    1    2    0    0  0.00000000000E+00  0.00000000000E+00  0.00000000000E+00  0.80000000000E+02  0.80000000000E+02 0.  0.
          5    1    3    3  501    0 -0.20694658932E+02  0.25969136516E+02  0.21800115603E+02  0.40000000000E+02  0.47000000000E+01 0. -1.
         -5    1    3    3    0  501  0.20694658932E+02 -0.25969136516E+02 -0.21800115603E+02  0.40000000000E+02  0.47000000000E+01 0.  1.
</event>
<event>
 5    1  0.4761089E-001  0.8000000E+02  0.7546771E-02  0.1203772E+00
         11   -1    0    0    0    0  0.00000000000E+00  0.00000000000E+00  0.40000000000E+02  0.40000000000E+02  0.00000000000E+00 0. -1.
        -11   -1    0    0    0    0 -0.00000000000E+00 -0.00000000000E+00 -0.40000000000E+02  0.40000000000E+02  0.00000000000E+00 0.  1.
         23    2    1    2    0    0  0.00000000000E+00  0.00000000000E+00  0.00000000000E+00  0.80000000000E+02  0.80000000000E+02 0.  0.
          5    1    3    3  501    0  0.30809476799E+02  0.53069147194E+01  0.24505566623E+02  0.40000000000E+02  0.47000000000E+01 0. -1.
         -5    1    3    3    0  501 -0.30809476799E+02 -0.53069147194E+01 -0.24505566623E+02  0.40000000000E+02  0.47000000000E+01 0.  1.
</event>
<event>
 5    1  0.4761089E-001  0.8000000E+02  0.7546771E-02  0.1203772E+00
         11   -1    0    0    0    0  0.00000000000E+00  0.00000000000E+00  0.40000000000E+02  0.40000000000E+02  0.00000000000E+00 0. -1.
        -11   -1    0    0    0    0 -0.00000000000E+00 -0.00000000000E+00 -0.40000000000E+02  0.40000000000E+02  0.00000000000E+00 0.  1.
         23    2    1    2    0    0  0.00000000000E+00  0.00000000000E+00  0.00000000000E+00  0.80000000000E+02  0.80000000000E+02 0.  0.
          5    1    3    3  501    0  0.38775793635E+02  0.61835244874E+01  0.60093138470E+01  0.40000000000E+02  0.47000000000E+01 0. -1.
         -5    1    3    3    0  501 -0.38775793635E+02 -0.61835244874E+01 -0.60093138470E+01  0.40000000000E+02  0.47000000000E+01 0.  1.
</event>
<event>
 5    1  0.4761089E-001  0.8000000E+02  0.7546771E-02  0.1203772E+00
         11   -1    0    0    0    0  0.00000000000E+00  0.00000000000E+00  0.40000000000E+02  0.40000000000E+02  0.00000000000E+00 0. -1.
        -11   -1    0    0    0    0 -0.00000000000E+00 -0.00000000000E+00 -0.40000000000E+02  0.40000000000E+02  0.00000000000E+00 0.  1.
         23    2    1    2    0    0  0.00000000000E+00  0.00000000000E+00  0.00000000000E+00  0.80000000000E+02  0.80000000000E+02 0.  0.
          5    1    3    3  501    0  0.22247819904E+02 -0.26298085424E+02 -0.19782699829E+02  0.40000000000E+02  0.47000000000E+01 0.  1.
         -5    1    3    3    0  501 -0.22247819904E+02  0.26298085424E+02  0.19782699829E+02  0.40000000000E+02  0.47000000000E+01 0. -1.
</event>
<event>
 5    1  0.4761089E-001  0.8000000E+02  0.7546771E-02  0.1203772E+00
         11   -1    0    0    0    0  0.00000000000E+00  0.00000000000E+00  0.40000000000E+02  0.40000000000E+02  0.00000000000E+00 0.  1.
        -11   -1    0    0    0    0 -0.00000000000E+00 -0.00000000000E+00 -0.40000000000E+02  0.40000000000E+02  0.00000000000E+00 0. -1.
         23    2    1    2    0    0  0.00000000000E+00  0.00000000000E+00  0.00000000000E+00  0.80000000000E+02  0.80000000000E+02 0.  0.
          5    1    3    3  501    0  0.12882473376E+02 -0.14708254438E+02 -0.34577725939E+02  0.40000000000E+02  0.47000000000E+01 0. -1.
         -5    1    3    3    0  501 -0.12882473376E+02  0.14708254438E+02  0.34577725939E+02  0.40000000000E+02  0.47000000000E+01 0.  1.
</event>
<event>
 5    1  0.4761089E-001  0.8000000E+02  0.7546771E-02  0.1203772E+00
         11   -1    0    0    0    0  0.00000000000E+00  0.00000000000E+00  0.40000000000E+02  0.40000000000E+02  0.00000000000E+00 0.  1.
        -11   -1    0    0    0    0 -0.00000000000E+00 -0.00000000000E+00 -0.40000000000E+02  0.40000000000E+02  0.00000000000E+00 0. -1.
         23    2    1    2    0    0  0.00000000000E+00  0.00000000000E+00  0.00000000000E+00  0.80000000000E+02  0.80000000000E+02 0.  0.
          5    1    3    3  501    0  0.22828952041E+02 -0.31242017642E+02 -0.89824986704E+01  0.40000000000E+02  0.47000000000E+01 0. -1.
         -5    1    3    3    0  501 -0.22828952041E+02  0.31242017642E+02  0.89824986704E+01  0.40000000000E+02  0.47000000000E+01 0.  1.
</event>
<event>
 5    1  0.4761089E-001  0.8000000E+02  0.7546771E-02  0.1203772E+00
         11   -1    0    0    0    0  0.00000000000E+00  0.00000000000E+00  0.40000000000E+02  0.40000000000E+02  0.00000000000E+00 0.  1.
        -11   -1    0    0    0    0 -0.00000000000E+00 -0.00000000000E+00 -0.40000000000E+02  0.40000000000E+02  0.00000000000E+00 0. -1.
         23    2    1    2    0    0  0.00000000000E+00  0.00000000000E+00  0.00000000000E+00  0.80000000000E+02  0.80000000000E+02 0.  0.
          5    1    3    3  501    0 -0.15728007103E+02 -0.35532941148E+02  0.82431720817E+01  0.40000000000E+02  0.47000000000E+01 0. -1.
         -5    1    3    3    0  501  0.15728007103E+02  0.35532941148E+02 -0.82431720817E+01  0.40000000000E+02  0.47000000000E+01 0.  1.
</event>
<event>
 5    1  0.4761089E-001  0.8000000E+02  0.7546771E-02  0.1203772E+00
         11   -1    0    0    0    0  0.00000000000E+00  0.00000000000E+00  0.40000000000E+02  0.40000000000E+02  0.00000000000E+00 0.  1.
        -11   -1    0    0    0    0 -0.00000000000E+00 -0.00000000000E+00 -0.40000000000E+02  0.40000000000E+02  0.00000000000E+00 0. -1.
         23    2    1    2    0    0  0.00000000000E+00  0.00000000000E+00  0.00000000000E+00  0.80000000000E+02  0.80000000000E+02 0.  0.
          5    1    3    3  501    0 -0.11528684635E+02  0.34895078649E+02 -0.15077563354E+02  0.40000000000E+02  0.47000000000E+01 0. -1.
         -5    1    3    3    0  501  0.11528684635E+02 -0.34895078649E+02  0.15077563354E+02  0.40000000000E+02  0.47000000000E+01 0.  1.
</event>
<event>
 5    1  0.4761089E-001  0.8000000E+02  0.7546771E-02  0.1203772E+00
         11   -1    0    0    0    0  0.00000000000E+00  0.00000000000E+00  0.40000000000E+02  0.40000000000E+02  0.00000000000E+00 0. -1.
        -11   -1    0    0    0    0 -0.00000000000E+00 -0.00000000000E+00 -0.40000000000E+02  0.40000000000E+02  0.00000000000E+00 0.  1.
         23    2    1    2    0    0  0.00000000000E+00  0.00000000000E+00  0.00000000000E+00  0.80000000000E+02  0.80000000000E+02 0.  0.
          5    1    3    3  501    0 -0.94579029505E+01  0.22450923112E+02 -0.31375374471E+02  0.40000000000E+02  0.47000000000E+01 0. -1.
         -5    1    3    3    0  501  0.94579029505E+01 -0.22450923112E+02  0.31375374471E+02  0.40000000000E+02  0.47000000000E+01 0.  1.
</event>
<event>
 5    1  0.4761089E-001  0.8000000E+02  0.7546771E-02  0.1203772E+00
         11   -1    0    0    0    0  0.00000000000E+00  0.00000000000E+00  0.40000000000E+02  0.40000000000E+02  0.00000000000E+00 0.  1.
        -11   -1    0    0    0    0 -0.00000000000E+00 -0.00000000000E+00 -0.40000000000E+02  0.40000000000E+02  0.00000000000E+00 0. -1.
         23    2    1    2    0    0  0.00000000000E+00  0.00000000000E+00  0.00000000000E+00  0.80000000000E+02  0.80000000000E+02 0.  0.
          5    1    3    3  501    0 -0.19075413633E+02 -0.52794097864E+01 -0.34440766935E+02  0.40000000000E+02  0.47000000000E+01 0. -1.
         -5    1    3    3    0  501  0.19075413633E+02  0.52794097864E+01  0.34440766935E+02  0.40000000000E+02  0.47000000000E+01 0.  1.
</event>
<event>
 5    1  0.4761089E-001  0.8000000E+02  0.7546771E-02  0.1203772E+00
         11   -1    0    0    0    0  0.00000000000E+00  0.00000000000E+00  0.40000000000E+02  0.40000000000E+02  0.00000000000E+00 0. -1.
        -11   -1    0    0    0    0 -0.00000000000E+00 -0.00000000000E+00 -0.40000000000E+02  0.40000000000E+02  0.00000000000E+00 0.  1.
         23    2    1    2    0    0  0.00000000000E+00  0.00000000000E+00  0.00000000000E+00  0.80000000000E+02  0.80000000000E+02 0.  0.
          5    1    3    3  501    0  0.80827188801E+00  0.14445831387E+02  0.36994251609E+02  0.40000000000E+02  0.47000000000E+01 0. -1.
         -5    1    3    3    0  501 -0.80827188801E+00 -0.14445831387E+02 -0.36994251609E+02  0.40000000000E+02  0.47000000000E+01 0.  1.
</event>
<event>
 5    1  0.4761089E-001  0.8000000E+02  0.7546771E-02  0.1203772E+00
         11   -1    0    0    0    0  0.00000000000E+00  0.00000000000E+00  0.40000000000E+02  0.40000000000E+02  0.00000000000E+00 0. -1.
        -11   -1    0    0    0    0 -0.00000000000E+00 -0.00000000000E+00 -0.40000000000E+02  0.40000000000E+02  0.00000000000E+00 0.  1.
         23    2    1    2    0    0  0.00000000000E+00  0.00000000000E+00  0.00000000000E+00  0.80000000000E+02  0.80000000000E+02 0.  0.
          5    1    3    3  501    0  0.29208995804E+01 -0.66924850166E+01 -0.39045985580E+02  0.40000000000E+02  0.47000000000E+01 0.  1.
         -5    1    3    3    0  501 -0.29208995804E+01  0.66924850166E+01  0.39045985580E+02  0.40000000000E+02  0.47000000000E+01 0. -1.
</event>
<event>
 5    1  0.4761089E-001  0.8000000E+02  0.7546771E-02  0.1203772E+00
         11   -1    0    0    0    0  0.00000000000E+00  0.00000000000E+00  0.40000000000E+02  0.40000000000E+02  0.00000000000E+00 0.  1.
        -11   -1    0    0    0    0 -0.00000000000E+00 -0.00000000000E+00 -0.40000000000E+02  0.40000000000E+02  0.00000000000E+00 0. -1.
         23    2    1    2    0    0  0.00000000000E+00  0.00000000000E+00  0.00000000000E+00  0.80000000000E+02  0.80000000000E+02 0.  0.
          5    1    3    3  501    0 -0.22744662364E+02  0.65944288005E+01 -0.31892065514E+02  0.40000000000E+02  0.47000000000E+01 0. -1.
         -5    1    3    3    0  501  0.22744662364E+02 -0.65944288005E+01  0.31892065514E+02  0.40000000000E+02  0.47000000000E+01 0.  1.
</event>
<event>
 5    1  0.4761089E-001  0.8000000E+02  0.7546771E-02  0.1203772E+00
         11   -1    0    0    0    0  0.00000000000E+00  0.00000000000E+00  0.40000000000E+02  0.40000000000E+02  0.00000000000E+00 0.  1.
        -11   -1    0    0    0    0 -0.00000000000E+00 -0.00000000000E+00 -0.40000000000E+02  0.40000000000E+02  0.00000000000E+00 0. -1.
         23    2    1    2    0    0  0.00000000000E+00  0.00000000000E+00  0.00000000000E+00  0.80000000000E+02  0.80000000000E+02 0.  0.
          5    1    3    3  501    0 -0.17164888643E+02  0.18334806045E+02 -0.30775176444E+02  0.40000000000E+02  0.47000000000E+01 0. -1.
         -5    1    3    3    0  501  0.17164888643E+02 -0.18334806045E+02  0.30775176444E+02  0.40000000000E+02  0.47000000000E+01 0.  1.
</event>
<event>
 5    1  0.4761089E-001  0.8000000E+02  0.7546771E-02  0.1203772E+00
         11   -1    0    0    0    0  0.00000000000E+00  0.00000000000E+00  0.40000000000E+02  0.40000000000E+02  0.00000000000E+00 0.  1.
        -11   -1    0    0    0    0 -0.00000000000E+00 -0.00000000000E+00 -0.40000000000E+02  0.40000000000E+02  0.00000000000E+00 0. -1.
         23    2    1    2    0    0  0.00000000000E+00  0.00000000000E+00  0.00000000000E+00  0.80000000000E+02  0.80000000000E+02 0.  0.
          5    1    3    3  501    0  0.37583134898E+02 -0.17848235527E+01 -0.12737047387E+02  0.40000000000E+02  0.47000000000E+01 0. -1.
         -5    1    3    3    0  501 -0.37583134898E+02  0.17848235527E+01  0.12737047387E+02  0.40000000000E+02  0.47000000000E+01 0.  1.
</event>
<event>
 5    1  0.4761089E-001  0.8000000E+02  0.7546771E-02  0.1203772E+00
         11   -1    0    0    0    0  0.00000000000E+00  0.00000000000E+00  0.40000000000E+02  0.40000000000E+02  0.00000000000E+00 0.  1.
        -11   -1    0    0    0    0 -0.00000000000E+00 -0.00000000000E+00 -0.40000000000E+02  0.40000000000E+02  0.00000000000E+00 0. -1.
         23    2    1    2    0    0  0.00000000000E+00  0.00000000000E+00  0.00000000000E+00  0.80000000000E+02  0.80000000000E+02 0.  0.
          5    1    3    3  501    0  0.27707605794E+02 -0.27180159263E+02 -0.84520721477E+01  0.40000000000E+02  0.47000000000E+01 0. -1.
         -5    1    3    3    0  501 -0.27707605794E+02  0.27180159263E+02  0.84520721477E+01  0.40000000000E+02  0.47000000000E+01 0.  1.
</event>
<event>
 5    1  0.4761089E-001  0.8000000E+02  0.7546771E-02  0.1203772E+00
         11   -1    0    0    0    0  0.00000000000E+00  0.00000000000E+00  0.40000000000E+02  0.40000000000E+02  0.00000000000E+00 0. -1.
        -11   -1    0    0    0    0 -0.00000000000E+00 -0.00000000000E+00 -0.40000000000E+02  0.40000000000E+02  0.00000000000E+00 0.  1.
         23    2    1    2    0    0  0.00000000000E+00  0.00000000000E+00  0.00000000000E+00  0.80000000000E+02  0.80000000000E+02 0.  0.
          5    1    3    3  501    0  0.26856625470E+02  0.78752655788E+01  0.28188860574E+02  0.40000000000E+02  0.47000000000E+01 0. -1.
         -5    1    3    3    0  501 -0.26856625470E+02 -0.78752655788E+01 -0.28188860574E+02  0.40000000000E+02  0.47000000000E+01 0.  1.
</event>
<event>
 5    1  0.4761089E-001  0.8000000E+02  0.7546771E-02  0.1203772E+00
         11   -1    0    0    0    0  0.00000000000E+00  0.00000000000E+00  0.40000000000E+02  0.40000000000E+02  0.00000000000E+00 0. -1.
        -11   -1    0    0    0    0 -0.00000000000E+00 -0.00000000000E+00 -0.40000000000E+02  0.40000000000E+02  0.00000000000E+00 0.  1.
         23    2    1    2    0    0  0.00000000000E+00  0.00000000000E+00  0.00000000000E+00  0.80000000000E+02  0.80000000000E+02 0.  0.
          5    1    3    3  501    0  0.31390526225E+02  0.10966635591E+02 -0.21731952676E+02  0.40000000000E+02  0.47000000000E+01 0. -1.
         -5    1    3    3    0  501 -0.31390526225E+02 -0.10966635591E+02  0.21731952676E+02  0.40000000000E+02  0.47000000000E+01 0.  1.
</event>
<event>
 5    1  0.4761089E-001  0.8000000E+02  0.7546771E-02  0.1203772E+00
         11   -1    0    0    0    0  0.00000000000E+00  0.00000000000E+00  0.40000000000E+02  0.40000000000E+02  0.00000000000E+00 0.  1.
        -11   -1    0    0    0    0 -0.00000000000E+00 -0.00000000000E+00 -0.40000000000E+02  0.40000000000E+02  0.00000000000E+00 0. -1.
         23    2    1    2    0    0  0.00000000000E+00  0.00000000000E+00  0.00000000000E+00  0.80000000000E+02  0.80000000000E+02 0.  0.
          5    1    3    3  501    0  0.34287637399E+02  0.32788778080E+01 -0.19786785538E+02  0.40000000000E+02  0.47000000000E+01 0. -1.
         -5    1    3    3    0  501 -0.34287637399E+02 -0.32788778080E+01  0.19786785538E+02  0.40000000000E+02  0.47000000000E+01 0.  1.
</event>
<event>
 5    1  0.4761089E-001  0.8000000E+02  0.7546771E-02  0.1203772E+00
         11   -1    0    0    0    0  0.00000000000E+00  0.00000000000E+00  0.40000000000E+02  0.40000000000E+02  0.00000000000E+00 0. -1.
        -11   -1    0    0    0    0 -0.00000000000E+00 -0.00000000000E+00 -0.40000000000E+02  0.40000000000E+02  0.00000000000E+00 0.  1.
         23    2    1    2    0    0  0.00000000000E+00  0.00000000000E+00  0.00000000000E+00  0.80000000000E+02  0.80000000000E+02 0.  0.
          5    1    3    3  501    0 -0.20811185542E+02  0.14282733283E+02  0.30672595037E+02  0.40000000000E+02  0.47000000000E+01 0. -1.
         -5    1    3    3    0  501  0.20811185542E+02 -0.14282733283E+02 -0.30672595037E+02  0.40000000000E+02  0.47000000000E+01 0.  1.
</event>
<event>
 5    1  0.4761089E-001  0.8000000E+02  0.7546771E-02  0.1203772E+00
         11   -1    0    0    0    0  0.00000000000E+00  0.00000000000E+00  0.40000000000E+02  0.40000000000E+02  0.00000000000E+00 0. -1.
        -11   -1    0    0    0    0 -0.00000000000E+00 -0.00000000000E+00 -0.40000000000E+02  0.40000000000E+02  0.00000000000E+00 0.  1.
         23    2    1    2    0    0  0.00000000000E+00  0.00000000000E+00  0.00000000000E+00  0.80000000000E+02  0.80000000000E+02 0.  0.
          5    1    3    3  501    0  0.13794719298E+02  0.97922753680E+00 -0.37237841410E+02  0.40000000000E+02  0.47000000000E+01 0.  1.
         -5    1    3    3    0  501 -0.13794719298E+02 -0.97922753680E+00  0.37237841410E+02  0.40000000000E+02  0.47000000000E+01 0. -1.
</event>
<event>
 5    1  0.4761089E-001  0.8000000E+02  0.7546771E-02  0.1203772E+00
         11   -1    0    0    0    0  0.00000000000E+00  0.00000000000E+00  0.40000000000E+02  0.40000000000E+02  0.00000000000E+00 0.  1.
        -11   -1    0    0    0    0 -0.00000000000E+00 -0.00000000000E+00 -0.40000000000E+02  0.40000000000E+02  0.00000000000E+00 0. -1.
         23    2    1    2    0    0  0.00000000000E+00  0.00000000000E+00  0.00000000000E+00  0.80000000000E+02  0.80000000000E+02 0.  0.
          5    1    3    3  501    0  0.33707310737E+02  0.18734168662E+02  0.95267060121E+01  0.40000000000E+02  0.47000000000E+01 0. -1.
         -5    1    3    3    0  501 -0.33707310737E+02 -0.18734168662E+02 -0.95267060121E+01  0.40000000000E+02  0.47000000000E+01 0.  1.
</event>
<event>
 5    1  0.4761089E-001  0.8000000E+02  0.7546771E-02  0.1203772E+00
         11   -1    0    0    0    0  0.00000000000E+00  0.00000000000E+00  0.40000000000E+02  0.40000000000E+02  0.00000000000E+00 0. -1.
        -11   -1    0    0    0    0 -0.00000000000E+00 -0.00000000000E+00 -0.40000000000E+02  0.40000000000E+02  0.00000000000E+00 0.  1.
         23    2    1    2    0    0  0.00000000000E+00  0.00000000000E+00  0.00000000000E+00  0.80000000000E+02  0.80000000000E+02 0.  0.
          5    1    3    3  501    0  0.27959571246E+02  0.13972832255E+02  0.24513921239E+02  0.40000000000E+02  0.47000000000E+01 0. -1.
         -5    1    3    3    0  501 -0.27959571246E+02 -0.13972832255E+02 -0.24513921239E+02  0.40000000000E+02  0.47000000000E+01 0.  1.
</event>
<event>
 5    1  0.4761089E-001  0.8000000E+02  0.7546771E-02  0.1203772E+00
         11   -1    0    0    0    0  0.00000000000E+00  0.00000000000E+00  0.40000000000E+02  0.40000000000E+02  0.00000000000E+00 0.  1.
        -11   -1    0    0    0    0 -0.00000000000E+00 -0.00000000000E+00 -0.40000000000E+02  0.40000000000E+02  0.00000000000E+00 0. -1.
         23    2    1    2    0    0  0.00000000000E+00  0.00000000000E+00  0.00000000000E+00  0.80000000000E+02  0.80000000000E+02 0.  0.
          5    1    3    3  501    0 -0.23966189272E+02  0.13170286968E+02 -0.28811027627E+02  0.40000000000E+02  0.47000000000E+01 0. -1.
         -5    1    3    3    0  501  0.23966189272E+02 -0.13170286968E+02  0.28811027627E+02  0.40000000000E+02  0.47000000000E+01 0.  1.
</event>
<event>
 5    1  0.4761089E-001  0.8000000E+02  0.7546771E-02  0.1203772E+00
         11   -1    0    0    0    0  0.00000000000E+00  0.00000000000E+00  0.40000000000E+02  0.40000000000E+02  0.00000000000E+00 0.  1.
        -11   -1    0    0    0    0 -0.00000000000E+00 -0.00000000000E+00 -0.40000000000E+02  0.40000000000E+02  0.00000000000E+00 0. -1.
         23    2    1    2    0    0  0.00000000000E+00  0.00000000000E+00  0.00000000000E+00  0.80000000000E+02  0.80000000000E+02 0.  0.
          5    1    3    3  501    0 -0.34382367692E+02  0.17274992678E+02 -0.98659728296E+01  0.40000000000E+02  0.47000000000E+01 0. -1.
         -5    1    3    3    0  501  0.34382367692E+02 -0.17274992678E+02  0.98659728296E+01  0.40000000000E+02  0.47000000000E+01 0.  1.
</event>
<event>
 5    1  0.4761089E-001  0.8000000E+02  0.7546771E-02  0.1203772E+00
         11   -1    0    0    0    0  0.00000000000E+00  0.00000000000E+00  0.40000000000E+02  0.40000000000E+02  0.00000000000E+00 0.  1.
        -11   -1    0    0    0    0 -0.00000000000E+00 -0.00000000000E+00 -0.40000000000E+02  0.40000000000E+02  0.00000000000E+00 0. -1.
         23    2    1    2    0    0  0.00000000000E+00  0.00000000000E+00  0.00000000000E+00  0.80000000000E+02  0.80000000000E+02 0.  0.
          5    1    3    3  501    0 -0.28841698886E+02  0.20358472771E+02 -0.18209859741E+02  0.40000000000E+02  0.47000000000E+01 0. -1.
         -5    1    3    3    0  501  0.28841698886E+02 -0.20358472771E+02  0.18209859741E+02  0.40000000000E+02  0.47000000000E+01 0.  1.
</event>
<event>
 5    1  0.4761089E-001  0.8000000E+02  0.7546771E-02  0.1203772E+00
         11   -1    0    0    0    0  0.00000000000E+00  0.00000000000E+00  0.40000000000E+02  0.40000000000E+02  0.00000000000E+00 0.  1.
        -11   -1    0    0    0    0 -0.00000000000E+00 -0.00000000000E+00 -0.40000000000E+02  0.40000000000E+02  0.00000000000E+00 0. -1.
         23    2    1    2    0    0  0.00000000000E+00  0.00000000000E+00  0.00000000000E+00  0.80000000000E+02  0.80000000000E+02 0.  0.
          5    1    3    3  501    0  0.20609187151E+02 -0.15868634810E+02 -0.30022622042E+02  0.40000000000E+02  0.47000000000E+01 0. -1.
         -5    1    3    3    0  501 -0.20609187151E+02  0.15868634810E+02  0.30022622042E+02  0.40000000000E+02  0.47000000000E+01 0.  1.
</event>
<event>
 5    1  0.4761089E-001  0.8000000E+02  0.7546771E-02  0.1203772E+00
         11   -1    0    0    0    0  0.00000000000E+00  0.00000000000E+00  0.40000000000E+02  0.40000000000E+02  0.00000000000E+00 0.  1.
        -11   -1    0    0    0    0 -0.00000000000E+00 -0.00000000000E+00 -0.40000000000E+02  0.40000000000E+02  0.00000000000E+00 0. -1.
         23    2    1    2    0    0  0.00000000000E+00  0.00000000000E+00  0.00000000000E+00  0.80000000000E+02  0.80000000000E+02 0.  0.
          5    1    3    3  501    0 -0.29812559759E+02  0.82369559792E+01 -0.24925365330E+02  0.40000000000E+02  0.47000000000E+01 0. -1.
         -5    1    3    3    0  501  0.29812559759E+02 -0.82369559792E+01  0.24925365330E+02  0.40000000000E+02  0.47000000000E+01 0.  1.
</event>
<event>
 5    1  0.4761089E-001  0.8000000E+02  0.7546771E-02  0.1203772E+00
         11   -1    0    0    0    0  0.00000000000E+00  0.00000000000E+00  0.40000000000E+02  0.40000000000E+02  0.00000000000E+00 0. -1.
        -11   -1    0    0    0    0 -0.00000000000E+00 -0.00000000000E+00 -0.40000000000E+02  0.40000000000E+02  0.00000000000E+00 0.  1.
         23    2    1    2    0    0  0.00000000000E+00  0.00000000000E+00  0.00000000000E+00  0.80000000000E+02  0.80000000000E+02 0.  0.
          5    1    3    3  501    0 -0.21104781421E+02  0.12146819935E+02  0.31383960340E+02  0.40000000000E+02  0.47000000000E+01 0. -1.
         -5    1    3    3    0  501  0.21104781421E+02 -0.12146819935E+02 -0.31383960340E+02  0.40000000000E+02  0.47000000000E+01 0.  1.
</event>
<event>
 5    1  0.4761089E-001  0.8000000E+02  0.7546771E-02  0.1203772E+00
         11   -1    0    0    0    0  0.00000000000E+00  0.00000000000E+00  0.40000000000E+02  0.40000000000E+02  0.00000000000E+00 0.  1.
        -11   -1    0    0    0    0 -0.00000000000E+00 -0.00000000000E+00 -0.40000000000E+02  0.40000000000E+02  0.00000000000E+00 0. -1.
         23    2    1    2    0    0  0.00000000000E+00  0.00000000000E+00  0.00000000000E+00  0.80000000000E+02  0.80000000000E+02 0.  0.
          5    1    3    3  501    0 -0.20332520156E+02  0.30513286016E+02 -0.15278677973E+02  0.40000000000E+02  0.47000000000E+01 0. -1.
         -5    1    3    3    0  501  0.20332520156E+02 -0.30513286016E+02  0.15278677973E+02  0.40000000000E+02  0.47000000000E+01 0.  1.
</event>
<event>
 5    1  0.4761089E-001  0.8000000E+02  0.7546771E-02  0.1203772E+00
         11   -1    0    0    0    0  0.00000000000E+00  0.00000000000E+00  0.40000000000E+02  0.40000000000E+02  0.00000000000E+00 0. -1.
        -11   -1    0    0    0    0 -0.00000000000E+00 -0.00000000000E+00 -0.40000000000E+02  0.40000000000E+02  0.00000000000E+00 0.  1.
         23    2    1    2    0    0  0.00000000000E+00  0.00000000000E+00  0.00000000000E+00  0.80000000000E+02  0.80000000000E+02 0.  0.
          5    1    3    3  501    0 -0.23150720880E+02  0.31762714108E+02 -0.57518792786E+01  0.40000000000E+02  0.47000000000E+01 0.  1.
         -5    1    3    3    0  501  0.23150720880E+02 -0.31762714108E+02  0.57518792786E+01  0.40000000000E+02  0.47000000000E+01 0. -1.
</event>
<event>
 5    1  0.4761089E-001  0.8000000E+02  0.7546771E-02  0.1203772E+00
         11   -1    0    0    0    0  0.00000000000E+00  0.00000000000E+00  0.40000000000E+02  0.40000000000E+02  0.00000000000E+00 0. -1.
        -11   -1    0    0    0    0 -0.00000000000E+00 -0.00000000000E+00 -0.40000000000E+02  0.40000000000E+02  0.00000000000E+00 0.  1.
         23    2    1    2    0    0  0.00000000000E+00  0.00000000000E+00  0.00000000000E+00  0.80000000000E+02  0.80000000000E+02 0.  0.
          5    1    3    3  501    0  0.32433314814E+02  0.92037925477E+01  0.21006672581E+02  0.40000000000E+02  0.47000000000E+01 0. -1.
         -5    1    3    3    0  501 -0.32433314814E+02 -0.92037925477E+01 -0.21006672581E+02  0.40000000000E+02  0.47000000000E+01 0.  1.
</event>
<event>
 5    1  0.4761089E-001  0.8000000E+02  0.7546771E-02  0.1203772E+00
         11   -1    0    0    0    0  0.00000000000E+00  0.00000000000E+00  0.40000000000E+02  0.40000000000E+02  0.00000000000E+00 0.  1.
        -11   -1    0    0    0    0 -0.00000000000E+00 -0.00000000000E+00 -0.40000000000E+02  0.40000000000E+02  0.00000000000E+00 0. -1.
         23    2    1    2    0    0  0.00000000000E+00  0.00000000000E+00  0.00000000000E+00  0.80000000000E+02  0.80000000000E+02 0.  0.
          5    1    3    3  501    0  0.16340158028E+01 -0.10091991189E+02 -0.38384784827E+02  0.40000000000E+02  0.47000000000E+01 0. -1.
         -5    1    3    3    0  501 -0.16340158028E+01  0.10091991189E+02  0.38384784827E+02  0.40000000000E+02  0.47000000000E+01 0.  1.
</event>
<event>
 5    1  0.4761089E-001  0.8000000E+02  0.7546771E-02  0.1203772E+00
         11   -1    0    0    0    0  0.00000000000E+00  0.00000000000E+00  0.40000000000E+02  0.40000000000E+02  0.00000000000E+00 0. -1.
        -11   -1    0    0    0    0 -0.00000000000E+00 -0.00000000000E+00 -0.40000000000E+02  0.40000000000E+02  0.00000000000E+00 0.  1.
         23    2    1    2    0    0  0.00000000000E+00  0.00000000000E+00  0.00000000000E+00  0.80000000000E+02  0.80000000000E+02 0.  0.
          5    1    3    3  501    0  0.16394051756E+02 -0.74793358204E+01  0.35400629976E+02  0.40000000000E+02  0.47000000000E+01 0. -1.
         -5    1    3    3    0  501 -0.16394051756E+02  0.74793358204E+01 -0.35400629976E+02  0.40000000000E+02  0.47000000000E+01 0.  1.
</event>
<event>
 5    1  0.4761089E-001  0.8000000E+02  0.7546771E-02  0.1203772E+00
         11   -1    0    0    0    0  0.00000000000E+00  0.00000000000E+00  0.40000000000E+02  0.40000000000E+02  0.00000000000E+00 0. -1.
        -11   -1    0    0    0    0 -0.00000000000E+00 -0.00000000000E+00 -0.40000000000E+02  0.40000000000E+02  0.00000000000E+00 0.  1.
         23    2    1    2    0    0  0.00000000000E+00  0.00000000000E+00  0.00000000000E+00  0.80000000000E+02  0.80000000000E+02 0.  0.
          5    1    3    3  501    0 -0.58490278017E+01  0.28480410738E+02  0.27065939444E+02  0.40000000000E+02  0.47000000000E+01 0. -1.
         -5    1    3    3    0  501  0.58490278017E+01 -0.28480410738E+02 -0.27065939444E+02  0.40000000000E+02  0.47000000000E+01 0.  1.
</event>
<event>
 5    1  0.4761089E-001  0.8000000E+02  0.7546771E-02  0.1203772E+00
         11   -1    0    0    0    0  0.00000000000E+00  0.00000000000E+00  0.40000000000E+02  0.40000000000E+02  0.00000000000E+00 0. -1.
        -11   -1    0    0    0    0 -0.00000000000E+00 -0.00000000000E+00 -0.40000000000E+02  0.40000000000E+02  0.00000000000E+00 0.  1.
         23    2    1    2    0    0  0.00000000000E+00  0.00000000000E+00  0.00000000000E+00  0.80000000000E+02  0.80000000000E+02 0.  0.
          5    1    3    3  501    0  0.30829247385E+02 -0.15975062627E+01  0.24998309531E+02  0.40000000000E+02  0.47000000000E+01 0. -1.
         -5    1    3    3    0  501 -0.30829247385E+02  0.15975062627E+01 -0.24998309531E+02  0.40000000000E+02  0.47000000000E+01 0.  1.
</event>
<event>
 5    1  0.4761089E-001  0.8000000E+02  0.7546771E-02  0.1203772E+00
         11   -1    0    0    0    0  0.00000000000E+00  0.00000000000E+00  0.40000000000E+02  0.40000000000E+02  0.00000000000E+00 0. -1.
        -11   -1    0    0    0    0 -0.00000000000E+00 -0.00000000000E+00 -0.40000000000E+02  0.40000000000E+02  0.00000000000E+00 0.  1.
         23    2    1    2    0    0  0.00000000000E+00  0.00000000000E+00  0.00000000000E+00  0.80000000000E+02  0.80000000000E+02 0.  0.
          5    1    3    3  501    0 -0.21586425435E+02  0.13863602502E+01  0.33316876237E+02  0.40000000000E+02  0.47000000000E+01 0. -1.
         -5    1    3    3    0  501  0.21586425435E+02 -0.13863602502E+01 -0.33316876237E+02  0.40000000000E+02  0.47000000000E+01 0.  1.
</event>
<event>
 5    1  0.4761089E-001  0.8000000E+02  0.7546771E-02  0.1203772E+00
         11   -1    0    0    0    0  0.00000000000E+00  0.00000000000E+00  0.40000000000E+02  0.40000000000E+02  0.00000000000E+00 0. -1.
        -11   -1    0    0    0    0 -0.00000000000E+00 -0.00000000000E+00 -0.40000000000E+02  0.40000000000E+02  0.00000000000E+00 0.  1.
         23    2    1    2    0    0  0.00000000000E+00  0.00000000000E+00  0.00000000000E+00  0.80000000000E+02  0.80000000000E+02 0.  0.
          5    1    3    3  501    0 -0.16380687796E+02 -0.58808934642E+01  0.35707116369E+02  0.40000000000E+02  0.47000000000E+01 0. -1.
         -5    1    3    3    0  501  0.16380687796E+02  0.58808934642E+01 -0.35707116369E+02  0.40000000000E+02  0.47000000000E+01 0.  1.
</event>
<event>
 5    1  0.4761089E-001  0.8000000E+02  0.7546771E-02  0.1203772E+00
         11   -1    0    0    0    0  0.00000000000E+00  0.00000000000E+00  0.40000000000E+02  0.40000000000E+02  0.00000000000E+00 0. -1.
        -11   -1    0    0    0    0 -0.00000000000E+00 -0.00000000000E+00 -0.40000000000E+02  0.40000000000E+02  0.00000000000E+00 0.  1.
         23    2    1    2    0    0  0.00000000000E+00  0.00000000000E+00  0.00000000000E+00  0.80000000000E+02  0.80000000000E+02 0.  0.
          5    1    3    3  501    0  0.85732043970E+01 -0.12736197192E+02  0.36636040281E+02  0.40000000000E+02  0.47000000000E+01 0. -1.
         -5    1    3    3    0  501 -0.85732043970E+01  0.12736197192E+02 -0.36636040281E+02  0.40000000000E+02  0.47000000000E+01 0.  1.
</event>
<event>
 5    1  0.4761089E-001  0.8000000E+02  0.7546771E-02  0.1203772E+00
         11   -1    0    0    0    0  0.00000000000E+00  0.00000000000E+00  0.40000000000E+02  0.40000000000E+02  0.00000000000E+00 0. -1.
        -11   -1    0    0    0    0 -0.00000000000E+00 -0.00000000000E+00 -0.40000000000E+02  0.40000000000E+02  0.00000000000E+00 0.  1.
         23    2    1    2    0    0  0.00000000000E+00  0.00000000000E+00  0.00000000000E+00  0.80000000000E+02  0.80000000000E+02 0.  0.
          5    1    3    3  501    0  0.20241600664E+02  0.29442614123E+02  0.17358573563E+02  0.40000000000E+02  0.47000000000E+01 0. -1.
         -5    1    3    3    0  501 -0.20241600664E+02 -0.29442614123E+02 -0.17358573563E+02  0.40000000000E+02  0.47000000000E+01 0.  1.
</event>
<event>
 5    1  0.4761089E-001  0.8000000E+02  0.7546771E-02  0.1203772E+00
         11   -1    0    0    0    0  0.00000000000E+00  0.00000000000E+00  0.40000000000E+02  0.40000000000E+02  0.00000000000E+00 0. -1.
        -11   -1    0    0    0    0 -0.00000000000E+00 -0.00000000000E+00 -0.40000000000E+02  0.40000000000E+02  0.00000000000E+00 0.  1.
         23    2    1    2    0    0  0.00000000000E+00  0.00000000000E+00  0.00000000000E+00  0.80000000000E+02  0.80000000000E+02 0.  0.
          5    1    3    3  501    0 -0.36711541534E+02 -0.10496746180E+02  0.10954042078E+02  0.40000000000E+02  0.47000000000E+01 0. -1.
         -5    1    3    3    0  501  0.36711541534E+02  0.10496746180E+02 -0.10954042078E+02  0.40000000000E+02  0.47000000000E+01 0.  1.
</event>
<event>
 5    1  0.4761089E-001  0.8000000E+02  0.7546771E-02  0.1203772E+00
         11   -1    0    0    0    0  0.00000000000E+00  0.00000000000E+00  0.40000000000E+02  0.40000000000E+02  0.00000000000E+00 0.  1.
        -11   -1    0    0    0    0 -0.00000000000E+00 -0.00000000000E+00 -0.40000000000E+02  0.40000000000E+02  0.00000000000E+00 0. -1.
         23    2    1    2    0    0  0.00000000000E+00  0.00000000000E+00  0.00000000000E+00  0.80000000000E+02  0.80000000000E+02 0.  0.
          5    1    3    3  501    0  0.23793938218E+01  0.33382846172E+02 -0.21397057426E+02  0.40000000000E+02  0.47000000000E+01 0. -1.
         -5    1    3    3    0  501 -0.23793938218E+01 -0.33382846172E+02  0.21397057426E+02  0.40000000000E+02  0.47000000000E+01 0.  1.
</event>
<event>
 5    1  0.4761089E-001  0.8000000E+02  0.7546771E-02  0.1203772E+00
         11   -1    0    0    0    0  0.00000000000E+00  0.00000000000E+00  0.40000000000E+02  0.40000000000E+02  0.00000000000E+00 0. -1.
        -11   -1    0    0    0    0 -0.00000000000E+00 -0.00000000000E+00 -0.40000000000E+02  0.40000000000E+02  0.00000000000E+00 0.  1.
         23    2    1    2    0    0  0.00000000000E+00  0.00000000000E+00  0.00000000000E+00  0.80000000000E+02  0.80000000000E+02 0.  0.
          5    1    3    3  501    0 -0.15390561303E+02  0.18671331862E+02  0.31502729870E+02  0.40000000000E+02  0.47000000000E+01 0. -1.
         -5    1    3    3    0  501  0.15390561303E+02 -0.18671331862E+02 -0.31502729870E+02  0.40000000000E+02  0.47000000000E+01 0.  1.
</event>
<event>
 5    1  0.4761089E-001  0.8000000E+02  0.7546771E-02  0.1203772E+00
         11   -1    0    0    0    0  0.00000000000E+00  0.00000000000E+00  0.40000000000E+02  0.40000000000E+02  0.00000000000E+00 0.  1.
        -11   -1    0    0    0    0 -0.00000000000E+00 -0.00000000000E+00 -0.40000000000E+02  0.40000000000E+02  0.00000000000E+00 0. -1.
         23    2    1    2    0    0  0.00000000000E+00  0.00000000000E+00  0.00000000000E+00  0.80000000000E+02  0.80000000000E+02 0.  0.
          5    1    3    3  501    0 -0.19209392087E+02 -0.11046825263E+02 -0.32967816234E+02  0.40000000000E+02  0.47000000000E+01 0. -1.
         -5    1    3    3    0  501  0.19209392087E+02  0.11046825263E+02  0.32967816234E+02  0.40000000000E+02  0.47000000000E+01 0.  1.
</event>
<event>
 5    1  0.4761089E-001  0.8000000E+02  0.7546771E-02  0.1203772E+00
         11   -1    0    0    0    0  0.00000000000E+00  0.00000000000E+00  0.40000000000E+02  0.40000000000E+02  0.00000000000E+00 0. -1.
        -11   -1    0    0    0    0 -0.00000000000E+00 -0.00000000000E+00 -0.40000000000E+02  0.40000000000E+02  0.00000000000E+00 0.  1.
         23    2    1    2    0    0  0.00000000000E+00  0.00000000000E+00  0.00000000000E+00  0.80000000000E+02  0.80000000000E+02 0.  0.
          5    1    3    3  501    0  0.14180825185E+02  0.26671830934E+02  0.25795884007E+02  0.40000000000E+02  0.47000000000E+01 0. -1.
         -5    1    3    3    0  501 -0.14180825185E+02 -0.26671830934E+02 -0.25795884007E+02  0.40000000000E+02  0.47000000000E+01 0.  1.
</event>
<event>
 5    1  0.4761089E-001  0.8000000E+02  0.7546771E-02  0.1203772E+00
         11   -1    0    0    0    0  0.00000000000E+00  0.00000000000E+00  0.40000000000E+02  0.40000000000E+02  0.00000000000E+00 0.  1.
        -11   -1    0    0    0    0 -0.00000000000E+00 -0.00000000000E+00 -0.40000000000E+02  0.40000000000E+02  0.00000000000E+00 0. -1.
         23    2    1    2    0    0  0.00000000000E+00  0.00000000000E+00  0.00000000000E+00  0.80000000000E+02  0.80000000000E+02 0.  0.
          5    1    3    3  501    0  0.24472206865E+02 -0.31225401412E+02  0.19988491283E+01  0.40000000000E+02  0.47000000000E+01 0. -1.
         -5    1    3    3    0  501 -0.24472206865E+02  0.31225401412E+02 -0.19988491283E+01  0.40000000000E+02  0.47000000000E+01 0.  1.
</event>
<event>
 5    1  0.4761089E-001  0.8000000E+02  0.7546771E-02  0.1203772E+00
         11   -1    0    0    0    0  0.00000000000E+00  0.00000000000E+00  0.40000000000E+02  0.40000000000E+02  0.00000000000E+00 0.  1.
        -11   -1    0    0    0    0 -0.00000000000E+00 -0.00000000000E+00 -0.40000000000E+02  0.40000000000E+02  0.00000000000E+00 0. -1.
         23    2    1    2    0    0  0.00000000000E+00  0.00000000000E+00  0.00000000000E+00  0.80000000000E+02  0.80000000000E+02 0.  0.
          5    1    3    3  501    0  0.40940236813E+01 -0.21730347507E+02 -0.32999105553E+02  0.40000000000E+02  0.47000000000E+01 0. -1.
         -5    1    3    3    0  501 -0.40940236813E+01  0.21730347507E+02  0.32999105553E+02  0.40000000000E+02  0.47000000000E+01 0.  1.
</event>
<event>
 5    1  0.4761089E-001  0.8000000E+02  0.7546771E-02  0.1203772E+00
         11   -1    0    0    0    0  0.00000000000E+00  0.00000000000E+00  0.40000000000E+02  0.40000000000E+02  0.00000000000E+00 0. -1.
        -11   -1    0    0    0    0 -0.00000000000E+00 -0.00000000000E+00 -0.40000000000E+02  0.40000000000E+02  0.00000000000E+00 0.  1.
         23    2    1    2    0    0  0.00000000000E+00  0.00000000000E+00  0.00000000000E+00  0.80000000000E+02  0.80000000000E+02 0.  0.
          5    1    3    3  501    0  0.24541021993E+01  0.39321031078E+02 -0.50738444374E+01  0.40000000000E+02  0.47000000000E+01 0. -1.
         -5    1    3    3    0  501 -0.24541021993E+01 -0.39321031078E+02  0.50738444374E+01  0.40000000000E+02  0.47000000000E+01 0.  1.
</event>
<event>
 5    1  0.4761089E-001  0.8000000E+02  0.7546771E-02  0.1203772E+00
         11   -1    0    0    0    0  0.00000000000E+00  0.00000000000E+00  0.40000000000E+02  0.40000000000E+02  0.00000000000E+00 0.  1.
        -11   -1    0    0    0    0 -0.00000000000E+00 -0.00000000000E+00 -0.40000000000E+02  0.40000000000E+02  0.00000000000E+00 0. -1.
         23    2    1    2    0    0  0.00000000000E+00  0.00000000000E+00  0.00000000000E+00  0.80000000000E+02  0.80000000000E+02 0.  0.
          5    1    3    3  501    0 -0.29566434491E+01  0.26003566720E+02 -0.29882817427E+02  0.40000000000E+02  0.47000000000E+01 0. -1.
         -5    1    3    3    0  501  0.29566434491E+01 -0.26003566720E+02  0.29882817427E+02  0.40000000000E+02  0.47000000000E+01 0.  1.
</event>
<event>
 5    1  0.4761089E-001  0.8000000E+02  0.7546771E-02  0.1203772E+00
         11   -1    0    0    0    0  0.00000000000E+00  0.00000000000E+00  0.40000000000E+02  0.40000000000E+02  0.00000000000E+00 0.  1.
        -11   -1    0    0    0    0 -0.00000000000E+00 -0.00000000000E+00 -0.40000000000E+02  0.40000000000E+02  0.00000000000E+00 0. -1.
         23    2    1    2    0    0  0.00000000000E+00  0.00000000000E+00  0.00000000000E+00  0.80000000000E+02  0.80000000000E+02 0.  0.
          5    1    3    3  501    0 -0.24361137503E+02 -0.18505825483E+02 -0.25337312461E+02  0.40000000000E+02  0.47000000000E+01 0. -1.
         -5    1    3    3    0  501  0.24361137503E+02  0.18505825483E+02  0.25337312461E+02  0.40000000000E+02  0.47000000000E+01 0.  1.
</event>
<event>
 5    1  0.4761089E-001  0.8000000E+02  0.7546771E-02  0.1203772E+00
         11   -1    0    0    0    0  0.00000000000E+00  0.00000000000E+00  0.40000000000E+02  0.40000000000E+02  0.00000000000E+00 0.  1.
        -11   -1    0    0    0    0 -0.00000000000E+00 -0.00000000000E+00 -0.40000000000E+02  0.40000000000E+02  0.00000000000E+00 0. -1.
         23    2    1    2    0    0  0.00000000000E+00  0.00000000000E+00  0.00000000000E+00  0.80000000000E+02  0.80000000000E+02 0.  0.
          5    1    3    3  501    0  0.32560652614E+02  0.21601760268E+02 -0.71468772674E+01  0.40000000000E+02  0.47000000000E+01 0. -1.
         -5    1    3    3    0  501 -0.32560652614E+02 -0.21601760268E+02  0.71468772674E+01  0.40000000000E+02  0.47000000000E+01 0.  1.
</event>
<event>
 5    1  0.4761089E-001  0.8000000E+02  0.7546771E-02  0.1203772E+00
         11   -1    0    0    0    0  0.00000000000E+00  0.00000000000E+00  0.40000000000E+02  0.40000000000E+02  0.00000000000E+00 0.  1.
        -11   -1    0    0    0    0 -0.00000000000E+00 -0.00000000000E+00 -0.40000000000E+02  0.40000000000E+02  0.00000000000E+00 0. -1.
         23    2    1    2    0    0  0.00000000000E+00  0.00000000000E+00  0.00000000000E+00  0.80000000000E+02  0.80000000000E+02 0.  0.
          5    1    3    3  501    0  0.27889747934E+02 -0.21854001632E+02 -0.17957577031E+02  0.40000000000E+02  0.47000000000E+01 0. -1.
         -5    1    3    3    0  501 -0.27889747934E+02  0.21854001632E+02  0.17957577031E+02  0.40000000000E+02  0.47000000000E+01 0.  1.
</event>
<event>
 5    1  0.4761089E-001  0.8000000E+02  0.7546771E-02  0.1203772E+00
         11   -1    0    0    0    0  0.00000000000E+00  0.00000000000E+00  0.40000000000E+02  0.40000000000E+02  0.00000000000E+00 0. -1.
        -11   -1    0    0    0    0 -0.00000000000E+00 -0.00000000000E+00 -0.40000000000E+02  0.40000000000E+02  0.00000000000E+00 0.  1.
         23    2    1    2    0    0  0.00000000000E+00  0.00000000000E+00  0.00000000000E+00  0.80000000000E+02  0.80000000000E+02 0.  0.
          5    1    3    3  501    0 -0.78185018550E+01  0.26998447228E+02  0.28068930796E+02  0.40000000000E+02  0.47000000000E+01 0. -1.
         -5    1    3    3    0  501  0.78185018550E+01 -0.26998447228E+02 -0.28068930796E+02  0.40000000000E+02  0.47000000000E+01 0.  1.
</event>
<event>
 5    1  0.4761089E-001  0.8000000E+02  0.7546771E-02  0.1203772E+00
         11   -1    0    0    0    0  0.00000000000E+00  0.00000000000E+00  0.40000000000E+02  0.40000000000E+02  0.00000000000E+00 0.  1.
        -11   -1    0    0    0    0 -0.00000000000E+00 -0.00000000000E+00 -0.40000000000E+02  0.40000000000E+02  0.00000000000E+00 0. -1.
         23    2    1    2    0    0  0.00000000000E+00  0.00000000000E+00  0.00000000000E+00  0.80000000000E+02  0.80000000000E+02 0.  0.
          5    1    3    3  501    0 -0.35269644456E+02 -0.98025134581E+01 -0.15423129056E+02  0.40000000000E+02  0.47000000000E+01 0. -1.
         -5    1    3    3    0  501  0.35269644456E+02  0.98025134581E+01  0.15423129056E+02  0.40000000000E+02  0.47000000000E+01 0.  1.
</event>
<event>
 5    1  0.4761089E-001  0.8000000E+02  0.7546771E-02  0.1203772E+00
         11   -1    0    0    0    0  0.00000000000E+00  0.00000000000E+00  0.40000000000E+02  0.40000000000E+02  0.00000000000E+00 0.  1.
        -11   -1    0    0    0    0 -0.00000000000E+00 -0.00000000000E+00 -0.40000000000E+02  0.40000000000E+02  0.00000000000E+00 0. -1.
         23    2    1    2    0    0  0.00000000000E+00  0.00000000000E+00  0.00000000000E+00  0.80000000000E+02  0.80000000000E+02 0.  0.
          5    1    3    3  501    0 -0.13445995828E+01  0.31479455483E+02 -0.24189789881E+02  0.40000000000E+02  0.47000000000E+01 0. -1.
         -5    1    3    3    0  501  0.13445995828E+01 -0.31479455483E+02  0.24189789881E+02  0.40000000000E+02  0.47000000000E+01 0.  1.
</event>
<event>
 5    1  0.4761089E-001  0.8000000E+02  0.7546771E-02  0.1203772E+00
         11   -1    0    0    0    0  0.00000000000E+00  0.00000000000E+00  0.40000000000E+02  0.40000000000E+02  0.00000000000E+00 0. -1.
        -11   -1    0    0    0    0 -0.00000000000E+00 -0.00000000000E+00 -0.40000000000E+02  0.40000000000E+02  0.00000000000E+00 0.  1.
         23    2    1    2    0    0  0.00000000000E+00  0.00000000000E+00  0.00000000000E+00  0.80000000000E+02  0.80000000000E+02 0.  0.
          5    1    3    3  501    0  0.17883586960E+02 -0.28197394228E+02  0.21517301787E+02  0.40000000000E+02  0.47000000000E+01 0. -1.
         -5    1    3    3    0  501 -0.17883586960E+02  0.28197394228E+02 -0.21517301787E+02  0.40000000000E+02  0.47000000000E+01 0.  1.
</event>
<event>
 5    1  0.4761089E-001  0.8000000E+02  0.7546771E-02  0.1203772E+00
         11   -1    0    0    0    0  0.00000000000E+00  0.00000000000E+00  0.40000000000E+02  0.40000000000E+02  0.00000000000E+00 0.  1.
        -11   -1    0    0    0    0 -0.00000000000E+00 -0.00000000000E+00 -0.40000000000E+02  0.40000000000E+02  0.00000000000E+00 0. -1.
         23    2    1    2    0    0  0.00000000000E+00  0.00000000000E+00  0.00000000000E+00  0.80000000000E+02  0.80000000000E+02 0.  0.
          5    1    3    3  501    0 -0.18007991182E+01  0.17861093874E+02 -0.35435130142E+02  0.40000000000E+02  0.47000000000E+01 0. -1.
         -5    1    3    3    0  501  0.18007991182E+01 -0.17861093874E+02  0.35435130142E+02  0.40000000000E+02  0.47000000000E+01 0.  1.
</event>
<event>
 5    1  0.4761089E-001  0.8000000E+02  0.7546771E-02  0.1203772E+00
         11   -1    0    0    0    0  0.00000000000E+00  0.00000000000E+00  0.40000000000E+02  0.40000000000E+02  0.00000000000E+00 0. -1.
        -11   -1    0    0    0    0 -0.00000000000E+00 -0.00000000000E+00 -0.40000000000E+02  0.40000000000E+02  0.00000000000E+00 0.  1.
         23    2    1    2    0    0  0.00000000000E+00  0.00000000000E+00  0.00000000000E+00  0.80000000000E+02  0.80000000000E+02 0.  0.
          5    1    3    3  501    0  0.18477610142E+02 -0.15297561969E+02  0.31661846460E+02  0.40000000000E+02  0.47000000000E+01 0. -1.
         -5    1    3    3    0  501 -0.18477610142E+02  0.15297561969E+02 -0.31661846460E+02  0.40000000000E+02  0.47000000000E+01 0.  1.
</event>
<event>
 5    1  0.4761089E-001  0.8000000E+02  0.7546771E-02  0.1203772E+00
         11   -1    0    0    0    0  0.00000000000E+00  0.00000000000E+00  0.40000000000E+02  0.40000000000E+02  0.00000000000E+00 0. -1.
        -11   -1    0    0    0    0 -0.00000000000E+00 -0.00000000000E+00 -0.40000000000E+02  0.40000000000E+02  0.00000000000E+00 0.  1.
         23    2    1    2    0    0  0.00000000000E+00  0.00000000000E+00  0.00000000000E+00  0.80000000000E+02  0.80000000000E+02 0.  0.
          5    1    3    3  501    0 -0.45026014554E+01  0.22143198343E+02  0.32669792581E+02  0.40000000000E+02  0.47000000000E+01 0. -1.
         -5    1    3    3    0  501  0.45026014554E+01 -0.22143198343E+02 -0.32669792581E+02  0.40000000000E+02  0.47000000000E+01 0.  1.
</event>
<event>
 5    1  0.4761089E-001  0.8000000E+02  0.7546771E-02  0.1203772E+00
         11   -1    0    0    0    0  0.00000000000E+00  0.00000000000E+00  0.40000000000E+02  0.40000000000E+02  0.00000000000E+00 0. -1.
        -11   -1    0    0    0    0 -0.00000000000E+00 -0.00000000000E+00 -0.40000000000E+02  0.40000000000E+02  0.00000000000E+00 0.  1.
         23    2    1    2    0    0  0.00000000000E+00  0.00000000000E+00  0.00000000000E+00  0.80000000000E+02  0.80000000000E+02 0.  0.
          5    1    3    3  501    0  0.11214730574E+02  0.10535117955E+02  0.36621729995E+02  0.40000000000E+02  0.47000000000E+01 0. -1.
         -5    1    3    3    0  501 -0.11214730574E+02 -0.10535117955E+02 -0.36621729995E+02  0.40000000000E+02  0.47000000000E+01 0.  1.
</event>
<event>
 5    1  0.4761089E-001  0.8000000E+02  0.7546771E-02  0.1203772E+00
         11   -1    0    0    0    0  0.00000000000E+00  0.00000000000E+00  0.40000000000E+02  0.40000000000E+02  0.00000000000E+00 0.  1.
        -11   -1    0    0    0    0 -0.00000000000E+00 -0.00000000000E+00 -0.40000000000E+02  0.40000000000E+02  0.00000000000E+00 0. -1.
         23    2    1    2    0    0  0.00000000000E+00  0.00000000000E+00  0.00000000000E+00  0.80000000000E+02  0.80000000000E+02 0.  0.
          5    1    3    3  501    0 -0.19039276658E+02 -0.31139960934E+02 -0.15675419529E+02  0.40000000000E+02  0.47000000000E+01 0. -1.
         -5    1    3    3    0  501  0.19039276658E+02  0.31139960934E+02  0.15675419529E+02  0.40000000000E+02  0.47000000000E+01 0.  1.
</event>
<event>
 5    1  0.4761089E-001  0.8000000E+02  0.7546771E-02  0.1203772E+00
         11   -1    0    0    0    0  0.00000000000E+00  0.00000000000E+00  0.40000000000E+02  0.40000000000E+02  0.00000000000E+00 0. -1.
        -11   -1    0    0    0    0 -0.00000000000E+00 -0.00000000000E+00 -0.40000000000E+02  0.40000000000E+02  0.00000000000E+00 0.  1.
         23    2    1    2    0    0  0.00000000000E+00  0.00000000000E+00  0.00000000000E+00  0.80000000000E+02  0.80000000000E+02 0.  0.
          5    1    3    3  501    0 -0.90670552003E+01 -0.29059308530E+02  0.25519700189E+02  0.40000000000E+02  0.47000000000E+01 0. -1.
         -5    1    3    3    0  501  0.90670552003E+01  0.29059308530E+02 -0.25519700189E+02  0.40000000000E+02  0.47000000000E+01 0.  1.
</event>
<event>
 5    1  0.4761089E-001  0.8000000E+02  0.7546771E-02  0.1203772E+00
         11   -1    0    0    0    0  0.00000000000E+00  0.00000000000E+00  0.40000000000E+02  0.40000000000E+02  0.00000000000E+00 0.  1.
        -11   -1    0    0    0    0 -0.00000000000E+00 -0.00000000000E+00 -0.40000000000E+02  0.40000000000E+02  0.00000000000E+00 0. -1.
         23    2    1    2    0    0  0.00000000000E+00  0.00000000000E+00  0.00000000000E+00  0.80000000000E+02  0.80000000000E+02 0.  0.
          5    1    3    3  501    0 -0.68826525239E+01 -0.29721929079E+02 -0.25439064960E+02  0.40000000000E+02  0.47000000000E+01 0. -1.
         -5    1    3    3    0  501  0.68826525239E+01  0.29721929079E+02  0.25439064960E+02  0.40000000000E+02  0.47000000000E+01 0.  1.
</event>
<event>
 5    1  0.4761089E-001  0.8000000E+02  0.7546771E-02  0.1203772E+00
         11   -1    0    0    0    0  0.00000000000E+00  0.00000000000E+00  0.40000000000E+02  0.40000000000E+02  0.00000000000E+00 0.  1.
        -11   -1    0    0    0    0 -0.00000000000E+00 -0.00000000000E+00 -0.40000000000E+02  0.40000000000E+02  0.00000000000E+00 0. -1.
         23    2    1    2    0    0  0.00000000000E+00  0.00000000000E+00  0.00000000000E+00  0.80000000000E+02  0.80000000000E+02 0.  0.
          5    1    3    3  501    0 -0.13349276822E+02 -0.36643911232E+02 -0.75452354479E+01  0.40000000000E+02  0.47000000000E+01 0. -1.
         -5    1    3    3    0  501  0.13349276822E+02  0.36643911232E+02  0.75452354479E+01  0.40000000000E+02  0.47000000000E+01 0.  1.
</event>
<event>
 5    1  0.4761089E-001  0.8000000E+02  0.7546771E-02  0.1203772E+00
         11   -1    0    0    0    0  0.00000000000E+00  0.00000000000E+00  0.40000000000E+02  0.40000000000E+02  0.00000000000E+00 0. -1.
        -11   -1    0    0    0    0 -0.00000000000E+00 -0.00000000000E+00 -0.40000000000E+02  0.40000000000E+02  0.00000000000E+00 0.  1.
         23    2    1    2    0    0  0.00000000000E+00  0.00000000000E+00  0.00000000000E+00  0.80000000000E+02  0.80000000000E+02 0.  0.
          5    1    3    3  501    0  0.16979401964E+02 -0.69063481756E+01 -0.35240775585E+02  0.40000000000E+02  0.47000000000E+01 0.  1.
         -5    1    3    3    0  501 -0.16979401964E+02  0.69063481756E+01  0.35240775585E+02  0.40000000000E+02  0.47000000000E+01 0. -1.
</event>
<event>
 5    1  0.4761089E-001  0.8000000E+02  0.7546771E-02  0.1203772E+00
         11   -1    0    0    0    0  0.00000000000E+00  0.00000000000E+00  0.40000000000E+02  0.40000000000E+02  0.00000000000E+00 0.  1.
        -11   -1    0    0    0    0 -0.00000000000E+00 -0.00000000000E+00 -0.40000000000E+02  0.40000000000E+02  0.00000000000E+00 0. -1.
         23    2    1    2    0    0  0.00000000000E+00  0.00000000000E+00  0.00000000000E+00  0.80000000000E+02  0.80000000000E+02 0.  0.
          5    1    3    3  501    0  0.89402514484E+01  0.22615551351E+02 -0.31408895891E+02  0.40000000000E+02  0.47000000000E+01 0. -1.
         -5    1    3    3    0  501 -0.89402514484E+01 -0.22615551351E+02  0.31408895891E+02  0.40000000000E+02  0.47000000000E+01 0.  1.
</event>
<event>
 5    1  0.4761089E-001  0.8000000E+02  0.7546771E-02  0.1203772E+00
         11   -1    0    0    0    0  0.00000000000E+00  0.00000000000E+00  0.40000000000E+02  0.40000000000E+02  0.00000000000E+00 0.  1.
        -11   -1    0    0    0    0 -0.00000000000E+00 -0.00000000000E+00 -0.40000000000E+02  0.40000000000E+02  0.00000000000E+00 0. -1.
         23    2    1    2    0    0  0.00000000000E+00  0.00000000000E+00  0.00000000000E+00  0.80000000000E+02  0.80000000000E+02 0.  0.
          5    1    3    3  501    0  0.29422183128E+02 -0.21123037894E+02 -0.16311419623E+02  0.40000000000E+02  0.47000000000E+01 0. -1.
         -5    1    3    3    0  501 -0.29422183128E+02  0.21123037894E+02  0.16311419623E+02  0.40000000000E+02  0.47000000000E+01 0.  1.
</event>
<event>
 5    1  0.4761089E-001  0.8000000E+02  0.7546771E-02  0.1203772E+00
         11   -1    0    0    0    0  0.00000000000E+00  0.00000000000E+00  0.40000000000E+02  0.40000000000E+02  0.00000000000E+00 0.  1.
        -11   -1    0    0    0    0 -0.00000000000E+00 -0.00000000000E+00 -0.40000000000E+02  0.40000000000E+02  0.00000000000E+00 0. -1.
         23    2    1    2    0    0  0.00000000000E+00  0.00000000000E+00  0.00000000000E+00  0.80000000000E+02  0.80000000000E+02 0.  0.
          5    1    3    3  501    0  0.16683551940E+02  0.35972364387E+02 -0.23575612474E+01  0.40000000000E+02  0.47000000000E+01 0. -1.
         -5    1    3    3    0  501 -0.16683551940E+02 -0.35972364387E+02  0.23575612474E+01  0.40000000000E+02  0.47000000000E+01 0.  1.
</event>
<event>
 5    1  0.4761089E-001  0.8000000E+02  0.7546771E-02  0.1203772E+00
         11   -1    0    0    0    0  0.00000000000E+00  0.00000000000E+00  0.40000000000E+02  0.40000000000E+02  0.00000000000E+00 0. -1.
        -11   -1    0    0    0    0 -0.00000000000E+00 -0.00000000000E+00 -0.40000000000E+02  0.40000000000E+02  0.00000000000E+00 0.  1.
         23    2    1    2    0    0  0.00000000000E+00  0.00000000000E+00  0.00000000000E+00  0.80000000000E+02  0.80000000000E+02 0.  0.
          5    1    3    3  501    0 -0.30183480821E+02  0.11235689801E+02  0.23251381899E+02  0.40000000000E+02  0.47000000000E+01 0. -1.
         -5    1    3    3    0  501  0.30183480821E+02 -0.11235689801E+02 -0.23251381899E+02  0.40000000000E+02  0.47000000000E+01 0.  1.
</event>
<event>
 5    1  0.4761089E-001  0.8000000E+02  0.7546771E-02  0.1203772E+00
         11   -1    0    0    0    0  0.00000000000E+00  0.00000000000E+00  0.40000000000E+02  0.40000000000E+02  0.00000000000E+00 0. -1.
        -11   -1    0    0    0    0 -0.00000000000E+00 -0.00000000000E+00 -0.40000000000E+02  0.40000000000E+02  0.00000000000E+00 0.  1.
         23    2    1    2    0    0  0.00000000000E+00  0.00000000000E+00  0.00000000000E+00  0.80000000000E+02  0.80000000000E+02 0.  0.
          5    1    3    3  501    0 -0.10423804704E+02 -0.19801759046E+02  0.32819881690E+02  0.40000000000E+02  0.47000000000E+01 0. -1.
         -5    1    3    3    0  501  0.10423804704E+02  0.19801759046E+02 -0.32819881690E+02  0.40000000000E+02  0.47000000000E+01 0.  1.
</event>
<event>
 5    1  0.4761089E-001  0.8000000E+02  0.7546771E-02  0.1203772E+00
         11   -1    0    0    0    0  0.00000000000E+00  0.00000000000E+00  0.40000000000E+02  0.40000000000E+02  0.00000000000E+00 0. -1.
        -11   -1    0    0    0    0 -0.00000000000E+00 -0.00000000000E+00 -0.40000000000E+02  0.40000000000E+02  0.00000000000E+00 0.  1.
         23    2    1    2    0    0  0.00000000000E+00  0.00000000000E+00  0.00000000000E+00  0.80000000000E+02  0.80000000000E+02 0.  0.
          5    1    3    3  501    0  0.18777474597E+02  0.66112949725E+00  0.34998276465E+02  0.40000000000E+02  0.47000000000E+01 0. -1.
         -5    1    3    3    0  501 -0.18777474597E+02 -0.66112949725E+00 -0.34998276465E+02  0.40000000000E+02  0.47000000000E+01 0.  1.
</event>
<event>
 5    1  0.4761089E-001  0.8000000E+02  0.7546771E-02  0.1203772E+00
         11   -1    0    0    0    0  0.00000000000E+00  0.00000000000E+00  0.40000000000E+02  0.40000000000E+02  0.00000000000E+00 0.  1.
        -11   -1    0    0    0    0 -0.00000000000E+00 -0.00000000000E+00 -0.40000000000E+02  0.40000000000E+02  0.00000000000E+00 0. -1.
         23    2    1    2    0    0  0.00000000000E+00  0.00000000000E+00  0.00000000000E+00  0.80000000000E+02  0.80000000000E+02 0.  0.
          5    1    3    3  501    0 -0.26934365205E+02 -0.28130676797E+02  0.78176079440E+01  0.40000000000E+02  0.47000000000E+01 0. -1.
         -5    1    3    3    0  501  0.26934365205E+02  0.28130676797E+02 -0.78176079440E+01  0.40000000000E+02  0.47000000000E+01 0.  1.
</event>
<event>
 5    1  0.4761089E-001  0.8000000E+02  0.7546771E-02  0.1203772E+00
         11   -1    0    0    0    0  0.00000000000E+00  0.00000000000E+00  0.40000000000E+02  0.40000000000E+02  0.00000000000E+00 0.  1.
        -11   -1    0    0    0    0 -0.00000000000E+00 -0.00000000000E+00 -0.40000000000E+02  0.40000000000E+02  0.00000000000E+00 0. -1.
         23    2    1    2    0    0  0.00000000000E+00  0.00000000000E+00  0.00000000000E+00  0.80000000000E+02  0.80000000000E+02 0.  0.
          5    1    3    3  501    0 -0.10852669563E+02  0.38189613334E+02 -0.12973036608E+01  0.40000000000E+02  0.47000000000E+01 0. -1.
         -5    1    3    3    0  501  0.10852669563E+02 -0.38189613334E+02  0.12973036608E+01  0.40000000000E+02  0.47000000000E+01 0.  1.
</event>
<event>
 5    1  0.4761089E-001  0.8000000E+02  0.7546771E-02  0.1203772E+00
         11   -1    0    0    0    0  0.00000000000E+00  0.00000000000E+00  0.40000000000E+02  0.40000000000E+02  0.00000000000E+00 0.  1.
        -11   -1    0    0    0    0 -0.00000000000E+00 -0.00000000000E+00 -0.40000000000E+02  0.40000000000E+02  0.00000000000E+00 0. -1.
         23    2    1    2    0    0  0.00000000000E+00  0.00000000000E+00  0.00000000000E+00  0.80000000000E+02  0.80000000000E+02 0.  0.
          5    1    3    3  501    0 -0.13700752716E+02  0.30583111276E+02 -0.21327744365E+02  0.40000000000E+02  0.47000000000E+01 0. -1.
         -5    1    3    3    0  501  0.13700752716E+02 -0.30583111276E+02  0.21327744365E+02  0.40000000000E+02  0.47000000000E+01 0.  1.
</event>
<event>
 5    1  0.4761089E-001  0.8000000E+02  0.7546771E-02  0.1203772E+00
         11   -1    0    0    0    0  0.00000000000E+00  0.00000000000E+00  0.40000000000E+02  0.40000000000E+02  0.00000000000E+00 0. -1.
        -11   -1    0    0    0    0 -0.00000000000E+00 -0.00000000000E+00 -0.40000000000E+02  0.40000000000E+02  0.00000000000E+00 0.  1.
         23    2    1    2    0    0  0.00000000000E+00  0.00000000000E+00  0.00000000000E+00  0.80000000000E+02  0.80000000000E+02 0.  0.
          5    1    3    3  501    0 -0.88588519130E+01 -0.38705716977E+02  0.11393928715E+01  0.40000000000E+02  0.47000000000E+01 0. -1.
         -5    1    3    3    0  501  0.88588519130E+01  0.38705716977E+02 -0.11393928715E+01  0.40000000000E+02  0.47000000000E+01 0.  1.
</event>
<event>
 5    1  0.4761089E-001  0.8000000E+02  0.7546771E-02  0.1203772E+00
         11   -1    0    0    0    0  0.00000000000E+00  0.00000000000E+00  0.40000000000E+02  0.40000000000E+02  0.00000000000E+00 0. -1.
        -11   -1    0    0    0    0 -0.00000000000E+00 -0.00000000000E+00 -0.40000000000E+02  0.40000000000E+02  0.00000000000E+00 0.  1.
         23    2    1    2    0    0  0.00000000000E+00  0.00000000000E+00  0.00000000000E+00  0.80000000000E+02  0.80000000000E+02 0.  0.
          5    1    3    3  501    0  0.23065941597E+02 -0.20258643004E+02  0.25208326440E+02  0.40000000000E+02  0.47000000000E+01 0. -1.
         -5    1    3    3    0  501 -0.23065941597E+02  0.20258643004E+02 -0.25208326440E+02  0.40000000000E+02  0.47000000000E+01 0.  1.
</event>
<event>
 5    1  0.4761089E-001  0.8000000E+02  0.7546771E-02  0.1203772E+00
         11   -1    0    0    0    0  0.00000000000E+00  0.00000000000E+00  0.40000000000E+02  0.40000000000E+02  0.00000000000E+00 0. -1.
        -11   -1    0    0    0    0 -0.00000000000E+00 -0.00000000000E+00 -0.40000000000E+02  0.40000000000E+02  0.00000000000E+00 0.  1.
         23    2    1    2    0    0  0.00000000000E+00  0.00000000000E+00  0.00000000000E+00  0.80000000000E+02  0.80000000000E+02 0.  0.
          5    1    3    3  501    0  0.33713755568E+02 -0.12802490961E+02  0.16654996568E+02  0.40000000000E+02  0.47000000000E+01 0. -1.
         -5    1    3    3    0  501 -0.33713755568E+02  0.12802490961E+02 -0.16654996568E+02  0.40000000000E+02  0.47000000000E+01 0.  1.
</event>
<event>
 5    1  0.4761089E-001  0.8000000E+02  0.7546771E-02  0.1203772E+00
         11   -1    0    0    0    0  0.00000000000E+00  0.00000000000E+00  0.40000000000E+02  0.40000000000E+02  0.00000000000E+00 0. -1.
        -11   -1    0    0    0    0 -0.00000000000E+00 -0.00000000000E+00 -0.40000000000E+02  0.40000000000E+02  0.00000000000E+00 0.  1.
         23    2    1    2    0    0  0.00000000000E+00  0.00000000000E+00  0.00000000000E+00  0.80000000000E+02  0.80000000000E+02 0.  0.
          5    1    3    3  501    0 -0.39757263533E+01 -0.28235527233E+01  0.39422470115E+02  0.40000000000E+02  0.47000000000E+01 0. -1.
         -5    1    3    3    0  501  0.39757263533E+01  0.28235527233E+01 -0.39422470115E+02  0.40000000000E+02  0.47000000000E+01 0.  1.
</event>
<event>
 5    1  0.4761089E-001  0.8000000E+02  0.7546771E-02  0.1203772E+00
         11   -1    0    0    0    0  0.00000000000E+00  0.00000000000E+00  0.40000000000E+02  0.40000000000E+02  0.00000000000E+00 0.  1.
        -11   -1    0    0    0    0 -0.00000000000E+00 -0.00000000000E+00 -0.40000000000E+02  0.40000000000E+02  0.00000000000E+00 0. -1.
         23    2    1    2    0    0  0.00000000000E+00  0.00000000000E+00  0.00000000000E+00  0.80000000000E+02  0.80000000000E+02 0.  0.
          5    1    3    3  501    0  0.25865589552E+02 -0.21375157924E+02 -0.21259913002E+02  0.40000000000E+02  0.47000000000E+01 0. -1.
         -5    1    3    3    0  501 -0.25865589552E+02  0.21375157924E+02  0.21259913002E+02  0.40000000000E+02  0.47000000000E+01 0.  1.
</event>
<event>
 5    1  0.4761089E-001  0.8000000E+02  0.7546771E-02  0.1203772E+00
         11   -1    0    0    0    0  0.00000000000E+00  0.00000000000E+00  0.40000000000E+02  0.40000000000E+02  0.00000000000E+00 0.  1.
        -11   -1    0    0    0    0 -0.00000000000E+00 -0.00000000000E+00 -0.40000000000E+02  0.40000000000E+02  0.00000000000E+00 0. -1.
         23    2    1    2    0    0  0.00000000000E+00  0.00000000000E+00  0.00000000000E+00  0.80000000000E+02  0.80000000000E+02 0.  0.
          5    1    3    3  501    0 -0.31058001176E+02  0.21235394307E+02 -0.12742393479E+02  0.40000000000E+02  0.47000000000E+01 0. -1.
         -5    1    3    3    0  501  0.31058001176E+02 -0.21235394307E+02  0.12742393479E+02  0.40000000000E+02  0.47000000000E+01 0.  1.
</event>
<event>
 5    1  0.4761089E-001  0.8000000E+02  0.7546771E-02  0.1203772E+00
         11   -1    0    0    0    0  0.00000000000E+00  0.00000000000E+00  0.40000000000E+02  0.40000000000E+02  0.00000000000E+00 0. -1.
        -11   -1    0    0    0    0 -0.00000000000E+00 -0.00000000000E+00 -0.40000000000E+02  0.40000000000E+02  0.00000000000E+00 0.  1.
         23    2    1    2    0    0  0.00000000000E+00  0.00000000000E+00  0.00000000000E+00  0.80000000000E+02  0.80000000000E+02 0.  0.
          5    1    3    3  501    0  0.27248420279E+01  0.28044114096E+01  0.39529995100E+02  0.40000000000E+02  0.47000000000E+01 0. -1.
         -5    1    3    3    0  501 -0.27248420279E+01 -0.28044114096E+01 -0.39529995100E+02  0.40000000000E+02  0.47000000000E+01 0.  1.
</event>
<event>
 5    1  0.4761089E-001  0.8000000E+02  0.7546771E-02  0.1203772E+00
         11   -1    0    0    0    0  0.00000000000E+00  0.00000000000E+00  0.40000000000E+02  0.40000000000E+02  0.00000000000E+00 0.  1.
        -11   -1    0    0    0    0 -0.00000000000E+00 -0.00000000000E+00 -0.40000000000E+02  0.40000000000E+02  0.00000000000E+00 0. -1.
         23    2    1    2    0    0  0.00000000000E+00  0.00000000000E+00  0.00000000000E+00  0.80000000000E+02  0.80000000000E+02 0.  0.
          5    1    3    3  501    0 -0.13371794632E+01 -0.37718402270E+02 -0.12387254793E+02  0.40000000000E+02  0.47000000000E+01 0. -1.
         -5    1    3    3    0  501  0.13371794632E+01  0.37718402270E+02  0.12387254793E+02  0.40000000000E+02  0.47000000000E+01 0.  1.
</event>
<event>
 5    1  0.4761089E-001  0.8000000E+02  0.7546771E-02  0.1203772E+00
         11   -1    0    0    0    0  0.00000000000E+00  0.00000000000E+00  0.40000000000E+02  0.40000000000E+02  0.00000000000E+00 0.  1.
        -11   -1    0    0    0    0 -0.00000000000E+00 -0.00000000000E+00 -0.40000000000E+02  0.40000000000E+02  0.00000000000E+00 0. -1.
         23    2    1    2    0    0  0.00000000000E+00  0.00000000000E+00  0.00000000000E+00  0.80000000000E+02  0.80000000000E+02 0.  0.
          5    1    3    3  501    0  0.11079316276E+02  0.90070338248E+01 -0.37067938876E+02  0.40000000000E+02  0.47000000000E+01 0. -1.
         -5    1    3    3    0  501 -0.11079316276E+02 -0.90070338248E+01  0.37067938876E+02  0.40000000000E+02  0.47000000000E+01 0.  1.
</event>
<event>
 5    1  0.4761089E-001  0.8000000E+02  0.7546771E-02  0.1203772E+00
         11   -1    0    0    0    0  0.00000000000E+00  0.00000000000E+00  0.40000000000E+02  0.40000000000E+02  0.00000000000E+00 0.  1.
        -11   -1    0    0    0    0 -0.00000000000E+00 -0.00000000000E+00 -0.40000000000E+02  0.40000000000E+02  0.00000000000E+00 0. -1.
         23    2    1    2    0    0  0.00000000000E+00  0.00000000000E+00  0.00000000000E+00  0.80000000000E+02  0.80000000000E+02 0.  0.
          5    1    3    3  501    0  0.10522582039E+02  0.16038729411E+02 -0.34784255434E+02  0.40000000000E+02  0.47000000000E+01 0. -1.
         -5    1    3    3    0  501 -0.10522582039E+02 -0.16038729411E+02  0.34784255434E+02  0.40000000000E+02  0.47000000000E+01 0.  1.
</event>
<event>
 5    1  0.4761089E-001  0.8000000E+02  0.7546771E-02  0.1203772E+00
         11   -1    0    0    0    0  0.00000000000E+00  0.00000000000E+00  0.40000000000E+02  0.40000000000E+02  0.00000000000E+00 0. -1.
        -11   -1    0    0    0    0 -0.00000000000E+00 -0.00000000000E+00 -0.40000000000E+02  0.40000000000E+02  0.00000000000E+00 0.  1.
         23    2    1    2    0    0  0.00000000000E+00  0.00000000000E+00  0.00000000000E+00  0.80000000000E+02  0.80000000000E+02 0.  0.
          5    1    3    3  501    0 -0.81017569748E+01 -0.38876492647E+02 -0.94332041123E+00  0.40000000000E+02  0.47000000000E+01 0. -1.
         -5    1    3    3    0  501  0.81017569748E+01  0.38876492647E+02  0.94332041123E+00  0.40000000000E+02  0.47000000000E+01 0.  1.
</event>
<event>
 5    1  0.4761089E-001  0.8000000E+02  0.7546771E-02  0.1203772E+00
         11   -1    0    0    0    0  0.00000000000E+00  0.00000000000E+00  0.40000000000E+02  0.40000000000E+02  0.00000000000E+00 0.  1.
        -11   -1    0    0    0    0 -0.00000000000E+00 -0.00000000000E+00 -0.40000000000E+02  0.40000000000E+02  0.00000000000E+00 0. -1.
         23    2    1    2    0    0  0.00000000000E+00  0.00000000000E+00  0.00000000000E+00  0.80000000000E+02  0.80000000000E+02 0.  0.
          5    1    3    3  501    0 -0.27786675466E+02  0.96176358286E+01 -0.26707896728E+02  0.40000000000E+02  0.47000000000E+01 0. -1.
         -5    1    3    3    0  501  0.27786675466E+02 -0.96176358286E+01  0.26707896728E+02  0.40000000000E+02  0.47000000000E+01 0.  1.
</event>
<event>
 5    1  0.4761089E-001  0.8000000E+02  0.7546771E-02  0.1203772E+00
         11   -1    0    0    0    0  0.00000000000E+00  0.00000000000E+00  0.40000000000E+02  0.40000000000E+02  0.00000000000E+00 0. -1.
        -11   -1    0    0    0    0 -0.00000000000E+00 -0.00000000000E+00 -0.40000000000E+02  0.40000000000E+02  0.00000000000E+00 0.  1.
         23    2    1    2    0    0  0.00000000000E+00  0.00000000000E+00  0.00000000000E+00  0.80000000000E+02  0.80000000000E+02 0.  0.
          5    1    3    3  501    0 -0.14169721221E+02 -0.76737686807E+01  0.36307606293E+02  0.40000000000E+02  0.47000000000E+01 0. -1.
         -5    1    3    3    0  501  0.14169721221E+02  0.76737686807E+01 -0.36307606293E+02  0.40000000000E+02  0.47000000000E+01 0.  1.
</event>
<event>
 5    1  0.4761089E-001  0.8000000E+02  0.7546771E-02  0.1203772E+00
         11   -1    0    0    0    0  0.00000000000E+00  0.00000000000E+00  0.40000000000E+02  0.40000000000E+02  0.00000000000E+00 0.  1.
        -11   -1    0    0    0    0 -0.00000000000E+00 -0.00000000000E+00 -0.40000000000E+02  0.40000000000E+02  0.00000000000E+00 0. -1.
         23    2    1    2    0    0  0.00000000000E+00  0.00000000000E+00  0.00000000000E+00  0.80000000000E+02  0.80000000000E+02 0.  0.
          5    1    3    3  501    0 -0.32579817560E+02 -0.18646292115E+02 -0.12991584896E+02  0.40000000000E+02  0.47000000000E+01 0. -1.
         -5    1    3    3    0  501  0.32579817560E+02  0.18646292115E+02  0.12991584896E+02  0.40000000000E+02  0.47000000000E+01 0.  1.
</event>
<event>
 5    1  0.4761089E-001  0.8000000E+02  0.7546771E-02  0.1203772E+00
         11   -1    0    0    0    0  0.00000000000E+00  0.00000000000E+00  0.40000000000E+02  0.40000000000E+02  0.00000000000E+00 0. -1.
        -11   -1    0    0    0    0 -0.00000000000E+00 -0.00000000000E+00 -0.40000000000E+02  0.40000000000E+02  0.00000000000E+00 0.  1.
         23    2    1    2    0    0  0.00000000000E+00  0.00000000000E+00  0.00000000000E+00  0.80000000000E+02  0.80000000000E+02 0.  0.
          5    1    3    3  501    0  0.21892269314E+02  0.25667779066E+02  0.20971496420E+02  0.40000000000E+02  0.47000000000E+01 0. -1.
         -5    1    3    3    0  501 -0.21892269314E+02 -0.25667779066E+02 -0.20971496420E+02  0.40000000000E+02  0.47000000000E+01 0.  1.
</event>
<event>
 5    1  0.4761089E-001  0.8000000E+02  0.7546771E-02  0.1203772E+00
         11   -1    0    0    0    0  0.00000000000E+00  0.00000000000E+00  0.40000000000E+02  0.40000000000E+02  0.00000000000E+00 0. -1.
        -11   -1    0    0    0    0 -0.00000000000E+00 -0.00000000000E+00 -0.40000000000E+02  0.40000000000E+02  0.00000000000E+00 0.  1.
         23    2    1    2    0    0  0.00000000000E+00  0.00000000000E+00  0.00000000000E+00  0.80000000000E+02  0.80000000000E+02 0.  0.
          5    1    3    3  501    0 -0.15160758149E+02  0.23165951020E+02  0.28485086022E+02  0.40000000000E+02  0.47000000000E+01 0. -1.
         -5    1    3    3    0  501  0.15160758149E+02 -0.23165951020E+02 -0.28485086022E+02  0.40000000000E+02  0.47000000000E+01 0.  1.
</event>
<event>
 5    1  0.4761089E-001  0.8000000E+02  0.7546771E-02  0.1203772E+00
         11   -1    0    0    0    0  0.00000000000E+00  0.00000000000E+00  0.40000000000E+02  0.40000000000E+02  0.00000000000E+00 0. -1.
        -11   -1    0    0    0    0 -0.00000000000E+00 -0.00000000000E+00 -0.40000000000E+02  0.40000000000E+02  0.00000000000E+00 0.  1.
         23    2    1    2    0    0  0.00000000000E+00  0.00000000000E+00  0.00000000000E+00  0.80000000000E+02  0.80000000000E+02 0.  0.
          5    1    3    3  501    0  0.15614071331E+02 -0.30993092212E+02  0.19327157360E+02  0.40000000000E+02  0.47000000000E+01 0. -1.
         -5    1    3    3    0  501 -0.15614071331E+02  0.30993092212E+02 -0.19327157360E+02  0.40000000000E+02  0.47000000000E+01 0.  1.
</event>
<event>
 5    1  0.4761089E-001  0.8000000E+02  0.7546771E-02  0.1203772E+00
         11   -1    0    0    0    0  0.00000000000E+00  0.00000000000E+00  0.40000000000E+02  0.40000000000E+02  0.00000000000E+00 0. -1.
        -11   -1    0    0    0    0 -0.00000000000E+00 -0.00000000000E+00 -0.40000000000E+02  0.40000000000E+02  0.00000000000E+00 0.  1.
         23    2    1    2    0    0  0.00000000000E+00  0.00000000000E+00  0.00000000000E+00  0.80000000000E+02  0.80000000000E+02 0.  0.
          5    1    3    3  501    0  0.19612052831E+01  0.15069726180E+02 -0.36701049395E+02  0.40000000000E+02  0.47000000000E+01 0.  1.
         -5    1    3    3    0  501 -0.19612052831E+01 -0.15069726180E+02  0.36701049395E+02  0.40000000000E+02  0.47000000000E+01 0. -1.
</event>
<event>
 5    1  0.4761089E-001  0.8000000E+02  0.7546771E-02  0.1203772E+00
         11   -1    0    0    0    0  0.00000000000E+00  0.00000000000E+00  0.40000000000E+02  0.40000000000E+02  0.00000000000E+00 0.  1.
        -11   -1    0    0    0    0 -0.00000000000E+00 -0.00000000000E+00 -0.40000000000E+02  0.40000000000E+02  0.00000000000E+00 0. -1.
         23    2    1    2    0    0  0.00000000000E+00  0.00000000000E+00  0.00000000000E+00  0.80000000000E+02  0.80000000000E+02 0.  0.
          5    1    3    3  501    0  0.27062575200E+02  0.18736674348E+02 -0.22236547797E+02  0.40000000000E+02  0.47000000000E+01 0. -1.
         -5    1    3    3    0  501 -0.27062575200E+02 -0.18736674348E+02  0.22236547797E+02  0.40000000000E+02  0.47000000000E+01 0.  1.
</event>
<event>
 5    1  0.4761089E-001  0.8000000E+02  0.7546771E-02  0.1203772E+00
         11   -1    0    0    0    0  0.00000000000E+00  0.00000000000E+00  0.40000000000E+02  0.40000000000E+02  0.00000000000E+00 0. -1.
        -11   -1    0    0    0    0 -0.00000000000E+00 -0.00000000000E+00 -0.40000000000E+02  0.40000000000E+02  0.00000000000E+00 0.  1.
         23    2    1    2    0    0  0.00000000000E+00  0.00000000000E+00  0.00000000000E+00  0.80000000000E+02  0.80000000000E+02 0.  0.
          5    1    3    3  501    0 -0.24195865672E+02  0.17828615478E+02  0.25973266150E+02  0.40000000000E+02  0.47000000000E+01 0. -1.
         -5    1    3    3    0  501  0.24195865672E+02 -0.17828615478E+02 -0.25973266150E+02  0.40000000000E+02  0.47000000000E+01 0.  1.
</event>
<event>
 5    1  0.4761089E-001  0.8000000E+02  0.7546771E-02  0.1203772E+00
         11   -1    0    0    0    0  0.00000000000E+00  0.00000000000E+00  0.40000000000E+02  0.40000000000E+02  0.00000000000E+00 0. -1.
        -11   -1    0    0    0    0 -0.00000000000E+00 -0.00000000000E+00 -0.40000000000E+02  0.40000000000E+02  0.00000000000E+00 0.  1.
         23    2    1    2    0    0  0.00000000000E+00  0.00000000000E+00  0.00000000000E+00  0.80000000000E+02  0.80000000000E+02 0.  0.
          5    1    3    3  501    0 -0.28080026713E+02  0.26227987350E+02  0.10075454301E+02  0.40000000000E+02  0.47000000000E+01 0. -1.
         -5    1    3    3    0  501  0.28080026713E+02 -0.26227987350E+02 -0.10075454301E+02  0.40000000000E+02  0.47000000000E+01 0.  1.
</event>
<event>
 5    1  0.4761089E-001  0.8000000E+02  0.7546771E-02  0.1203772E+00
         11   -1    0    0    0    0  0.00000000000E+00  0.00000000000E+00  0.40000000000E+02  0.40000000000E+02  0.00000000000E+00 0.  1.
        -11   -1    0    0    0    0 -0.00000000000E+00 -0.00000000000E+00 -0.40000000000E+02  0.40000000000E+02  0.00000000000E+00 0. -1.
         23    2    1    2    0    0  0.00000000000E+00  0.00000000000E+00  0.00000000000E+00  0.80000000000E+02  0.80000000000E+02 0.  0.
          5    1    3    3  501    0  0.61802500375E+01  0.63102984858E+01 -0.38728473279E+02  0.40000000000E+02  0.47000000000E+01 0. -1.
         -5    1    3    3    0  501 -0.61802500375E+01 -0.63102984858E+01  0.38728473279E+02  0.40000000000E+02  0.47000000000E+01 0.  1.
</event>
<event>
 5    1  0.4761089E-001  0.8000000E+02  0.7546771E-02  0.1203772E+00
         11   -1    0    0    0    0  0.00000000000E+00  0.00000000000E+00  0.40000000000E+02  0.40000000000E+02  0.00000000000E+00 0. -1.
        -11   -1    0    0    0    0 -0.00000000000E+00 -0.00000000000E+00 -0.40000000000E+02  0.40000000000E+02  0.00000000000E+00 0.  1.
         23    2    1    2    0    0  0.00000000000E+00  0.00000000000E+00  0.00000000000E+00  0.80000000000E+02  0.80000000000E+02 0.  0.
          5    1    3    3  501    0 -0.91119315863E+01  0.27481155334E+02  0.27196852838E+02  0.40000000000E+02  0.47000000000E+01 0. -1.
         -5    1    3    3    0  501  0.91119315863E+01 -0.27481155334E+02 -0.27196852838E+02  0.40000000000E+02  0.47000000000E+01 0.  1.
</event>
<event>
 5    1  0.4761089E-001  0.8000000E+02  0.7546771E-02  0.1203772E+00
         11   -1    0    0    0    0  0.00000000000E+00  0.00000000000E+00  0.40000000000E+02  0.40000000000E+02  0.00000000000E+00 0.  1.
        -11   -1    0    0    0    0 -0.00000000000E+00 -0.00000000000E+00 -0.40000000000E+02  0.40000000000E+02  0.00000000000E+00 0. -1.
         23    2    1    2    0    0  0.00000000000E+00  0.00000000000E+00  0.00000000000E+00  0.80000000000E+02  0.80000000000E+02 0.  0.
          5    1    3    3  501    0 -0.29443217217E+01 -0.41880577392E+00 -0.39611432331E+02  0.40000000000E+02  0.47000000000E+01 0. -1.
         -5    1    3    3    0  501  0.29443217217E+01  0.41880577392E+00  0.39611432331E+02  0.40000000000E+02  0.47000000000E+01 0.  1.
</event>
<event>
 5    1  0.4761089E-001  0.8000000E+02  0.7546771E-02  0.1203772E+00
         11   -1    0    0    0    0  0.00000000000E+00  0.00000000000E+00  0.40000000000E+02  0.40000000000E+02  0.00000000000E+00 0. -1.
        -11   -1    0    0    0    0 -0.00000000000E+00 -0.00000000000E+00 -0.40000000000E+02  0.40000000000E+02  0.00000000000E+00 0.  1.
         23    2    1    2    0    0  0.00000000000E+00  0.00000000000E+00  0.00000000000E+00  0.80000000000E+02  0.80000000000E+02 0.  0.
          5    1    3    3  501    0 -0.15039748515E+02  0.32645579183E+02  0.16911006015E+02  0.40000000000E+02  0.47000000000E+01 0.  1.
         -5    1    3    3    0  501  0.15039748515E+02 -0.32645579183E+02 -0.16911006015E+02  0.40000000000E+02  0.47000000000E+01 0. -1.
</event>
<event>
 5    1  0.4761089E-001  0.8000000E+02  0.7546771E-02  0.1203772E+00
         11   -1    0    0    0    0  0.00000000000E+00  0.00000000000E+00  0.40000000000E+02  0.40000000000E+02  0.00000000000E+00 0.  1.
        -11   -1    0    0    0    0 -0.00000000000E+00 -0.00000000000E+00 -0.40000000000E+02  0.40000000000E+02  0.00000000000E+00 0. -1.
         23    2    1    2    0    0  0.00000000000E+00  0.00000000000E+00  0.00000000000E+00  0.80000000000E+02  0.80000000000E+02 0.  0.
          5    1    3    3  501    0  0.12725350275E+02  0.18754476812E+02 -0.32622769041E+02  0.40000000000E+02  0.47000000000E+01 0. -1.
         -5    1    3    3    0  501 -0.12725350275E+02 -0.18754476812E+02  0.32622769041E+02  0.40000000000E+02  0.47000000000E+01 0.  1.
</event>
<event>
 5    1  0.4761089E-001  0.8000000E+02  0.7546771E-02  0.1203772E+00
         11   -1    0    0    0    0  0.00000000000E+00  0.00000000000E+00  0.40000000000E+02  0.40000000000E+02  0.00000000000E+00 0. -1.
        -11   -1    0    0    0    0 -0.00000000000E+00 -0.00000000000E+00 -0.40000000000E+02  0.40000000000E+02  0.00000000000E+00 0.  1.
         23    2    1    2    0    0  0.00000000000E+00  0.00000000000E+00  0.00000000000E+00  0.80000000000E+02  0.80000000000E+02 0.  0.
          5    1    3    3  501    0  0.21173050134E+02 -0.49388630965E+01  0.33244842898E+02  0.40000000000E+02  0.47000000000E+01 0. -1.
         -5    1    3    3    0  501 -0.21173050134E+02  0.49388630965E+01 -0.33244842898E+02  0.40000000000E+02  0.47000000000E+01 0.  1.
</event>
<event>
 5    1  0.4761089E-001  0.8000000E+02  0.7546771E-02  0.1203772E+00
         11   -1    0    0    0    0  0.00000000000E+00  0.00000000000E+00  0.40000000000E+02  0.40000000000E+02  0.00000000000E+00 0. -1.
        -11   -1    0    0    0    0 -0.00000000000E+00 -0.00000000000E+00 -0.40000000000E+02  0.40000000000E+02  0.00000000000E+00 0.  1.
         23    2    1    2    0    0  0.00000000000E+00  0.00000000000E+00  0.00000000000E+00  0.80000000000E+02  0.80000000000E+02 0.  0.
          5    1    3    3  501    0 -0.78824010701E+01 -0.81919107778E+01  0.38061402381E+02  0.40000000000E+02  0.47000000000E+01 0. -1.
         -5    1    3    3    0  501  0.78824010701E+01  0.81919107778E+01 -0.38061402381E+02  0.40000000000E+02  0.47000000000E+01 0.  1.
</event>
<event>
 5    1  0.4761089E-001  0.8000000E+02  0.7546771E-02  0.1203772E+00
         11   -1    0    0    0    0  0.00000000000E+00  0.00000000000E+00  0.40000000000E+02  0.40000000000E+02  0.00000000000E+00 0. -1.
        -11   -1    0    0    0    0 -0.00000000000E+00 -0.00000000000E+00 -0.40000000000E+02  0.40000000000E+02  0.00000000000E+00 0.  1.
         23    2    1    2    0    0  0.00000000000E+00  0.00000000000E+00  0.00000000000E+00  0.80000000000E+02  0.80000000000E+02 0.  0.
          5    1    3    3  501    0 -0.70034318130E+01 -0.21532870496E+01 -0.39041328073E+02  0.40000000000E+02  0.47000000000E+01 0.  1.
         -5    1    3    3    0  501  0.70034318130E+01  0.21532870496E+01  0.39041328073E+02  0.40000000000E+02  0.47000000000E+01 0. -1.
</event>
<event>
 5    1  0.4761089E-001  0.8000000E+02  0.7546771E-02  0.1203772E+00
         11   -1    0    0    0    0  0.00000000000E+00  0.00000000000E+00  0.40000000000E+02  0.40000000000E+02  0.00000000000E+00 0. -1.
        -11   -1    0    0    0    0 -0.00000000000E+00 -0.00000000000E+00 -0.40000000000E+02  0.40000000000E+02  0.00000000000E+00 0.  1.
         23    2    1    2    0    0  0.00000000000E+00  0.00000000000E+00  0.00000000000E+00  0.80000000000E+02  0.80000000000E+02 0.  0.
          5    1    3    3  501    0  0.13732215562E+02  0.50035865333E+01  0.36936436991E+02  0.40000000000E+02  0.47000000000E+01 0. -1.
         -5    1    3    3    0  501 -0.13732215562E+02 -0.50035865333E+01 -0.36936436991E+02  0.40000000000E+02  0.47000000000E+01 0.  1.
</event>
<event>
 5    1  0.4761089E-001  0.8000000E+02  0.7546771E-02  0.1203772E+00
         11   -1    0    0    0    0  0.00000000000E+00  0.00000000000E+00  0.40000000000E+02  0.40000000000E+02  0.00000000000E+00 0.  1.
        -11   -1    0    0    0    0 -0.00000000000E+00 -0.00000000000E+00 -0.40000000000E+02  0.40000000000E+02  0.00000000000E+00 0. -1.
         23    2    1    2    0    0  0.00000000000E+00  0.00000000000E+00  0.00000000000E+00  0.80000000000E+02  0.80000000000E+02 0.  0.
          5    1    3    3  501    0  0.14140201396E+02 -0.33800423881E+02 -0.15345880554E+02  0.40000000000E+02  0.47000000000E+01 0. -1.
         -5    1    3    3    0  501 -0.14140201396E+02  0.33800423881E+02  0.15345880554E+02  0.40000000000E+02  0.47000000000E+01 0.  1.
</event>
<event>
 5    1  0.4761089E-001  0.8000000E+02  0.7546771E-02  0.1203772E+00
         11   -1    0    0    0    0  0.00000000000E+00  0.00000000000E+00  0.40000000000E+02  0.40000000000E+02  0.00000000000E+00 0.  1.
        -11   -1    0    0    0    0 -0.00000000000E+00 -0.00000000000E+00 -0.40000000000E+02  0.40000000000E+02  0.00000000000E+00 0. -1.
         23    2    1    2    0    0  0.00000000000E+00  0.00000000000E+00  0.00000000000E+00  0.80000000000E+02  0.80000000000E+02 0.  0.
          5    1    3    3  501    0 -0.26387777693E+02  0.24950548044E+02 -0.16095506850E+02  0.40000000000E+02  0.47000000000E+01 0. -1.
         -5    1    3    3    0  501  0.26387777693E+02 -0.24950548044E+02  0.16095506850E+02  0.40000000000E+02  0.47000000000E+01 0.  1.
</event>
<event>
 5    1  0.4761089E-001  0.8000000E+02  0.7546771E-02  0.1203772E+00
         11   -1    0    0    0    0  0.00000000000E+00  0.00000000000E+00  0.40000000000E+02  0.40000000000E+02  0.00000000000E+00 0.  1.
        -11   -1    0    0    0    0 -0.00000000000E+00 -0.00000000000E+00 -0.40000000000E+02  0.40000000000E+02  0.00000000000E+00 0. -1.
         23    2    1    2    0    0  0.00000000000E+00  0.00000000000E+00  0.00000000000E+00  0.80000000000E+02  0.80000000000E+02 0.  0.
          5    1    3    3  501    0  0.15714701430E+02 -0.36453698151E+02 -0.14443164657E+01  0.40000000000E+02  0.47000000000E+01 0. -1.
         -5    1    3    3    0  501 -0.15714701430E+02  0.36453698151E+02  0.14443164657E+01  0.40000000000E+02  0.47000000000E+01 0.  1.
</event>
<event>
 5    1  0.4761089E-001  0.8000000E+02  0.7546771E-02  0.1203772E+00
         11   -1    0    0    0    0  0.00000000000E+00  0.00000000000E+00  0.40000000000E+02  0.40000000000E+02  0.00000000000E+00 0. -1.
        -11   -1    0    0    0    0 -0.00000000000E+00 -0.00000000000E+00 -0.40000000000E+02  0.40000000000E+02  0.00000000000E+00 0.  1.
         23    2    1    2    0    0  0.00000000000E+00  0.00000000000E+00  0.00000000000E+00  0.80000000000E+02  0.80000000000E+02 0.  0.
          5    1    3    3  501    0 -0.23092045008E+02 -0.12188086969E+02  0.29935229971E+02  0.40000000000E+02  0.47000000000E+01 0. -1.
         -5    1    3    3    0  501  0.23092045008E+02  0.12188086969E+02 -0.29935229971E+02  0.40000000000E+02  0.47000000000E+01 0.  1.
</event>
<event>
 5    1  0.4761089E-001  0.8000000E+02  0.7546771E-02  0.1203772E+00
         11   -1    0    0    0    0  0.00000000000E+00  0.00000000000E+00  0.40000000000E+02  0.40000000000E+02  0.00000000000E+00 0. -1.
        -11   -1    0    0    0    0 -0.00000000000E+00 -0.00000000000E+00 -0.40000000000E+02  0.40000000000E+02  0.00000000000E+00 0.  1.
         23    2    1    2    0    0  0.00000000000E+00  0.00000000000E+00  0.00000000000E+00  0.80000000000E+02  0.80000000000E+02 0.  0.
          5    1    3    3  501    0  0.96694274015E+01 -0.13946129910E+02  0.35915423348E+02  0.40000000000E+02  0.47000000000E+01 0. -1.
         -5    1    3    3    0  501 -0.96694274015E+01  0.13946129910E+02 -0.35915423348E+02  0.40000000000E+02  0.47000000000E+01 0.  1.
</event>
<event>
 5    1  0.4761089E-001  0.8000000E+02  0.7546771E-02  0.1203772E+00
         11   -1    0    0    0    0  0.00000000000E+00  0.00000000000E+00  0.40000000000E+02  0.40000000000E+02  0.00000000000E+00 0. -1.
        -11   -1    0    0    0    0 -0.00000000000E+00 -0.00000000000E+00 -0.40000000000E+02  0.40000000000E+02  0.00000000000E+00 0.  1.
         23    2    1    2    0    0  0.00000000000E+00  0.00000000000E+00  0.00000000000E+00  0.80000000000E+02  0.80000000000E+02 0.  0.
          5    1    3    3  501    0  0.90730322344E+01 -0.18234504334E+02 -0.34104148395E+02  0.40000000000E+02  0.47000000000E+01 0.  1.
         -5    1    3    3    0  501 -0.90730322344E+01  0.18234504334E+02  0.34104148395E+02  0.40000000000E+02  0.47000000000E+01 0. -1.
</event>
<event>
 5    1  0.4761089E-001  0.8000000E+02  0.7546771E-02  0.1203772E+00
         11   -1    0    0    0    0  0.00000000000E+00  0.00000000000E+00  0.40000000000E+02  0.40000000000E+02  0.00000000000E+00 0.  1.
        -11   -1    0    0    0    0 -0.00000000000E+00 -0.00000000000E+00 -0.40000000000E+02  0.40000000000E+02  0.00000000000E+00 0. -1.
         23    2    1    2    0    0  0.00000000000E+00  0.00000000000E+00  0.00000000000E+00  0.80000000000E+02  0.80000000000E+02 0.  0.
          5    1    3    3  501    0  0.31155268085E+02 -0.53939579845E+01 -0.24045051213E+02  0.40000000000E+02  0.47000000000E+01 0. -1.
         -5    1    3    3    0  501 -0.31155268085E+02  0.53939579845E+01  0.24045051213E+02  0.40000000000E+02  0.47000000000E+01 0.  1.
</event>
<event>
 5    1  0.4761089E-001  0.8000000E+02  0.7546771E-02  0.1203772E+00
         11   -1    0    0    0    0  0.00000000000E+00  0.00000000000E+00  0.40000000000E+02  0.40000000000E+02  0.00000000000E+00 0. -1.
        -11   -1    0    0    0    0 -0.00000000000E+00 -0.00000000000E+00 -0.40000000000E+02  0.40000000000E+02  0.00000000000E+00 0.  1.
         23    2    1    2    0    0  0.00000000000E+00  0.00000000000E+00  0.00000000000E+00  0.80000000000E+02  0.80000000000E+02 0.  0.
          5    1    3    3  501    0  0.12518144606E+02  0.22342150339E+02  0.30365018917E+02  0.40000000000E+02  0.47000000000E+01 0. -1.
         -5    1    3    3    0  501 -0.12518144606E+02 -0.22342150339E+02 -0.30365018917E+02  0.40000000000E+02  0.47000000000E+01 0.  1.
</event>
<event>
 5    1  0.4761089E-001  0.8000000E+02  0.7546771E-02  0.1203772E+00
         11   -1    0    0    0    0  0.00000000000E+00  0.00000000000E+00  0.40000000000E+02  0.40000000000E+02  0.00000000000E+00 0.  1.
        -11   -1    0    0    0    0 -0.00000000000E+00 -0.00000000000E+00 -0.40000000000E+02  0.40000000000E+02  0.00000000000E+00 0. -1.
         23    2    1    2    0    0  0.00000000000E+00  0.00000000000E+00  0.00000000000E+00  0.80000000000E+02  0.80000000000E+02 0.  0.
          5    1    3    3  501    0  0.28731381622E+02 -0.17321035521E+01 -0.27375491363E+02  0.40000000000E+02  0.47000000000E+01 0. -1.
         -5    1    3    3    0  501 -0.28731381622E+02  0.17321035521E+01  0.27375491363E+02  0.40000000000E+02  0.47000000000E+01 0.  1.
</event>
<event>
 5    1  0.4761089E-001  0.8000000E+02  0.7546771E-02  0.1203772E+00
         11   -1    0    0    0    0  0.00000000000E+00  0.00000000000E+00  0.40000000000E+02  0.40000000000E+02  0.00000000000E+00 0. -1.
        -11   -1    0    0    0    0 -0.00000000000E+00 -0.00000000000E+00 -0.40000000000E+02  0.40000000000E+02  0.00000000000E+00 0.  1.
         23    2    1    2    0    0  0.00000000000E+00  0.00000000000E+00  0.00000000000E+00  0.80000000000E+02  0.80000000000E+02 0.  0.
          5    1    3    3  501    0 -0.38560368224E+02  0.71261851012E+01  0.63423566881E+01  0.40000000000E+02  0.47000000000E+01 0. -1.
         -5    1    3    3    0  501  0.38560368224E+02 -0.71261851012E+01 -0.63423566881E+01  0.40000000000E+02  0.47000000000E+01 0.  1.
</event>
<event>
 5    1  0.4761089E-001  0.8000000E+02  0.7546771E-02  0.1203772E+00
         11   -1    0    0    0    0  0.00000000000E+00  0.00000000000E+00  0.40000000000E+02  0.40000000000E+02  0.00000000000E+00 0.  1.
        -11   -1    0    0    0    0 -0.00000000000E+00 -0.00000000000E+00 -0.40000000000E+02  0.40000000000E+02  0.00000000000E+00 0. -1.
         23    2    1    2    0    0  0.00000000000E+00  0.00000000000E+00  0.00000000000E+00  0.80000000000E+02  0.80000000000E+02 0.  0.
          5    1    3    3  501    0 -0.21055427421E+02 -0.33223061758E+02 -0.55504183195E+01  0.40000000000E+02  0.47000000000E+01 0. -1.
         -5    1    3    3    0  501  0.21055427421E+02  0.33223061758E+02  0.55504183195E+01  0.40000000000E+02  0.47000000000E+01 0.  1.
</event>
<event>
 5    1  0.4761089E-001  0.8000000E+02  0.7546771E-02  0.1203772E+00
         11   -1    0    0    0    0  0.00000000000E+00  0.00000000000E+00  0.40000000000E+02  0.40000000000E+02  0.00000000000E+00 0.  1.
        -11   -1    0    0    0    0 -0.00000000000E+00 -0.00000000000E+00 -0.40000000000E+02  0.40000000000E+02  0.00000000000E+00 0. -1.
         23    2    1    2    0    0  0.00000000000E+00  0.00000000000E+00  0.00000000000E+00  0.80000000000E+02  0.80000000000E+02 0.  0.
          5    1    3    3  501    0 -0.34463306638E+02 -0.13419775415E+02  0.14494830919E+02  0.40000000000E+02  0.47000000000E+01 0. -1.
         -5    1    3    3    0  501  0.34463306638E+02  0.13419775415E+02 -0.14494830919E+02  0.40000000000E+02  0.47000000000E+01 0.  1.
</event>
<event>
 5    1  0.4761089E-001  0.8000000E+02  0.7546771E-02  0.1203772E+00
         11   -1    0    0    0    0  0.00000000000E+00  0.00000000000E+00  0.40000000000E+02  0.40000000000E+02  0.00000000000E+00 0.  1.
        -11   -1    0    0    0    0 -0.00000000000E+00 -0.00000000000E+00 -0.40000000000E+02  0.40000000000E+02  0.00000000000E+00 0. -1.
         23    2    1    2    0    0  0.00000000000E+00  0.00000000000E+00  0.00000000000E+00  0.80000000000E+02  0.80000000000E+02 0.  0.
          5    1    3    3  501    0  0.70164682125E+01  0.23758932332E+02 -0.31051446154E+02  0.40000000000E+02  0.47000000000E+01 0. -1.
         -5    1    3    3    0  501 -0.70164682125E+01 -0.23758932332E+02  0.31051446154E+02  0.40000000000E+02  0.47000000000E+01 0.  1.
</event>
<event>
 5    1  0.4761089E-001  0.8000000E+02  0.7546771E-02  0.1203772E+00
         11   -1    0    0    0    0  0.00000000000E+00  0.00000000000E+00  0.40000000000E+02  0.40000000000E+02  0.00000000000E+00 0.  1.
        -11   -1    0    0    0    0 -0.00000000000E+00 -0.00000000000E+00 -0.40000000000E+02  0.40000000000E+02  0.00000000000E+00 0. -1.
         23    2    1    2    0    0  0.00000000000E+00  0.00000000000E+00  0.00000000000E+00  0.80000000000E+02  0.80000000000E+02 0.  0.
          5    1    3    3  501    0  0.34094816727E+02 -0.10541680264E+02 -0.17444954846E+02  0.40000000000E+02  0.47000000000E+01 0. -1.
         -5    1    3    3    0  501 -0.34094816727E+02  0.10541680264E+02  0.17444954846E+02  0.40000000000E+02  0.47000000000E+01 0.  1.
</event>
<event>
 5    1  0.4761089E-001  0.8000000E+02  0.7546771E-02  0.1203772E+00
         11   -1    0    0    0    0  0.00000000000E+00  0.00000000000E+00  0.40000000000E+02  0.40000000000E+02  0.00000000000E+00 0. -1.
        -11   -1    0    0    0    0 -0.00000000000E+00 -0.00000000000E+00 -0.40000000000E+02  0.40000000000E+02  0.00000000000E+00 0.  1.
         23    2    1    2    0    0  0.00000000000E+00  0.00000000000E+00  0.00000000000E+00  0.80000000000E+02  0.80000000000E+02 0.  0.
          5    1    3    3  501    0  0.22068397690E+02 -0.32380042214E+02 -0.65137308526E+01  0.40000000000E+02  0.47000000000E+01 0. -1.
         -5    1    3    3    0  501 -0.22068397690E+02  0.32380042214E+02  0.65137308526E+01  0.40000000000E+02  0.47000000000E+01 0.  1.
</event>
<event>
 5    1  0.4761089E-001  0.8000000E+02  0.7546771E-02  0.1203772E+00
         11   -1    0    0    0    0  0.00000000000E+00  0.00000000000E+00  0.40000000000E+02  0.40000000000E+02  0.00000000000E+00 0. -1.
        -11   -1    0    0    0    0 -0.00000000000E+00 -0.00000000000E+00 -0.40000000000E+02  0.40000000000E+02  0.00000000000E+00 0.  1.
         23    2    1    2    0    0  0.00000000000E+00  0.00000000000E+00  0.00000000000E+00  0.80000000000E+02  0.80000000000E+02 0.  0.
          5    1    3    3  501    0 -0.20487994185E+02 -0.33561999795E+02 -0.56342048230E+01  0.40000000000E+02  0.47000000000E+01 0. -1.
         -5    1    3    3    0  501  0.20487994185E+02  0.33561999795E+02  0.56342048230E+01  0.40000000000E+02  0.47000000000E+01 0.  1.
</event>
<event>
 5    1  0.4761089E-001  0.8000000E+02  0.7546771E-02  0.1203772E+00
         11   -1    0    0    0    0  0.00000000000E+00  0.00000000000E+00  0.40000000000E+02  0.40000000000E+02  0.00000000000E+00 0. -1.
        -11   -1    0    0    0    0 -0.00000000000E+00 -0.00000000000E+00 -0.40000000000E+02  0.40000000000E+02  0.00000000000E+00 0.  1.
         23    2    1    2    0    0  0.00000000000E+00  0.00000000000E+00  0.00000000000E+00  0.80000000000E+02  0.80000000000E+02 0.  0.
          5    1    3    3  501    0  0.22479961058E+02  0.28296941649E+02 -0.16487705849E+02  0.40000000000E+02  0.47000000000E+01 0. -1.
         -5    1    3    3    0  501 -0.22479961058E+02 -0.28296941649E+02  0.16487705849E+02  0.40000000000E+02  0.47000000000E+01 0.  1.
</event>
<event>
 5    1  0.4761089E-001  0.8000000E+02  0.7546771E-02  0.1203772E+00
         11   -1    0    0    0    0  0.00000000000E+00  0.00000000000E+00  0.40000000000E+02  0.40000000000E+02  0.00000000000E+00 0. -1.
        -11   -1    0    0    0    0 -0.00000000000E+00 -0.00000000000E+00 -0.40000000000E+02  0.40000000000E+02  0.00000000000E+00 0.  1.
         23    2    1    2    0    0  0.00000000000E+00  0.00000000000E+00  0.00000000000E+00  0.80000000000E+02  0.80000000000E+02 0.  0.
          5    1    3    3  501    0  0.35296100714E+02 -0.99598931125E+01 -0.15260924074E+02  0.40000000000E+02  0.47000000000E+01 0. -1.
         -5    1    3    3    0  501 -0.35296100714E+02  0.99598931125E+01  0.15260924074E+02  0.40000000000E+02  0.47000000000E+01 0.  1.
</event>
<event>
 5    1  0.4761089E-001  0.8000000E+02  0.7546771E-02  0.1203772E+00
         11   -1    0    0    0    0  0.00000000000E+00  0.00000000000E+00  0.40000000000E+02  0.40000000000E+02  0.00000000000E+00 0.  1.
        -11   -1    0    0    0    0 -0.00000000000E+00 -0.00000000000E+00 -0.40000000000E+02  0.40000000000E+02  0.00000000000E+00 0. -1.
         23    2    1    2    0    0  0.00000000000E+00  0.00000000000E+00  0.00000000000E+00  0.80000000000E+02  0.80000000000E+02 0.  0.
          5    1    3    3  501    0 -0.36716747107E+02  0.13098275538E+02 -0.76305740167E+01  0.40000000000E+02  0.47000000000E+01 0. -1.
         -5    1    3    3    0  501  0.36716747107E+02 -0.13098275538E+02  0.76305740167E+01  0.40000000000E+02  0.47000000000E+01 0.  1.
</event>
<event>
 5    1  0.4761089E-001  0.8000000E+02  0.7546771E-02  0.1203772E+00
         11   -1    0    0    0    0  0.00000000000E+00  0.00000000000E+00  0.40000000000E+02  0.40000000000E+02  0.00000000000E+00 0. -1.
        -11   -1    0    0    0    0 -0.00000000000E+00 -0.00000000000E+00 -0.40000000000E+02  0.40000000000E+02  0.00000000000E+00 0.  1.
         23    2    1    2    0    0  0.00000000000E+00  0.00000000000E+00  0.00000000000E+00  0.80000000000E+02  0.80000000000E+02 0.  0.
          5    1    3    3  501    0  0.29504529153E+02  0.21472402988E+02  0.15694861241E+02  0.40000000000E+02  0.47000000000E+01 0. -1.
         -5    1    3    3    0  501 -0.29504529153E+02 -0.21472402988E+02 -0.15694861241E+02  0.40000000000E+02  0.47000000000E+01 0.  1.
</event>
<event>
 5    1  0.4761089E-001  0.8000000E+02  0.7546771E-02  0.1203772E+00
         11   -1    0    0    0    0  0.00000000000E+00  0.00000000000E+00  0.40000000000E+02  0.40000000000E+02  0.00000000000E+00 0.  1.
        -11   -1    0    0    0    0 -0.00000000000E+00 -0.00000000000E+00 -0.40000000000E+02  0.40000000000E+02  0.00000000000E+00 0. -1.
         23    2    1    2    0    0  0.00000000000E+00  0.00000000000E+00  0.00000000000E+00  0.80000000000E+02  0.80000000000E+02 0.  0.
          5    1    3    3  501    0 -0.20413333874E+02  0.29903165574E+01 -0.33945011519E+02  0.40000000000E+02  0.47000000000E+01 0. -1.
         -5    1    3    3    0  501  0.20413333874E+02 -0.29903165574E+01  0.33945011519E+02  0.40000000000E+02  0.47000000000E+01 0.  1.
</event>
<event>
 5    1  0.4761089E-001  0.8000000E+02  0.7546771E-02  0.1203772E+00
         11   -1    0    0    0    0  0.00000000000E+00  0.00000000000E+00  0.40000000000E+02  0.40000000000E+02  0.00000000000E+00 0. -1.
        -11   -1    0    0    0    0 -0.00000000000E+00 -0.00000000000E+00 -0.40000000000E+02  0.40000000000E+02  0.00000000000E+00 0.  1.
         23    2    1    2    0    0  0.00000000000E+00  0.00000000000E+00  0.00000000000E+00  0.80000000000E+02  0.80000000000E+02 0.  0.
          5    1    3    3  501    0 -0.50000973724E+01 -0.27236137866E+02  0.28479849375E+02  0.40000000000E+02  0.47000000000E+01 0. -1.
         -5    1    3    3    0  501  0.50000973724E+01  0.27236137866E+02 -0.28479849375E+02  0.40000000000E+02  0.47000000000E+01 0.  1.
</event>
<event>
 5    1  0.4761089E-001  0.8000000E+02  0.7546771E-02  0.1203772E+00
         11   -1    0    0    0    0  0.00000000000E+00  0.00000000000E+00  0.40000000000E+02  0.40000000000E+02  0.00000000000E+00 0.  1.
        -11   -1    0    0    0    0 -0.00000000000E+00 -0.00000000000E+00 -0.40000000000E+02  0.40000000000E+02  0.00000000000E+00 0. -1.
         23    2    1    2    0    0  0.00000000000E+00  0.00000000000E+00  0.00000000000E+00  0.80000000000E+02  0.80000000000E+02 0.  0.
          5    1    3    3  501    0  0.20830038029E+02 -0.23676601716E+02 -0.24154462257E+02  0.40000000000E+02  0.47000000000E+01 0. -1.
         -5    1    3    3    0  501 -0.20830038029E+02  0.23676601716E+02  0.24154462257E+02  0.40000000000E+02  0.47000000000E+01 0.  1.
</event>
<event>
 5    1  0.4761089E-001  0.8000000E+02  0.7546771E-02  0.1203772E+00
         11   -1    0    0    0    0  0.00000000000E+00  0.00000000000E+00  0.40000000000E+02  0.40000000000E+02  0.00000000000E+00 0.  1.
        -11   -1    0    0    0    0 -0.00000000000E+00 -0.00000000000E+00 -0.40000000000E+02  0.40000000000E+02  0.00000000000E+00 0. -1.
         23    2    1    2    0    0  0.00000000000E+00  0.00000000000E+00  0.00000000000E+00  0.80000000000E+02  0.80000000000E+02 0.  0.
          5    1    3    3  501    0 -0.17043189440E+02  0.28606585053E+02 -0.21658785408E+02  0.40000000000E+02  0.47000000000E+01 0. -1.
         -5    1    3    3    0  501  0.17043189440E+02 -0.28606585053E+02  0.21658785408E+02  0.40000000000E+02  0.47000000000E+01 0.  1.
</event>
<event>
 5    1  0.4761089E-001  0.8000000E+02  0.7546771E-02  0.1203772E+00
         11   -1    0    0    0    0  0.00000000000E+00  0.00000000000E+00  0.40000000000E+02  0.40000000000E+02  0.00000000000E+00 0.  1.
        -11   -1    0    0    0    0 -0.00000000000E+00 -0.00000000000E+00 -0.40000000000E+02  0.40000000000E+02  0.00000000000E+00 0. -1.
         23    2    1    2    0    0  0.00000000000E+00  0.00000000000E+00  0.00000000000E+00  0.80000000000E+02  0.80000000000E+02 0.  0.
          5    1    3    3  501    0 -0.53983280248E+01  0.22495147231E+02 -0.32291429290E+02  0.40000000000E+02  0.47000000000E+01 0. -1.
         -5    1    3    3    0  501  0.53983280248E+01 -0.22495147231E+02  0.32291429290E+02  0.40000000000E+02  0.47000000000E+01 0.  1.
</event>
<event>
 5    1  0.4761089E-001  0.8000000E+02  0.7546771E-02  0.1203772E+00
         11   -1    0    0    0    0  0.00000000000E+00  0.00000000000E+00  0.40000000000E+02  0.40000000000E+02  0.00000000000E+00 0.  1.
        -11   -1    0    0    0    0 -0.00000000000E+00 -0.00000000000E+00 -0.40000000000E+02  0.40000000000E+02  0.00000000000E+00 0. -1.
         23    2    1    2    0    0  0.00000000000E+00  0.00000000000E+00  0.00000000000E+00  0.80000000000E+02  0.80000000000E+02 0.  0.
          5    1    3    3  501    0 -0.27499183484E+01 -0.32141126392E+02 -0.23179645022E+02  0.40000000000E+02  0.47000000000E+01 0. -1.
         -5    1    3    3    0  501  0.27499183484E+01  0.32141126392E+02  0.23179645022E+02  0.40000000000E+02  0.47000000000E+01 0.  1.
</event>
<event>
 5    1  0.4761089E-001  0.8000000E+02  0.7546771E-02  0.1203772E+00
         11   -1    0    0    0    0  0.00000000000E+00  0.00000000000E+00  0.40000000000E+02  0.40000000000E+02  0.00000000000E+00 0. -1.
        -11   -1    0    0    0    0 -0.00000000000E+00 -0.00000000000E+00 -0.40000000000E+02  0.40000000000E+02  0.00000000000E+00 0.  1.
         23    2    1    2    0    0  0.00000000000E+00  0.00000000000E+00  0.00000000000E+00  0.80000000000E+02  0.80000000000E+02 0.  0.
          5    1    3    3  501    0  0.11230380344E+02 -0.93887807774E+01  0.36927487768E+02  0.40000000000E+02  0.47000000000E+01 0. -1.
         -5    1    3    3    0  501 -0.11230380344E+02  0.93887807774E+01 -0.36927487768E+02  0.40000000000E+02  0.47000000000E+01 0.  1.
</event>
<event>
 5    1  0.4761089E-001  0.8000000E+02  0.7546771E-02  0.1203772E+00
         11   -1    0    0    0    0  0.00000000000E+00  0.00000000000E+00  0.40000000000E+02  0.40000000000E+02  0.00000000000E+00 0. -1.
        -11   -1    0    0    0    0 -0.00000000000E+00 -0.00000000000E+00 -0.40000000000E+02  0.40000000000E+02  0.00000000000E+00 0.  1.
         23    2    1    2    0    0  0.00000000000E+00  0.00000000000E+00  0.00000000000E+00  0.80000000000E+02  0.80000000000E+02 0.  0.
          5    1    3    3  501    0  0.24807548461E+02 -0.21421114509E+02  0.22441733279E+02  0.40000000000E+02  0.47000000000E+01 0. -1.
         -5    1    3    3    0  501 -0.24807548461E+02  0.21421114509E+02 -0.22441733279E+02  0.40000000000E+02  0.47000000000E+01 0.  1.
</event>
<event>
 5    1  0.4761089E-001  0.8000000E+02  0.7546771E-02  0.1203772E+00
         11   -1    0    0    0    0  0.00000000000E+00  0.00000000000E+00  0.40000000000E+02  0.40000000000E+02  0.00000000000E+00 0. -1.
        -11   -1    0    0    0    0 -0.00000000000E+00 -0.00000000000E+00 -0.40000000000E+02  0.40000000000E+02  0.00000000000E+00 0.  1.
         23    2    1    2    0    0  0.00000000000E+00  0.00000000000E+00  0.00000000000E+00  0.80000000000E+02  0.80000000000E+02 0.  0.
          5    1    3    3  501    0  0.23785412977E+02  0.91116681138E+01  0.30481824645E+02  0.40000000000E+02  0.47000000000E+01 0. -1.
         -5    1    3    3    0  501 -0.23785412977E+02 -0.91116681138E+01 -0.30481824645E+02  0.40000000000E+02  0.47000000000E+01 0.  1.
</event>
<event>
 5    1  0.4761089E-001  0.8000000E+02  0.7546771E-02  0.1203772E+00
         11   -1    0    0    0    0  0.00000000000E+00  0.00000000000E+00  0.40000000000E+02  0.40000000000E+02  0.00000000000E+00 0. -1.
        -11   -1    0    0    0    0 -0.00000000000E+00 -0.00000000000E+00 -0.40000000000E+02  0.40000000000E+02  0.00000000000E+00 0.  1.
         23    2    1    2    0    0  0.00000000000E+00  0.00000000000E+00  0.00000000000E+00  0.80000000000E+02  0.80000000000E+02 0.  0.
          5    1    3    3  501    0  0.10814897650E+02  0.30934106274E+02  0.22450591481E+02  0.40000000000E+02  0.47000000000E+01 0. -1.
         -5    1    3    3    0  501 -0.10814897650E+02 -0.30934106274E+02 -0.22450591481E+02  0.40000000000E+02  0.47000000000E+01 0.  1.
</event>
<event>
 5    1  0.4761089E-001  0.8000000E+02  0.7546771E-02  0.1203772E+00
         11   -1    0    0    0    0  0.00000000000E+00  0.00000000000E+00  0.40000000000E+02  0.40000000000E+02  0.00000000000E+00 0. -1.
        -11   -1    0    0    0    0 -0.00000000000E+00 -0.00000000000E+00 -0.40000000000E+02  0.40000000000E+02  0.00000000000E+00 0.  1.
         23    2    1    2    0    0  0.00000000000E+00  0.00000000000E+00  0.00000000000E+00  0.80000000000E+02  0.80000000000E+02 0.  0.
          5    1    3    3  501    0  0.24310317810E+01 -0.38056365117E+02  0.11122641709E+02  0.40000000000E+02  0.47000000000E+01 0. -1.
         -5    1    3    3    0  501 -0.24310317810E+01  0.38056365117E+02 -0.11122641709E+02  0.40000000000E+02  0.47000000000E+01 0.  1.
</event>
<event>
 5    1  0.4761089E-001  0.8000000E+02  0.7546771E-02  0.1203772E+00
         11   -1    0    0    0    0  0.00000000000E+00  0.00000000000E+00  0.40000000000E+02  0.40000000000E+02  0.00000000000E+00 0. -1.
        -11   -1    0    0    0    0 -0.00000000000E+00 -0.00000000000E+00 -0.40000000000E+02  0.40000000000E+02  0.00000000000E+00 0.  1.
         23    2    1    2    0    0  0.00000000000E+00  0.00000000000E+00  0.00000000000E+00  0.80000000000E+02  0.80000000000E+02 0.  0.
          5    1    3    3  501    0  0.29173333665E+02 -0.24868107801E+02  0.10411715387E+02  0.40000000000E+02  0.47000000000E+01 0. -1.
         -5    1    3    3    0  501 -0.29173333665E+02  0.24868107801E+02 -0.10411715387E+02  0.40000000000E+02  0.47000000000E+01 0.  1.
</event>
<event>
 5    1  0.4761089E-001  0.8000000E+02  0.7546771E-02  0.1203772E+00
         11   -1    0    0    0    0  0.00000000000E+00  0.00000000000E+00  0.40000000000E+02  0.40000000000E+02  0.00000000000E+00 0. -1.
        -11   -1    0    0    0    0 -0.00000000000E+00 -0.00000000000E+00 -0.40000000000E+02  0.40000000000E+02  0.00000000000E+00 0.  1.
         23    2    1    2    0    0  0.00000000000E+00  0.00000000000E+00  0.00000000000E+00  0.80000000000E+02  0.80000000000E+02 0.  0.
          5    1    3    3  501    0  0.26664216537E+02  0.29437943075E+02  0.58057214171E+00  0.40000000000E+02  0.47000000000E+01 0. -1.
         -5    1    3    3    0  501 -0.26664216537E+02 -0.29437943075E+02 -0.58057214171E+00  0.40000000000E+02  0.47000000000E+01 0.  1.
</event>
<event>
 5    1  0.4761089E-001  0.8000000E+02  0.7546771E-02  0.1203772E+00
         11   -1    0    0    0    0  0.00000000000E+00  0.00000000000E+00  0.40000000000E+02  0.40000000000E+02  0.00000000000E+00 0. -1.
        -11   -1    0    0    0    0 -0.00000000000E+00 -0.00000000000E+00 -0.40000000000E+02  0.40000000000E+02  0.00000000000E+00 0.  1.
         23    2    1    2    0    0  0.00000000000E+00  0.00000000000E+00  0.00000000000E+00  0.80000000000E+02  0.80000000000E+02 0.  0.
          5    1    3    3  501    0 -0.39821129594E+01  0.19314565986E+02  0.34481883898E+02  0.40000000000E+02  0.47000000000E+01 0. -1.
         -5    1    3    3    0  501  0.39821129594E+01 -0.19314565986E+02 -0.34481883898E+02  0.40000000000E+02  0.47000000000E+01 0.  1.
</event>
<event>
 5    1  0.4761089E-001  0.8000000E+02  0.7546771E-02  0.1203772E+00
         11   -1    0    0    0    0  0.00000000000E+00  0.00000000000E+00  0.40000000000E+02  0.40000000000E+02  0.00000000000E+00 0.  1.
        -11   -1    0    0    0    0 -0.00000000000E+00 -0.00000000000E+00 -0.40000000000E+02  0.40000000000E+02  0.00000000000E+00 0. -1.
         23    2    1    2    0    0  0.00000000000E+00  0.00000000000E+00  0.00000000000E+00  0.80000000000E+02  0.80000000000E+02 0.  0.
          5    1    3    3  501    0 -0.14339236884E+02 -0.36727241441E+02  0.48379770266E+01  0.40000000000E+02  0.47000000000E+01 0. -1.
         -5    1    3    3    0  501  0.14339236884E+02  0.36727241441E+02 -0.48379770266E+01  0.40000000000E+02  0.47000000000E+01 0.  1.
</event>
<event>
 5    1  0.4761089E-001  0.8000000E+02  0.7546771E-02  0.1203772E+00
         11   -1    0    0    0    0  0.00000000000E+00  0.00000000000E+00  0.40000000000E+02  0.40000000000E+02  0.00000000000E+00 0.  1.
        -11   -1    0    0    0    0 -0.00000000000E+00 -0.00000000000E+00 -0.40000000000E+02  0.40000000000E+02  0.00000000000E+00 0. -1.
         23    2    1    2    0    0  0.00000000000E+00  0.00000000000E+00  0.00000000000E+00  0.80000000000E+02  0.80000000000E+02 0.  0.
          5    1    3    3  501    0  0.14912323500E+01  0.16634996164E+02 -0.36041131068E+02  0.40000000000E+02  0.47000000000E+01 0. -1.
         -5    1    3    3    0  501 -0.14912323500E+01 -0.16634996164E+02  0.36041131068E+02  0.40000000000E+02  0.47000000000E+01 0.  1.
</event>
<event>
 5    1  0.4761089E-001  0.8000000E+02  0.7546771E-02  0.1203772E+00
         11   -1    0    0    0    0  0.00000000000E+00  0.00000000000E+00  0.40000000000E+02  0.40000000000E+02  0.00000000000E+00 0. -1.
        -11   -1    0    0    0    0 -0.00000000000E+00 -0.00000000000E+00 -0.40000000000E+02  0.40000000000E+02  0.00000000000E+00 0.  1.
         23    2    1    2    0    0  0.00000000000E+00  0.00000000000E+00  0.00000000000E+00  0.80000000000E+02  0.80000000000E+02 0.  0.
          5    1    3    3  501    0 -0.18839346640E+02 -0.14041473474E+01  0.34943059231E+02  0.40000000000E+02  0.47000000000E+01 0. -1.
         -5    1    3    3    0  501  0.18839346640E+02  0.14041473474E+01 -0.34943059231E+02  0.40000000000E+02  0.47000000000E+01 0.  1.
</event>
<event>
 5    1  0.4761089E-001  0.8000000E+02  0.7546771E-02  0.1203772E+00
         11   -1    0    0    0    0  0.00000000000E+00  0.00000000000E+00  0.40000000000E+02  0.40000000000E+02  0.00000000000E+00 0.  1.
        -11   -1    0    0    0    0 -0.00000000000E+00 -0.00000000000E+00 -0.40000000000E+02  0.40000000000E+02  0.00000000000E+00 0. -1.
         23    2    1    2    0    0  0.00000000000E+00  0.00000000000E+00  0.00000000000E+00  0.80000000000E+02  0.80000000000E+02 0.  0.
          5    1    3    3  501    0  0.20136949559E+02 -0.70877683583E+01 -0.33498907477E+02  0.40000000000E+02  0.47000000000E+01 0. -1.
         -5    1    3    3    0  501 -0.20136949559E+02  0.70877683583E+01  0.33498907477E+02  0.40000000000E+02  0.47000000000E+01 0.  1.
</event>
<event>
 5    1  0.4761089E-001  0.8000000E+02  0.7546771E-02  0.1203772E+00
         11   -1    0    0    0    0  0.00000000000E+00  0.00000000000E+00  0.40000000000E+02  0.40000000000E+02  0.00000000000E+00 0.  1.
        -11   -1    0    0    0    0 -0.00000000000E+00 -0.00000000000E+00 -0.40000000000E+02  0.40000000000E+02  0.00000000000E+00 0. -1.
         23    2    1    2    0    0  0.00000000000E+00  0.00000000000E+00  0.00000000000E+00  0.80000000000E+02  0.80000000000E+02 0.  0.
          5    1    3    3  501    0 -0.15631872790E+02  0.35453521702E+02 -0.87522769600E+01  0.40000000000E+02  0.47000000000E+01 0. -1.
         -5    1    3    3    0  501  0.15631872790E+02 -0.35453521702E+02  0.87522769600E+01  0.40000000000E+02  0.47000000000E+01 0.  1.
</event>
<event>
 5    1  0.4761089E-001  0.8000000E+02  0.7546771E-02  0.1203772E+00
         11   -1    0    0    0    0  0.00000000000E+00  0.00000000000E+00  0.40000000000E+02  0.40000000000E+02  0.00000000000E+00 0.  1.
        -11   -1    0    0    0    0 -0.00000000000E+00 -0.00000000000E+00 -0.40000000000E+02  0.40000000000E+02  0.00000000000E+00 0. -1.
         23    2    1    2    0    0  0.00000000000E+00  0.00000000000E+00  0.00000000000E+00  0.80000000000E+02  0.80000000000E+02 0.  0.
          5    1    3    3  501    0 -0.53686323006E+01 -0.33371500908E+01 -0.39216721134E+02  0.40000000000E+02  0.47000000000E+01 0. -1.
         -5    1    3    3    0  501  0.53686323006E+01  0.33371500908E+01  0.39216721134E+02  0.40000000000E+02  0.47000000000E+01 0.  1.
</event>
<event>
 5    1  0.4761089E-001  0.8000000E+02  0.7546771E-02  0.1203772E+00
         11   -1    0    0    0    0  0.00000000000E+00  0.00000000000E+00  0.40000000000E+02  0.40000000000E+02  0.00000000000E+00 0. -1.
        -11   -1    0    0    0    0 -0.00000000000E+00 -0.00000000000E+00 -0.40000000000E+02  0.40000000000E+02  0.00000000000E+00 0.  1.
         23    2    1    2    0    0  0.00000000000E+00  0.00000000000E+00  0.00000000000E+00  0.80000000000E+02  0.80000000000E+02 0.  0.
          5    1    3    3  501    0  0.31436346636E+02  0.20064166590E+02  0.13678279469E+02  0.40000000000E+02  0.47000000000E+01 0. -1.
         -5    1    3    3    0  501 -0.31436346636E+02 -0.20064166590E+02 -0.13678279469E+02  0.40000000000E+02  0.47000000000E+01 0. -1.
</event>
<event>
 5    1  0.4761089E-001  0.8000000E+02  0.7546771E-02  0.1203772E+00
         11   -1    0    0    0    0  0.00000000000E+00  0.00000000000E+00  0.40000000000E+02  0.40000000000E+02  0.00000000000E+00 0. -1.
        -11   -1    0    0    0    0 -0.00000000000E+00 -0.00000000000E+00 -0.40000000000E+02  0.40000000000E+02  0.00000000000E+00 0.  1.
         23    2    1    2    0    0  0.00000000000E+00  0.00000000000E+00  0.00000000000E+00  0.80000000000E+02  0.80000000000E+02 0.  0.
          5    1    3    3  501    0  0.36612818511E+02  0.14682148186E+02 -0.46739753237E+01  0.40000000000E+02  0.47000000000E+01 0. -1.
         -5    1    3    3    0  501 -0.36612818511E+02 -0.14682148186E+02  0.46739753237E+01  0.40000000000E+02  0.47000000000E+01 0.  1.
</event>
<event>
 5    1  0.4761089E-001  0.8000000E+02  0.7546771E-02  0.1203772E+00
         11   -1    0    0    0    0  0.00000000000E+00  0.00000000000E+00  0.40000000000E+02  0.40000000000E+02  0.00000000000E+00 0. -1.
        -11   -1    0    0    0    0 -0.00000000000E+00 -0.00000000000E+00 -0.40000000000E+02  0.40000000000E+02  0.00000000000E+00 0.  1.
         23    2    1    2    0    0  0.00000000000E+00  0.00000000000E+00  0.00000000000E+00  0.80000000000E+02  0.80000000000E+02 0.  0.
          5    1    3    3  501    0 -0.71036796215E+01 -0.58215901555E+01  0.38646562899E+02  0.40000000000E+02  0.47000000000E+01 0. -1.
         -5    1    3    3    0  501  0.71036796215E+01  0.58215901555E+01 -0.38646562899E+02  0.40000000000E+02  0.47000000000E+01 0.  1.
</event>
<event>
 5    1  0.4761089E-001  0.8000000E+02  0.7546771E-02  0.1203772E+00
         11   -1    0    0    0    0  0.00000000000E+00  0.00000000000E+00  0.40000000000E+02  0.40000000000E+02  0.00000000000E+00 0.  1.
        -11   -1    0    0    0    0 -0.00000000000E+00 -0.00000000000E+00 -0.40000000000E+02  0.40000000000E+02  0.00000000000E+00 0. -1.
         23    2    1    2    0    0  0.00000000000E+00  0.00000000000E+00  0.00000000000E+00  0.80000000000E+02  0.80000000000E+02 0.  0.
          5    1    3    3  501    0  0.59120163441E+01  0.35879616102E+02 -0.15987845731E+02  0.40000000000E+02  0.47000000000E+01 0. -1.
         -5    1    3    3    0  501 -0.59120163441E+01 -0.35879616102E+02  0.15987845731E+02  0.40000000000E+02  0.47000000000E+01 0.  1.
</event>
<event>
 5    1  0.4761089E-001  0.8000000E+02  0.7546771E-02  0.1203772E+00
         11   -1    0    0    0    0  0.00000000000E+00  0.00000000000E+00  0.40000000000E+02  0.40000000000E+02  0.00000000000E+00 0. -1.
        -11   -1    0    0    0    0 -0.00000000000E+00 -0.00000000000E+00 -0.40000000000E+02  0.40000000000E+02  0.00000000000E+00 0.  1.
         23    2    1    2    0    0  0.00000000000E+00  0.00000000000E+00  0.00000000000E+00  0.80000000000E+02  0.80000000000E+02 0.  0.
          5    1    3    3  501    0  0.34749386390E+01 -0.37974226197E+02 -0.11126227852E+02  0.40000000000E+02  0.47000000000E+01 0. -1.
         -5    1    3    3    0  501 -0.34749386390E+01  0.37974226197E+02  0.11126227852E+02  0.40000000000E+02  0.47000000000E+01 0.  1.
</event>
<event>
 5    1  0.4761089E-001  0.8000000E+02  0.7546771E-02  0.1203772E+00
         11   -1    0    0    0    0  0.00000000000E+00  0.00000000000E+00  0.40000000000E+02  0.40000000000E+02  0.00000000000E+00 0. -1.
        -11   -1    0    0    0    0 -0.00000000000E+00 -0.00000000000E+00 -0.40000000000E+02  0.40000000000E+02  0.00000000000E+00 0.  1.
         23    2    1    2    0    0  0.00000000000E+00  0.00000000000E+00  0.00000000000E+00  0.80000000000E+02  0.80000000000E+02 0.  0.
          5    1    3    3  501    0  0.19263008333E+01  0.67759326400E+00  0.39670394912E+02  0.40000000000E+02  0.47000000000E+01 0. -1.
         -5    1    3    3    0  501 -0.19263008333E+01 -0.67759326400E+00 -0.39670394912E+02  0.40000000000E+02  0.47000000000E+01 0.  1.
</event>
<event>
 5    1  0.4761089E-001  0.8000000E+02  0.7546771E-02  0.1203772E+00
         11   -1    0    0    0    0  0.00000000000E+00  0.00000000000E+00  0.40000000000E+02  0.40000000000E+02  0.00000000000E+00 0. -1.
        -11   -1    0    0    0    0 -0.00000000000E+00 -0.00000000000E+00 -0.40000000000E+02  0.40000000000E+02  0.00000000000E+00 0.  1.
         23    2    1    2    0    0  0.00000000000E+00  0.00000000000E+00  0.00000000000E+00  0.80000000000E+02  0.80000000000E+02 0.  0.
          5    1    3    3  501    0 -0.39086855760E+02  0.61492626652E+00 -0.70533376814E+01  0.40000000000E+02  0.47000000000E+01 0. -1.
         -5    1    3    3    0  501  0.39086855760E+02 -0.61492626652E+00  0.70533376814E+01  0.40000000000E+02  0.47000000000E+01 0.  1.
</event>
<event>
 5    1  0.4761089E-001  0.8000000E+02  0.7546771E-02  0.1203772E+00
         11   -1    0    0    0    0  0.00000000000E+00  0.00000000000E+00  0.40000000000E+02  0.40000000000E+02  0.00000000000E+00 0. -1.
        -11   -1    0    0    0    0 -0.00000000000E+00 -0.00000000000E+00 -0.40000000000E+02  0.40000000000E+02  0.00000000000E+00 0.  1.
         23    2    1    2    0    0  0.00000000000E+00  0.00000000000E+00  0.00000000000E+00  0.80000000000E+02  0.80000000000E+02 0.  0.
          5    1    3    3  501    0 -0.91112773806E+01  0.15918619879E+02  0.35234814682E+02  0.40000000000E+02  0.47000000000E+01 0. -1.
         -5    1    3    3    0  501  0.91112773806E+01 -0.15918619879E+02 -0.35234814682E+02  0.40000000000E+02  0.47000000000E+01 0.  1.
</event>
<event>
 5    1  0.4761089E-001  0.8000000E+02  0.7546771E-02  0.1203772E+00
         11   -1    0    0    0    0  0.00000000000E+00  0.00000000000E+00  0.40000000000E+02  0.40000000000E+02  0.00000000000E+00 0. -1.
        -11   -1    0    0    0    0 -0.00000000000E+00 -0.00000000000E+00 -0.40000000000E+02  0.40000000000E+02  0.00000000000E+00 0.  1.
         23    2    1    2    0    0  0.00000000000E+00  0.00000000000E+00  0.00000000000E+00  0.80000000000E+02  0.80000000000E+02 0.  0.
          5    1    3    3  501    0  0.12577760948E+02  0.18708580679E+02  0.32706252284E+02  0.40000000000E+02  0.47000000000E+01 0. -1.
         -5    1    3    3    0  501 -0.12577760948E+02 -0.18708580679E+02 -0.32706252284E+02  0.40000000000E+02  0.47000000000E+01 0.  1.
</event>
<event>
 5    1  0.4761089E-001  0.8000000E+02  0.7546771E-02  0.1203772E+00
         11   -1    0    0    0    0  0.00000000000E+00  0.00000000000E+00  0.40000000000E+02  0.40000000000E+02  0.00000000000E+00 0. -1.
        -11   -1    0    0    0    0 -0.00000000000E+00 -0.00000000000E+00 -0.40000000000E+02  0.40000000000E+02  0.00000000000E+00 0.  1.
         23    2    1    2    0    0  0.00000000000E+00  0.00000000000E+00  0.00000000000E+00  0.80000000000E+02  0.80000000000E+02 0.  0.
          5    1    3    3  501    0  0.65722493491E+01 -0.38677579421E+02  0.62257841751E+01  0.40000000000E+02  0.47000000000E+01 0. -1.
         -5    1    3    3    0  501 -0.65722493491E+01  0.38677579421E+02 -0.62257841751E+01  0.40000000000E+02  0.47000000000E+01 0.  1.
</event>
<event>
 5    1  0.4761089E-001  0.8000000E+02  0.7546771E-02  0.1203772E+00
         11   -1    0    0    0    0  0.00000000000E+00  0.00000000000E+00  0.40000000000E+02  0.40000000000E+02  0.00000000000E+00 0.  1.
        -11   -1    0    0    0    0 -0.00000000000E+00 -0.00000000000E+00 -0.40000000000E+02  0.40000000000E+02  0.00000000000E+00 0. -1.
         23    2    1    2    0    0  0.00000000000E+00  0.00000000000E+00  0.00000000000E+00  0.80000000000E+02  0.80000000000E+02 0.  0.
          5    1    3    3  501    0 -0.20400473251E+02  0.18095540931E+02 -0.28883941724E+02  0.40000000000E+02  0.47000000000E+01 0. -1.
         -5    1    3    3    0  501  0.20400473251E+02 -0.18095540931E+02  0.28883941724E+02  0.40000000000E+02  0.47000000000E+01 0.  1.
</event>
<event>
 5    1  0.4761089E-001  0.8000000E+02  0.7546771E-02  0.1203772E+00
         11   -1    0    0    0    0  0.00000000000E+00  0.00000000000E+00  0.40000000000E+02  0.40000000000E+02  0.00000000000E+00 0. -1.
        -11   -1    0    0    0    0 -0.00000000000E+00 -0.00000000000E+00 -0.40000000000E+02  0.40000000000E+02  0.00000000000E+00 0.  1.
         23    2    1    2    0    0  0.00000000000E+00  0.00000000000E+00  0.00000000000E+00  0.80000000000E+02  0.80000000000E+02 0.  0.
          5    1    3    3  501    0  0.17558745148E+02  0.31137658019E+02  0.17321856768E+02  0.40000000000E+02  0.47000000000E+01 0. -1.
         -5    1    3    3    0  501 -0.17558745148E+02 -0.31137658019E+02 -0.17321856768E+02  0.40000000000E+02  0.47000000000E+01 0.  1.
</event>
<event>
 5    1  0.4761089E-001  0.8000000E+02  0.7546771E-02  0.1203772E+00
         11   -1    0    0    0    0  0.00000000000E+00  0.00000000000E+00  0.40000000000E+02  0.40000000000E+02  0.00000000000E+00 0.  1.
        -11   -1    0    0    0    0 -0.00000000000E+00 -0.00000000000E+00 -0.40000000000E+02  0.40000000000E+02  0.00000000000E+00 0. -1.
         23    2    1    2    0    0  0.00000000000E+00  0.00000000000E+00  0.00000000000E+00  0.80000000000E+02  0.80000000000E+02 0.  0.
          5    1    3    3  501    0 -0.25213698578E+01 -0.97819192406E+01 -0.38417011206E+02  0.40000000000E+02  0.47000000000E+01 0. -1.
         -5    1    3    3    0  501  0.25213698578E+01  0.97819192406E+01  0.38417011206E+02  0.40000000000E+02  0.47000000000E+01 0.  1.
</event>
<event>
 5    1  0.4761089E-001  0.8000000E+02  0.7546771E-02  0.1203772E+00
         11   -1    0    0    0    0  0.00000000000E+00  0.00000000000E+00  0.40000000000E+02  0.40000000000E+02  0.00000000000E+00 0.  1.
        -11   -1    0    0    0    0 -0.00000000000E+00 -0.00000000000E+00 -0.40000000000E+02  0.40000000000E+02  0.00000000000E+00 0. -1.
         23    2    1    2    0    0  0.00000000000E+00  0.00000000000E+00  0.00000000000E+00  0.80000000000E+02  0.80000000000E+02 0.  0.
          5    1    3    3  501    0  0.22928806095E+02 -0.31775364917E+02 -0.65196652891E+01  0.40000000000E+02  0.47000000000E+01 0. -1.
         -5    1    3    3    0  501 -0.22928806095E+02  0.31775364917E+02  0.65196652891E+01  0.40000000000E+02  0.47000000000E+01 0.  1.
</event>
<event>
 5    1  0.4761089E-001  0.8000000E+02  0.7546771E-02  0.1203772E+00
         11   -1    0    0    0    0  0.00000000000E+00  0.00000000000E+00  0.40000000000E+02  0.40000000000E+02  0.00000000000E+00 0. -1.
        -11   -1    0    0    0    0 -0.00000000000E+00 -0.00000000000E+00 -0.40000000000E+02  0.40000000000E+02  0.00000000000E+00 0.  1.
         23    2    1    2    0    0  0.00000000000E+00  0.00000000000E+00  0.00000000000E+00  0.80000000000E+02  0.80000000000E+02 0.  0.
          5    1    3    3  501    0  0.32402485250E+02  0.22803301646E+02 -0.28281413750E+01  0.40000000000E+02  0.47000000000E+01 0. -1.
         -5    1    3    3    0  501 -0.32402485250E+02 -0.22803301646E+02  0.28281413750E+01  0.40000000000E+02  0.47000000000E+01 0.  1.
</event>
<event>
 5    1  0.4761089E-001  0.8000000E+02  0.7546771E-02  0.1203772E+00
         11   -1    0    0    0    0  0.00000000000E+00  0.00000000000E+00  0.40000000000E+02  0.40000000000E+02  0.00000000000E+00 0.  1.
        -11   -1    0    0    0    0 -0.00000000000E+00 -0.00000000000E+00 -0.40000000000E+02  0.40000000000E+02  0.00000000000E+00 0. -1.
         23    2    1    2    0    0  0.00000000000E+00  0.00000000000E+00  0.00000000000E+00  0.80000000000E+02  0.80000000000E+02 0.  0.
          5    1    3    3  501    0  0.24502368266E+02 -0.24753630441E+02 -0.19099783490E+02  0.40000000000E+02  0.47000000000E+01 0. -1.
         -5    1    3    3    0  501 -0.24502368266E+02  0.24753630441E+02  0.19099783490E+02  0.40000000000E+02  0.47000000000E+01 0.  1.
</event>
<event>
 5    1  0.4761089E-001  0.8000000E+02  0.7546771E-02  0.1203772E+00
         11   -1    0    0    0    0  0.00000000000E+00  0.00000000000E+00  0.40000000000E+02  0.40000000000E+02  0.00000000000E+00 0.  1.
        -11   -1    0    0    0    0 -0.00000000000E+00 -0.00000000000E+00 -0.40000000000E+02  0.40000000000E+02  0.00000000000E+00 0. -1.
         23    2    1    2    0    0  0.00000000000E+00  0.00000000000E+00  0.00000000000E+00  0.80000000000E+02  0.80000000000E+02 0.  0.
          5    1    3    3  501    0 -0.10491297471E+02 -0.36804367526E+02 -0.10643364524E+02  0.40000000000E+02  0.47000000000E+01 0. -1.
         -5    1    3    3    0  501  0.10491297471E+02  0.36804367526E+02  0.10643364524E+02  0.40000000000E+02  0.47000000000E+01 0.  1.
</event>
<event>
 5    1  0.4761089E-001  0.8000000E+02  0.7546771E-02  0.1203772E+00
         11   -1    0    0    0    0  0.00000000000E+00  0.00000000000E+00  0.40000000000E+02  0.40000000000E+02  0.00000000000E+00 0.  1.
        -11   -1    0    0    0    0 -0.00000000000E+00 -0.00000000000E+00 -0.40000000000E+02  0.40000000000E+02  0.00000000000E+00 0. -1.
         23    2    1    2    0    0  0.00000000000E+00  0.00000000000E+00  0.00000000000E+00  0.80000000000E+02  0.80000000000E+02 0.  0.
          5    1    3    3  501    0 -0.94655205352E+01 -0.36189182546E+02 -0.13366263039E+02  0.40000000000E+02  0.47000000000E+01 0. -1.
         -5    1    3    3    0  501  0.94655205352E+01  0.36189182546E+02  0.13366263039E+02  0.40000000000E+02  0.47000000000E+01 0.  1.
</event>
<event>
 5    1  0.4761089E-001  0.8000000E+02  0.7546771E-02  0.1203772E+00
         11   -1    0    0    0    0  0.00000000000E+00  0.00000000000E+00  0.40000000000E+02  0.40000000000E+02  0.00000000000E+00 0. -1.
        -11   -1    0    0    0    0 -0.00000000000E+00 -0.00000000000E+00 -0.40000000000E+02  0.40000000000E+02  0.00000000000E+00 0.  1.
         23    2    1    2    0    0  0.00000000000E+00  0.00000000000E+00  0.00000000000E+00  0.80000000000E+02  0.80000000000E+02 0.  0.
          5    1    3    3  501    0 -0.24460608308E+02 -0.16932322685E+00  0.31297922788E+02  0.40000000000E+02  0.47000000000E+01 0. -1.
         -5    1    3    3    0  501  0.24460608308E+02  0.16932322685E+00 -0.31297922788E+02  0.40000000000E+02  0.47000000000E+01 0.  1.
</event>
<event>
 5    1  0.4761089E-001  0.8000000E+02  0.7546771E-02  0.1203772E+00
         11   -1    0    0    0    0  0.00000000000E+00  0.00000000000E+00  0.40000000000E+02  0.40000000000E+02  0.00000000000E+00 0. -1.
        -11   -1    0    0    0    0 -0.00000000000E+00 -0.00000000000E+00 -0.40000000000E+02  0.40000000000E+02  0.00000000000E+00 0.  1.
         23    2    1    2    0    0  0.00000000000E+00  0.00000000000E+00  0.00000000000E+00  0.80000000000E+02  0.80000000000E+02 0.  0.
          5    1    3    3  501    0  0.32989148971E+02 -0.83785914250E+01  0.20479874412E+02  0.40000000000E+02  0.47000000000E+01 0. -1.
         -5    1    3    3    0  501 -0.32989148971E+02  0.83785914250E+01 -0.20479874412E+02  0.40000000000E+02  0.47000000000E+01 0.  1.
</event>
<event>
 5    1  0.4761089E-001  0.8000000E+02  0.7546771E-02  0.1203772E+00
         11   -1    0    0    0    0  0.00000000000E+00  0.00000000000E+00  0.40000000000E+02  0.40000000000E+02  0.00000000000E+00 0.  1.
        -11   -1    0    0    0    0 -0.00000000000E+00 -0.00000000000E+00 -0.40000000000E+02  0.40000000000E+02  0.00000000000E+00 0. -1.
         23    2    1    2    0    0  0.00000000000E+00  0.00000000000E+00  0.00000000000E+00  0.80000000000E+02  0.80000000000E+02 0.  0.
          5    1    3    3  501    0  0.19814462341E+02  0.43545774116E+01 -0.34151643265E+02  0.40000000000E+02  0.47000000000E+01 0. -1.
         -5    1    3    3    0  501 -0.19814462341E+02 -0.43545774116E+01  0.34151643265E+02  0.40000000000E+02  0.47000000000E+01 0.  1.
</event>
<event>
 5    1  0.4761089E-001  0.8000000E+02  0.7546771E-02  0.1203772E+00
         11   -1    0    0    0    0  0.00000000000E+00  0.00000000000E+00  0.40000000000E+02  0.40000000000E+02  0.00000000000E+00 0.  1.
        -11   -1    0    0    0    0 -0.00000000000E+00 -0.00000000000E+00 -0.40000000000E+02  0.40000000000E+02  0.00000000000E+00 0. -1.
         23    2    1    2    0    0  0.00000000000E+00  0.00000000000E+00  0.00000000000E+00  0.80000000000E+02  0.80000000000E+02 0.  0.
          5    1    3    3  501    0  0.23869664785E+02 -0.11301384244E+02 -0.29672003930E+02  0.40000000000E+02  0.47000000000E+01 0. -1.
         -5    1    3    3    0  501 -0.23869664785E+02  0.11301384244E+02  0.29672003930E+02  0.40000000000E+02  0.47000000000E+01 0.  1.
</event>
<event>
 5    1  0.4761089E-001  0.8000000E+02  0.7546771E-02  0.1203772E+00
         11   -1    0    0    0    0  0.00000000000E+00  0.00000000000E+00  0.40000000000E+02  0.40000000000E+02  0.00000000000E+00 0. -1.
        -11   -1    0    0    0    0 -0.00000000000E+00 -0.00000000000E+00 -0.40000000000E+02  0.40000000000E+02  0.00000000000E+00 0.  1.
         23    2    1    2    0    0  0.00000000000E+00  0.00000000000E+00  0.00000000000E+00  0.80000000000E+02  0.80000000000E+02 0.  0.
          5    1    3    3  501    0 -0.66179619150E+01 -0.20777354468E+02  0.33202622207E+02  0.40000000000E+02  0.47000000000E+01 0. -1.
         -5    1    3    3    0  501  0.66179619150E+01  0.20777354468E+02 -0.33202622207E+02  0.40000000000E+02  0.47000000000E+01 0.  1.
</event>
<event>
 5    1  0.4761089E-001  0.8000000E+02  0.7546771E-02  0.1203772E+00
         11   -1    0    0    0    0  0.00000000000E+00  0.00000000000E+00  0.40000000000E+02  0.40000000000E+02  0.00000000000E+00 0.  1.
        -11   -1    0    0    0    0 -0.00000000000E+00 -0.00000000000E+00 -0.40000000000E+02  0.40000000000E+02  0.00000000000E+00 0. -1.
         23    2    1    2    0    0  0.00000000000E+00  0.00000000000E+00  0.00000000000E+00  0.80000000000E+02  0.80000000000E+02 0.  0.
          5    1    3    3  501    0 -0.12780728745E+01 -0.82342932473E+01 -0.38839064670E+02  0.40000000000E+02  0.47000000000E+01 0. -1.
         -5    1    3    3    0  501  0.12780728745E+01  0.82342932473E+01  0.38839064670E+02  0.40000000000E+02  0.47000000000E+01 0.  1.
</event>
<event>
 5    1  0.4761089E-001  0.8000000E+02  0.7546771E-02  0.1203772E+00
         11   -1    0    0    0    0  0.00000000000E+00  0.00000000000E+00  0.40000000000E+02  0.40000000000E+02  0.00000000000E+00 0. -1.
        -11   -1    0    0    0    0 -0.00000000000E+00 -0.00000000000E+00 -0.40000000000E+02  0.40000000000E+02  0.00000000000E+00 0.  1.
         23    2    1    2    0    0  0.00000000000E+00  0.00000000000E+00  0.00000000000E+00  0.80000000000E+02  0.80000000000E+02 0.  0.
          5    1    3    3  501    0  0.15930950701E+02  0.35636371599E+02  0.73596079401E+01  0.40000000000E+02  0.47000000000E+01 0. -1.
         -5    1    3    3    0  501 -0.15930950701E+02 -0.35636371599E+02 -0.73596079401E+01  0.40000000000E+02  0.47000000000E+01 0.  1.
</event>
<event>
 5    1  0.4761089E-001  0.8000000E+02  0.7546771E-02  0.1203772E+00
         11   -1    0    0    0    0  0.00000000000E+00  0.00000000000E+00  0.40000000000E+02  0.40000000000E+02  0.00000000000E+00 0.  1.
        -11   -1    0    0    0    0 -0.00000000000E+00 -0.00000000000E+00 -0.40000000000E+02  0.40000000000E+02  0.00000000000E+00 0. -1.
         23    2    1    2    0    0  0.00000000000E+00  0.00000000000E+00  0.00000000000E+00  0.80000000000E+02  0.80000000000E+02 0.  0.
          5    1    3    3  501    0  0.79871281008E+01  0.17492708143E+02 -0.34758034273E+02  0.40000000000E+02  0.47000000000E+01 0. -1.
         -5    1    3    3    0  501 -0.79871281008E+01 -0.17492708143E+02  0.34758034273E+02  0.40000000000E+02  0.47000000000E+01 0.  1.
</event>
<event>
 5    1  0.4761089E-001  0.8000000E+02  0.7546771E-02  0.1203772E+00
         11   -1    0    0    0    0  0.00000000000E+00  0.00000000000E+00  0.40000000000E+02  0.40000000000E+02  0.00000000000E+00 0. -1.
        -11   -1    0    0    0    0 -0.00000000000E+00 -0.00000000000E+00 -0.40000000000E+02  0.40000000000E+02  0.00000000000E+00 0.  1.
         23    2    1    2    0    0  0.00000000000E+00  0.00000000000E+00  0.00000000000E+00  0.80000000000E+02  0.80000000000E+02 0.  0.
          5    1    3    3  501    0 -0.32434269363E+02  0.89174315983E+01  0.21128359724E+02  0.40000000000E+02  0.47000000000E+01 0. -1.
         -5    1    3    3    0  501  0.32434269363E+02 -0.89174315983E+01 -0.21128359724E+02  0.40000000000E+02  0.47000000000E+01 0.  1.
</event>
<event>
 5    1  0.4761089E-001  0.8000000E+02  0.7546771E-02  0.1203772E+00
         11   -1    0    0    0    0  0.00000000000E+00  0.00000000000E+00  0.40000000000E+02  0.40000000000E+02  0.00000000000E+00 0.  1.
        -11   -1    0    0    0    0 -0.00000000000E+00 -0.00000000000E+00 -0.40000000000E+02  0.40000000000E+02  0.00000000000E+00 0. -1.
         23    2    1    2    0    0  0.00000000000E+00  0.00000000000E+00  0.00000000000E+00  0.80000000000E+02  0.80000000000E+02 0.  0.
          5    1    3    3  501    0 -0.33066949054E+02 -0.17633653999E+02 -0.13173500936E+02  0.40000000000E+02  0.47000000000E+01 0. -1.
         -5    1    3    3    0  501  0.33066949054E+02  0.17633653999E+02  0.13173500936E+02  0.40000000000E+02  0.47000000000E+01 0.  1.
</event>
<event>
 5    1  0.4761089E-001  0.8000000E+02  0.7546771E-02  0.1203772E+00
         11   -1    0    0    0    0  0.00000000000E+00  0.00000000000E+00  0.40000000000E+02  0.40000000000E+02  0.00000000000E+00 0. -1.
        -11   -1    0    0    0    0 -0.00000000000E+00 -0.00000000000E+00 -0.40000000000E+02  0.40000000000E+02  0.00000000000E+00 0.  1.
         23    2    1    2    0    0  0.00000000000E+00  0.00000000000E+00  0.00000000000E+00  0.80000000000E+02  0.80000000000E+02 0.  0.
          5    1    3    3  501    0 -0.14694621664E+01  0.39577368452E+02  0.30631009346E+01  0.40000000000E+02  0.47000000000E+01 0. -1.
         -5    1    3    3    0  501  0.14694621664E+01 -0.39577368452E+02 -0.30631009346E+01  0.40000000000E+02  0.47000000000E+01 0.  1.
</event>
<event>
 5    1  0.4761089E-001  0.8000000E+02  0.7546771E-02  0.1203772E+00
         11   -1    0    0    0    0  0.00000000000E+00  0.00000000000E+00  0.40000000000E+02  0.40000000000E+02  0.00000000000E+00 0. -1.
        -11   -1    0    0    0    0 -0.00000000000E+00 -0.00000000000E+00 -0.40000000000E+02  0.40000000000E+02  0.00000000000E+00 0.  1.
         23    2    1    2    0    0  0.00000000000E+00  0.00000000000E+00  0.00000000000E+00  0.80000000000E+02  0.80000000000E+02 0.  0.
          5    1    3    3  501    0  0.27729437835E+02 -0.97104855867E+01  0.26733775398E+02  0.40000000000E+02  0.47000000000E+01 0. -1.
         -5    1    3    3    0  501 -0.27729437835E+02  0.97104855867E+01 -0.26733775398E+02  0.40000000000E+02  0.47000000000E+01 0.  1.
</event>
<event>
 5    1  0.4761089E-001  0.8000000E+02  0.7546771E-02  0.1203772E+00
         11   -1    0    0    0    0  0.00000000000E+00  0.00000000000E+00  0.40000000000E+02  0.40000000000E+02  0.00000000000E+00 0.  1.
        -11   -1    0    0    0    0 -0.00000000000E+00 -0.00000000000E+00 -0.40000000000E+02  0.40000000000E+02  0.00000000000E+00 0. -1.
         23    2    1    2    0    0  0.00000000000E+00  0.00000000000E+00  0.00000000000E+00  0.80000000000E+02  0.80000000000E+02 0.  0.
          5    1    3    3  501    0  0.14682561523E+02  0.21599788138E+02 -0.29929609745E+02  0.40000000000E+02  0.47000000000E+01 0. -1.
         -5    1    3    3    0  501 -0.14682561523E+02 -0.21599788138E+02  0.29929609745E+02  0.40000000000E+02  0.47000000000E+01 0.  1.
</event>
<event>
 5    1  0.4761089E-001  0.8000000E+02  0.7546771E-02  0.1203772E+00
         11   -1    0    0    0    0  0.00000000000E+00  0.00000000000E+00  0.40000000000E+02  0.40000000000E+02  0.00000000000E+00 0. -1.
        -11   -1    0    0    0    0 -0.00000000000E+00 -0.00000000000E+00 -0.40000000000E+02  0.40000000000E+02  0.00000000000E+00 0.  1.
         23    2    1    2    0    0  0.00000000000E+00  0.00000000000E+00  0.00000000000E+00  0.80000000000E+02  0.80000000000E+02 0.  0.
          5    1    3    3  501    0 -0.96466105191E+01 -0.25200705010E+02  0.29150941194E+02  0.40000000000E+02  0.47000000000E+01 0. -1.
         -5    1    3    3    0  501  0.96466105191E+01  0.25200705010E+02 -0.29150941194E+02  0.40000000000E+02  0.47000000000E+01 0.  1.
</event>
<event>
 5    1  0.4761089E-001  0.8000000E+02  0.7546771E-02  0.1203772E+00
         11   -1    0    0    0    0  0.00000000000E+00  0.00000000000E+00  0.40000000000E+02  0.40000000000E+02  0.00000000000E+00 0. -1.
        -11   -1    0    0    0    0 -0.00000000000E+00 -0.00000000000E+00 -0.40000000000E+02  0.40000000000E+02  0.00000000000E+00 0.  1.
         23    2    1    2    0    0  0.00000000000E+00  0.00000000000E+00  0.00000000000E+00  0.80000000000E+02  0.80000000000E+02 0.  0.
          5    1    3    3  501    0 -0.18061818232E+02 -0.19959556595E+02  0.29211244799E+02  0.40000000000E+02  0.47000000000E+01 0. -1.
         -5    1    3    3    0  501  0.18061818232E+02  0.19959556595E+02 -0.29211244799E+02  0.40000000000E+02  0.47000000000E+01 0.  1.
</event>
<event>
 5    1  0.4761089E-001  0.8000000E+02  0.7546771E-02  0.1203772E+00
         11   -1    0    0    0    0  0.00000000000E+00  0.00000000000E+00  0.40000000000E+02  0.40000000000E+02  0.00000000000E+00 0.  1.
        -11   -1    0    0    0    0 -0.00000000000E+00 -0.00000000000E+00 -0.40000000000E+02  0.40000000000E+02  0.00000000000E+00 0. -1.
         23    2    1    2    0    0  0.00000000000E+00  0.00000000000E+00  0.00000000000E+00  0.80000000000E+02  0.80000000000E+02 0.  0.
          5    1    3    3  501    0 -0.57208188485E+01  0.96404700708E+01 -0.38108313640E+02  0.40000000000E+02  0.47000000000E+01 0. -1.
         -5    1    3    3    0  501  0.57208188485E+01 -0.96404700708E+01  0.38108313640E+02  0.40000000000E+02  0.47000000000E+01 0.  1.
</event>
<event>
 5    1  0.4761089E-001  0.8000000E+02  0.7546771E-02  0.1203772E+00
         11   -1    0    0    0    0  0.00000000000E+00  0.00000000000E+00  0.40000000000E+02  0.40000000000E+02  0.00000000000E+00 0. -1.
        -11   -1    0    0    0    0 -0.00000000000E+00 -0.00000000000E+00 -0.40000000000E+02  0.40000000000E+02  0.00000000000E+00 0.  1.
         23    2    1    2    0    0  0.00000000000E+00  0.00000000000E+00  0.00000000000E+00  0.80000000000E+02  0.80000000000E+02 0.  0.
          5    1    3    3  501    0 -0.35095830716E+01 -0.29413605353E+02  0.26465688104E+02  0.40000000000E+02  0.47000000000E+01 0. -1.
         -5    1    3    3    0  501  0.35095830716E+01  0.29413605353E+02 -0.26465688104E+02  0.40000000000E+02  0.47000000000E+01 0.  1.
</event>
<event>
 5    1  0.4761089E-001  0.8000000E+02  0.7546771E-02  0.1203772E+00
         11   -1    0    0    0    0  0.00000000000E+00  0.00000000000E+00  0.40000000000E+02  0.40000000000E+02  0.00000000000E+00 0.  1.
        -11   -1    0    0    0    0 -0.00000000000E+00 -0.00000000000E+00 -0.40000000000E+02  0.40000000000E+02  0.00000000000E+00 0. -1.
         23    2    1    2    0    0  0.00000000000E+00  0.00000000000E+00  0.00000000000E+00  0.80000000000E+02  0.80000000000E+02 0.  0.
          5    1    3    3  501    0 -0.23810223133E+02  0.15625980053E+01 -0.31757543385E+02  0.40000000000E+02  0.47000000000E+01 0. -1.
         -5    1    3    3    0  501  0.23810223133E+02 -0.15625980053E+01  0.31757543385E+02  0.40000000000E+02  0.47000000000E+01 0.  1.
</event>
<event>
 5    1  0.4761089E-001  0.8000000E+02  0.7546771E-02  0.1203772E+00
         11   -1    0    0    0    0  0.00000000000E+00  0.00000000000E+00  0.40000000000E+02  0.40000000000E+02  0.00000000000E+00 0.  1.
        -11   -1    0    0    0    0 -0.00000000000E+00 -0.00000000000E+00 -0.40000000000E+02  0.40000000000E+02  0.00000000000E+00 0. -1.
         23    2    1    2    0    0  0.00000000000E+00  0.00000000000E+00  0.00000000000E+00  0.80000000000E+02  0.80000000000E+02 0.  0.
          5    1    3    3  501    0  0.14860418199E+02  0.11584377644E+02 -0.34969703538E+02  0.40000000000E+02  0.47000000000E+01 0. -1.
         -5    1    3    3    0  501 -0.14860418199E+02 -0.11584377644E+02  0.34969703538E+02  0.40000000000E+02  0.47000000000E+01 0.  1.
</event>
<event>
 5    1  0.4761089E-001  0.8000000E+02  0.7546771E-02  0.1203772E+00
         11   -1    0    0    0    0  0.00000000000E+00  0.00000000000E+00  0.40000000000E+02  0.40000000000E+02  0.00000000000E+00 0.  1.
        -11   -1    0    0    0    0 -0.00000000000E+00 -0.00000000000E+00 -0.40000000000E+02  0.40000000000E+02  0.00000000000E+00 0. -1.
         23    2    1    2    0    0  0.00000000000E+00  0.00000000000E+00  0.00000000000E+00  0.80000000000E+02  0.80000000000E+02 0.  0.
          5    1    3    3  501    0  0.35443848396E+02  0.89086303617E+01 -0.15565343427E+02  0.40000000000E+02  0.47000000000E+01 0. -1.
         -5    1    3    3    0  501 -0.35443848396E+02 -0.89086303617E+01  0.15565343427E+02  0.40000000000E+02  0.47000000000E+01 0.  1.
</event>
<event>
 5    1  0.4761089E-001  0.8000000E+02  0.7546771E-02  0.1203772E+00
         11   -1    0    0    0    0  0.00000000000E+00  0.00000000000E+00  0.40000000000E+02  0.40000000000E+02  0.00000000000E+00 0. -1.
        -11   -1    0    0    0    0 -0.00000000000E+00 -0.00000000000E+00 -0.40000000000E+02  0.40000000000E+02  0.00000000000E+00 0.  1.
         23    2    1    2    0    0  0.00000000000E+00  0.00000000000E+00  0.00000000000E+00  0.80000000000E+02  0.80000000000E+02 0.  0.
          5    1    3    3  501    0 -0.31825106095E+01 -0.24206751438E+02  0.31333924284E+02  0.40000000000E+02  0.47000000000E+01 0. -1.
         -5    1    3    3    0  501  0.31825106095E+01  0.24206751438E+02 -0.31333924284E+02  0.40000000000E+02  0.47000000000E+01 0.  1.
</event>
<event>
 5    1  0.4761089E-001  0.8000000E+02  0.7546771E-02  0.1203772E+00
         11   -1    0    0    0    0  0.00000000000E+00  0.00000000000E+00  0.40000000000E+02  0.40000000000E+02  0.00000000000E+00 0.  1.
        -11   -1    0    0    0    0 -0.00000000000E+00 -0.00000000000E+00 -0.40000000000E+02  0.40000000000E+02  0.00000000000E+00 0. -1.
         23    2    1    2    0    0  0.00000000000E+00  0.00000000000E+00  0.00000000000E+00  0.80000000000E+02  0.80000000000E+02 0.  0.
          5    1    3    3  501    0  0.14177370218E+02  0.59024105641E+01 -0.36634324386E+02  0.40000000000E+02  0.47000000000E+01 0. -1.
         -5    1    3    3    0  501 -0.14177370218E+02 -0.59024105641E+01  0.36634324386E+02  0.40000000000E+02  0.47000000000E+01 0.  1.
</event>
<event>
 5    1  0.4761089E-001  0.8000000E+02  0.7546771E-02  0.1203772E+00
         11   -1    0    0    0    0  0.00000000000E+00  0.00000000000E+00  0.40000000000E+02  0.40000000000E+02  0.00000000000E+00 0.  1.
        -11   -1    0    0    0    0 -0.00000000000E+00 -0.00000000000E+00 -0.40000000000E+02  0.40000000000E+02  0.00000000000E+00 0. -1.
         23    2    1    2    0    0  0.00000000000E+00  0.00000000000E+00  0.00000000000E+00  0.80000000000E+02  0.80000000000E+02 0.  0.
          5    1    3    3  501    0  0.28228789611E+02 -0.12561628545E+02 -0.24964993999E+02  0.40000000000E+02  0.47000000000E+01 0. -1.
         -5    1    3    3    0  501 -0.28228789611E+02  0.12561628545E+02  0.24964993999E+02  0.40000000000E+02  0.47000000000E+01 0.  1.
</event>
<event>
 5    1  0.4761089E-001  0.8000000E+02  0.7546771E-02  0.1203772E+00
         11   -1    0    0    0    0  0.00000000000E+00  0.00000000000E+00  0.40000000000E+02  0.40000000000E+02  0.00000000000E+00 0. -1.
        -11   -1    0    0    0    0 -0.00000000000E+00 -0.00000000000E+00 -0.40000000000E+02  0.40000000000E+02  0.00000000000E+00 0.  1.
         23    2    1    2    0    0  0.00000000000E+00  0.00000000000E+00  0.00000000000E+00  0.80000000000E+02  0.80000000000E+02 0.  0.
          5    1    3    3  501    0  0.30835242338E+02  0.14774673014E+02 -0.20218972954E+02  0.40000000000E+02  0.47000000000E+01 0. -1.
         -5    1    3    3    0  501 -0.30835242338E+02 -0.14774673014E+02  0.20218972954E+02  0.40000000000E+02  0.47000000000E+01 0.  1.
</event>
<event>
 5    1  0.4761089E-001  0.8000000E+02  0.7546771E-02  0.1203772E+00
         11   -1    0    0    0    0  0.00000000000E+00  0.00000000000E+00  0.40000000000E+02  0.40000000000E+02  0.00000000000E+00 0.  1.
        -11   -1    0    0    0    0 -0.00000000000E+00 -0.00000000000E+00 -0.40000000000E+02  0.40000000000E+02  0.00000000000E+00 0. -1.
         23    2    1    2    0    0  0.00000000000E+00  0.00000000000E+00  0.00000000000E+00  0.80000000000E+02  0.80000000000E+02 0.  0.
          5    1    3    3  501    0 -0.18090244647E+02 -0.11289829475E+01 -0.35346547867E+02  0.40000000000E+02  0.47000000000E+01 0. -1.
         -5    1    3    3    0  501  0.18090244647E+02  0.11289829475E+01  0.35346547867E+02  0.40000000000E+02  0.47000000000E+01 0.  1.
</event>
<event>
 5    1  0.4761089E-001  0.8000000E+02  0.7546771E-02  0.1203772E+00
         11   -1    0    0    0    0  0.00000000000E+00  0.00000000000E+00  0.40000000000E+02  0.40000000000E+02  0.00000000000E+00 0.  1.
        -11   -1    0    0    0    0 -0.00000000000E+00 -0.00000000000E+00 -0.40000000000E+02  0.40000000000E+02  0.00000000000E+00 0. -1.
         23    2    1    2    0    0  0.00000000000E+00  0.00000000000E+00  0.00000000000E+00  0.80000000000E+02  0.80000000000E+02 0.  0.
          5    1    3    3  501    0  0.33335690289E+02  0.14523319039E+02 -0.15991089927E+02  0.40000000000E+02  0.47000000000E+01 0. -1.
         -5    1    3    3    0  501 -0.33335690289E+02 -0.14523319039E+02  0.15991089927E+02  0.40000000000E+02  0.47000000000E+01 0.  1.
</event>
<event>
 5    1  0.4761089E-001  0.8000000E+02  0.7546771E-02  0.1203772E+00
         11   -1    0    0    0    0  0.00000000000E+00  0.00000000000E+00  0.40000000000E+02  0.40000000000E+02  0.00000000000E+00 0. -1.
        -11   -1    0    0    0    0 -0.00000000000E+00 -0.00000000000E+00 -0.40000000000E+02  0.40000000000E+02  0.00000000000E+00 0.  1.
         23    2    1    2    0    0  0.00000000000E+00  0.00000000000E+00  0.00000000000E+00  0.80000000000E+02  0.80000000000E+02 0.  0.
          5    1    3    3  501    0  0.20453093044E+02 -0.18034063839E+02  0.28885178317E+02  0.40000000000E+02  0.47000000000E+01 0. -1.
         -5    1    3    3    0  501 -0.20453093044E+02  0.18034063839E+02 -0.28885178317E+02  0.40000000000E+02  0.47000000000E+01 0.  1.
</event>
<event>
 5    1  0.4761089E-001  0.8000000E+02  0.7546771E-02  0.1203772E+00
         11   -1    0    0    0    0  0.00000000000E+00  0.00000000000E+00  0.40000000000E+02  0.40000000000E+02  0.00000000000E+00 0.  1.
        -11   -1    0    0    0    0 -0.00000000000E+00 -0.00000000000E+00 -0.40000000000E+02  0.40000000000E+02  0.00000000000E+00 0. -1.
         23    2    1    2    0    0  0.00000000000E+00  0.00000000000E+00  0.00000000000E+00  0.80000000000E+02  0.80000000000E+02 0.  0.
          5    1    3    3  501    0  0.25582301986E+02  0.29105696349E+02 -0.87358036349E+01  0.40000000000E+02  0.47000000000E+01 0. -1.
         -5    1    3    3    0  501 -0.25582301986E+02 -0.29105696349E+02  0.87358036349E+01  0.40000000000E+02  0.47000000000E+01 0.  1.
</event>
<event>
 5    1  0.4761089E-001  0.8000000E+02  0.7546771E-02  0.1203772E+00
         11   -1    0    0    0    0  0.00000000000E+00  0.00000000000E+00  0.40000000000E+02  0.40000000000E+02  0.00000000000E+00 0.  1.
        -11   -1    0    0    0    0 -0.00000000000E+00 -0.00000000000E+00 -0.40000000000E+02  0.40000000000E+02  0.00000000000E+00 0. -1.
         23    2    1    2    0    0  0.00000000000E+00  0.00000000000E+00  0.00000000000E+00  0.80000000000E+02  0.80000000000E+02 0.  0.
          5    1    3    3  501    0  0.26906311026E+02 -0.22273755374E+02 -0.18916665893E+02  0.40000000000E+02  0.47000000000E+01 0. -1.
         -5    1    3    3    0  501 -0.26906311026E+02  0.22273755374E+02  0.18916665893E+02  0.40000000000E+02  0.47000000000E+01 0.  1.
</event>
<event>
 5    1  0.4761089E-001  0.8000000E+02  0.7546771E-02  0.1203772E+00
         11   -1    0    0    0    0  0.00000000000E+00  0.00000000000E+00  0.40000000000E+02  0.40000000000E+02  0.00000000000E+00 0.  1.
        -11   -1    0    0    0    0 -0.00000000000E+00 -0.00000000000E+00 -0.40000000000E+02  0.40000000000E+02  0.00000000000E+00 0. -1.
         23    2    1    2    0    0  0.00000000000E+00  0.00000000000E+00  0.00000000000E+00  0.80000000000E+02  0.80000000000E+02 0.  0.
          5    1    3    3  501    0  0.35304780732E+02 -0.15946305312E+02  0.87862281090E+01  0.40000000000E+02  0.47000000000E+01 0. -1.
         -5    1    3    3    0  501 -0.35304780732E+02  0.15946305312E+02 -0.87862281090E+01  0.40000000000E+02  0.47000000000E+01 0.  1.
</event>
<event>
 5    1  0.4761089E-001  0.8000000E+02  0.7546771E-02  0.1203772E+00
         11   -1    0    0    0    0  0.00000000000E+00  0.00000000000E+00  0.40000000000E+02  0.40000000000E+02  0.00000000000E+00 0.  1.
        -11   -1    0    0    0    0 -0.00000000000E+00 -0.00000000000E+00 -0.40000000000E+02  0.40000000000E+02  0.00000000000E+00 0. -1.
         23    2    1    2    0    0  0.00000000000E+00  0.00000000000E+00  0.00000000000E+00  0.80000000000E+02  0.80000000000E+02 0.  0.
          5    1    3    3  501    0 -0.15020487235E+02  0.10536544556E+02 -0.35231749773E+02  0.40000000000E+02  0.47000000000E+01 0. -1.
         -5    1    3    3    0  501  0.15020487235E+02 -0.10536544556E+02  0.35231749773E+02  0.40000000000E+02  0.47000000000E+01 0.  1.
</event>
<event>
 5    1  0.4761089E-001  0.8000000E+02  0.7546771E-02  0.1203772E+00
         11   -1    0    0    0    0  0.00000000000E+00  0.00000000000E+00  0.40000000000E+02  0.40000000000E+02  0.00000000000E+00 0.  1.
        -11   -1    0    0    0    0 -0.00000000000E+00 -0.00000000000E+00 -0.40000000000E+02  0.40000000000E+02  0.00000000000E+00 0. -1.
         23    2    1    2    0    0  0.00000000000E+00  0.00000000000E+00  0.00000000000E+00  0.80000000000E+02  0.80000000000E+02 0.  0.
          5    1    3    3  501    0  0.22237959567E+02 -0.34102326387E+01 -0.32737646031E+02  0.40000000000E+02  0.47000000000E+01 0. -1.
         -5    1    3    3    0  501 -0.22237959567E+02  0.34102326387E+01  0.32737646031E+02  0.40000000000E+02  0.47000000000E+01 0.  1.
</event>
<event>
 5    1  0.4761089E-001  0.8000000E+02  0.7546771E-02  0.1203772E+00
         11   -1    0    0    0    0  0.00000000000E+00  0.00000000000E+00  0.40000000000E+02  0.40000000000E+02  0.00000000000E+00 0.  1.
        -11   -1    0    0    0    0 -0.00000000000E+00 -0.00000000000E+00 -0.40000000000E+02  0.40000000000E+02  0.00000000000E+00 0. -1.
         23    2    1    2    0    0  0.00000000000E+00  0.00000000000E+00  0.00000000000E+00  0.80000000000E+02  0.80000000000E+02 0.  0.
          5    1    3    3  501    0  0.34315744804E+02 -0.13767968236E+02 -0.14518357661E+02  0.40000000000E+02  0.47000000000E+01 0. -1.
         -5    1    3    3    0  501 -0.34315744804E+02  0.13767968236E+02  0.14518357661E+02  0.40000000000E+02  0.47000000000E+01 0.  1.
</event>
<event>
 5    1  0.4761089E-001  0.8000000E+02  0.7546771E-02  0.1203772E+00
         11   -1    0    0    0    0  0.00000000000E+00  0.00000000000E+00  0.40000000000E+02  0.40000000000E+02  0.00000000000E+00 0. -1.
        -11   -1    0    0    0    0 -0.00000000000E+00 -0.00000000000E+00 -0.40000000000E+02  0.40000000000E+02  0.00000000000E+00 0.  1.
         23    2    1    2    0    0  0.00000000000E+00  0.00000000000E+00  0.00000000000E+00  0.80000000000E+02  0.80000000000E+02 0.  0.
          5    1    3    3  501    0  0.56126335449E+01  0.69896738118E+01  0.38698227410E+02  0.40000000000E+02  0.47000000000E+01 0. -1.
         -5    1    3    3    0  501 -0.56126335449E+01 -0.69896738118E+01 -0.38698227410E+02  0.40000000000E+02  0.47000000000E+01 0.  1.
</event>
<event>
 5    1  0.4761089E-001  0.8000000E+02  0.7546771E-02  0.1203772E+00
         11   -1    0    0    0    0  0.00000000000E+00  0.00000000000E+00  0.40000000000E+02  0.40000000000E+02  0.00000000000E+00 0.  1.
        -11   -1    0    0    0    0 -0.00000000000E+00 -0.00000000000E+00 -0.40000000000E+02  0.40000000000E+02  0.00000000000E+00 0. -1.
         23    2    1    2    0    0  0.00000000000E+00  0.00000000000E+00  0.00000000000E+00  0.80000000000E+02  0.80000000000E+02 0.  0.
          5    1    3    3  501    0  0.37752274466E+02 -0.40251509195E+01  0.11682205816E+02  0.40000000000E+02  0.47000000000E+01 0. -1.
         -5    1    3    3    0  501 -0.37752274466E+02  0.40251509195E+01 -0.11682205816E+02  0.40000000000E+02  0.47000000000E+01 0.  1.
</event>
<event>
 5    1  0.4761089E-001  0.8000000E+02  0.7546771E-02  0.1203772E+00
         11   -1    0    0    0    0  0.00000000000E+00  0.00000000000E+00  0.40000000000E+02  0.40000000000E+02  0.00000000000E+00 0. -1.
        -11   -1    0    0    0    0 -0.00000000000E+00 -0.00000000000E+00 -0.40000000000E+02  0.40000000000E+02  0.00000000000E+00 0.  1.
         23    2    1    2    0    0  0.00000000000E+00  0.00000000000E+00  0.00000000000E+00  0.80000000000E+02  0.80000000000E+02 0.  0.
          5    1    3    3  501    0 -0.51589005006E-01 -0.29438293043E+02  0.26670100137E+02  0.40000000000E+02  0.47000000000E+01 0. -1.
         -5    1    3    3    0  501  0.51589005006E-01  0.29438293043E+02 -0.26670100137E+02  0.40000000000E+02  0.47000000000E+01 0.  1.
</event>
<event>
 5    1  0.4761089E-001  0.8000000E+02  0.7546771E-02  0.1203772E+00
         11   -1    0    0    0    0  0.00000000000E+00  0.00000000000E+00  0.40000000000E+02  0.40000000000E+02  0.00000000000E+00 0.  1.
        -11   -1    0    0    0    0 -0.00000000000E+00 -0.00000000000E+00 -0.40000000000E+02  0.40000000000E+02  0.00000000000E+00 0. -1.
         23    2    1    2    0    0  0.00000000000E+00  0.00000000000E+00  0.00000000000E+00  0.80000000000E+02  0.80000000000E+02 0.  0.
          5    1    3    3  501    0 -0.20958709000E+01 -0.37362215582E+02 -0.13325996096E+02  0.40000000000E+02  0.47000000000E+01 0. -1.
         -5    1    3    3    0  501  0.20958709000E+01  0.37362215582E+02  0.13325996096E+02  0.40000000000E+02  0.47000000000E+01 0.  1.
</event>
<event>
 5    1  0.4761089E-001  0.8000000E+02  0.7546771E-02  0.1203772E+00
         11   -1    0    0    0    0  0.00000000000E+00  0.00000000000E+00  0.40000000000E+02  0.40000000000E+02  0.00000000000E+00 0.  1.
        -11   -1    0    0    0    0 -0.00000000000E+00 -0.00000000000E+00 -0.40000000000E+02  0.40000000000E+02  0.00000000000E+00 0. -1.
         23    2    1    2    0    0  0.00000000000E+00  0.00000000000E+00  0.00000000000E+00  0.80000000000E+02  0.80000000000E+02 0.  0.
          5    1    3    3  501    0 -0.84075176104E+01  0.31920815411E+02 -0.22097176089E+02  0.40000000000E+02  0.47000000000E+01 0. -1.
         -5    1    3    3    0  501  0.84075176104E+01 -0.31920815411E+02  0.22097176089E+02  0.40000000000E+02  0.47000000000E+01 0.  1.
</event>
<event>
 5    1  0.4761089E-001  0.8000000E+02  0.7546771E-02  0.1203772E+00
         11   -1    0    0    0    0  0.00000000000E+00  0.00000000000E+00  0.40000000000E+02  0.40000000000E+02  0.00000000000E+00 0.  1.
        -11   -1    0    0    0    0 -0.00000000000E+00 -0.00000000000E+00 -0.40000000000E+02  0.40000000000E+02  0.00000000000E+00 0. -1.
         23    2    1    2    0    0  0.00000000000E+00  0.00000000000E+00  0.00000000000E+00  0.80000000000E+02  0.80000000000E+02 0.  0.
          5    1    3    3  501    0 -0.33207157097E+02  0.21242876618E+02  0.48923318127E+01  0.40000000000E+02  0.47000000000E+01 0. -1.
         -5    1    3    3    0  501  0.33207157097E+02 -0.21242876618E+02 -0.48923318127E+01  0.40000000000E+02  0.47000000000E+01 0.  1.
</event>
<event>
 5    1  0.4761089E-001  0.8000000E+02  0.7546771E-02  0.1203772E+00
         11   -1    0    0    0    0  0.00000000000E+00  0.00000000000E+00  0.40000000000E+02  0.40000000000E+02  0.00000000000E+00 0.  1.
        -11   -1    0    0    0    0 -0.00000000000E+00 -0.00000000000E+00 -0.40000000000E+02  0.40000000000E+02  0.00000000000E+00 0. -1.
         23    2    1    2    0    0  0.00000000000E+00  0.00000000000E+00  0.00000000000E+00  0.80000000000E+02  0.80000000000E+02 0.  0.
          5    1    3    3  501    0 -0.15841764016E+02  0.83855527924E+01 -0.35448991766E+02  0.40000000000E+02  0.47000000000E+01 0. -1.
         -5    1    3    3    0  501  0.15841764016E+02 -0.83855527924E+01  0.35448991766E+02  0.40000000000E+02  0.47000000000E+01 0.  1.
</event>
<event>
 5    1  0.4761089E-001  0.8000000E+02  0.7546771E-02  0.1203772E+00
         11   -1    0    0    0    0  0.00000000000E+00  0.00000000000E+00  0.40000000000E+02  0.40000000000E+02  0.00000000000E+00 0. -1.
        -11   -1    0    0    0    0 -0.00000000000E+00 -0.00000000000E+00 -0.40000000000E+02  0.40000000000E+02  0.00000000000E+00 0.  1.
         23    2    1    2    0    0  0.00000000000E+00  0.00000000000E+00  0.00000000000E+00  0.80000000000E+02  0.80000000000E+02 0.  0.
          5    1    3    3  501    0  0.35577095264E+02 -0.11030306238E+02  0.13802631519E+02  0.40000000000E+02  0.47000000000E+01 0. -1.
         -5    1    3    3    0  501 -0.35577095264E+02  0.11030306238E+02 -0.13802631519E+02  0.40000000000E+02  0.47000000000E+01 0.  1.
</event>
<event>
 5    1  0.4761089E-001  0.8000000E+02  0.7546771E-02  0.1203772E+00
         11   -1    0    0    0    0  0.00000000000E+00  0.00000000000E+00  0.40000000000E+02  0.40000000000E+02  0.00000000000E+00 0. -1.
        -11   -1    0    0    0    0 -0.00000000000E+00 -0.00000000000E+00 -0.40000000000E+02  0.40000000000E+02  0.00000000000E+00 0.  1.
         23    2    1    2    0    0  0.00000000000E+00  0.00000000000E+00  0.00000000000E+00  0.80000000000E+02  0.80000000000E+02 0.  0.
          5    1    3    3  501    0 -0.26670559482E+02 -0.20847729207E+02  0.20783730268E+02  0.40000000000E+02  0.47000000000E+01 0. -1.
         -5    1    3    3    0  501  0.26670559482E+02  0.20847729207E+02 -0.20783730268E+02  0.40000000000E+02  0.47000000000E+01 0.  1.
</event>
<event>
 5    1  0.4761089E-001  0.8000000E+02  0.7546771E-02  0.1203772E+00
         11   -1    0    0    0    0  0.00000000000E+00  0.00000000000E+00  0.40000000000E+02  0.40000000000E+02  0.00000000000E+00 0.  1.
        -11   -1    0    0    0    0 -0.00000000000E+00 -0.00000000000E+00 -0.40000000000E+02  0.40000000000E+02  0.00000000000E+00 0. -1.
         23    2    1    2    0    0  0.00000000000E+00  0.00000000000E+00  0.00000000000E+00  0.80000000000E+02  0.80000000000E+02 0.  0.
          5    1    3    3  501    0  0.35053180847E+02  0.67128615144E+01 -0.17439094093E+02  0.40000000000E+02  0.47000000000E+01 0. -1.
         -5    1    3    3    0  501 -0.35053180847E+02 -0.67128615144E+01  0.17439094093E+02  0.40000000000E+02  0.47000000000E+01 0.  1.
</event>
<event>
 5    1  0.4761089E-001  0.8000000E+02  0.7546771E-02  0.1203772E+00
         11   -1    0    0    0    0  0.00000000000E+00  0.00000000000E+00  0.40000000000E+02  0.40000000000E+02  0.00000000000E+00 0.  1.
        -11   -1    0    0    0    0 -0.00000000000E+00 -0.00000000000E+00 -0.40000000000E+02  0.40000000000E+02  0.00000000000E+00 0. -1.
         23    2    1    2    0    0  0.00000000000E+00  0.00000000000E+00  0.00000000000E+00  0.80000000000E+02  0.80000000000E+02 0.  0.
          5    1    3    3  501    0 -0.15872942987E+02 -0.25096127865E+02 -0.26384541822E+02  0.40000000000E+02  0.47000000000E+01 0. -1.
         -5    1    3    3    0  501  0.15872942987E+02  0.25096127865E+02  0.26384541822E+02  0.40000000000E+02  0.47000000000E+01 0.  1.
</event>
<event>
 5    1  0.4761089E-001  0.8000000E+02  0.7546771E-02  0.1203772E+00
         11   -1    0    0    0    0  0.00000000000E+00  0.00000000000E+00  0.40000000000E+02  0.40000000000E+02  0.00000000000E+00 0. -1.
        -11   -1    0    0    0    0 -0.00000000000E+00 -0.00000000000E+00 -0.40000000000E+02  0.40000000000E+02  0.00000000000E+00 0.  1.
         23    2    1    2    0    0  0.00000000000E+00  0.00000000000E+00  0.00000000000E+00  0.80000000000E+02  0.80000000000E+02 0.  0.
          5    1    3    3  501    0  0.14151645414E+02  0.21391509926E+02  0.30332230962E+02  0.40000000000E+02  0.47000000000E+01 0. -1.
         -5    1    3    3    0  501 -0.14151645414E+02 -0.21391509926E+02 -0.30332230962E+02  0.40000000000E+02  0.47000000000E+01 0.  1.
</event>
<event>
 5    1  0.4761089E-001  0.8000000E+02  0.7546771E-02  0.1203772E+00
         11   -1    0    0    0    0  0.00000000000E+00  0.00000000000E+00  0.40000000000E+02  0.40000000000E+02  0.00000000000E+00 0.  1.
        -11   -1    0    0    0    0 -0.00000000000E+00 -0.00000000000E+00 -0.40000000000E+02  0.40000000000E+02  0.00000000000E+00 0. -1.
         23    2    1    2    0    0  0.00000000000E+00  0.00000000000E+00  0.00000000000E+00  0.80000000000E+02  0.80000000000E+02 0.  0.
          5    1    3    3  501    0  0.13113008751E+02 -0.34210790107E+01 -0.37339727100E+02  0.40000000000E+02  0.47000000000E+01 0. -1.
         -5    1    3    3    0  501 -0.13113008751E+02  0.34210790107E+01  0.37339727100E+02  0.40000000000E+02  0.47000000000E+01 0.  1.
</event>
<event>
 5    1  0.4761089E-001  0.8000000E+02  0.7546771E-02  0.1203772E+00
         11   -1    0    0    0    0  0.00000000000E+00  0.00000000000E+00  0.40000000000E+02  0.40000000000E+02  0.00000000000E+00 0.  1.
        -11   -1    0    0    0    0 -0.00000000000E+00 -0.00000000000E+00 -0.40000000000E+02  0.40000000000E+02  0.00000000000E+00 0. -1.
         23    2    1    2    0    0  0.00000000000E+00  0.00000000000E+00  0.00000000000E+00  0.80000000000E+02  0.80000000000E+02 0.  0.
          5    1    3    3  501    0 -0.33798492776E+02 -0.67481767863E+01 -0.19749278369E+02  0.40000000000E+02  0.47000000000E+01 0. -1.
         -5    1    3    3    0  501  0.33798492776E+02  0.67481767863E+01  0.19749278369E+02  0.40000000000E+02  0.47000000000E+01 0.  1.
</event>
<event>
 5    1  0.4761089E-001  0.8000000E+02  0.7546771E-02  0.1203772E+00
         11   -1    0    0    0    0  0.00000000000E+00  0.00000000000E+00  0.40000000000E+02  0.40000000000E+02  0.00000000000E+00 0.  1.
        -11   -1    0    0    0    0 -0.00000000000E+00 -0.00000000000E+00 -0.40000000000E+02  0.40000000000E+02  0.00000000000E+00 0. -1.
         23    2    1    2    0    0  0.00000000000E+00  0.00000000000E+00  0.00000000000E+00  0.80000000000E+02  0.80000000000E+02 0.  0.
          5    1    3    3  501    0 -0.24870425469E+02 -0.10270800498E+02 -0.29221269550E+02  0.40000000000E+02  0.47000000000E+01 0. -1.
         -5    1    3    3    0  501  0.24870425469E+02  0.10270800498E+02  0.29221269550E+02  0.40000000000E+02  0.47000000000E+01 0.  1.
</event>
<event>
 5    1  0.4761089E-001  0.8000000E+02  0.7546771E-02  0.1203772E+00
         11   -1    0    0    0    0  0.00000000000E+00  0.00000000000E+00  0.40000000000E+02  0.40000000000E+02  0.00000000000E+00 0. -1.
        -11   -1    0    0    0    0 -0.00000000000E+00 -0.00000000000E+00 -0.40000000000E+02  0.40000000000E+02  0.00000000000E+00 0.  1.
         23    2    1    2    0    0  0.00000000000E+00  0.00000000000E+00  0.00000000000E+00  0.80000000000E+02  0.80000000000E+02 0.  0.
          5    1    3    3  501    0  0.12267607300E+02 -0.28699943839E+02  0.24570898127E+02  0.40000000000E+02  0.47000000000E+01 0. -1.
         -5    1    3    3    0  501 -0.12267607300E+02  0.28699943839E+02 -0.24570898127E+02  0.40000000000E+02  0.47000000000E+01 0.  1.
</event>
<event>
 5    1  0.4761089E-001  0.8000000E+02  0.7546771E-02  0.1203772E+00
         11   -1    0    0    0    0  0.00000000000E+00  0.00000000000E+00  0.40000000000E+02  0.40000000000E+02  0.00000000000E+00 0.  1.
        -11   -1    0    0    0    0 -0.00000000000E+00 -0.00000000000E+00 -0.40000000000E+02  0.40000000000E+02  0.00000000000E+00 0. -1.
         23    2    1    2    0    0  0.00000000000E+00  0.00000000000E+00  0.00000000000E+00  0.80000000000E+02  0.80000000000E+02 0.  0.
          5    1    3    3  501    0 -0.10062229721E+02  0.64971633417E+01 -0.37874112551E+02  0.40000000000E+02  0.47000000000E+01 0. -1.
         -5    1    3    3    0  501  0.10062229721E+02 -0.64971633417E+01  0.37874112551E+02  0.40000000000E+02  0.47000000000E+01 0.  1.
</event>
<event>
 5    1  0.4761089E-001  0.8000000E+02  0.7546771E-02  0.1203772E+00
         11   -1    0    0    0    0  0.00000000000E+00  0.00000000000E+00  0.40000000000E+02  0.40000000000E+02  0.00000000000E+00 0.  1.
        -11   -1    0    0    0    0 -0.00000000000E+00 -0.00000000000E+00 -0.40000000000E+02  0.40000000000E+02  0.00000000000E+00 0. -1.
         23    2    1    2    0    0  0.00000000000E+00  0.00000000000E+00  0.00000000000E+00  0.80000000000E+02  0.80000000000E+02 0.  0.
          5    1    3    3  501    0 -0.26771950449E+02  0.16677604280E+02 -0.24146017988E+02  0.40000000000E+02  0.47000000000E+01 0. -1.
         -5    1    3    3    0  501  0.26771950449E+02 -0.16677604280E+02  0.24146017988E+02  0.40000000000E+02  0.47000000000E+01 0.  1.
</event>
<event>
 5    1  0.4761089E-001  0.8000000E+02  0.7546771E-02  0.1203772E+00
         11   -1    0    0    0    0  0.00000000000E+00  0.00000000000E+00  0.40000000000E+02  0.40000000000E+02  0.00000000000E+00 0. -1.
        -11   -1    0    0    0    0 -0.00000000000E+00 -0.00000000000E+00 -0.40000000000E+02  0.40000000000E+02  0.00000000000E+00 0.  1.
         23    2    1    2    0    0  0.00000000000E+00  0.00000000000E+00  0.00000000000E+00  0.80000000000E+02  0.80000000000E+02 0.  0.
          5    1    3    3  501    0  0.29153918063E+02  0.25768874282E+02  0.79952598344E+01  0.40000000000E+02  0.47000000000E+01 0. -1.
         -5    1    3    3    0  501 -0.29153918063E+02 -0.25768874282E+02 -0.79952598344E+01  0.40000000000E+02  0.47000000000E+01 0.  1.
</event>
<event>
 5    1  0.4761089E-001  0.8000000E+02  0.7546771E-02  0.1203772E+00
         11   -1    0    0    0    0  0.00000000000E+00  0.00000000000E+00  0.40000000000E+02  0.40000000000E+02  0.00000000000E+00 0. -1.
        -11   -1    0    0    0    0 -0.00000000000E+00 -0.00000000000E+00 -0.40000000000E+02  0.40000000000E+02  0.00000000000E+00 0.  1.
         23    2    1    2    0    0  0.00000000000E+00  0.00000000000E+00  0.00000000000E+00  0.80000000000E+02  0.80000000000E+02 0.  0.
          5    1    3    3  501    0 -0.17965568193E+02  0.24123144853E+02  0.25946526586E+02  0.40000000000E+02  0.47000000000E+01 0. -1.
         -5    1    3    3    0  501  0.17965568193E+02 -0.24123144853E+02 -0.25946526586E+02  0.40000000000E+02  0.47000000000E+01 0.  1.
</event>
<event>
 5    1  0.4761089E-001  0.8000000E+02  0.7546771E-02  0.1203772E+00
         11   -1    0    0    0    0  0.00000000000E+00  0.00000000000E+00  0.40000000000E+02  0.40000000000E+02  0.00000000000E+00 0.  1.
        -11   -1    0    0    0    0 -0.00000000000E+00 -0.00000000000E+00 -0.40000000000E+02  0.40000000000E+02  0.00000000000E+00 0. -1.
         23    2    1    2    0    0  0.00000000000E+00  0.00000000000E+00  0.00000000000E+00  0.80000000000E+02  0.80000000000E+02 0.  0.
          5    1    3    3  501    0  0.16336492674E+02  0.23777065830E+02 -0.27307144626E+02  0.40000000000E+02  0.47000000000E+01 0. -1.
         -5    1    3    3    0  501 -0.16336492674E+02 -0.23777065830E+02  0.27307144626E+02  0.40000000000E+02  0.47000000000E+01 0.  1.
</event>
<event>
 5    1  0.4761089E-001  0.8000000E+02  0.7546771E-02  0.1203772E+00
         11   -1    0    0    0    0  0.00000000000E+00  0.00000000000E+00  0.40000000000E+02  0.40000000000E+02  0.00000000000E+00 0. -1.
        -11   -1    0    0    0    0 -0.00000000000E+00 -0.00000000000E+00 -0.40000000000E+02  0.40000000000E+02  0.00000000000E+00 0.  1.
         23    2    1    2    0    0  0.00000000000E+00  0.00000000000E+00  0.00000000000E+00  0.80000000000E+02  0.80000000000E+02 0.  0.
          5    1    3    3  501    0  0.11356823887E+02 -0.77712786166E+01  0.37263115542E+02  0.40000000000E+02  0.47000000000E+01 0. -1.
         -5    1    3    3    0  501 -0.11356823887E+02  0.77712786166E+01 -0.37263115542E+02  0.40000000000E+02  0.47000000000E+01 0.  1.
</event>
<event>
 5    1  0.4761089E-001  0.8000000E+02  0.7546771E-02  0.1203772E+00
         11   -1    0    0    0    0  0.00000000000E+00  0.00000000000E+00  0.40000000000E+02  0.40000000000E+02  0.00000000000E+00 0.  1.
        -11   -1    0    0    0    0 -0.00000000000E+00 -0.00000000000E+00 -0.40000000000E+02  0.40000000000E+02  0.00000000000E+00 0. -1.
         23    2    1    2    0    0  0.00000000000E+00  0.00000000000E+00  0.00000000000E+00  0.80000000000E+02  0.80000000000E+02 0.  0.
          5    1    3    3  501    0 -0.25183020977E+02  0.29346064850E+02 -0.90848187825E+01  0.40000000000E+02  0.47000000000E+01 0. -1.
         -5    1    3    3    0  501  0.25183020977E+02 -0.29346064850E+02  0.90848187825E+01  0.40000000000E+02  0.47000000000E+01 0.  1.
</event>
<event>
 5    1  0.4761089E-001  0.8000000E+02  0.7546771E-02  0.1203772E+00
         11   -1    0    0    0    0  0.00000000000E+00  0.00000000000E+00  0.40000000000E+02  0.40000000000E+02  0.00000000000E+00 0. -1.
        -11   -1    0    0    0    0 -0.00000000000E+00 -0.00000000000E+00 -0.40000000000E+02  0.40000000000E+02  0.00000000000E+00 0.  1.
         23    2    1    2    0    0  0.00000000000E+00  0.00000000000E+00  0.00000000000E+00  0.80000000000E+02  0.80000000000E+02 0.  0.
          5    1    3    3  501    0  0.33861161661E+02  0.44636912857E+01  0.20283175075E+02  0.40000000000E+02  0.47000000000E+01 0. -1.
         -5    1    3    3    0  501 -0.33861161661E+02 -0.44636912857E+01 -0.20283175075E+02  0.40000000000E+02  0.47000000000E+01 0.  1.
</event>
<event>
 5    1  0.4761089E-001  0.8000000E+02  0.7546771E-02  0.1203772E+00
         11   -1    0    0    0    0  0.00000000000E+00  0.00000000000E+00  0.40000000000E+02  0.40000000000E+02  0.00000000000E+00 0.  1.
        -11   -1    0    0    0    0 -0.00000000000E+00 -0.00000000000E+00 -0.40000000000E+02  0.40000000000E+02  0.00000000000E+00 0. -1.
         23    2    1    2    0    0  0.00000000000E+00  0.00000000000E+00  0.00000000000E+00  0.80000000000E+02  0.80000000000E+02 0.  0.
          5    1    3    3  501    0 -0.10789582998E+02  0.33314145690E+02 -0.18752669027E+02  0.40000000000E+02  0.47000000000E+01 0. -1.
         -5    1    3    3    0  501  0.10789582998E+02 -0.33314145690E+02  0.18752669027E+02  0.40000000000E+02  0.47000000000E+01 0.  1.
</event>
<event>
 5    1  0.4761089E-001  0.8000000E+02  0.7546771E-02  0.1203772E+00
         11   -1    0    0    0    0  0.00000000000E+00  0.00000000000E+00  0.40000000000E+02  0.40000000000E+02  0.00000000000E+00 0. -1.
        -11   -1    0    0    0    0 -0.00000000000E+00 -0.00000000000E+00 -0.40000000000E+02  0.40000000000E+02  0.00000000000E+00 0.  1.
         23    2    1    2    0    0  0.00000000000E+00  0.00000000000E+00  0.00000000000E+00  0.80000000000E+02  0.80000000000E+02 0.  0.
          5    1    3    3  501    0  0.37671462997E+02 -0.93965924747E+01 -0.83949345179E+01  0.40000000000E+02  0.47000000000E+01 0. -1.
         -5    1    3    3    0  501 -0.37671462997E+02  0.93965924747E+01  0.83949345179E+01  0.40000000000E+02  0.47000000000E+01 0.  1.
</event>
<event>
 5    1  0.4761089E-001  0.8000000E+02  0.7546771E-02  0.1203772E+00
         11   -1    0    0    0    0  0.00000000000E+00  0.00000000000E+00  0.40000000000E+02  0.40000000000E+02  0.00000000000E+00 0. -1.
        -11   -1    0    0    0    0 -0.00000000000E+00 -0.00000000000E+00 -0.40000000000E+02  0.40000000000E+02  0.00000000000E+00 0.  1.
         23    2    1    2    0    0  0.00000000000E+00  0.00000000000E+00  0.00000000000E+00  0.80000000000E+02  0.80000000000E+02 0.  0.
          5    1    3    3  501    0 -0.25265603459E+01 -0.39568253868E+02  0.24248254829E+01  0.40000000000E+02  0.47000000000E+01 0. -1.
         -5    1    3    3    0  501  0.25265603459E+01  0.39568253868E+02 -0.24248254829E+01  0.40000000000E+02  0.47000000000E+01 0.  1.
</event>
<event>
 5    1  0.4761089E-001  0.8000000E+02  0.7546771E-02  0.1203772E+00
         11   -1    0    0    0    0  0.00000000000E+00  0.00000000000E+00  0.40000000000E+02  0.40000000000E+02  0.00000000000E+00 0.  1.
        -11   -1    0    0    0    0 -0.00000000000E+00 -0.00000000000E+00 -0.40000000000E+02  0.40000000000E+02  0.00000000000E+00 0. -1.
         23    2    1    2    0    0  0.00000000000E+00  0.00000000000E+00  0.00000000000E+00  0.80000000000E+02  0.80000000000E+02 0.  0.
          5    1    3    3  501    0  0.12106299291E+02 -0.91013099048E+01 -0.36722114257E+02  0.40000000000E+02  0.47000000000E+01 0. -1.
         -5    1    3    3    0  501 -0.12106299291E+02  0.91013099048E+01  0.36722114257E+02  0.40000000000E+02  0.47000000000E+01 0.  1.
</event>
<event>
 5    1  0.4761089E-001  0.8000000E+02  0.7546771E-02  0.1203772E+00
         11   -1    0    0    0    0  0.00000000000E+00  0.00000000000E+00  0.40000000000E+02  0.40000000000E+02  0.00000000000E+00 0.  1.
        -11   -1    0    0    0    0 -0.00000000000E+00 -0.00000000000E+00 -0.40000000000E+02  0.40000000000E+02  0.00000000000E+00 0. -1.
         23    2    1    2    0    0  0.00000000000E+00  0.00000000000E+00  0.00000000000E+00  0.80000000000E+02  0.80000000000E+02 0.  0.
          5    1    3    3  501    0  0.31510089935E+02  0.91962140156E+01 -0.22370826540E+02  0.40000000000E+02  0.47000000000E+01 0. -1.
         -5    1    3    3    0  501 -0.31510089935E+02 -0.91962140156E+01  0.22370826540E+02  0.40000000000E+02  0.47000000000E+01 0.  1.
</event>
<event>
 5    1  0.4761089E-001  0.8000000E+02  0.7546771E-02  0.1203772E+00
         11   -1    0    0    0    0  0.00000000000E+00  0.00000000000E+00  0.40000000000E+02  0.40000000000E+02  0.00000000000E+00 0.  1.
        -11   -1    0    0    0    0 -0.00000000000E+00 -0.00000000000E+00 -0.40000000000E+02  0.40000000000E+02  0.00000000000E+00 0. -1.
         23    2    1    2    0    0  0.00000000000E+00  0.00000000000E+00  0.00000000000E+00  0.80000000000E+02  0.80000000000E+02 0.  0.
          5    1    3    3  501    0  0.33907937542E+02 -0.95385414019E+01  0.18362407238E+02  0.40000000000E+02  0.47000000000E+01 0. -1.
         -5    1    3    3    0  501 -0.33907937542E+02  0.95385414019E+01 -0.18362407238E+02  0.40000000000E+02  0.47000000000E+01 0.  1.
</event>
<event>
 5    1  0.4761089E-001  0.8000000E+02  0.7546771E-02  0.1203772E+00
         11   -1    0    0    0    0  0.00000000000E+00  0.00000000000E+00  0.40000000000E+02  0.40000000000E+02  0.00000000000E+00 0. -1.
        -11   -1    0    0    0    0 -0.00000000000E+00 -0.00000000000E+00 -0.40000000000E+02  0.40000000000E+02  0.00000000000E+00 0.  1.
         23    2    1    2    0    0  0.00000000000E+00  0.00000000000E+00  0.00000000000E+00  0.80000000000E+02  0.80000000000E+02 0.  0.
          5    1    3    3  501    0 -0.18025893641E+02  0.35306548945E+02  0.25347110399E+01  0.40000000000E+02  0.47000000000E+01 0. -1.
         -5    1    3    3    0  501  0.18025893641E+02 -0.35306548945E+02 -0.25347110399E+01  0.40000000000E+02  0.47000000000E+01 0.  1.
</event>
<event>
 5    1  0.4761089E-001  0.8000000E+02  0.7546771E-02  0.1203772E+00
         11   -1    0    0    0    0  0.00000000000E+00  0.00000000000E+00  0.40000000000E+02  0.40000000000E+02  0.00000000000E+00 0.  1.
        -11   -1    0    0    0    0 -0.00000000000E+00 -0.00000000000E+00 -0.40000000000E+02  0.40000000000E+02  0.00000000000E+00 0. -1.
         23    2    1    2    0    0  0.00000000000E+00  0.00000000000E+00  0.00000000000E+00  0.80000000000E+02  0.80000000000E+02 0.  0.
          5    1    3    3  501    0  0.24197114293E+02  0.29597380192E+02 -0.10789103098E+02  0.40000000000E+02  0.47000000000E+01 0. -1.
         -5    1    3    3    0  501 -0.24197114293E+02 -0.29597380192E+02  0.10789103098E+02  0.40000000000E+02  0.47000000000E+01 0.  1.
</event>
<event>
 5    1  0.4761089E-001  0.8000000E+02  0.7546771E-02  0.1203772E+00
         11   -1    0    0    0    0  0.00000000000E+00  0.00000000000E+00  0.40000000000E+02  0.40000000000E+02  0.00000000000E+00 0.  1.
        -11   -1    0    0    0    0 -0.00000000000E+00 -0.00000000000E+00 -0.40000000000E+02  0.40000000000E+02  0.00000000000E+00 0. -1.
         23    2    1    2    0    0  0.00000000000E+00  0.00000000000E+00  0.00000000000E+00  0.80000000000E+02  0.80000000000E+02 0.  0.
          5    1    3    3  501    0  0.67037300953E+01 -0.27879308913E+02 -0.27490255316E+02  0.40000000000E+02  0.47000000000E+01 0. -1.
         -5    1    3    3    0  501 -0.67037300953E+01  0.27879308913E+02  0.27490255316E+02  0.40000000000E+02  0.47000000000E+01 0.  1.
</event>
<event>
 5    1  0.4761089E-001  0.8000000E+02  0.7546771E-02  0.1203772E+00
         11   -1    0    0    0    0  0.00000000000E+00  0.00000000000E+00  0.40000000000E+02  0.40000000000E+02  0.00000000000E+00 0.  1.
        -11   -1    0    0    0    0 -0.00000000000E+00 -0.00000000000E+00 -0.40000000000E+02  0.40000000000E+02  0.00000000000E+00 0. -1.
         23    2    1    2    0    0  0.00000000000E+00  0.00000000000E+00  0.00000000000E+00  0.80000000000E+02  0.80000000000E+02 0.  0.
          5    1    3    3  501    0  0.37649167395E+02 -0.16501153543E+01 -0.12558953530E+02  0.40000000000E+02  0.47000000000E+01 0. -1.
         -5    1    3    3    0  501 -0.37649167395E+02  0.16501153543E+01  0.12558953530E+02  0.40000000000E+02  0.47000000000E+01 0.  1.
</event>
<event>
 5    1  0.4761089E-001  0.8000000E+02  0.7546771E-02  0.1203772E+00
         11   -1    0    0    0    0  0.00000000000E+00  0.00000000000E+00  0.40000000000E+02  0.40000000000E+02  0.00000000000E+00 0.  1.
        -11   -1    0    0    0    0 -0.00000000000E+00 -0.00000000000E+00 -0.40000000000E+02  0.40000000000E+02  0.00000000000E+00 0. -1.
         23    2    1    2    0    0  0.00000000000E+00  0.00000000000E+00  0.00000000000E+00  0.80000000000E+02  0.80000000000E+02 0.  0.
          5    1    3    3  501    0 -0.22244267287E+02 -0.32833506848E+02  0.22502001920E+01  0.40000000000E+02  0.47000000000E+01 0. -1.
         -5    1    3    3    0  501  0.22244267287E+02  0.32833506848E+02 -0.22502001920E+01  0.40000000000E+02  0.47000000000E+01 0.  1.
</event>
<event>
 5    1  0.4761089E-001  0.8000000E+02  0.7546771E-02  0.1203772E+00
         11   -1    0    0    0    0  0.00000000000E+00  0.00000000000E+00  0.40000000000E+02  0.40000000000E+02  0.00000000000E+00 0.  1.
        -11   -1    0    0    0    0 -0.00000000000E+00 -0.00000000000E+00 -0.40000000000E+02  0.40000000000E+02  0.00000000000E+00 0. -1.
         23    2    1    2    0    0  0.00000000000E+00  0.00000000000E+00  0.00000000000E+00  0.80000000000E+02  0.80000000000E+02 0.  0.
          5    1    3    3  501    0  0.57850360541E+01  0.33569000803E+02  0.20434420543E+02  0.40000000000E+02  0.47000000000E+01 0. -1.
         -5    1    3    3    0  501 -0.57850360541E+01 -0.33569000803E+02 -0.20434420543E+02  0.40000000000E+02  0.47000000000E+01 0.  1.
</event>
<event>
 5    1  0.4761089E-001  0.8000000E+02  0.7546771E-02  0.1203772E+00
         11   -1    0    0    0    0  0.00000000000E+00  0.00000000000E+00  0.40000000000E+02  0.40000000000E+02  0.00000000000E+00 0.  1.
        -11   -1    0    0    0    0 -0.00000000000E+00 -0.00000000000E+00 -0.40000000000E+02  0.40000000000E+02  0.00000000000E+00 0. -1.
         23    2    1    2    0    0  0.00000000000E+00  0.00000000000E+00  0.00000000000E+00  0.80000000000E+02  0.80000000000E+02 0.  0.
          5    1    3    3  501    0 -0.16432902613E+02 -0.36162321405E+02  0.39524967653E+00  0.40000000000E+02  0.47000000000E+01 0. -1.
         -5    1    3    3    0  501  0.16432902613E+02  0.36162321405E+02 -0.39524967653E+00  0.40000000000E+02  0.47000000000E+01 0.  1.
</event>
<event>
 5    1  0.4761089E-001  0.8000000E+02  0.7546771E-02  0.1203772E+00
         11   -1    0    0    0    0  0.00000000000E+00  0.00000000000E+00  0.40000000000E+02  0.40000000000E+02  0.00000000000E+00 0.  1.
        -11   -1    0    0    0    0 -0.00000000000E+00 -0.00000000000E+00 -0.40000000000E+02  0.40000000000E+02  0.00000000000E+00 0. -1.
         23    2    1    2    0    0  0.00000000000E+00  0.00000000000E+00  0.00000000000E+00  0.80000000000E+02  0.80000000000E+02 0.  0.
          5    1    3    3  501    0  0.17539060476E+02 -0.18850237415E+02 -0.30248304201E+02  0.40000000000E+02  0.47000000000E+01 0. -1.
         -5    1    3    3    0  501 -0.17539060476E+02  0.18850237415E+02  0.30248304201E+02  0.40000000000E+02  0.47000000000E+01 0.  1.
</event>
<event>
 5    1  0.4761089E-001  0.8000000E+02  0.7546771E-02  0.1203772E+00
         11   -1    0    0    0    0  0.00000000000E+00  0.00000000000E+00  0.40000000000E+02  0.40000000000E+02  0.00000000000E+00 0.  1.
        -11   -1    0    0    0    0 -0.00000000000E+00 -0.00000000000E+00 -0.40000000000E+02  0.40000000000E+02  0.00000000000E+00 0. -1.
         23    2    1    2    0    0  0.00000000000E+00  0.00000000000E+00  0.00000000000E+00  0.80000000000E+02  0.80000000000E+02 0.  0.
          5    1    3    3  501    0  0.12557662186E+02 -0.25092062010E+01 -0.37602114364E+02  0.40000000000E+02  0.47000000000E+01 0. -1.
         -5    1    3    3    0  501 -0.12557662186E+02  0.25092062010E+01  0.37602114364E+02  0.40000000000E+02  0.47000000000E+01 0.  1.
</event>
<event>
 5    1  0.4761089E-001  0.8000000E+02  0.7546771E-02  0.1203772E+00
         11   -1    0    0    0    0  0.00000000000E+00  0.00000000000E+00  0.40000000000E+02  0.40000000000E+02  0.00000000000E+00 0. -1.
        -11   -1    0    0    0    0 -0.00000000000E+00 -0.00000000000E+00 -0.40000000000E+02  0.40000000000E+02  0.00000000000E+00 0.  1.
         23    2    1    2    0    0  0.00000000000E+00  0.00000000000E+00  0.00000000000E+00  0.80000000000E+02  0.80000000000E+02 0.  0.
          5    1    3    3  501    0  0.22100890964E+02  0.11982876937E+02 -0.30755020386E+02  0.40000000000E+02  0.47000000000E+01 0.  1.
         -5    1    3    3    0  501 -0.22100890964E+02 -0.11982876937E+02  0.30755020386E+02  0.40000000000E+02  0.47000000000E+01 0. -1.
</event>
<event>
 5    1  0.4761089E-001  0.8000000E+02  0.7546771E-02  0.1203772E+00
         11   -1    0    0    0    0  0.00000000000E+00  0.00000000000E+00  0.40000000000E+02  0.40000000000E+02  0.00000000000E+00 0. -1.
        -11   -1    0    0    0    0 -0.00000000000E+00 -0.00000000000E+00 -0.40000000000E+02  0.40000000000E+02  0.00000000000E+00 0.  1.
         23    2    1    2    0    0  0.00000000000E+00  0.00000000000E+00  0.00000000000E+00  0.80000000000E+02  0.80000000000E+02 0.  0.
          5    1    3    3  501    0  0.35448430288E+02  0.15847831384E+02  0.83764569195E+01  0.40000000000E+02  0.47000000000E+01 0. -1.
         -5    1    3    3    0  501 -0.35448430288E+02 -0.15847831384E+02 -0.83764569195E+01  0.40000000000E+02  0.47000000000E+01 0.  1.
</event>
<event>
 5    1  0.4761089E-001  0.8000000E+02  0.7546771E-02  0.1203772E+00
         11   -1    0    0    0    0  0.00000000000E+00  0.00000000000E+00  0.40000000000E+02  0.40000000000E+02  0.00000000000E+00 0. -1.
        -11   -1    0    0    0    0 -0.00000000000E+00 -0.00000000000E+00 -0.40000000000E+02  0.40000000000E+02  0.00000000000E+00 0.  1.
         23    2    1    2    0    0  0.00000000000E+00  0.00000000000E+00  0.00000000000E+00  0.80000000000E+02  0.80000000000E+02 0.  0.
          5    1    3    3  501    0 -0.13071960515E+01  0.96759993492E+01  0.38504237106E+02  0.40000000000E+02  0.47000000000E+01 0. -1.
         -5    1    3    3    0  501  0.13071960515E+01 -0.96759993492E+01 -0.38504237106E+02  0.40000000000E+02  0.47000000000E+01 0.  1.
</event>
<event>
 5    1  0.4761089E-001  0.8000000E+02  0.7546771E-02  0.1203772E+00
         11   -1    0    0    0    0  0.00000000000E+00  0.00000000000E+00  0.40000000000E+02  0.40000000000E+02  0.00000000000E+00 0. -1.
        -11   -1    0    0    0    0 -0.00000000000E+00 -0.00000000000E+00 -0.40000000000E+02  0.40000000000E+02  0.00000000000E+00 0.  1.
         23    2    1    2    0    0  0.00000000000E+00  0.00000000000E+00  0.00000000000E+00  0.80000000000E+02  0.80000000000E+02 0.  0.
          5    1    3    3  501    0 -0.27603569583E+02  0.21939010181E+02  0.18292970742E+02  0.40000000000E+02  0.47000000000E+01 0. -1.
         -5    1    3    3    0  501  0.27603569583E+02 -0.21939010181E+02 -0.18292970742E+02  0.40000000000E+02  0.47000000000E+01 0.  1.
</event>
<event>
 5    1  0.4761089E-001  0.8000000E+02  0.7546771E-02  0.1203772E+00
         11   -1    0    0    0    0  0.00000000000E+00  0.00000000000E+00  0.40000000000E+02  0.40000000000E+02  0.00000000000E+00 0.  1.
        -11   -1    0    0    0    0 -0.00000000000E+00 -0.00000000000E+00 -0.40000000000E+02  0.40000000000E+02  0.00000000000E+00 0. -1.
         23    2    1    2    0    0  0.00000000000E+00  0.00000000000E+00  0.00000000000E+00  0.80000000000E+02  0.80000000000E+02 0.  0.
          5    1    3    3  501    0  0.18045450167E+01 -0.81426329086E+00 -0.39673550290E+02  0.40000000000E+02  0.47000000000E+01 0. -1.
         -5    1    3    3    0  501 -0.18045450167E+01  0.81426329086E+00  0.39673550290E+02  0.40000000000E+02  0.47000000000E+01 0.  1.
</event>
<event>
 5    1  0.4761089E-001  0.8000000E+02  0.7546771E-02  0.1203772E+00
         11   -1    0    0    0    0  0.00000000000E+00  0.00000000000E+00  0.40000000000E+02  0.40000000000E+02  0.00000000000E+00 0.  1.
        -11   -1    0    0    0    0 -0.00000000000E+00 -0.00000000000E+00 -0.40000000000E+02  0.40000000000E+02  0.00000000000E+00 0. -1.
         23    2    1    2    0    0  0.00000000000E+00  0.00000000000E+00  0.00000000000E+00  0.80000000000E+02  0.80000000000E+02 0.  0.
          5    1    3    3  501    0  0.71851994423E+01 -0.18153898864E+02 -0.34593624630E+02  0.40000000000E+02  0.47000000000E+01 0. -1.
         -5    1    3    3    0  501 -0.71851994423E+01  0.18153898864E+02  0.34593624630E+02  0.40000000000E+02  0.47000000000E+01 0.  1.
</event>
<event>
 5    1  0.4761089E-001  0.8000000E+02  0.7546771E-02  0.1203772E+00
         11   -1    0    0    0    0  0.00000000000E+00  0.00000000000E+00  0.40000000000E+02  0.40000000000E+02  0.00000000000E+00 0.  1.
        -11   -1    0    0    0    0 -0.00000000000E+00 -0.00000000000E+00 -0.40000000000E+02  0.40000000000E+02  0.00000000000E+00 0. -1.
         23    2    1    2    0    0  0.00000000000E+00  0.00000000000E+00  0.00000000000E+00  0.80000000000E+02  0.80000000000E+02 0.  0.
          5    1    3    3  501    0  0.81000410314E+01  0.36663749773E+02 -0.12964134676E+02  0.40000000000E+02  0.47000000000E+01 0. -1.
         -5    1    3    3    0  501 -0.81000410314E+01 -0.36663749773E+02  0.12964134676E+02  0.40000000000E+02  0.47000000000E+01 0.  1.
</event>
<event>
 5    1  0.4761089E-001  0.8000000E+02  0.7546771E-02  0.1203772E+00
         11   -1    0    0    0    0  0.00000000000E+00  0.00000000000E+00  0.40000000000E+02  0.40000000000E+02  0.00000000000E+00 0. -1.
        -11   -1    0    0    0    0 -0.00000000000E+00 -0.00000000000E+00 -0.40000000000E+02  0.40000000000E+02  0.00000000000E+00 0.  1.
         23    2    1    2    0    0  0.00000000000E+00  0.00000000000E+00  0.00000000000E+00  0.80000000000E+02  0.80000000000E+02 0.  0.
          5    1    3    3  501    0  0.94596185146E+01 -0.16828497158E+02  0.34716383754E+02  0.40000000000E+02  0.47000000000E+01 0. -1.
         -5    1    3    3    0  501 -0.94596185146E+01  0.16828497158E+02 -0.34716383754E+02  0.40000000000E+02  0.47000000000E+01 0.  1.
</event>
<event>
 5    1  0.4761089E-001  0.8000000E+02  0.7546771E-02  0.1203772E+00
         11   -1    0    0    0    0  0.00000000000E+00  0.00000000000E+00  0.40000000000E+02  0.40000000000E+02  0.00000000000E+00 0. -1.
        -11   -1    0    0    0    0 -0.00000000000E+00 -0.00000000000E+00 -0.40000000000E+02  0.40000000000E+02  0.00000000000E+00 0.  1.
         23    2    1    2    0    0  0.00000000000E+00  0.00000000000E+00  0.00000000000E+00  0.80000000000E+02  0.80000000000E+02 0.  0.
          5    1    3    3  501    0  0.32055970005E+02 -0.24606187058E+01  0.23329597995E+02  0.40000000000E+02  0.47000000000E+01 0. -1.
         -5    1    3    3    0  501 -0.32055970005E+02  0.24606187058E+01 -0.23329597995E+02  0.40000000000E+02  0.47000000000E+01 0.  1.
</event>
<event>
 5    1  0.4761089E-001  0.8000000E+02  0.7546771E-02  0.1203772E+00
         11   -1    0    0    0    0  0.00000000000E+00  0.00000000000E+00  0.40000000000E+02  0.40000000000E+02  0.00000000000E+00 0. -1.
        -11   -1    0    0    0    0 -0.00000000000E+00 -0.00000000000E+00 -0.40000000000E+02  0.40000000000E+02  0.00000000000E+00 0.  1.
         23    2    1    2    0    0  0.00000000000E+00  0.00000000000E+00  0.00000000000E+00  0.80000000000E+02  0.80000000000E+02 0.  0.
          5    1    3    3  501    0  0.17256994493E+02 -0.20903248911E+02  0.29037223112E+02  0.40000000000E+02  0.47000000000E+01 0. -1.
         -5    1    3    3    0  501 -0.17256994493E+02  0.20903248911E+02 -0.29037223112E+02  0.40000000000E+02  0.47000000000E+01 0.  1.
</event>
<event>
 5    1  0.4761089E-001  0.8000000E+02  0.7546771E-02  0.1203772E+00
         11   -1    0    0    0    0  0.00000000000E+00  0.00000000000E+00  0.40000000000E+02  0.40000000000E+02  0.00000000000E+00 0.  1.
        -11   -1    0    0    0    0 -0.00000000000E+00 -0.00000000000E+00 -0.40000000000E+02  0.40000000000E+02  0.00000000000E+00 0. -1.
         23    2    1    2    0    0  0.00000000000E+00  0.00000000000E+00  0.00000000000E+00  0.80000000000E+02  0.80000000000E+02 0.  0.
          5    1    3    3  501    0 -0.12093336935E+01 -0.15777045279E+02 -0.36435317403E+02  0.40000000000E+02  0.47000000000E+01 0. -1.
         -5    1    3    3    0  501  0.12093336935E+01  0.15777045279E+02  0.36435317403E+02  0.40000000000E+02  0.47000000000E+01 0.  1.
</event>
<event>
 5    1  0.4761089E-001  0.8000000E+02  0.7546771E-02  0.1203772E+00
         11   -1    0    0    0    0  0.00000000000E+00  0.00000000000E+00  0.40000000000E+02  0.40000000000E+02  0.00000000000E+00 0.  1.
        -11   -1    0    0    0    0 -0.00000000000E+00 -0.00000000000E+00 -0.40000000000E+02  0.40000000000E+02  0.00000000000E+00 0. -1.
         23    2    1    2    0    0  0.00000000000E+00  0.00000000000E+00  0.00000000000E+00  0.80000000000E+02  0.80000000000E+02 0.  0.
          5    1    3    3  501    0 -0.19512939989E+02  0.12607842694E+02 -0.32221071919E+02  0.40000000000E+02  0.47000000000E+01 0. -1.
         -5    1    3    3    0  501  0.19512939989E+02 -0.12607842694E+02  0.32221071919E+02  0.40000000000E+02  0.47000000000E+01 0.  1.
</event>
<event>
 5    1  0.4761089E-001  0.8000000E+02  0.7546771E-02  0.1203772E+00
         11   -1    0    0    0    0  0.00000000000E+00  0.00000000000E+00  0.40000000000E+02  0.40000000000E+02  0.00000000000E+00 0.  1.
        -11   -1    0    0    0    0 -0.00000000000E+00 -0.00000000000E+00 -0.40000000000E+02  0.40000000000E+02  0.00000000000E+00 0. -1.
         23    2    1    2    0    0  0.00000000000E+00  0.00000000000E+00  0.00000000000E+00  0.80000000000E+02  0.80000000000E+02 0.  0.
          5    1    3    3  501    0 -0.35431793631E-03  0.77983109215E+01 -0.38949921009E+02  0.40000000000E+02  0.47000000000E+01 0. -1.
         -5    1    3    3    0  501  0.35431793631E-03 -0.77983109215E+01  0.38949921009E+02  0.40000000000E+02  0.47000000000E+01 0.  1.
</event>
<event>
 5    1  0.4761089E-001  0.8000000E+02  0.7546771E-02  0.1203772E+00
         11   -1    0    0    0    0  0.00000000000E+00  0.00000000000E+00  0.40000000000E+02  0.40000000000E+02  0.00000000000E+00 0.  1.
        -11   -1    0    0    0    0 -0.00000000000E+00 -0.00000000000E+00 -0.40000000000E+02  0.40000000000E+02  0.00000000000E+00 0. -1.
         23    2    1    2    0    0  0.00000000000E+00  0.00000000000E+00  0.00000000000E+00  0.80000000000E+02  0.80000000000E+02 0.  0.
          5    1    3    3  501    0  0.29677057046E+02 -0.19738027286E+02 -0.17538317022E+02  0.40000000000E+02  0.47000000000E+01 0. -1.
         -5    1    3    3    0  501 -0.29677057046E+02  0.19738027286E+02  0.17538317022E+02  0.40000000000E+02  0.47000000000E+01 0.  1.
</event>
<event>
 5    1  0.4761089E-001  0.8000000E+02  0.7546771E-02  0.1203772E+00
         11   -1    0    0    0    0  0.00000000000E+00  0.00000000000E+00  0.40000000000E+02  0.40000000000E+02  0.00000000000E+00 0.  1.
        -11   -1    0    0    0    0 -0.00000000000E+00 -0.00000000000E+00 -0.40000000000E+02  0.40000000000E+02  0.00000000000E+00 0. -1.
         23    2    1    2    0    0  0.00000000000E+00  0.00000000000E+00  0.00000000000E+00  0.80000000000E+02  0.80000000000E+02 0.  0.
          5    1    3    3  501    0  0.13657100359E+02 -0.30619355979E+02 -0.21303723835E+02  0.40000000000E+02  0.47000000000E+01 0. -1.
         -5    1    3    3    0  501 -0.13657100359E+02  0.30619355979E+02  0.21303723835E+02  0.40000000000E+02  0.47000000000E+01 0.  1.
</event>
<event>
 5    1  0.4761089E-001  0.8000000E+02  0.7546771E-02  0.1203772E+00
         11   -1    0    0    0    0  0.00000000000E+00  0.00000000000E+00  0.40000000000E+02  0.40000000000E+02  0.00000000000E+00 0.  1.
        -11   -1    0    0    0    0 -0.00000000000E+00 -0.00000000000E+00 -0.40000000000E+02  0.40000000000E+02  0.00000000000E+00 0. -1.
         23    2    1    2    0    0  0.00000000000E+00  0.00000000000E+00  0.00000000000E+00  0.80000000000E+02  0.80000000000E+02 0.  0.
          5    1    3    3  501    0  0.18509902140E+02  0.42840074954E+01 -0.34884678622E+02  0.40000000000E+02  0.47000000000E+01 0. -1.
         -5    1    3    3    0  501 -0.18509902140E+02 -0.42840074954E+01  0.34884678622E+02  0.40000000000E+02  0.47000000000E+01 0.  1.
</event>
<event>
 5    1  0.4761089E-001  0.8000000E+02  0.7546771E-02  0.1203772E+00
         11   -1    0    0    0    0  0.00000000000E+00  0.00000000000E+00  0.40000000000E+02  0.40000000000E+02  0.00000000000E+00 0. -1.
        -11   -1    0    0    0    0 -0.00000000000E+00 -0.00000000000E+00 -0.40000000000E+02  0.40000000000E+02  0.00000000000E+00 0.  1.
         23    2    1    2    0    0  0.00000000000E+00  0.00000000000E+00  0.00000000000E+00  0.80000000000E+02  0.80000000000E+02 0.  0.
          5    1    3    3  501    0  0.12143859878E+02 -0.55442220280E+01  0.37412541605E+02  0.40000000000E+02  0.47000000000E+01 0. -1.
         -5    1    3    3    0  501 -0.12143859878E+02  0.55442220280E+01 -0.37412541605E+02  0.40000000000E+02  0.47000000000E+01 0.  1.
</event>
<event>
 5    1  0.4761089E-001  0.8000000E+02  0.7546771E-02  0.1203772E+00
         11   -1    0    0    0    0  0.00000000000E+00  0.00000000000E+00  0.40000000000E+02  0.40000000000E+02  0.00000000000E+00 0.  1.
        -11   -1    0    0    0    0 -0.00000000000E+00 -0.00000000000E+00 -0.40000000000E+02  0.40000000000E+02  0.00000000000E+00 0. -1.
         23    2    1    2    0    0  0.00000000000E+00  0.00000000000E+00  0.00000000000E+00  0.80000000000E+02  0.80000000000E+02 0.  0.
          5    1    3    3  501    0  0.32558005590E+02 -0.15544483993E+02  0.16620929258E+02  0.40000000000E+02  0.47000000000E+01 0. -1.
         -5    1    3    3    0  501 -0.32558005590E+02  0.15544483993E+02 -0.16620929258E+02  0.40000000000E+02  0.47000000000E+01 0.  1.
</event>
<event>
 5    1  0.4761089E-001  0.8000000E+02  0.7546771E-02  0.1203772E+00
         11   -1    0    0    0    0  0.00000000000E+00  0.00000000000E+00  0.40000000000E+02  0.40000000000E+02  0.00000000000E+00 0. -1.
        -11   -1    0    0    0    0 -0.00000000000E+00 -0.00000000000E+00 -0.40000000000E+02  0.40000000000E+02  0.00000000000E+00 0.  1.
         23    2    1    2    0    0  0.00000000000E+00  0.00000000000E+00  0.00000000000E+00  0.80000000000E+02  0.80000000000E+02 0.  0.
          5    1    3    3  501    0  0.13514538038E+02 -0.27921277747E+02  0.24812688500E+02  0.40000000000E+02  0.47000000000E+01 0. -1.
         -5    1    3    3    0  501 -0.13514538038E+02  0.27921277747E+02 -0.24812688500E+02  0.40000000000E+02  0.47000000000E+01 0.  1.
</event>
<event>
 5    1  0.4761089E-001  0.8000000E+02  0.7546771E-02  0.1203772E+00
         11   -1    0    0    0    0  0.00000000000E+00  0.00000000000E+00  0.40000000000E+02  0.40000000000E+02  0.00000000000E+00 0. -1.
        -11   -1    0    0    0    0 -0.00000000000E+00 -0.00000000000E+00 -0.40000000000E+02  0.40000000000E+02  0.00000000000E+00 0.  1.
         23    2    1    2    0    0  0.00000000000E+00  0.00000000000E+00  0.00000000000E+00  0.80000000000E+02  0.80000000000E+02 0.  0.
          5    1    3    3  501    0 -0.38753047867E+02  0.87099572236E+01 -0.49792186033E+00  0.40000000000E+02  0.47000000000E+01 0.  1.
         -5    1    3    3    0  501  0.38753047867E+02 -0.87099572236E+01  0.49792186033E+00  0.40000000000E+02  0.47000000000E+01 0. -1.
</event>
<event>
 5    1  0.4761089E-001  0.8000000E+02  0.7546771E-02  0.1203772E+00
         11   -1    0    0    0    0  0.00000000000E+00  0.00000000000E+00  0.40000000000E+02  0.40000000000E+02  0.00000000000E+00 0. -1.
        -11   -1    0    0    0    0 -0.00000000000E+00 -0.00000000000E+00 -0.40000000000E+02  0.40000000000E+02  0.00000000000E+00 0.  1.
         23    2    1    2    0    0  0.00000000000E+00  0.00000000000E+00  0.00000000000E+00  0.80000000000E+02  0.80000000000E+02 0.  0.
          5    1    3    3  501    0  0.12920468996E+02 -0.18508461348E+02  0.32686516172E+02  0.40000000000E+02  0.47000000000E+01 0. -1.
         -5    1    3    3    0  501 -0.12920468996E+02  0.18508461348E+02 -0.32686516172E+02  0.40000000000E+02  0.47000000000E+01 0.  1.
</event>
<event>
 5    1  0.4761089E-001  0.8000000E+02  0.7546771E-02  0.1203772E+00
         11   -1    0    0    0    0  0.00000000000E+00  0.00000000000E+00  0.40000000000E+02  0.40000000000E+02  0.00000000000E+00 0. -1.
        -11   -1    0    0    0    0 -0.00000000000E+00 -0.00000000000E+00 -0.40000000000E+02  0.40000000000E+02  0.00000000000E+00 0.  1.
         23    2    1    2    0    0  0.00000000000E+00  0.00000000000E+00  0.00000000000E+00  0.80000000000E+02  0.80000000000E+02 0.  0.
          5    1    3    3  501    0 -0.36518715011E+01  0.39552847031E+02  0.38226464982E+00  0.40000000000E+02  0.47000000000E+01 0.  1.
         -5    1    3    3    0  501  0.36518715011E+01 -0.39552847031E+02 -0.38226464982E+00  0.40000000000E+02  0.47000000000E+01 0. -1.
</event>
<event>
 5    1  0.4761089E-001  0.8000000E+02  0.7546771E-02  0.1203772E+00
         11   -1    0    0    0    0  0.00000000000E+00  0.00000000000E+00  0.40000000000E+02  0.40000000000E+02  0.00000000000E+00 0.  1.
        -11   -1    0    0    0    0 -0.00000000000E+00 -0.00000000000E+00 -0.40000000000E+02  0.40000000000E+02  0.00000000000E+00 0. -1.
         23    2    1    2    0    0  0.00000000000E+00  0.00000000000E+00  0.00000000000E+00  0.80000000000E+02  0.80000000000E+02 0.  0.
          5    1    3    3  501    0  0.20556440511E+02  0.13558612407E+02 -0.31169003563E+02  0.40000000000E+02  0.47000000000E+01 0. -1.
         -5    1    3    3    0  501 -0.20556440511E+02 -0.13558612407E+02  0.31169003563E+02  0.40000000000E+02  0.47000000000E+01 0.  1.
</event>
<event>
 5    1  0.4761089E-001  0.8000000E+02  0.7546771E-02  0.1203772E+00
         11   -1    0    0    0    0  0.00000000000E+00  0.00000000000E+00  0.40000000000E+02  0.40000000000E+02  0.00000000000E+00 0.  1.
        -11   -1    0    0    0    0 -0.00000000000E+00 -0.00000000000E+00 -0.40000000000E+02  0.40000000000E+02  0.00000000000E+00 0. -1.
         23    2    1    2    0    0  0.00000000000E+00  0.00000000000E+00  0.00000000000E+00  0.80000000000E+02  0.80000000000E+02 0.  0.
          5    1    3    3  501    0 -0.26052792555E+01  0.36313700776E+01 -0.39470693829E+02  0.40000000000E+02  0.47000000000E+01 0. -1.
         -5    1    3    3    0  501  0.26052792555E+01 -0.36313700776E+01  0.39470693829E+02  0.40000000000E+02  0.47000000000E+01 0.  1.
</event>
<event>
 5    1  0.4761089E-001  0.8000000E+02  0.7546771E-02  0.1203772E+00
         11   -1    0    0    0    0  0.00000000000E+00  0.00000000000E+00  0.40000000000E+02  0.40000000000E+02  0.00000000000E+00 0. -1.
        -11   -1    0    0    0    0 -0.00000000000E+00 -0.00000000000E+00 -0.40000000000E+02  0.40000000000E+02  0.00000000000E+00 0.  1.
         23    2    1    2    0    0  0.00000000000E+00  0.00000000000E+00  0.00000000000E+00  0.80000000000E+02  0.80000000000E+02 0.  0.
          5    1    3    3  501    0  0.18171676871E+02 -0.27683105046E+02 -0.21939595591E+02  0.40000000000E+02  0.47000000000E+01 0.  1.
         -5    1    3    3    0  501 -0.18171676871E+02  0.27683105046E+02  0.21939595591E+02  0.40000000000E+02  0.47000000000E+01 0. -1.
</event>
<event>
 5    1  0.4761089E-001  0.8000000E+02  0.7546771E-02  0.1203772E+00
         11   -1    0    0    0    0  0.00000000000E+00  0.00000000000E+00  0.40000000000E+02  0.40000000000E+02  0.00000000000E+00 0. -1.
        -11   -1    0    0    0    0 -0.00000000000E+00 -0.00000000000E+00 -0.40000000000E+02  0.40000000000E+02  0.00000000000E+00 0.  1.
         23    2    1    2    0    0  0.00000000000E+00  0.00000000000E+00  0.00000000000E+00  0.80000000000E+02  0.80000000000E+02 0.  0.
          5    1    3    3  501    0  0.27763756828E+02 -0.60956281273E+01  0.27747560695E+02  0.40000000000E+02  0.47000000000E+01 0. -1.
         -5    1    3    3    0  501 -0.27763756828E+02  0.60956281273E+01 -0.27747560695E+02  0.40000000000E+02  0.47000000000E+01 0.  1.
</event>
<event>
 5    1  0.4761089E-001  0.8000000E+02  0.7546771E-02  0.1203772E+00
         11   -1    0    0    0    0  0.00000000000E+00  0.00000000000E+00  0.40000000000E+02  0.40000000000E+02  0.00000000000E+00 0.  1.
        -11   -1    0    0    0    0 -0.00000000000E+00 -0.00000000000E+00 -0.40000000000E+02  0.40000000000E+02  0.00000000000E+00 0. -1.
         23    2    1    2    0    0  0.00000000000E+00  0.00000000000E+00  0.00000000000E+00  0.80000000000E+02  0.80000000000E+02 0.  0.
          5    1    3    3  501    0 -0.13850814340E+02  0.35634432130E+02 -0.10782030834E+02  0.40000000000E+02  0.47000000000E+01 0. -1.
         -5    1    3    3    0  501  0.13850814340E+02 -0.35634432130E+02  0.10782030834E+02  0.40000000000E+02  0.47000000000E+01 0.  1.
</event>
<event>
 5    1  0.4761089E-001  0.8000000E+02  0.7546771E-02  0.1203772E+00
         11   -1    0    0    0    0  0.00000000000E+00  0.00000000000E+00  0.40000000000E+02  0.40000000000E+02  0.00000000000E+00 0. -1.
        -11   -1    0    0    0    0 -0.00000000000E+00 -0.00000000000E+00 -0.40000000000E+02  0.40000000000E+02  0.00000000000E+00 0.  1.
         23    2    1    2    0    0  0.00000000000E+00  0.00000000000E+00  0.00000000000E+00  0.80000000000E+02  0.80000000000E+02 0.  0.
          5    1    3    3  501    0  0.36228642862E+02 -0.15638606305E+02  0.45639269513E+01  0.40000000000E+02  0.47000000000E+01 0. -1.
         -5    1    3    3    0  501 -0.36228642862E+02  0.15638606305E+02 -0.45639269513E+01  0.40000000000E+02  0.47000000000E+01 0.  1.
</event>
<event>
 5    1  0.4761089E-001  0.8000000E+02  0.7546771E-02  0.1203772E+00
         11   -1    0    0    0    0  0.00000000000E+00  0.00000000000E+00  0.40000000000E+02  0.40000000000E+02  0.00000000000E+00 0. -1.
        -11   -1    0    0    0    0 -0.00000000000E+00 -0.00000000000E+00 -0.40000000000E+02  0.40000000000E+02  0.00000000000E+00 0.  1.
         23    2    1    2    0    0  0.00000000000E+00  0.00000000000E+00  0.00000000000E+00  0.80000000000E+02  0.80000000000E+02 0.  0.
          5    1    3    3  501    0  0.13592677521E+02  0.19322056097E+02  0.31934421335E+02  0.40000000000E+02  0.47000000000E+01 0. -1.
         -5    1    3    3    0  501 -0.13592677521E+02 -0.19322056097E+02 -0.31934421335E+02  0.40000000000E+02  0.47000000000E+01 0.  1.
</event>
<event>
 5    1  0.4761089E-001  0.8000000E+02  0.7546771E-02  0.1203772E+00
         11   -1    0    0    0    0  0.00000000000E+00  0.00000000000E+00  0.40000000000E+02  0.40000000000E+02  0.00000000000E+00 0. -1.
        -11   -1    0    0    0    0 -0.00000000000E+00 -0.00000000000E+00 -0.40000000000E+02  0.40000000000E+02  0.00000000000E+00 0.  1.
         23    2    1    2    0    0  0.00000000000E+00  0.00000000000E+00  0.00000000000E+00  0.80000000000E+02  0.80000000000E+02 0.  0.
          5    1    3    3  501    0 -0.14971516924E+02  0.36565783121E+02 -0.40874424431E+01  0.40000000000E+02  0.47000000000E+01 0. -1.
         -5    1    3    3    0  501  0.14971516924E+02 -0.36565783121E+02  0.40874424431E+01  0.40000000000E+02  0.47000000000E+01 0.  1.
</event>
<event>
 5    1  0.4761089E-001  0.8000000E+02  0.7546771E-02  0.1203772E+00
         11   -1    0    0    0    0  0.00000000000E+00  0.00000000000E+00  0.40000000000E+02  0.40000000000E+02  0.00000000000E+00 0. -1.
        -11   -1    0    0    0    0 -0.00000000000E+00 -0.00000000000E+00 -0.40000000000E+02  0.40000000000E+02  0.00000000000E+00 0.  1.
         23    2    1    2    0    0  0.00000000000E+00  0.00000000000E+00  0.00000000000E+00  0.80000000000E+02  0.80000000000E+02 0.  0.
          5    1    3    3  501    0 -0.12776882381E+02  0.29121995488E+02  0.23802744703E+02  0.40000000000E+02  0.47000000000E+01 0. -1.
         -5    1    3    3    0  501  0.12776882381E+02 -0.29121995488E+02 -0.23802744703E+02  0.40000000000E+02  0.47000000000E+01 0.  1.
</event>
<event>
 5    1  0.4761089E-001  0.8000000E+02  0.7546771E-02  0.1203772E+00
         11   -1    0    0    0    0  0.00000000000E+00  0.00000000000E+00  0.40000000000E+02  0.40000000000E+02  0.00000000000E+00 0. -1.
        -11   -1    0    0    0    0 -0.00000000000E+00 -0.00000000000E+00 -0.40000000000E+02  0.40000000000E+02  0.00000000000E+00 0.  1.
         23    2    1    2    0    0  0.00000000000E+00  0.00000000000E+00  0.00000000000E+00  0.80000000000E+02  0.80000000000E+02 0.  0.
          5    1    3    3  501    0 -0.19757547754E+02  0.31487559814E+02  0.14002959819E+02  0.40000000000E+02  0.47000000000E+01 0. -1.
         -5    1    3    3    0  501  0.19757547754E+02 -0.31487559814E+02 -0.14002959819E+02  0.40000000000E+02  0.47000000000E+01 0.  1.
</event>
<event>
 5    1  0.4761089E-001  0.8000000E+02  0.7546771E-02  0.1203772E+00
         11   -1    0    0    0    0  0.00000000000E+00  0.00000000000E+00  0.40000000000E+02  0.40000000000E+02  0.00000000000E+00 0.  1.
        -11   -1    0    0    0    0 -0.00000000000E+00 -0.00000000000E+00 -0.40000000000E+02  0.40000000000E+02  0.00000000000E+00 0. -1.
         23    2    1    2    0    0  0.00000000000E+00  0.00000000000E+00  0.00000000000E+00  0.80000000000E+02  0.80000000000E+02 0.  0.
          5    1    3    3  501    0 -0.17340343957E+02 -0.10710876662E+02 -0.34095448268E+02  0.40000000000E+02  0.47000000000E+01 0. -1.
         -5    1    3    3    0  501  0.17340343957E+02  0.10710876662E+02  0.34095448268E+02  0.40000000000E+02  0.47000000000E+01 0.  1.
</event>
<event>
 5    1  0.4761089E-001  0.8000000E+02  0.7546771E-02  0.1203772E+00
         11   -1    0    0    0    0  0.00000000000E+00  0.00000000000E+00  0.40000000000E+02  0.40000000000E+02  0.00000000000E+00 0. -1.
        -11   -1    0    0    0    0 -0.00000000000E+00 -0.00000000000E+00 -0.40000000000E+02  0.40000000000E+02  0.00000000000E+00 0.  1.
         23    2    1    2    0    0  0.00000000000E+00  0.00000000000E+00  0.00000000000E+00  0.80000000000E+02  0.80000000000E+02 0.  0.
          5    1    3    3  501    0 -0.19804068639E+02  0.21752360439E+02  0.26693513831E+02  0.40000000000E+02  0.47000000000E+01 0. -1.
         -5    1    3    3    0  501  0.19804068639E+02 -0.21752360439E+02 -0.26693513831E+02  0.40000000000E+02  0.47000000000E+01 0.  1.
</event>
<event>
 5    1  0.4761089E-001  0.8000000E+02  0.7546771E-02  0.1203772E+00
         11   -1    0    0    0    0  0.00000000000E+00  0.00000000000E+00  0.40000000000E+02  0.40000000000E+02  0.00000000000E+00 0.  1.
        -11   -1    0    0    0    0 -0.00000000000E+00 -0.00000000000E+00 -0.40000000000E+02  0.40000000000E+02  0.00000000000E+00 0. -1.
         23    2    1    2    0    0  0.00000000000E+00  0.00000000000E+00  0.00000000000E+00  0.80000000000E+02  0.80000000000E+02 0.  0.
          5    1    3    3  501    0  0.26256248632E+02  0.63718004347E+01 -0.29119058484E+02  0.40000000000E+02  0.47000000000E+01 0. -1.
         -5    1    3    3    0  501 -0.26256248632E+02 -0.63718004347E+01  0.29119058484E+02  0.40000000000E+02  0.47000000000E+01 0.  1.
</event>
<event>
 5    1  0.4761089E-001  0.8000000E+02  0.7546771E-02  0.1203772E+00
         11   -1    0    0    0    0  0.00000000000E+00  0.00000000000E+00  0.40000000000E+02  0.40000000000E+02  0.00000000000E+00 0. -1.
        -11   -1    0    0    0    0 -0.00000000000E+00 -0.00000000000E+00 -0.40000000000E+02  0.40000000000E+02  0.00000000000E+00 0.  1.
         23    2    1    2    0    0  0.00000000000E+00  0.00000000000E+00  0.00000000000E+00  0.80000000000E+02  0.80000000000E+02 0.  0.
          5    1    3    3  501    0 -0.14979163754E+02 -0.15525814134E+02 -0.33353916542E+02  0.40000000000E+02  0.47000000000E+01 0.  1.
         -5    1    3    3    0  501  0.14979163754E+02  0.15525814134E+02  0.33353916542E+02  0.40000000000E+02  0.47000000000E+01 0. -1.
</event>
<event>
 5    1  0.4761089E-001  0.8000000E+02  0.7546771E-02  0.1203772E+00
         11   -1    0    0    0    0  0.00000000000E+00  0.00000000000E+00  0.40000000000E+02  0.40000000000E+02  0.00000000000E+00 0. -1.
        -11   -1    0    0    0    0 -0.00000000000E+00 -0.00000000000E+00 -0.40000000000E+02  0.40000000000E+02  0.00000000000E+00 0.  1.
         23    2    1    2    0    0  0.00000000000E+00  0.00000000000E+00  0.00000000000E+00  0.80000000000E+02  0.80000000000E+02 0.  0.
          5    1    3    3  501    0 -0.15720796470E+02 -0.69977602919E+01  0.35802205369E+02  0.40000000000E+02  0.47000000000E+01 0. -1.
         -5    1    3    3    0  501  0.15720796470E+02  0.69977602919E+01 -0.35802205369E+02  0.40000000000E+02  0.47000000000E+01 0.  1.
</event>
<event>
 5    1  0.4761089E-001  0.8000000E+02  0.7546771E-02  0.1203772E+00
         11   -1    0    0    0    0  0.00000000000E+00  0.00000000000E+00  0.40000000000E+02  0.40000000000E+02  0.00000000000E+00 0. -1.
        -11   -1    0    0    0    0 -0.00000000000E+00 -0.00000000000E+00 -0.40000000000E+02  0.40000000000E+02  0.00000000000E+00 0.  1.
         23    2    1    2    0    0  0.00000000000E+00  0.00000000000E+00  0.00000000000E+00  0.80000000000E+02  0.80000000000E+02 0.  0.
          5    1    3    3  501    0  0.29908164457E+02 -0.20657951649E+02  0.16020634584E+02  0.40000000000E+02  0.47000000000E+01 0. -1.
         -5    1    3    3    0  501 -0.29908164457E+02  0.20657951649E+02 -0.16020634584E+02  0.40000000000E+02  0.47000000000E+01 0.  1.
</event>
<event>
 5    1  0.4761089E-001  0.8000000E+02  0.7546771E-02  0.1203772E+00
         11   -1    0    0    0    0  0.00000000000E+00  0.00000000000E+00  0.40000000000E+02  0.40000000000E+02  0.00000000000E+00 0. -1.
        -11   -1    0    0    0    0 -0.00000000000E+00 -0.00000000000E+00 -0.40000000000E+02  0.40000000000E+02  0.00000000000E+00 0.  1.
         23    2    1    2    0    0  0.00000000000E+00  0.00000000000E+00  0.00000000000E+00  0.80000000000E+02  0.80000000000E+02 0.  0.
          5    1    3    3  501    0 -0.29583287246E+00  0.34736544189E+02  0.19266421066E+02  0.40000000000E+02  0.47000000000E+01 0. -1.
         -5    1    3    3    0  501  0.29583287246E+00 -0.34736544189E+02 -0.19266421066E+02  0.40000000000E+02  0.47000000000E+01 0.  1.
</event>
<event>
 5    1  0.4761089E-001  0.8000000E+02  0.7546771E-02  0.1203772E+00
         11   -1    0    0    0    0  0.00000000000E+00  0.00000000000E+00  0.40000000000E+02  0.40000000000E+02  0.00000000000E+00 0. -1.
        -11   -1    0    0    0    0 -0.00000000000E+00 -0.00000000000E+00 -0.40000000000E+02  0.40000000000E+02  0.00000000000E+00 0.  1.
         23    2    1    2    0    0  0.00000000000E+00  0.00000000000E+00  0.00000000000E+00  0.80000000000E+02  0.80000000000E+02 0.  0.
          5    1    3    3  501    0  0.13197100536E+02  0.35278124199E+02 -0.12617467672E+02  0.40000000000E+02  0.47000000000E+01 0.  1.
         -5    1    3    3    0  501 -0.13197100536E+02 -0.35278124199E+02  0.12617467672E+02  0.40000000000E+02  0.47000000000E+01 0. -1.
</event>
<event>
 5    1  0.4761089E-001  0.8000000E+02  0.7546771E-02  0.1203772E+00
         11   -1    0    0    0    0  0.00000000000E+00  0.00000000000E+00  0.40000000000E+02  0.40000000000E+02  0.00000000000E+00 0. -1.
        -11   -1    0    0    0    0 -0.00000000000E+00 -0.00000000000E+00 -0.40000000000E+02  0.40000000000E+02  0.00000000000E+00 0.  1.
         23    2    1    2    0    0  0.00000000000E+00  0.00000000000E+00  0.00000000000E+00  0.80000000000E+02  0.80000000000E+02 0.  0.
          5    1    3    3  501    0 -0.33493097297E+02  0.13835657010E+02 -0.16269512241E+02  0.40000000000E+02  0.47000000000E+01 0. -1.
         -5    1    3    3    0  501  0.33493097297E+02 -0.13835657010E+02  0.16269512241E+02  0.40000000000E+02  0.47000000000E+01 0.  1.
</event>
<event>
 5    1  0.4761089E-001  0.8000000E+02  0.7546771E-02  0.1203772E+00
         11   -1    0    0    0    0  0.00000000000E+00  0.00000000000E+00  0.40000000000E+02  0.40000000000E+02  0.00000000000E+00 0.  1.
        -11   -1    0    0    0    0 -0.00000000000E+00 -0.00000000000E+00 -0.40000000000E+02  0.40000000000E+02  0.00000000000E+00 0. -1.
         23    2    1    2    0    0  0.00000000000E+00  0.00000000000E+00  0.00000000000E+00  0.80000000000E+02  0.80000000000E+02 0.  0.
          5    1    3    3  501    0 -0.17164329147E+02 -0.34549216830E+02 -0.94682322208E+01  0.40000000000E+02  0.47000000000E+01 0. -1.
         -5    1    3    3    0  501  0.17164329147E+02  0.34549216830E+02  0.94682322208E+01  0.40000000000E+02  0.47000000000E+01 0.  1.
</event>
<event>
 5    1  0.4761089E-001  0.8000000E+02  0.7546771E-02  0.1203772E+00
         11   -1    0    0    0    0  0.00000000000E+00  0.00000000000E+00  0.40000000000E+02  0.40000000000E+02  0.00000000000E+00 0.  1.
        -11   -1    0    0    0    0 -0.00000000000E+00 -0.00000000000E+00 -0.40000000000E+02  0.40000000000E+02  0.00000000000E+00 0. -1.
         23    2    1    2    0    0  0.00000000000E+00  0.00000000000E+00  0.00000000000E+00  0.80000000000E+02  0.80000000000E+02 0.  0.
          5    1    3    3  501    0 -0.54086245666E+01  0.37887033657E+02 -0.10640933275E+02  0.40000000000E+02  0.47000000000E+01 0. -1.
         -5    1    3    3    0  501  0.54086245666E+01 -0.37887033657E+02  0.10640933275E+02  0.40000000000E+02  0.47000000000E+01 0.  1.
</event>
<event>
 5    1  0.4761089E-001  0.8000000E+02  0.7546771E-02  0.1203772E+00
         11   -1    0    0    0    0  0.00000000000E+00  0.00000000000E+00  0.40000000000E+02  0.40000000000E+02  0.00000000000E+00 0.  1.
        -11   -1    0    0    0    0 -0.00000000000E+00 -0.00000000000E+00 -0.40000000000E+02  0.40000000000E+02  0.00000000000E+00 0. -1.
         23    2    1    2    0    0  0.00000000000E+00  0.00000000000E+00  0.00000000000E+00  0.80000000000E+02  0.80000000000E+02 0.  0.
          5    1    3    3  501    0 -0.14149424347E+02 -0.77595430680E+01 -0.36297290285E+02  0.40000000000E+02  0.47000000000E+01 0. -1.
         -5    1    3    3    0  501  0.14149424347E+02  0.77595430680E+01  0.36297290285E+02  0.40000000000E+02  0.47000000000E+01 0.  1.
</event>
<event>
 5    1  0.4761089E-001  0.8000000E+02  0.7546771E-02  0.1203772E+00
         11   -1    0    0    0    0  0.00000000000E+00  0.00000000000E+00  0.40000000000E+02  0.40000000000E+02  0.00000000000E+00 0.  1.
        -11   -1    0    0    0    0 -0.00000000000E+00 -0.00000000000E+00 -0.40000000000E+02  0.40000000000E+02  0.00000000000E+00 0. -1.
         23    2    1    2    0    0  0.00000000000E+00  0.00000000000E+00  0.00000000000E+00  0.80000000000E+02  0.80000000000E+02 0.  0.
          5    1    3    3  501    0 -0.62654000423E+01 -0.25368106277E+01 -0.39143573600E+02  0.40000000000E+02  0.47000000000E+01 0. -1.
         -5    1    3    3    0  501  0.62654000423E+01  0.25368106277E+01  0.39143573600E+02  0.40000000000E+02  0.47000000000E+01 0.  1.
</event>
<event>
 5    1  0.4761089E-001  0.8000000E+02  0.7546771E-02  0.1203772E+00
         11   -1    0    0    0    0  0.00000000000E+00  0.00000000000E+00  0.40000000000E+02  0.40000000000E+02  0.00000000000E+00 0.  1.
        -11   -1    0    0    0    0 -0.00000000000E+00 -0.00000000000E+00 -0.40000000000E+02  0.40000000000E+02  0.00000000000E+00 0. -1.
         23    2    1    2    0    0  0.00000000000E+00  0.00000000000E+00  0.00000000000E+00  0.80000000000E+02  0.80000000000E+02 0.  0.
          5    1    3    3  501    0  0.14736015033E+02 -0.85801343297E+01 -0.35876749516E+02  0.40000000000E+02  0.47000000000E+01 0. -1.
         -5    1    3    3    0  501 -0.14736015033E+02  0.85801343297E+01  0.35876749516E+02  0.40000000000E+02  0.47000000000E+01 0.  1.
</event>
<event>
 5    1  0.4761089E-001  0.8000000E+02  0.7546771E-02  0.1203772E+00
         11   -1    0    0    0    0  0.00000000000E+00  0.00000000000E+00  0.40000000000E+02  0.40000000000E+02  0.00000000000E+00 0.  1.
        -11   -1    0    0    0    0 -0.00000000000E+00 -0.00000000000E+00 -0.40000000000E+02  0.40000000000E+02  0.00000000000E+00 0. -1.
         23    2    1    2    0    0  0.00000000000E+00  0.00000000000E+00  0.00000000000E+00  0.80000000000E+02  0.80000000000E+02 0.  0.
          5    1    3    3  501    0  0.53884961993E+00 -0.14828970529E+02 -0.36847269562E+02  0.40000000000E+02  0.47000000000E+01 0. -1.
         -5    1    3    3    0  501 -0.53884961993E+00  0.14828970529E+02  0.36847269562E+02  0.40000000000E+02  0.47000000000E+01 0.  1.
</event>
<event>
 5    1  0.4761089E-001  0.8000000E+02  0.7546771E-02  0.1203772E+00
         11   -1    0    0    0    0  0.00000000000E+00  0.00000000000E+00  0.40000000000E+02  0.40000000000E+02  0.00000000000E+00 0.  1.
        -11   -1    0    0    0    0 -0.00000000000E+00 -0.00000000000E+00 -0.40000000000E+02  0.40000000000E+02  0.00000000000E+00 0. -1.
         23    2    1    2    0    0  0.00000000000E+00  0.00000000000E+00  0.00000000000E+00  0.80000000000E+02  0.80000000000E+02 0.  0.
          5    1    3    3  501    0 -0.27933628610E+02 -0.17000994964E+02 -0.22551908188E+02  0.40000000000E+02  0.47000000000E+01 0. -1.
         -5    1    3    3    0  501  0.27933628610E+02  0.17000994964E+02  0.22551908188E+02  0.40000000000E+02  0.47000000000E+01 0.  1.
</event>
<event>
 5    1  0.4761089E-001  0.8000000E+02  0.7546771E-02  0.1203772E+00
         11   -1    0    0    0    0  0.00000000000E+00  0.00000000000E+00  0.40000000000E+02  0.40000000000E+02  0.00000000000E+00 0. -1.
        -11   -1    0    0    0    0 -0.00000000000E+00 -0.00000000000E+00 -0.40000000000E+02  0.40000000000E+02  0.00000000000E+00 0.  1.
         23    2    1    2    0    0  0.00000000000E+00  0.00000000000E+00  0.00000000000E+00  0.80000000000E+02  0.80000000000E+02 0.  0.
          5    1    3    3  501    0 -0.75651693077E+01 -0.42774089959E+01  0.38760572566E+02  0.40000000000E+02  0.47000000000E+01 0. -1.
         -5    1    3    3    0  501  0.75651693077E+01  0.42774089959E+01 -0.38760572566E+02  0.40000000000E+02  0.47000000000E+01 0.  1.
</event>
<event>
 5    1  0.4761089E-001  0.8000000E+02  0.7546771E-02  0.1203772E+00
         11   -1    0    0    0    0  0.00000000000E+00  0.00000000000E+00  0.40000000000E+02  0.40000000000E+02  0.00000000000E+00 0. -1.
        -11   -1    0    0    0    0 -0.00000000000E+00 -0.00000000000E+00 -0.40000000000E+02  0.40000000000E+02  0.00000000000E+00 0.  1.
         23    2    1    2    0    0  0.00000000000E+00  0.00000000000E+00  0.00000000000E+00  0.80000000000E+02  0.80000000000E+02 0.  0.
          5    1    3    3  501    0  0.52460825660E+01 -0.38984545716E+02 -0.55311674171E+01  0.40000000000E+02  0.47000000000E+01 0. -1.
         -5    1    3    3    0  501 -0.52460825660E+01  0.38984545716E+02  0.55311674171E+01  0.40000000000E+02  0.47000000000E+01 0.  1.
</event>
<event>
 5    1  0.4761089E-001  0.8000000E+02  0.7546771E-02  0.1203772E+00
         11   -1    0    0    0    0  0.00000000000E+00  0.00000000000E+00  0.40000000000E+02  0.40000000000E+02  0.00000000000E+00 0.  1.
        -11   -1    0    0    0    0 -0.00000000000E+00 -0.00000000000E+00 -0.40000000000E+02  0.40000000000E+02  0.00000000000E+00 0. -1.
         23    2    1    2    0    0  0.00000000000E+00  0.00000000000E+00  0.00000000000E+00  0.80000000000E+02  0.80000000000E+02 0.  0.
          5    1    3    3  501    0 -0.32626317843E+02 -0.21912028405E+02 -0.57703028695E+01  0.40000000000E+02  0.47000000000E+01 0. -1.
         -5    1    3    3    0  501  0.32626317843E+02  0.21912028405E+02  0.57703028695E+01  0.40000000000E+02  0.47000000000E+01 0.  1.
</event>
<event>
 5    1  0.4761089E-001  0.8000000E+02  0.7546771E-02  0.1203772E+00
         11   -1    0    0    0    0  0.00000000000E+00  0.00000000000E+00  0.40000000000E+02  0.40000000000E+02  0.00000000000E+00 0. -1.
        -11   -1    0    0    0    0 -0.00000000000E+00 -0.00000000000E+00 -0.40000000000E+02  0.40000000000E+02  0.00000000000E+00 0.  1.
         23    2    1    2    0    0  0.00000000000E+00  0.00000000000E+00  0.00000000000E+00  0.80000000000E+02  0.80000000000E+02 0.  0.
          5    1    3    3  501    0 -0.38519164408E+02 -0.28132727191E+01  0.92881359749E+01  0.40000000000E+02  0.47000000000E+01 0. -1.
         -5    1    3    3    0  501  0.38519164408E+02  0.28132727191E+01 -0.92881359749E+01  0.40000000000E+02  0.47000000000E+01 0.  1.
</event>
<event>
 5    1  0.4761089E-001  0.8000000E+02  0.7546771E-02  0.1203772E+00
         11   -1    0    0    0    0  0.00000000000E+00  0.00000000000E+00  0.40000000000E+02  0.40000000000E+02  0.00000000000E+00 0. -1.
        -11   -1    0    0    0    0 -0.00000000000E+00 -0.00000000000E+00 -0.40000000000E+02  0.40000000000E+02  0.00000000000E+00 0.  1.
         23    2    1    2    0    0  0.00000000000E+00  0.00000000000E+00  0.00000000000E+00  0.80000000000E+02  0.80000000000E+02 0.  0.
          5    1    3    3  501    0  0.32448684605E+00 -0.38455346681E+02  0.99494230942E+01  0.40000000000E+02  0.47000000000E+01 0. -1.
         -5    1    3    3    0  501 -0.32448684605E+00  0.38455346681E+02 -0.99494230942E+01  0.40000000000E+02  0.47000000000E+01 0.  1.
</event>
<event>
 5    1  0.4761089E-001  0.8000000E+02  0.7546771E-02  0.1203772E+00
         11   -1    0    0    0    0  0.00000000000E+00  0.00000000000E+00  0.40000000000E+02  0.40000000000E+02  0.00000000000E+00 0. -1.
        -11   -1    0    0    0    0 -0.00000000000E+00 -0.00000000000E+00 -0.40000000000E+02  0.40000000000E+02  0.00000000000E+00 0.  1.
         23    2    1    2    0    0  0.00000000000E+00  0.00000000000E+00  0.00000000000E+00  0.80000000000E+02  0.80000000000E+02 0.  0.
          5    1    3    3  501    0  0.28937533885E+02 -0.10933764512E+02  0.24919508949E+02  0.40000000000E+02  0.47000000000E+01 0. -1.
         -5    1    3    3    0  501 -0.28937533885E+02  0.10933764512E+02 -0.24919508949E+02  0.40000000000E+02  0.47000000000E+01 0.  1.
</event>
<event>
 5    1  0.4761089E-001  0.8000000E+02  0.7546771E-02  0.1203772E+00
         11   -1    0    0    0    0  0.00000000000E+00  0.00000000000E+00  0.40000000000E+02  0.40000000000E+02  0.00000000000E+00 0.  1.
        -11   -1    0    0    0    0 -0.00000000000E+00 -0.00000000000E+00 -0.40000000000E+02  0.40000000000E+02  0.00000000000E+00 0. -1.
         23    2    1    2    0    0  0.00000000000E+00  0.00000000000E+00  0.00000000000E+00  0.80000000000E+02  0.80000000000E+02 0.  0.
          5    1    3    3  501    0  0.14874661240E+02 -0.31430334341E+02  0.19203867740E+02  0.40000000000E+02  0.47000000000E+01 0. -1.
         -5    1    3    3    0  501 -0.14874661240E+02  0.31430334341E+02 -0.19203867740E+02  0.40000000000E+02  0.47000000000E+01 0.  1.
</event>
<event>
 5    1  0.4761089E-001  0.8000000E+02  0.7546771E-02  0.1203772E+00
         11   -1    0    0    0    0  0.00000000000E+00  0.00000000000E+00  0.40000000000E+02  0.40000000000E+02  0.00000000000E+00 0.  1.
        -11   -1    0    0    0    0 -0.00000000000E+00 -0.00000000000E+00 -0.40000000000E+02  0.40000000000E+02  0.00000000000E+00 0. -1.
         23    2    1    2    0    0  0.00000000000E+00  0.00000000000E+00  0.00000000000E+00  0.80000000000E+02  0.80000000000E+02 0.  0.
          5    1    3    3  501    0  0.11450901719E+02 -0.23463860279E+02 -0.29937169382E+02  0.40000000000E+02  0.47000000000E+01 0. -1.
         -5    1    3    3    0  501 -0.11450901719E+02  0.23463860279E+02  0.29937169382E+02  0.40000000000E+02  0.47000000000E+01 0.  1.
</event>
<event>
 5    1  0.4761089E-001  0.8000000E+02  0.7546771E-02  0.1203772E+00
         11   -1    0    0    0    0  0.00000000000E+00  0.00000000000E+00  0.40000000000E+02  0.40000000000E+02  0.00000000000E+00 0.  1.
        -11   -1    0    0    0    0 -0.00000000000E+00 -0.00000000000E+00 -0.40000000000E+02  0.40000000000E+02  0.00000000000E+00 0. -1.
         23    2    1    2    0    0  0.00000000000E+00  0.00000000000E+00  0.00000000000E+00  0.80000000000E+02  0.80000000000E+02 0.  0.
          5    1    3    3  501    0  0.20139856091E+02 -0.18693448528E+02 -0.28685382667E+02  0.40000000000E+02  0.47000000000E+01 0. -1.
         -5    1    3    3    0  501 -0.20139856091E+02  0.18693448528E+02  0.28685382667E+02  0.40000000000E+02  0.47000000000E+01 0.  1.
</event>
<event>
 5    1  0.4761089E-001  0.8000000E+02  0.7546771E-02  0.1203772E+00
         11   -1    0    0    0    0  0.00000000000E+00  0.00000000000E+00  0.40000000000E+02  0.40000000000E+02  0.00000000000E+00 0.  1.
        -11   -1    0    0    0    0 -0.00000000000E+00 -0.00000000000E+00 -0.40000000000E+02  0.40000000000E+02  0.00000000000E+00 0. -1.
         23    2    1    2    0    0  0.00000000000E+00  0.00000000000E+00  0.00000000000E+00  0.80000000000E+02  0.80000000000E+02 0.  0.
          5    1    3    3  501    0 -0.38830773872E+02  0.80501115540E+01  0.22971078412E+01  0.40000000000E+02  0.47000000000E+01 0. -1.
         -5    1    3    3    0  501  0.38830773872E+02 -0.80501115540E+01 -0.22971078412E+01  0.40000000000E+02  0.47000000000E+01 0.  1.
</event>
<event>
 5    1  0.4761089E-001  0.8000000E+02  0.7546771E-02  0.1203772E+00
         11   -1    0    0    0    0  0.00000000000E+00  0.00000000000E+00  0.40000000000E+02  0.40000000000E+02  0.00000000000E+00 0. -1.
        -11   -1    0    0    0    0 -0.00000000000E+00 -0.00000000000E+00 -0.40000000000E+02  0.40000000000E+02  0.00000000000E+00 0.  1.
         23    2    1    2    0    0  0.00000000000E+00  0.00000000000E+00  0.00000000000E+00  0.80000000000E+02  0.80000000000E+02 0.  0.
          5    1    3    3  501    0 -0.16483372004E+02  0.33721923767E+02  0.13001550092E+02  0.40000000000E+02  0.47000000000E+01 0. -1.
         -5    1    3    3    0  501  0.16483372004E+02 -0.33721923767E+02 -0.13001550092E+02  0.40000000000E+02  0.47000000000E+01 0.  1.
</event>
<event>
 5    1  0.4761089E-001  0.8000000E+02  0.7546771E-02  0.1203772E+00
         11   -1    0    0    0    0  0.00000000000E+00  0.00000000000E+00  0.40000000000E+02  0.40000000000E+02  0.00000000000E+00 0.  1.
        -11   -1    0    0    0    0 -0.00000000000E+00 -0.00000000000E+00 -0.40000000000E+02  0.40000000000E+02  0.00000000000E+00 0. -1.
         23    2    1    2    0    0  0.00000000000E+00  0.00000000000E+00  0.00000000000E+00  0.80000000000E+02  0.80000000000E+02 0.  0.
          5    1    3    3  501    0  0.23646504854E+02  0.29979730777E+02 -0.10953015600E+02  0.40000000000E+02  0.47000000000E+01 0. -1.
         -5    1    3    3    0  501 -0.23646504854E+02 -0.29979730777E+02  0.10953015600E+02  0.40000000000E+02  0.47000000000E+01 0.  1.
</event>
<event>
 5    1  0.4761089E-001  0.8000000E+02  0.7546771E-02  0.1203772E+00
         11   -1    0    0    0    0  0.00000000000E+00  0.00000000000E+00  0.40000000000E+02  0.40000000000E+02  0.00000000000E+00 0.  1.
        -11   -1    0    0    0    0 -0.00000000000E+00 -0.00000000000E+00 -0.40000000000E+02  0.40000000000E+02  0.00000000000E+00 0. -1.
         23    2    1    2    0    0  0.00000000000E+00  0.00000000000E+00  0.00000000000E+00  0.80000000000E+02  0.80000000000E+02 0.  0.
          5    1    3    3  501    0  0.24292435686E+02 -0.50955499252E+01 -0.31013270376E+02  0.40000000000E+02  0.47000000000E+01 0. -1.
         -5    1    3    3    0  501 -0.24292435686E+02  0.50955499252E+01  0.31013270376E+02  0.40000000000E+02  0.47000000000E+01 0.  1.
</event>
<event>
 5    1  0.4761089E-001  0.8000000E+02  0.7546771E-02  0.1203772E+00
         11   -1    0    0    0    0  0.00000000000E+00  0.00000000000E+00  0.40000000000E+02  0.40000000000E+02  0.00000000000E+00 0. -1.
        -11   -1    0    0    0    0 -0.00000000000E+00 -0.00000000000E+00 -0.40000000000E+02  0.40000000000E+02  0.00000000000E+00 0.  1.
         23    2    1    2    0    0  0.00000000000E+00  0.00000000000E+00  0.00000000000E+00  0.80000000000E+02  0.80000000000E+02 0.  0.
          5    1    3    3  501    0 -0.31587037917E+02  0.21710525111E+01 -0.23988654957E+02  0.40000000000E+02  0.47000000000E+01 0.  1.
         -5    1    3    3    0  501  0.31587037917E+02 -0.21710525111E+01  0.23988654957E+02  0.40000000000E+02  0.47000000000E+01 0. -1.
</event>
<event>
 5    1  0.4761089E-001  0.8000000E+02  0.7546771E-02  0.1203772E+00
         11   -1    0    0    0    0  0.00000000000E+00  0.00000000000E+00  0.40000000000E+02  0.40000000000E+02  0.00000000000E+00 0.  1.
        -11   -1    0    0    0    0 -0.00000000000E+00 -0.00000000000E+00 -0.40000000000E+02  0.40000000000E+02  0.00000000000E+00 0. -1.
         23    2    1    2    0    0  0.00000000000E+00  0.00000000000E+00  0.00000000000E+00  0.80000000000E+02  0.80000000000E+02 0.  0.
          5    1    3    3  501    0 -0.16795208895E+02 -0.24722652779E+02 -0.26165270832E+02  0.40000000000E+02  0.47000000000E+01 0. -1.
         -5    1    3    3    0  501  0.16795208895E+02  0.24722652779E+02  0.26165270832E+02  0.40000000000E+02  0.47000000000E+01 0.  1.
</event>
<event>
 5    1  0.4761089E-001  0.8000000E+02  0.7546771E-02  0.1203772E+00
         11   -1    0    0    0    0  0.00000000000E+00  0.00000000000E+00  0.40000000000E+02  0.40000000000E+02  0.00000000000E+00 0.  1.
        -11   -1    0    0    0    0 -0.00000000000E+00 -0.00000000000E+00 -0.40000000000E+02  0.40000000000E+02  0.00000000000E+00 0. -1.
         23    2    1    2    0    0  0.00000000000E+00  0.00000000000E+00  0.00000000000E+00  0.80000000000E+02  0.80000000000E+02 0.  0.
          5    1    3    3  501    0 -0.38335966366E+02  0.10129112512E+02  0.23800761610E+01  0.40000000000E+02  0.47000000000E+01 0. -1.
         -5    1    3    3    0  501  0.38335966366E+02 -0.10129112512E+02 -0.23800761610E+01  0.40000000000E+02  0.47000000000E+01 0.  1.
</event>
<event>
 5    1  0.4761089E-001  0.8000000E+02  0.7546771E-02  0.1203772E+00
         11   -1    0    0    0    0  0.00000000000E+00  0.00000000000E+00  0.40000000000E+02  0.40000000000E+02  0.00000000000E+00 0. -1.
        -11   -1    0    0    0    0 -0.00000000000E+00 -0.00000000000E+00 -0.40000000000E+02  0.40000000000E+02  0.00000000000E+00 0.  1.
         23    2    1    2    0    0  0.00000000000E+00  0.00000000000E+00  0.00000000000E+00  0.80000000000E+02  0.80000000000E+02 0.  0.
          5    1    3    3  501    0 -0.31014591163E+02  0.21521817328E+02 -0.12361897667E+02  0.40000000000E+02  0.47000000000E+01 0.  1.
         -5    1    3    3    0  501  0.31014591163E+02 -0.21521817328E+02  0.12361897667E+02  0.40000000000E+02  0.47000000000E+01 0. -1.
</event>
<event>
 5    1  0.4761089E-001  0.8000000E+02  0.7546771E-02  0.1203772E+00
         11   -1    0    0    0    0  0.00000000000E+00  0.00000000000E+00  0.40000000000E+02  0.40000000000E+02  0.00000000000E+00 0. -1.
        -11   -1    0    0    0    0 -0.00000000000E+00 -0.00000000000E+00 -0.40000000000E+02  0.40000000000E+02  0.00000000000E+00 0.  1.
         23    2    1    2    0    0  0.00000000000E+00  0.00000000000E+00  0.00000000000E+00  0.80000000000E+02  0.80000000000E+02 0.  0.
          5    1    3    3  501    0  0.95338429971E+01  0.13582176186E+02  0.36090723569E+02  0.40000000000E+02  0.47000000000E+01 0. -1.
         -5    1    3    3    0  501 -0.95338429971E+01 -0.13582176186E+02 -0.36090723569E+02  0.40000000000E+02  0.47000000000E+01 0.  1.
</event>
<event>
 5    1  0.4761089E-001  0.8000000E+02  0.7546771E-02  0.1203772E+00
         11   -1    0    0    0    0  0.00000000000E+00  0.00000000000E+00  0.40000000000E+02  0.40000000000E+02  0.00000000000E+00 0. -1.
        -11   -1    0    0    0    0 -0.00000000000E+00 -0.00000000000E+00 -0.40000000000E+02  0.40000000000E+02  0.00000000000E+00 0.  1.
         23    2    1    2    0    0  0.00000000000E+00  0.00000000000E+00  0.00000000000E+00  0.80000000000E+02  0.80000000000E+02 0.  0.
          5    1    3    3  501    0 -0.19128909317E+02  0.11220133817E+02  0.32956083284E+02  0.40000000000E+02  0.47000000000E+01 0. -1.
         -5    1    3    3    0  501  0.19128909317E+02 -0.11220133817E+02 -0.32956083284E+02  0.40000000000E+02  0.47000000000E+01 0.  1.
</event>
<event>
 5    1  0.4761089E-001  0.8000000E+02  0.7546771E-02  0.1203772E+00
         11   -1    0    0    0    0  0.00000000000E+00  0.00000000000E+00  0.40000000000E+02  0.40000000000E+02  0.00000000000E+00 0. -1.
        -11   -1    0    0    0    0 -0.00000000000E+00 -0.00000000000E+00 -0.40000000000E+02  0.40000000000E+02  0.00000000000E+00 0.  1.
         23    2    1    2    0    0  0.00000000000E+00  0.00000000000E+00  0.00000000000E+00  0.80000000000E+02  0.80000000000E+02 0.  0.
          5    1    3    3  501    0 -0.20735968702E+02  0.35319606525E+01  0.33696511035E+02  0.40000000000E+02  0.47000000000E+01 0. -1.
         -5    1    3    3    0  501  0.20735968702E+02 -0.35319606525E+01 -0.33696511035E+02  0.40000000000E+02  0.47000000000E+01 0.  1.
</event>
<event>
 5    1  0.4761089E-001  0.8000000E+02  0.7546771E-02  0.1203772E+00
         11   -1    0    0    0    0  0.00000000000E+00  0.00000000000E+00  0.40000000000E+02  0.40000000000E+02  0.00000000000E+00 0.  1.
        -11   -1    0    0    0    0 -0.00000000000E+00 -0.00000000000E+00 -0.40000000000E+02  0.40000000000E+02  0.00000000000E+00 0. -1.
         23    2    1    2    0    0  0.00000000000E+00  0.00000000000E+00  0.00000000000E+00  0.80000000000E+02  0.80000000000E+02 0.  0.
          5    1    3    3  501    0 -0.13584600328E+02  0.31615101934E+02  0.19845754297E+02  0.40000000000E+02  0.47000000000E+01 0. -1.
         -5    1    3    3    0  501  0.13584600328E+02 -0.31615101934E+02 -0.19845754297E+02  0.40000000000E+02  0.47000000000E+01 0.  1.
</event>
