<event>
 5    1  0.4872488E-001  0.8000000E+02  0.7546771E-02  0.1203772E+00
         11   -1    0    0    0    0  0.00000000000E+00  0.00000000000E+00  0.40000000000E+02  0.40000000000E+02  0.00000000000E+00 0.  1.
        -11   -1    0    0    0    0 -0.00000000000E+00 -0.00000000000E+00 -0.40000000000E+02  0.40000000000E+02  0.00000000000E+00 0. -1.
         23    2    1    2    0    0  0.00000000000E+00  0.00000000000E+00  0.00000000000E+00  0.80000000000E+02  0.80000000000E+02 0.  0.
          5    1    3    3  501    0  0.69061638173E+01 -0.34980967081E+02 -0.17508479186E+02  0.40000000000E+02  0.47000000000E+01 0. -1.
         -5    1    3    3    0  501 -0.69061638173E+01  0.34980967081E+02  0.17508479186E+02  0.40000000000E+02  0.47000000000E+01 0.  1.
</event>
<event>
 5    1  0.4872488E-001  0.8000000E+02  0.7546771E-02  0.1203772E+00
         11   -1    0    0    0    0  0.00000000000E+00  0.00000000000E+00  0.40000000000E+02  0.40000000000E+02  0.00000000000E+00 0.  1.
        -11   -1    0    0    0    0 -0.00000000000E+00 -0.00000000000E+00 -0.40000000000E+02  0.40000000000E+02  0.00000000000E+00 0. -1.
         23    2    1    2    0    0  0.00000000000E+00  0.00000000000E+00  0.00000000000E+00  0.80000000000E+02  0.80000000000E+02 0.  0.
          5    1    3    3  501    0  0.21635182290E+02  0.29097588033E+02 -0.16222184130E+02  0.40000000000E+02  0.47000000000E+01 0. -1.
         -5    1    3    3    0  501 -0.21635182290E+02 -0.29097588033E+02  0.16222184130E+02  0.40000000000E+02  0.47000000000E+01 0.  1.
</event>
<event>
 5    1  0.4872488E-001  0.8000000E+02  0.7546771E-02  0.1203772E+00
         11   -1    0    0    0    0  0.00000000000E+00  0.00000000000E+00  0.40000000000E+02  0.40000000000E+02  0.00000000000E+00 0. -1.
        -11   -1    0    0    0    0 -0.00000000000E+00 -0.00000000000E+00 -0.40000000000E+02  0.40000000000E+02  0.00000000000E+00 0.  1.
         23    2    1    2    0    0  0.00000000000E+00  0.00000000000E+00  0.00000000000E+00  0.80000000000E+02  0.80000000000E+02 0.  0.
          5    1    3    3  501    0 -0.10841270424E+02  0.97839436863E+01  0.36941187062E+02  0.40000000000E+02  0.47000000000E+01 0. -1.
         -5    1    3    3    0  501  0.10841270424E+02 -0.97839436863E+01 -0.36941187062E+02  0.40000000000E+02  0.47000000000E+01 0.  1.
</event>
<event>
 5    1  0.4872488E-001  0.8000000E+02  0.7546771E-02  0.1203772E+00
         11   -1    0    0    0    0  0.00000000000E+00  0.00000000000E+00  0.40000000000E+02  0.40000000000E+02  0.00000000000E+00 0.  1.
        -11   -1    0    0    0    0 -0.00000000000E+00 -0.00000000000E+00 -0.40000000000E+02  0.40000000000E+02  0.00000000000E+00 0. -1.
         23    2    1    2    0    0  0.00000000000E+00  0.00000000000E+00  0.00000000000E+00  0.80000000000E+02  0.80000000000E+02 0.  0.
          5    1    3    3  501    0 -0.19676658636E+02  0.90411284530E+01 -0.33301608087E+02  0.40000000000E+02  0.47000000000E+01 0. -1.
         -5    1    3    3    0  501  0.19676658636E+02 -0.90411284530E+01  0.33301608087E+02  0.40000000000E+02  0.47000000000E+01 0.  1.
</event>
<event>
 5    1  0.4872488E-001  0.8000000E+02  0.7546771E-02  0.1203772E+00
         11   -1    0    0    0    0  0.00000000000E+00  0.00000000000E+00  0.40000000000E+02  0.40000000000E+02  0.00000000000E+00 0. -1.
        -11   -1    0    0    0    0 -0.00000000000E+00 -0.00000000000E+00 -0.40000000000E+02  0.40000000000E+02  0.00000000000E+00 0.  1.
         23    2    1    2    0    0  0.00000000000E+00  0.00000000000E+00  0.00000000000E+00  0.80000000000E+02  0.80000000000E+02 0.  0.
          5    1    3    3  501    0  0.28167487715E+02 -0.25462968553E+02  0.11667899051E+02  0.40000000000E+02  0.47000000000E+01 0. -1.
         -5    1    3    3    0  501 -0.28167487715E+02  0.25462968553E+02 -0.11667899051E+02  0.40000000000E+02  0.47000000000E+01 0.  1.
</event>
<event>
 5    1  0.4872488E-001  0.8000000E+02  0.7546771E-02  0.1203772E+00
         11   -1    0    0    0    0  0.00000000000E+00  0.00000000000E+00  0.40000000000E+02  0.40000000000E+02  0.00000000000E+00 0. -1.
        -11   -1    0    0    0    0 -0.00000000000E+00 -0.00000000000E+00 -0.40000000000E+02  0.40000000000E+02  0.00000000000E+00 0.  1.
         23    2    1    2    0    0  0.00000000000E+00  0.00000000000E+00  0.00000000000E+00  0.80000000000E+02  0.80000000000E+02 0.  0.
          5    1    3    3  501    0 -0.16958930998E+02  0.18751434514E+02  0.30638021527E+02  0.40000000000E+02  0.47000000000E+01 0. -1.
         -5    1    3    3    0  501  0.16958930998E+02 -0.18751434514E+02 -0.30638021527E+02  0.40000000000E+02  0.47000000000E+01 0.  1.
</event>
<event>
 5    1  0.4872488E-001  0.8000000E+02  0.7546771E-02  0.1203772E+00
         11   -1    0    0    0    0  0.00000000000E+00  0.00000000000E+00  0.40000000000E+02  0.40000000000E+02  0.00000000000E+00 0.  1.
        -11   -1    0    0    0    0 -0.00000000000E+00 -0.00000000000E+00 -0.40000000000E+02  0.40000000000E+02  0.00000000000E+00 0. -1.
         23    2    1    2    0    0  0.00000000000E+00  0.00000000000E+00  0.00000000000E+00  0.80000000000E+02  0.80000000000E+02 0.  0.
          5    1    3    3  501    0  0.28665459093E+01  0.94586403266E-01 -0.39619237347E+02  0.40000000000E+02  0.47000000000E+01 0. -1.
         -5    1    3    3    0  501 -0.28665459093E+01 -0.94586403266E-01  0.39619237347E+02  0.40000000000E+02  0.47000000000E+01 0.  1.
</event>
<event>
 5    1  0.4872488E-001  0.8000000E+02  0.7546771E-02  0.1203772E+00
         11   -1    0    0    0    0  0.00000000000E+00  0.00000000000E+00  0.40000000000E+02  0.40000000000E+02  0.00000000000E+00 0.  1.
        -11   -1    0    0    0    0 -0.00000000000E+00 -0.00000000000E+00 -0.40000000000E+02  0.40000000000E+02  0.00000000000E+00 0. -1.
         23    2    1    2    0    0  0.00000000000E+00  0.00000000000E+00  0.00000000000E+00  0.80000000000E+02  0.80000000000E+02 0.  0.
          5    1    3    3  501    0  0.51763631632E+01 -0.20681650234E+02 -0.33516930170E+02  0.40000000000E+02  0.47000000000E+01 0. -1.
         -5    1    3    3    0  501 -0.51763631632E+01  0.20681650234E+02  0.33516930170E+02  0.40000000000E+02  0.47000000000E+01 0. -1.
</event>
<event>
 5    1  0.4872488E-001  0.8000000E+02  0.7546771E-02  0.1203772E+00
         11   -1    0    0    0    0  0.00000000000E+00  0.00000000000E+00  0.40000000000E+02  0.40000000000E+02  0.00000000000E+00 0. -1.
        -11   -1    0    0    0    0 -0.00000000000E+00 -0.00000000000E+00 -0.40000000000E+02  0.40000000000E+02  0.00000000000E+00 0.  1.
         23    2    1    2    0    0  0.00000000000E+00  0.00000000000E+00  0.00000000000E+00  0.80000000000E+02  0.80000000000E+02 0.  0.
          5    1    3    3  501    0  0.35189322584E+02 -0.62149138834E+01 -0.17349248443E+02  0.40000000000E+02  0.47000000000E+01 0.  1.
         -5    1    3    3    0  501 -0.35189322584E+02  0.62149138834E+01  0.17349248443E+02  0.40000000000E+02  0.47000000000E+01 0. -1.
</event>
<event>
 5    1  0.4872488E-001  0.8000000E+02  0.7546771E-02  0.1203772E+00
         11   -1    0    0    0    0  0.00000000000E+00  0.00000000000E+00  0.40000000000E+02  0.40000000000E+02  0.00000000000E+00 0. -1.
        -11   -1    0    0    0    0 -0.00000000000E+00 -0.00000000000E+00 -0.40000000000E+02  0.40000000000E+02  0.00000000000E+00 0.  1.
         23    2    1    2    0    0  0.00000000000E+00  0.00000000000E+00  0.00000000000E+00  0.80000000000E+02  0.80000000000E+02 0.  0.
          5    1    3    3  501    0  0.37755793545E+01  0.19727659124E+02  0.34270606444E+02  0.40000000000E+02  0.47000000000E+01 0. -1.
         -5    1    3    3    0  501 -0.37755793545E+01 -0.19727659124E+02 -0.34270606444E+02  0.40000000000E+02  0.47000000000E+01 0.  1.
</event>
<event>
 5    1  0.4872488E-001  0.8000000E+02  0.7546771E-02  0.1203772E+00
         11   -1    0    0    0    0  0.00000000000E+00  0.00000000000E+00  0.40000000000E+02  0.40000000000E+02  0.00000000000E+00 0.  1.
        -11   -1    0    0    0    0 -0.00000000000E+00 -0.00000000000E+00 -0.40000000000E+02  0.40000000000E+02  0.00000000000E+00 0. -1.
         23    2    1    2    0    0  0.00000000000E+00  0.00000000000E+00  0.00000000000E+00  0.80000000000E+02  0.80000000000E+02 0.  0.
          5    1    3    3  501    0 -0.10262873990E+02 -0.24568821277E+02 -0.29478067076E+02  0.40000000000E+02  0.47000000000E+01 0. -1.
         -5    1    3    3    0  501  0.10262873990E+02  0.24568821277E+02  0.29478067076E+02  0.40000000000E+02  0.47000000000E+01 0.  1.
</event>
<event>
 5    1  0.4872488E-001  0.8000000E+02  0.7546771E-02  0.1203772E+00
         11   -1    0    0    0    0  0.00000000000E+00  0.00000000000E+00  0.40000000000E+02  0.40000000000E+02  0.00000000000E+00 0.  1.
        -11   -1    0    0    0    0 -0.00000000000E+00 -0.00000000000E+00 -0.40000000000E+02  0.40000000000E+02  0.00000000000E+00 0. -1.
         23    2    1    2    0    0  0.00000000000E+00  0.00000000000E+00  0.00000000000E+00  0.80000000000E+02  0.80000000000E+02 0.  0.
          5    1    3    3  501    0 -0.10526241179E+02  0.29336838687E+02 -0.24626370876E+02  0.40000000000E+02  0.47000000000E+01 0. -1.
         -5    1    3    3    0  501  0.10526241179E+02 -0.29336838687E+02  0.24626370876E+02  0.40000000000E+02  0.47000000000E+01 0.  1.
</event>
<event>
 5    1  0.4872488E-001  0.8000000E+02  0.7546771E-02  0.1203772E+00
         11   -1    0    0    0    0  0.00000000000E+00  0.00000000000E+00  0.40000000000E+02  0.40000000000E+02  0.00000000000E+00 0. -1.
        -11   -1    0    0    0    0 -0.00000000000E+00 -0.00000000000E+00 -0.40000000000E+02  0.40000000000E+02  0.00000000000E+00 0.  1.
         23    2    1    2    0    0  0.00000000000E+00  0.00000000000E+00  0.00000000000E+00  0.80000000000E+02  0.80000000000E+02 0.  0.
          5    1    3    3  501    0  0.33647505798E+02 -0.36446300413E+01  0.20795961757E+02  0.40000000000E+02  0.47000000000E+01 0. -1.
         -5    1    3    3    0  501 -0.33647505798E+02  0.36446300413E+01 -0.20795961757E+02  0.40000000000E+02  0.47000000000E+01 0.  1.
</event>
<event>
 5    1  0.4872488E-001  0.8000000E+02  0.7546771E-02  0.1203772E+00
         11   -1    0    0    0    0  0.00000000000E+00  0.00000000000E+00  0.40000000000E+02  0.40000000000E+02  0.00000000000E+00 0. -1.
        -11   -1    0    0    0    0 -0.00000000000E+00 -0.00000000000E+00 -0.40000000000E+02  0.40000000000E+02  0.00000000000E+00 0.  1.
         23    2    1    2    0    0  0.00000000000E+00  0.00000000000E+00  0.00000000000E+00  0.80000000000E+02  0.80000000000E+02 0.  0.
          5    1    3    3  501    0 -0.32993422067E+02  0.12087803081E+02  0.18526443722E+02  0.40000000000E+02  0.47000000000E+01 0. -1.
         -5    1    3    3    0  501  0.32993422067E+02 -0.12087803081E+02 -0.18526443722E+02  0.40000000000E+02  0.47000000000E+01 0.  1.
</event>
<event>
 5    1  0.4872488E-001  0.8000000E+02  0.7546771E-02  0.1203772E+00
         11   -1    0    0    0    0  0.00000000000E+00  0.00000000000E+00  0.40000000000E+02  0.40000000000E+02  0.00000000000E+00 0. -1.
        -11   -1    0    0    0    0 -0.00000000000E+00 -0.00000000000E+00 -0.40000000000E+02  0.40000000000E+02  0.00000000000E+00 0.  1.
         23    2    1    2    0    0  0.00000000000E+00  0.00000000000E+00  0.00000000000E+00  0.80000000000E+02  0.80000000000E+02 0.  0.
          5    1    3    3  501    0  0.30693913685E+02 -0.10262421820E+02 -0.23032072445E+02  0.40000000000E+02  0.47000000000E+01 0.  1.
         -5    1    3    3    0  501 -0.30693913685E+02  0.10262421820E+02  0.23032072445E+02  0.40000000000E+02  0.47000000000E+01 0. -1.
</event>
<event>
 5    1  0.4872488E-001  0.8000000E+02  0.7546771E-02  0.1203772E+00
         11   -1    0    0    0    0  0.00000000000E+00  0.00000000000E+00  0.40000000000E+02  0.40000000000E+02  0.00000000000E+00 0. -1.
        -11   -1    0    0    0    0 -0.00000000000E+00 -0.00000000000E+00 -0.40000000000E+02  0.40000000000E+02  0.00000000000E+00 0.  1.
         23    2    1    2    0    0  0.00000000000E+00  0.00000000000E+00  0.00000000000E+00  0.80000000000E+02  0.80000000000E+02 0.  0.
          5    1    3    3  501    0  0.18741306424E+02  0.34039303707E+02  0.82461649660E+01  0.40000000000E+02  0.47000000000E+01 0. -1.
         -5    1    3    3    0  501 -0.18741306424E+02 -0.34039303707E+02 -0.82461649660E+01  0.40000000000E+02  0.47000000000E+01 0.  1.
</event>
<event>
 5    1  0.4872488E-001  0.8000000E+02  0.7546771E-02  0.1203772E+00
         11   -1    0    0    0    0  0.00000000000E+00  0.00000000000E+00  0.40000000000E+02  0.40000000000E+02  0.00000000000E+00 0.  1.
        -11   -1    0    0    0    0 -0.00000000000E+00 -0.00000000000E+00 -0.40000000000E+02  0.40000000000E+02  0.00000000000E+00 0. -1.
         23    2    1    2    0    0  0.00000000000E+00  0.00000000000E+00  0.00000000000E+00  0.80000000000E+02  0.80000000000E+02 0.  0.
          5    1    3    3  501    0 -0.28978878801E+02 -0.17304027876E+02 -0.20945290704E+02  0.40000000000E+02  0.47000000000E+01 0. -1.
         -5    1    3    3    0  501  0.28978878801E+02  0.17304027876E+02  0.20945290704E+02  0.40000000000E+02  0.47000000000E+01 0.  1.
</event>
<event>
 5    1  0.4872488E-001  0.8000000E+02  0.7546771E-02  0.1203772E+00
         11   -1    0    0    0    0  0.00000000000E+00  0.00000000000E+00  0.40000000000E+02  0.40000000000E+02  0.00000000000E+00 0. -1.
        -11   -1    0    0    0    0 -0.00000000000E+00 -0.00000000000E+00 -0.40000000000E+02  0.40000000000E+02  0.00000000000E+00 0.  1.
         23    2    1    2    0    0  0.00000000000E+00  0.00000000000E+00  0.00000000000E+00  0.80000000000E+02  0.80000000000E+02 0.  0.
          5    1    3    3  501    0  0.11293868203E+02  0.29281989625E+02  0.24350023093E+02  0.40000000000E+02  0.47000000000E+01 0. -1.
         -5    1    3    3    0  501 -0.11293868203E+02 -0.29281989625E+02 -0.24350023093E+02  0.40000000000E+02  0.47000000000E+01 0.  1.
</event>
<event>
 5    1  0.4872488E-001  0.8000000E+02  0.7546771E-02  0.1203772E+00
         11   -1    0    0    0    0  0.00000000000E+00  0.00000000000E+00  0.40000000000E+02  0.40000000000E+02  0.00000000000E+00 0.  1.
        -11   -1    0    0    0    0 -0.00000000000E+00 -0.00000000000E+00 -0.40000000000E+02  0.40000000000E+02  0.00000000000E+00 0. -1.
         23    2    1    2    0    0  0.00000000000E+00  0.00000000000E+00  0.00000000000E+00  0.80000000000E+02  0.80000000000E+02 0.  0.
          5    1    3    3  501    0 -0.18806181840E+02 -0.26459896105E+02 -0.22893479917E+02  0.40000000000E+02  0.47000000000E+01 0. -1.
         -5    1    3    3    0  501  0.18806181840E+02  0.26459896105E+02  0.22893479917E+02  0.40000000000E+02  0.47000000000E+01 0.  1.
</event>
<event>
 5    1  0.4872488E-001  0.8000000E+02  0.7546771E-02  0.1203772E+00
         11   -1    0    0    0    0  0.00000000000E+00  0.00000000000E+00  0.40000000000E+02  0.40000000000E+02  0.00000000000E+00 0.  1.
        -11   -1    0    0    0    0 -0.00000000000E+00 -0.00000000000E+00 -0.40000000000E+02  0.40000000000E+02  0.00000000000E+00 0. -1.
         23    2    1    2    0    0  0.00000000000E+00  0.00000000000E+00  0.00000000000E+00  0.80000000000E+02  0.80000000000E+02 0.  0.
          5    1    3    3  501    0  0.25313337892E+02 -0.24589294190E+02 -0.18234898848E+02  0.40000000000E+02  0.47000000000E+01 0. -1.
         -5    1    3    3    0  501 -0.25313337892E+02  0.24589294190E+02  0.18234898848E+02  0.40000000000E+02  0.47000000000E+01 0.  1.
</event>
<event>
 5    1  0.4872488E-001  0.8000000E+02  0.7546771E-02  0.1203772E+00
         11   -1    0    0    0    0  0.00000000000E+00  0.00000000000E+00  0.40000000000E+02  0.40000000000E+02  0.00000000000E+00 0. -1.
        -11   -1    0    0    0    0 -0.00000000000E+00 -0.00000000000E+00 -0.40000000000E+02  0.40000000000E+02  0.00000000000E+00 0.  1.
         23    2    1    2    0    0  0.00000000000E+00  0.00000000000E+00  0.00000000000E+00  0.80000000000E+02  0.80000000000E+02 0.  0.
          5    1    3    3  501    0  0.18182648389E+02 -0.68630953669E+01  0.34643891518E+02  0.40000000000E+02  0.47000000000E+01 0. -1.
         -5    1    3    3    0  501 -0.18182648389E+02  0.68630953669E+01 -0.34643891518E+02  0.40000000000E+02  0.47000000000E+01 0.  1.
</event>
<event>
 5    1  0.4872488E-001  0.8000000E+02  0.7546771E-02  0.1203772E+00
         11   -1    0    0    0    0  0.00000000000E+00  0.00000000000E+00  0.40000000000E+02  0.40000000000E+02  0.00000000000E+00 0. -1.
        -11   -1    0    0    0    0 -0.00000000000E+00 -0.00000000000E+00 -0.40000000000E+02  0.40000000000E+02  0.00000000000E+00 0.  1.
         23    2    1    2    0    0  0.00000000000E+00  0.00000000000E+00  0.00000000000E+00  0.80000000000E+02  0.80000000000E+02 0.  0.
          5    1    3    3  501    0 -0.18009403449E+02 -0.11204987208E+02  0.33586003767E+02  0.40000000000E+02  0.47000000000E+01 0. -1.
         -5    1    3    3    0  501  0.18009403449E+02  0.11204987208E+02 -0.33586003767E+02  0.40000000000E+02  0.47000000000E+01 0.  1.
</event>
<event>
 5    1  0.4872488E-001  0.8000000E+02  0.7546771E-02  0.1203772E+00
         11   -1    0    0    0    0  0.00000000000E+00  0.00000000000E+00  0.40000000000E+02  0.40000000000E+02  0.00000000000E+00 0. -1.
        -11   -1    0    0    0    0 -0.00000000000E+00 -0.00000000000E+00 -0.40000000000E+02  0.40000000000E+02  0.00000000000E+00 0.  1.
         23    2    1    2    0    0  0.00000000000E+00  0.00000000000E+00  0.00000000000E+00  0.80000000000E+02  0.80000000000E+02 0.  0.
          5    1    3    3  501    0 -0.34052245745E+02  0.24898329692E+01  0.20301608102E+02  0.40000000000E+02  0.47000000000E+01 0. -1.
         -5    1    3    3    0  501  0.34052245745E+02 -0.24898329692E+01 -0.20301608102E+02  0.40000000000E+02  0.47000000000E+01 0.  1.
</event>
<event>
 5    1  0.4872488E-001  0.8000000E+02  0.7546771E-02  0.1203772E+00
         11   -1    0    0    0    0  0.00000000000E+00  0.00000000000E+00  0.40000000000E+02  0.40000000000E+02  0.00000000000E+00 0. -1.
        -11   -1    0    0    0    0 -0.00000000000E+00 -0.00000000000E+00 -0.40000000000E+02  0.40000000000E+02  0.00000000000E+00 0.  1.
         23    2    1    2    0    0  0.00000000000E+00  0.00000000000E+00  0.00000000000E+00  0.80000000000E+02  0.80000000000E+02 0.  0.
          5    1    3    3  501    0 -0.21335723584E+02  0.10912317312E+02  0.31679934186E+02  0.40000000000E+02  0.47000000000E+01 0. -1.
         -5    1    3    3    0  501  0.21335723584E+02 -0.10912317312E+02 -0.31679934186E+02  0.40000000000E+02  0.47000000000E+01 0.  1.
</event>
<event>
 5    1  0.4872488E-001  0.8000000E+02  0.7546771E-02  0.1203772E+00
         11   -1    0    0    0    0  0.00000000000E+00  0.00000000000E+00  0.40000000000E+02  0.40000000000E+02  0.00000000000E+00 0. -1.
        -11   -1    0    0    0    0 -0.00000000000E+00 -0.00000000000E+00 -0.40000000000E+02  0.40000000000E+02  0.00000000000E+00 0.  1.
         23    2    1    2    0    0  0.00000000000E+00  0.00000000000E+00  0.00000000000E+00  0.80000000000E+02  0.80000000000E+02 0.  0.
          5    1    3    3  501    0  0.17032374916E+02  0.38975953845E+01 -0.35673757231E+02  0.40000000000E+02  0.47000000000E+01 0.  1.
         -5    1    3    3    0  501 -0.17032374916E+02 -0.38975953845E+01  0.35673757231E+02  0.40000000000E+02  0.47000000000E+01 0. -1.
</event>
<event>
 5    1  0.4872488E-001  0.8000000E+02  0.7546771E-02  0.1203772E+00
         11   -1    0    0    0    0  0.00000000000E+00  0.00000000000E+00  0.40000000000E+02  0.40000000000E+02  0.00000000000E+00 0. -1.
        -11   -1    0    0    0    0 -0.00000000000E+00 -0.00000000000E+00 -0.40000000000E+02  0.40000000000E+02  0.00000000000E+00 0.  1.
         23    2    1    2    0    0  0.00000000000E+00  0.00000000000E+00  0.00000000000E+00  0.80000000000E+02  0.80000000000E+02 0.  0.
          5    1    3    3  501    0 -0.33983653890E+02 -0.70655723199E+00 -0.20555341037E+02  0.40000000000E+02  0.47000000000E+01 0.  1.
         -5    1    3    3    0  501  0.33983653890E+02  0.70655723199E+00  0.20555341037E+02  0.40000000000E+02  0.47000000000E+01 0. -1.
</event>
<event>
 5    1  0.4872488E-001  0.8000000E+02  0.7546771E-02  0.1203772E+00
         11   -1    0    0    0    0  0.00000000000E+00  0.00000000000E+00  0.40000000000E+02  0.40000000000E+02  0.00000000000E+00 0. -1.
        -11   -1    0    0    0    0 -0.00000000000E+00 -0.00000000000E+00 -0.40000000000E+02  0.40000000000E+02  0.00000000000E+00 0.  1.
         23    2    1    2    0    0  0.00000000000E+00  0.00000000000E+00  0.00000000000E+00  0.80000000000E+02  0.80000000000E+02 0.  0.
          5    1    3    3  501    0  0.14585594452E+02 -0.35462109470E+02  0.10373486705E+02  0.40000000000E+02  0.47000000000E+01 0. -1.
         -5    1    3    3    0  501 -0.14585594452E+02  0.35462109470E+02 -0.10373486705E+02  0.40000000000E+02  0.47000000000E+01 0.  1.
</event>
<event>
 5    1  0.4872488E-001  0.8000000E+02  0.7546771E-02  0.1203772E+00
         11   -1    0    0    0    0  0.00000000000E+00  0.00000000000E+00  0.40000000000E+02  0.40000000000E+02  0.00000000000E+00 0. -1.
        -11   -1    0    0    0    0 -0.00000000000E+00 -0.00000000000E+00 -0.40000000000E+02  0.40000000000E+02  0.00000000000E+00 0.  1.
         23    2    1    2    0    0  0.00000000000E+00  0.00000000000E+00  0.00000000000E+00  0.80000000000E+02  0.80000000000E+02 0.  0.
          5    1    3    3  501    0 -0.37841233891E+02 -0.12025806934E+02  0.11536833110E+01  0.40000000000E+02  0.47000000000E+01 0.  1.
         -5    1    3    3    0  501  0.37841233891E+02  0.12025806934E+02 -0.11536833110E+01  0.40000000000E+02  0.47000000000E+01 0. -1.
</event>
<event>
 5    1  0.4872488E-001  0.8000000E+02  0.7546771E-02  0.1203772E+00
         11   -1    0    0    0    0  0.00000000000E+00  0.00000000000E+00  0.40000000000E+02  0.40000000000E+02  0.00000000000E+00 0. -1.
        -11   -1    0    0    0    0 -0.00000000000E+00 -0.00000000000E+00 -0.40000000000E+02  0.40000000000E+02  0.00000000000E+00 0.  1.
         23    2    1    2    0    0  0.00000000000E+00  0.00000000000E+00  0.00000000000E+00  0.80000000000E+02  0.80000000000E+02 0.  0.
          5    1    3    3  501    0  0.17928580237E+02 -0.98650229971E+01  0.34046399692E+02  0.40000000000E+02  0.47000000000E+01 0. -1.
         -5    1    3    3    0  501 -0.17928580237E+02  0.98650229971E+01 -0.34046399692E+02  0.40000000000E+02  0.47000000000E+01 0.  1.
</event>
<event>
 5    1  0.4872488E-001  0.8000000E+02  0.7546771E-02  0.1203772E+00
         11   -1    0    0    0    0  0.00000000000E+00  0.00000000000E+00  0.40000000000E+02  0.40000000000E+02  0.00000000000E+00 0.  1.
        -11   -1    0    0    0    0 -0.00000000000E+00 -0.00000000000E+00 -0.40000000000E+02  0.40000000000E+02  0.00000000000E+00 0. -1.
         23    2    1    2    0    0  0.00000000000E+00  0.00000000000E+00  0.00000000000E+00  0.80000000000E+02  0.80000000000E+02 0.  0.
          5    1    3    3  501    0  0.31866391107E+02 -0.41135569600E+00 -0.23712315456E+02  0.40000000000E+02  0.47000000000E+01 0. -1.
         -5    1    3    3    0  501 -0.31866391107E+02  0.41135569600E+00  0.23712315456E+02  0.40000000000E+02  0.47000000000E+01 0.  1.
</event>
<event>
 5    1  0.4872488E-001  0.8000000E+02  0.7546771E-02  0.1203772E+00
         11   -1    0    0    0    0  0.00000000000E+00  0.00000000000E+00  0.40000000000E+02  0.40000000000E+02  0.00000000000E+00 0. -1.
        -11   -1    0    0    0    0 -0.00000000000E+00 -0.00000000000E+00 -0.40000000000E+02  0.40000000000E+02  0.00000000000E+00 0.  1.
         23    2    1    2    0    0  0.00000000000E+00  0.00000000000E+00  0.00000000000E+00  0.80000000000E+02  0.80000000000E+02 0.  0.
          5    1    3    3  501    0  0.53848465123E+01 -0.61215904745E+01 -0.38877237017E+02  0.40000000000E+02  0.47000000000E+01 0.  1.
         -5    1    3    3    0  501 -0.53848465123E+01  0.61215904745E+01  0.38877237017E+02  0.40000000000E+02  0.47000000000E+01 0. -1.
</event>
<event>
 5    1  0.4872488E-001  0.8000000E+02  0.7546771E-02  0.1203772E+00
         11   -1    0    0    0    0  0.00000000000E+00  0.00000000000E+00  0.40000000000E+02  0.40000000000E+02  0.00000000000E+00 0.  1.
        -11   -1    0    0    0    0 -0.00000000000E+00 -0.00000000000E+00 -0.40000000000E+02  0.40000000000E+02  0.00000000000E+00 0. -1.
         23    2    1    2    0    0  0.00000000000E+00  0.00000000000E+00  0.00000000000E+00  0.80000000000E+02  0.80000000000E+02 0.  0.
          5    1    3    3  501    0 -0.24901190436E+02  0.12085639038E+02 -0.28491718866E+02  0.40000000000E+02  0.47000000000E+01 0. -1.
         -5    1    3    3    0  501  0.24901190436E+02 -0.12085639038E+02  0.28491718866E+02  0.40000000000E+02  0.47000000000E+01 0.  1.
</event>
<event>
 5    1  0.4872488E-001  0.8000000E+02  0.7546771E-02  0.1203772E+00
         11   -1    0    0    0    0  0.00000000000E+00  0.00000000000E+00  0.40000000000E+02  0.40000000000E+02  0.00000000000E+00 0. -1.
        -11   -1    0    0    0    0 -0.00000000000E+00 -0.00000000000E+00 -0.40000000000E+02  0.40000000000E+02  0.00000000000E+00 0.  1.
         23    2    1    2    0    0  0.00000000000E+00  0.00000000000E+00  0.00000000000E+00  0.80000000000E+02  0.80000000000E+02 0.  0.
          5    1    3    3  501    0 -0.37283429384E+02  0.20825703861E+01  0.13546910863E+02  0.40000000000E+02  0.47000000000E+01 0. -1.
         -5    1    3    3    0  501  0.37283429384E+02 -0.20825703861E+01 -0.13546910863E+02  0.40000000000E+02  0.47000000000E+01 0.  1.
</event>
<event>
 5    1  0.4872488E-001  0.8000000E+02  0.7546771E-02  0.1203772E+00
         11   -1    0    0    0    0  0.00000000000E+00  0.00000000000E+00  0.40000000000E+02  0.40000000000E+02  0.00000000000E+00 0. -1.
        -11   -1    0    0    0    0 -0.00000000000E+00 -0.00000000000E+00 -0.40000000000E+02  0.40000000000E+02  0.00000000000E+00 0.  1.
         23    2    1    2    0    0  0.00000000000E+00  0.00000000000E+00  0.00000000000E+00  0.80000000000E+02  0.80000000000E+02 0.  0.
          5    1    3    3  501    0  0.21348042710E+02  0.26560569443E+02  0.20413407930E+02  0.40000000000E+02  0.47000000000E+01 0. -1.
         -5    1    3    3    0  501 -0.21348042710E+02 -0.26560569443E+02 -0.20413407930E+02  0.40000000000E+02  0.47000000000E+01 0.  1.
</event>
<event>
 5    1  0.4872488E-001  0.8000000E+02  0.7546771E-02  0.1203772E+00
         11   -1    0    0    0    0  0.00000000000E+00  0.00000000000E+00  0.40000000000E+02  0.40000000000E+02  0.00000000000E+00 0.  1.
        -11   -1    0    0    0    0 -0.00000000000E+00 -0.00000000000E+00 -0.40000000000E+02  0.40000000000E+02  0.00000000000E+00 0. -1.
         23    2    1    2    0    0  0.00000000000E+00  0.00000000000E+00  0.00000000000E+00  0.80000000000E+02  0.80000000000E+02 0.  0.
          5    1    3    3  501    0 -0.16120161494E+02 -0.36223709811E+02 -0.24275998321E+01  0.40000000000E+02  0.47000000000E+01 0. -1.
         -5    1    3    3    0  501  0.16120161494E+02  0.36223709811E+02  0.24275998321E+01  0.40000000000E+02  0.47000000000E+01 0.  1.
</event>
<event>
 5    1  0.4872488E-001  0.8000000E+02  0.7546771E-02  0.1203772E+00
         11   -1    0    0    0    0  0.00000000000E+00  0.00000000000E+00  0.40000000000E+02  0.40000000000E+02  0.00000000000E+00 0.  1.
        -11   -1    0    0    0    0 -0.00000000000E+00 -0.00000000000E+00 -0.40000000000E+02  0.40000000000E+02  0.00000000000E+00 0. -1.
         23    2    1    2    0    0  0.00000000000E+00  0.00000000000E+00  0.00000000000E+00  0.80000000000E+02  0.80000000000E+02 0.  0.
          5    1    3    3  501    0 -0.31524271533E+02 -0.50694889903E+01 -0.23631135937E+02  0.40000000000E+02  0.47000000000E+01 0. -1.
         -5    1    3    3    0  501  0.31524271533E+02  0.50694889903E+01  0.23631135937E+02  0.40000000000E+02  0.47000000000E+01 0.  1.
</event>
<event>
 5    1  0.4872488E-001  0.8000000E+02  0.7546771E-02  0.1203772E+00
         11   -1    0    0    0    0  0.00000000000E+00  0.00000000000E+00  0.40000000000E+02  0.40000000000E+02  0.00000000000E+00 0. -1.
        -11   -1    0    0    0    0 -0.00000000000E+00 -0.00000000000E+00 -0.40000000000E+02  0.40000000000E+02  0.00000000000E+00 0.  1.
         23    2    1    2    0    0  0.00000000000E+00  0.00000000000E+00  0.00000000000E+00  0.80000000000E+02  0.80000000000E+02 0.  0.
          5    1    3    3  501    0  0.16923275736E+01  0.36921687544E+02  0.14554553111E+02  0.40000000000E+02  0.47000000000E+01 0. -1.
         -5    1    3    3    0  501 -0.16923275736E+01 -0.36921687544E+02 -0.14554553111E+02  0.40000000000E+02  0.47000000000E+01 0.  1.
</event>
<event>
 5    1  0.4872488E-001  0.8000000E+02  0.7546771E-02  0.1203772E+00
         11   -1    0    0    0    0  0.00000000000E+00  0.00000000000E+00  0.40000000000E+02  0.40000000000E+02  0.00000000000E+00 0.  1.
        -11   -1    0    0    0    0 -0.00000000000E+00 -0.00000000000E+00 -0.40000000000E+02  0.40000000000E+02  0.00000000000E+00 0. -1.
         23    2    1    2    0    0  0.00000000000E+00  0.00000000000E+00  0.00000000000E+00  0.80000000000E+02  0.80000000000E+02 0.  0.
          5    1    3    3  501    0  0.19720153124E+02  0.19342498174E+01 -0.34427957221E+02  0.40000000000E+02  0.47000000000E+01 0. -1.
         -5    1    3    3    0  501 -0.19720153124E+02 -0.19342498174E+01  0.34427957221E+02  0.40000000000E+02  0.47000000000E+01 0.  1.
</event>
<event>
 5    1  0.4872488E-001  0.8000000E+02  0.7546771E-02  0.1203772E+00
         11   -1    0    0    0    0  0.00000000000E+00  0.00000000000E+00  0.40000000000E+02  0.40000000000E+02  0.00000000000E+00 0.  1.
        -11   -1    0    0    0    0 -0.00000000000E+00 -0.00000000000E+00 -0.40000000000E+02  0.40000000000E+02  0.00000000000E+00 0. -1.
         23    2    1    2    0    0  0.00000000000E+00  0.00000000000E+00  0.00000000000E+00  0.80000000000E+02  0.80000000000E+02 0.  0.
          5    1    3    3  501    0 -0.57416978620E+01  0.38476427071E+02  0.80316539702E+01  0.40000000000E+02  0.47000000000E+01 0. -1.
         -5    1    3    3    0  501  0.57416978620E+01 -0.38476427071E+02 -0.80316539702E+01  0.40000000000E+02  0.47000000000E+01 0.  1.
</event>
<event>
 5    1  0.4872488E-001  0.8000000E+02  0.7546771E-02  0.1203772E+00
         11   -1    0    0    0    0  0.00000000000E+00  0.00000000000E+00  0.40000000000E+02  0.40000000000E+02  0.00000000000E+00 0.  1.
        -11   -1    0    0    0    0 -0.00000000000E+00 -0.00000000000E+00 -0.40000000000E+02  0.40000000000E+02  0.00000000000E+00 0. -1.
         23    2    1    2    0    0  0.00000000000E+00  0.00000000000E+00  0.00000000000E+00  0.80000000000E+02  0.80000000000E+02 0.  0.
          5    1    3    3  501    0  0.29061911142E+02 -0.18647422964E+02 -0.19636418655E+02  0.40000000000E+02  0.47000000000E+01 0. -1.
         -5    1    3    3    0  501 -0.29061911142E+02  0.18647422964E+02  0.19636418655E+02  0.40000000000E+02  0.47000000000E+01 0.  1.
</event>
<event>
 5    1  0.4872488E-001  0.8000000E+02  0.7546771E-02  0.1203772E+00
         11   -1    0    0    0    0  0.00000000000E+00  0.00000000000E+00  0.40000000000E+02  0.40000000000E+02  0.00000000000E+00 0. -1.
        -11   -1    0    0    0    0 -0.00000000000E+00 -0.00000000000E+00 -0.40000000000E+02  0.40000000000E+02  0.00000000000E+00 0.  1.
         23    2    1    2    0    0  0.00000000000E+00  0.00000000000E+00  0.00000000000E+00  0.80000000000E+02  0.80000000000E+02 0.  0.
          5    1    3    3  501    0  0.11456071825E+02 -0.50732003908E+01 -0.37695239171E+02  0.40000000000E+02  0.47000000000E+01 0.  1.
         -5    1    3    3    0  501 -0.11456071825E+02  0.50732003908E+01  0.37695239171E+02  0.40000000000E+02  0.47000000000E+01 0. -1.
</event>
<event>
 5    1  0.4872488E-001  0.8000000E+02  0.7546771E-02  0.1203772E+00
         11   -1    0    0    0    0  0.00000000000E+00  0.00000000000E+00  0.40000000000E+02  0.40000000000E+02  0.00000000000E+00 0.  1.
        -11   -1    0    0    0    0 -0.00000000000E+00 -0.00000000000E+00 -0.40000000000E+02  0.40000000000E+02  0.00000000000E+00 0. -1.
         23    2    1    2    0    0  0.00000000000E+00  0.00000000000E+00  0.00000000000E+00  0.80000000000E+02  0.80000000000E+02 0.  0.
          5    1    3    3  501    0  0.86978768398E+01 -0.25028366047E+02 -0.29594557464E+02  0.40000000000E+02  0.47000000000E+01 0. -1.
         -5    1    3    3    0  501 -0.86978768398E+01  0.25028366047E+02  0.29594557464E+02  0.40000000000E+02  0.47000000000E+01 0.  1.
</event>
<event>
 5    1  0.4872488E-001  0.8000000E+02  0.7546771E-02  0.1203772E+00
         11   -1    0    0    0    0  0.00000000000E+00  0.00000000000E+00  0.40000000000E+02  0.40000000000E+02  0.00000000000E+00 0.  1.
        -11   -1    0    0    0    0 -0.00000000000E+00 -0.00000000000E+00 -0.40000000000E+02  0.40000000000E+02  0.00000000000E+00 0. -1.
         23    2    1    2    0    0  0.00000000000E+00  0.00000000000E+00  0.00000000000E+00  0.80000000000E+02  0.80000000000E+02 0.  0.
          5    1    3    3  501    0  0.16853982442E+01 -0.24566864296E+02 -0.31169514135E+02  0.40000000000E+02  0.47000000000E+01 0. -1.
         -5    1    3    3    0  501 -0.16853982442E+01  0.24566864296E+02  0.31169514135E+02  0.40000000000E+02  0.47000000000E+01 0.  1.
</event>
<event>
 5    1  0.4872488E-001  0.8000000E+02  0.7546771E-02  0.1203772E+00
         11   -1    0    0    0    0  0.00000000000E+00  0.00000000000E+00  0.40000000000E+02  0.40000000000E+02  0.00000000000E+00 0. -1.
        -11   -1    0    0    0    0 -0.00000000000E+00 -0.00000000000E+00 -0.40000000000E+02  0.40000000000E+02  0.00000000000E+00 0.  1.
         23    2    1    2    0    0  0.00000000000E+00  0.00000000000E+00  0.00000000000E+00  0.80000000000E+02  0.80000000000E+02 0.  0.
          5    1    3    3  501    0  0.25713755477E+02  0.13305282444E+02  0.27197099815E+02  0.40000000000E+02  0.47000000000E+01 0. -1.
         -5    1    3    3    0  501 -0.25713755477E+02 -0.13305282444E+02 -0.27197099815E+02  0.40000000000E+02  0.47000000000E+01 0.  1.
</event>
<event>
 5    1  0.4872488E-001  0.8000000E+02  0.7546771E-02  0.1203772E+00
         11   -1    0    0    0    0  0.00000000000E+00  0.00000000000E+00  0.40000000000E+02  0.40000000000E+02  0.00000000000E+00 0. -1.
        -11   -1    0    0    0    0 -0.00000000000E+00 -0.00000000000E+00 -0.40000000000E+02  0.40000000000E+02  0.00000000000E+00 0.  1.
         23    2    1    2    0    0  0.00000000000E+00  0.00000000000E+00  0.00000000000E+00  0.80000000000E+02  0.80000000000E+02 0.  0.
          5    1    3    3  501    0  0.11933631249E+02  0.34692846133E+01  0.37728802121E+02  0.40000000000E+02  0.47000000000E+01 0. -1.
         -5    1    3    3    0  501 -0.11933631249E+02 -0.34692846133E+01 -0.37728802121E+02  0.40000000000E+02  0.47000000000E+01 0.  1.
</event>
<event>
 5    1  0.4872488E-001  0.8000000E+02  0.7546771E-02  0.1203772E+00
         11   -1    0    0    0    0  0.00000000000E+00  0.00000000000E+00  0.40000000000E+02  0.40000000000E+02  0.00000000000E+00 0. -1.
        -11   -1    0    0    0    0 -0.00000000000E+00 -0.00000000000E+00 -0.40000000000E+02  0.40000000000E+02  0.00000000000E+00 0.  1.
         23    2    1    2    0    0  0.00000000000E+00  0.00000000000E+00  0.00000000000E+00  0.80000000000E+02  0.80000000000E+02 0.  0.
          5    1    3    3  501    0  0.67424338558E+01  0.61691819138E+01  0.38657350921E+02  0.40000000000E+02  0.47000000000E+01 0. -1.
         -5    1    3    3    0  501 -0.67424338558E+01 -0.61691819138E+01 -0.38657350921E+02  0.40000000000E+02  0.47000000000E+01 0.  1.
</event>
<event>
 5    1  0.4872488E-001  0.8000000E+02  0.7546771E-02  0.1203772E+00
         11   -1    0    0    0    0  0.00000000000E+00  0.00000000000E+00  0.40000000000E+02  0.40000000000E+02  0.00000000000E+00 0. -1.
        -11   -1    0    0    0    0 -0.00000000000E+00 -0.00000000000E+00 -0.40000000000E+02  0.40000000000E+02  0.00000000000E+00 0.  1.
         23    2    1    2    0    0  0.00000000000E+00  0.00000000000E+00  0.00000000000E+00  0.80000000000E+02  0.80000000000E+02 0.  0.
          5    1    3    3  501    0 -0.23303828947E+02 -0.32145012925E+02  0.12408466760E+01  0.40000000000E+02  0.47000000000E+01 0. -1.
         -5    1    3    3    0  501  0.23303828947E+02  0.32145012925E+02 -0.12408466760E+01  0.40000000000E+02  0.47000000000E+01 0.  1.
</event>
<event>
 5    1  0.4872488E-001  0.8000000E+02  0.7546771E-02  0.1203772E+00
         11   -1    0    0    0    0  0.00000000000E+00  0.00000000000E+00  0.40000000000E+02  0.40000000000E+02  0.00000000000E+00 0. -1.
        -11   -1    0    0    0    0 -0.00000000000E+00 -0.00000000000E+00 -0.40000000000E+02  0.40000000000E+02  0.00000000000E+00 0.  1.
         23    2    1    2    0    0  0.00000000000E+00  0.00000000000E+00  0.00000000000E+00  0.80000000000E+02  0.80000000000E+02 0.  0.
          5    1    3    3  501    0  0.67152095895E+01 -0.31572172825E+02  0.23151973204E+02  0.40000000000E+02  0.47000000000E+01 0. -1.
         -5    1    3    3    0  501 -0.67152095895E+01  0.31572172825E+02 -0.23151973204E+02  0.40000000000E+02  0.47000000000E+01 0.  1.
</event>
<event>
 5    1  0.4872488E-001  0.8000000E+02  0.7546771E-02  0.1203772E+00
         11   -1    0    0    0    0  0.00000000000E+00  0.00000000000E+00  0.40000000000E+02  0.40000000000E+02  0.00000000000E+00 0.  1.
        -11   -1    0    0    0    0 -0.00000000000E+00 -0.00000000000E+00 -0.40000000000E+02  0.40000000000E+02  0.00000000000E+00 0. -1.
         23    2    1    2    0    0  0.00000000000E+00  0.00000000000E+00  0.00000000000E+00  0.80000000000E+02  0.80000000000E+02 0.  0.
          5    1    3    3  501    0  0.55384732149E+01  0.30189635838E+01 -0.39218887966E+02  0.40000000000E+02  0.47000000000E+01 0. -1.
         -5    1    3    3    0  501 -0.55384732149E+01 -0.30189635838E+01  0.39218887966E+02  0.40000000000E+02  0.47000000000E+01 0.  1.
</event>
<event>
 5    1  0.4872488E-001  0.8000000E+02  0.7546771E-02  0.1203772E+00
         11   -1    0    0    0    0  0.00000000000E+00  0.00000000000E+00  0.40000000000E+02  0.40000000000E+02  0.00000000000E+00 0. -1.
        -11   -1    0    0    0    0 -0.00000000000E+00 -0.00000000000E+00 -0.40000000000E+02  0.40000000000E+02  0.00000000000E+00 0.  1.
         23    2    1    2    0    0  0.00000000000E+00  0.00000000000E+00  0.00000000000E+00  0.80000000000E+02  0.80000000000E+02 0.  0.
          5    1    3    3  501    0  0.18993161603E+02 -0.31080717649E+02  0.15847990496E+02  0.40000000000E+02  0.47000000000E+01 0. -1.
         -5    1    3    3    0  501 -0.18993161603E+02  0.31080717649E+02 -0.15847990496E+02  0.40000000000E+02  0.47000000000E+01 0.  1.
</event>
<event>
 5    1  0.4872488E-001  0.8000000E+02  0.7546771E-02  0.1203772E+00
         11   -1    0    0    0    0  0.00000000000E+00  0.00000000000E+00  0.40000000000E+02  0.40000000000E+02  0.00000000000E+00 0.  1.
        -11   -1    0    0    0    0 -0.00000000000E+00 -0.00000000000E+00 -0.40000000000E+02  0.40000000000E+02  0.00000000000E+00 0. -1.
         23    2    1    2    0    0  0.00000000000E+00  0.00000000000E+00  0.00000000000E+00  0.80000000000E+02  0.80000000000E+02 0.  0.
          5    1    3    3  501    0  0.94908718601E+00 -0.33131884939E+02  0.21892634238E+02  0.40000000000E+02  0.47000000000E+01 0. -1.
         -5    1    3    3    0  501 -0.94908718601E+00  0.33131884939E+02 -0.21892634238E+02  0.40000000000E+02  0.47000000000E+01 0.  1.
</event>
<event>
 5    1  0.4872488E-001  0.8000000E+02  0.7546771E-02  0.1203772E+00
         11   -1    0    0    0    0  0.00000000000E+00  0.00000000000E+00  0.40000000000E+02  0.40000000000E+02  0.00000000000E+00 0.  1.
        -11   -1    0    0    0    0 -0.00000000000E+00 -0.00000000000E+00 -0.40000000000E+02  0.40000000000E+02  0.00000000000E+00 0. -1.
         23    2    1    2    0    0  0.00000000000E+00  0.00000000000E+00  0.00000000000E+00  0.80000000000E+02  0.80000000000E+02 0.  0.
          5    1    3    3  501    0  0.85064609960E+01  0.38624516975E+02  0.37009201266E+01  0.40000000000E+02  0.47000000000E+01 0. -1.
         -5    1    3    3    0  501 -0.85064609960E+01 -0.38624516975E+02 -0.37009201266E+01  0.40000000000E+02  0.47000000000E+01 0.  1.
</event>
<event>
 5    1  0.4872488E-001  0.8000000E+02  0.7546771E-02  0.1203772E+00
         11   -1    0    0    0    0  0.00000000000E+00  0.00000000000E+00  0.40000000000E+02  0.40000000000E+02  0.00000000000E+00 0.  1.
        -11   -1    0    0    0    0 -0.00000000000E+00 -0.00000000000E+00 -0.40000000000E+02  0.40000000000E+02  0.00000000000E+00 0. -1.
         23    2    1    2    0    0  0.00000000000E+00  0.00000000000E+00  0.00000000000E+00  0.80000000000E+02  0.80000000000E+02 0.  0.
          5    1    3    3  501    0 -0.51838363019E+01  0.41272322991E+01 -0.39166360499E+02  0.40000000000E+02  0.47000000000E+01 0. -1.
         -5    1    3    3    0  501  0.51838363019E+01 -0.41272322991E+01  0.39166360499E+02  0.40000000000E+02  0.47000000000E+01 0.  1.
</event>
<event>
 5    1  0.4872488E-001  0.8000000E+02  0.7546771E-02  0.1203772E+00
         11   -1    0    0    0    0  0.00000000000E+00  0.00000000000E+00  0.40000000000E+02  0.40000000000E+02  0.00000000000E+00 0. -1.
        -11   -1    0    0    0    0 -0.00000000000E+00 -0.00000000000E+00 -0.40000000000E+02  0.40000000000E+02  0.00000000000E+00 0.  1.
         23    2    1    2    0    0  0.00000000000E+00  0.00000000000E+00  0.00000000000E+00  0.80000000000E+02  0.80000000000E+02 0.  0.
          5    1    3    3  501    0 -0.91231469682E+01 -0.26607160549E+02  0.28048835928E+02  0.40000000000E+02  0.47000000000E+01 0. -1.
         -5    1    3    3    0  501  0.91231469682E+01  0.26607160549E+02 -0.28048835928E+02  0.40000000000E+02  0.47000000000E+01 0.  1.
</event>
<event>
 5    1  0.4872488E-001  0.8000000E+02  0.7546771E-02  0.1203772E+00
         11   -1    0    0    0    0  0.00000000000E+00  0.00000000000E+00  0.40000000000E+02  0.40000000000E+02  0.00000000000E+00 0.  1.
        -11   -1    0    0    0    0 -0.00000000000E+00 -0.00000000000E+00 -0.40000000000E+02  0.40000000000E+02  0.00000000000E+00 0. -1.
         23    2    1    2    0    0  0.00000000000E+00  0.00000000000E+00  0.00000000000E+00  0.80000000000E+02  0.80000000000E+02 0.  0.
          5    1    3    3  501    0 -0.25706630387E+02  0.21406873257E+02 -0.21420199148E+02  0.40000000000E+02  0.47000000000E+01 0. -1.
         -5    1    3    3    0  501  0.25706630387E+02 -0.21406873257E+02  0.21420199148E+02  0.40000000000E+02  0.47000000000E+01 0.  1.
</event>
<event>
 5    1  0.4872488E-001  0.8000000E+02  0.7546771E-02  0.1203772E+00
         11   -1    0    0    0    0  0.00000000000E+00  0.00000000000E+00  0.40000000000E+02  0.40000000000E+02  0.00000000000E+00 0.  1.
        -11   -1    0    0    0    0 -0.00000000000E+00 -0.00000000000E+00 -0.40000000000E+02  0.40000000000E+02  0.00000000000E+00 0. -1.
         23    2    1    2    0    0  0.00000000000E+00  0.00000000000E+00  0.00000000000E+00  0.80000000000E+02  0.80000000000E+02 0.  0.
          5    1    3    3  501    0 -0.14061786075E+01 -0.13096574998E+02 -0.37475490458E+02  0.40000000000E+02  0.47000000000E+01 0. -1.
         -5    1    3    3    0  501  0.14061786075E+01  0.13096574998E+02  0.37475490458E+02  0.40000000000E+02  0.47000000000E+01 0.  1.
</event>
<event>
 5    1  0.4872488E-001  0.8000000E+02  0.7546771E-02  0.1203772E+00
         11   -1    0    0    0    0  0.00000000000E+00  0.00000000000E+00  0.40000000000E+02  0.40000000000E+02  0.00000000000E+00 0. -1.
        -11   -1    0    0    0    0 -0.00000000000E+00 -0.00000000000E+00 -0.40000000000E+02  0.40000000000E+02  0.00000000000E+00 0.  1.
         23    2    1    2    0    0  0.00000000000E+00  0.00000000000E+00  0.00000000000E+00  0.80000000000E+02  0.80000000000E+02 0.  0.
          5    1    3    3  501    0  0.21919272693E+02  0.33127599040E+02  0.13291523283E+00  0.40000000000E+02  0.47000000000E+01 0. -1.
         -5    1    3    3    0  501 -0.21919272693E+02 -0.33127599040E+02 -0.13291523283E+00  0.40000000000E+02  0.47000000000E+01 0.  1.
</event>
<event>
 5    1  0.4872488E-001  0.8000000E+02  0.7546771E-02  0.1203772E+00
         11   -1    0    0    0    0  0.00000000000E+00  0.00000000000E+00  0.40000000000E+02  0.40000000000E+02  0.00000000000E+00 0. -1.
        -11   -1    0    0    0    0 -0.00000000000E+00 -0.00000000000E+00 -0.40000000000E+02  0.40000000000E+02  0.00000000000E+00 0.  1.
         23    2    1    2    0    0  0.00000000000E+00  0.00000000000E+00  0.00000000000E+00  0.80000000000E+02  0.80000000000E+02 0.  0.
          5    1    3    3  501    0  0.17851794094E+02  0.34740653564E+02 -0.72325954925E+01  0.40000000000E+02  0.47000000000E+01 0. -1.
         -5    1    3    3    0  501 -0.17851794094E+02 -0.34740653564E+02  0.72325954925E+01  0.40000000000E+02  0.47000000000E+01 0.  1.
</event>
<event>
 5    1  0.4872488E-001  0.8000000E+02  0.7546771E-02  0.1203772E+00
         11   -1    0    0    0    0  0.00000000000E+00  0.00000000000E+00  0.40000000000E+02  0.40000000000E+02  0.00000000000E+00 0.  1.
        -11   -1    0    0    0    0 -0.00000000000E+00 -0.00000000000E+00 -0.40000000000E+02  0.40000000000E+02  0.00000000000E+00 0. -1.
         23    2    1    2    0    0  0.00000000000E+00  0.00000000000E+00  0.00000000000E+00  0.80000000000E+02  0.80000000000E+02 0.  0.
          5    1    3    3  501    0 -0.33166456076E+02  0.21116206046E+02 -0.56570339918E+01  0.40000000000E+02  0.47000000000E+01 0. -1.
         -5    1    3    3    0  501  0.33166456076E+02 -0.21116206046E+02  0.56570339918E+01  0.40000000000E+02  0.47000000000E+01 0.  1.
</event>
<event>
 5    1  0.4872488E-001  0.8000000E+02  0.7546771E-02  0.1203772E+00
         11   -1    0    0    0    0  0.00000000000E+00  0.00000000000E+00  0.40000000000E+02  0.40000000000E+02  0.00000000000E+00 0.  1.
        -11   -1    0    0    0    0 -0.00000000000E+00 -0.00000000000E+00 -0.40000000000E+02  0.40000000000E+02  0.00000000000E+00 0. -1.
         23    2    1    2    0    0  0.00000000000E+00  0.00000000000E+00  0.00000000000E+00  0.80000000000E+02  0.80000000000E+02 0.  0.
          5    1    3    3  501    0  0.25519351570E+02  0.30344668616E+02 -0.24235886765E+01  0.40000000000E+02  0.47000000000E+01 0. -1.
         -5    1    3    3    0  501 -0.25519351570E+02 -0.30344668616E+02  0.24235886765E+01  0.40000000000E+02  0.47000000000E+01 0.  1.
</event>
<event>
 5    1  0.4872488E-001  0.8000000E+02  0.7546771E-02  0.1203772E+00
         11   -1    0    0    0    0  0.00000000000E+00  0.00000000000E+00  0.40000000000E+02  0.40000000000E+02  0.00000000000E+00 0.  1.
        -11   -1    0    0    0    0 -0.00000000000E+00 -0.00000000000E+00 -0.40000000000E+02  0.40000000000E+02  0.00000000000E+00 0. -1.
         23    2    1    2    0    0  0.00000000000E+00  0.00000000000E+00  0.00000000000E+00  0.80000000000E+02  0.80000000000E+02 0.  0.
          5    1    3    3  501    0 -0.11334235297E+02 -0.89096871920E+01 -0.37014356463E+02  0.40000000000E+02  0.47000000000E+01 0. -1.
         -5    1    3    3    0  501  0.11334235297E+02  0.89096871920E+01  0.37014356463E+02  0.40000000000E+02  0.47000000000E+01 0.  1.
</event>
<event>
 5    1  0.4872488E-001  0.8000000E+02  0.7546771E-02  0.1203772E+00
         11   -1    0    0    0    0  0.00000000000E+00  0.00000000000E+00  0.40000000000E+02  0.40000000000E+02  0.00000000000E+00 0.  1.
        -11   -1    0    0    0    0 -0.00000000000E+00 -0.00000000000E+00 -0.40000000000E+02  0.40000000000E+02  0.00000000000E+00 0. -1.
         23    2    1    2    0    0  0.00000000000E+00  0.00000000000E+00  0.00000000000E+00  0.80000000000E+02  0.80000000000E+02 0.  0.
          5    1    3    3  501    0 -0.24918128925E+02  0.13517476099E+01 -0.30905818696E+02  0.40000000000E+02  0.47000000000E+01 0. -1.
         -5    1    3    3    0  501  0.24918128925E+02 -0.13517476099E+01  0.30905818696E+02  0.40000000000E+02  0.47000000000E+01 0.  1.
</event>
<event>
 5    1  0.4872488E-001  0.8000000E+02  0.7546771E-02  0.1203772E+00
         11   -1    0    0    0    0  0.00000000000E+00  0.00000000000E+00  0.40000000000E+02  0.40000000000E+02  0.00000000000E+00 0. -1.
        -11   -1    0    0    0    0 -0.00000000000E+00 -0.00000000000E+00 -0.40000000000E+02  0.40000000000E+02  0.00000000000E+00 0.  1.
         23    2    1    2    0    0  0.00000000000E+00  0.00000000000E+00  0.00000000000E+00  0.80000000000E+02  0.80000000000E+02 0.  0.
          5    1    3    3  501    0  0.38384787147E+02  0.63819626339E+01  0.79867808652E+01  0.40000000000E+02  0.47000000000E+01 0. -1.
         -5    1    3    3    0  501 -0.38384787147E+02 -0.63819626339E+01 -0.79867808652E+01  0.40000000000E+02  0.47000000000E+01 0.  1.
</event>
<event>
 5    1  0.4872488E-001  0.8000000E+02  0.7546771E-02  0.1203772E+00
         11   -1    0    0    0    0  0.00000000000E+00  0.00000000000E+00  0.40000000000E+02  0.40000000000E+02  0.00000000000E+00 0.  1.
        -11   -1    0    0    0    0 -0.00000000000E+00 -0.00000000000E+00 -0.40000000000E+02  0.40000000000E+02  0.00000000000E+00 0. -1.
         23    2    1    2    0    0  0.00000000000E+00  0.00000000000E+00  0.00000000000E+00  0.80000000000E+02  0.80000000000E+02 0.  0.
          5    1    3    3  501    0 -0.34667105001E+02 -0.18820972907E+02  0.46768375765E+01  0.40000000000E+02  0.47000000000E+01 0. -1.
         -5    1    3    3    0  501  0.34667105001E+02  0.18820972907E+02 -0.46768375765E+01  0.40000000000E+02  0.47000000000E+01 0.  1.
</event>
<event>
 5    1  0.4872488E-001  0.8000000E+02  0.7546771E-02  0.1203772E+00
         11   -1    0    0    0    0  0.00000000000E+00  0.00000000000E+00  0.40000000000E+02  0.40000000000E+02  0.00000000000E+00 0. -1.
        -11   -1    0    0    0    0 -0.00000000000E+00 -0.00000000000E+00 -0.40000000000E+02  0.40000000000E+02  0.00000000000E+00 0.  1.
         23    2    1    2    0    0  0.00000000000E+00  0.00000000000E+00  0.00000000000E+00  0.80000000000E+02  0.80000000000E+02 0.  0.
          5    1    3    3  501    0  0.22486027917E+02  0.27575133482E+02  0.17660706723E+02  0.40000000000E+02  0.47000000000E+01 0. -1.
         -5    1    3    3    0  501 -0.22486027917E+02 -0.27575133482E+02 -0.17660706723E+02  0.40000000000E+02  0.47000000000E+01 0.  1.
</event>
<event>
 5    1  0.4872488E-001  0.8000000E+02  0.7546771E-02  0.1203772E+00
         11   -1    0    0    0    0  0.00000000000E+00  0.00000000000E+00  0.40000000000E+02  0.40000000000E+02  0.00000000000E+00 0.  1.
        -11   -1    0    0    0    0 -0.00000000000E+00 -0.00000000000E+00 -0.40000000000E+02  0.40000000000E+02  0.00000000000E+00 0. -1.
         23    2    1    2    0    0  0.00000000000E+00  0.00000000000E+00  0.00000000000E+00  0.80000000000E+02  0.80000000000E+02 0.  0.
          5    1    3    3  501    0 -0.25276497963E+02 -0.29061069742E+02 -0.97192014184E+01  0.40000000000E+02  0.47000000000E+01 0. -1.
         -5    1    3    3    0  501  0.25276497963E+02  0.29061069742E+02  0.97192014184E+01  0.40000000000E+02  0.47000000000E+01 0.  1.
</event>
<event>
 5    1  0.4872488E-001  0.8000000E+02  0.7546771E-02  0.1203772E+00
         11   -1    0    0    0    0  0.00000000000E+00  0.00000000000E+00  0.40000000000E+02  0.40000000000E+02  0.00000000000E+00 0. -1.
        -11   -1    0    0    0    0 -0.00000000000E+00 -0.00000000000E+00 -0.40000000000E+02  0.40000000000E+02  0.00000000000E+00 0.  1.
         23    2    1    2    0    0  0.00000000000E+00  0.00000000000E+00  0.00000000000E+00  0.80000000000E+02  0.80000000000E+02 0.  0.
          5    1    3    3  501    0  0.60170261032E+01 -0.22945733331E+02  0.31862183208E+02  0.40000000000E+02  0.47000000000E+01 0. -1.
         -5    1    3    3    0  501 -0.60170261032E+01  0.22945733331E+02 -0.31862183208E+02  0.40000000000E+02  0.47000000000E+01 0.  1.
</event>
<event>
 5    1  0.4872488E-001  0.8000000E+02  0.7546771E-02  0.1203772E+00
         11   -1    0    0    0    0  0.00000000000E+00  0.00000000000E+00  0.40000000000E+02  0.40000000000E+02  0.00000000000E+00 0. -1.
        -11   -1    0    0    0    0 -0.00000000000E+00 -0.00000000000E+00 -0.40000000000E+02  0.40000000000E+02  0.00000000000E+00 0.  1.
         23    2    1    2    0    0  0.00000000000E+00  0.00000000000E+00  0.00000000000E+00  0.80000000000E+02  0.80000000000E+02 0.  0.
          5    1    3    3  501    0  0.15280777577E+02 -0.34311831793E+02  0.12926949974E+02  0.40000000000E+02  0.47000000000E+01 0. -1.
         -5    1    3    3    0  501 -0.15280777577E+02  0.34311831793E+02 -0.12926949974E+02  0.40000000000E+02  0.47000000000E+01 0.  1.
</event>
<event>
 5    1  0.4872488E-001  0.8000000E+02  0.7546771E-02  0.1203772E+00
         11   -1    0    0    0    0  0.00000000000E+00  0.00000000000E+00  0.40000000000E+02  0.40000000000E+02  0.00000000000E+00 0. -1.
        -11   -1    0    0    0    0 -0.00000000000E+00 -0.00000000000E+00 -0.40000000000E+02  0.40000000000E+02  0.00000000000E+00 0.  1.
         23    2    1    2    0    0  0.00000000000E+00  0.00000000000E+00  0.00000000000E+00  0.80000000000E+02  0.80000000000E+02 0.  0.
          5    1    3    3  501    0  0.23621569866E+02  0.20571507699E+02  0.24428354592E+02  0.40000000000E+02  0.47000000000E+01 0. -1.
         -5    1    3    3    0  501 -0.23621569866E+02 -0.20571507699E+02 -0.24428354592E+02  0.40000000000E+02  0.47000000000E+01 0.  1.
</event>
<event>
 5    1  0.4872488E-001  0.8000000E+02  0.7546771E-02  0.1203772E+00
         11   -1    0    0    0    0  0.00000000000E+00  0.00000000000E+00  0.40000000000E+02  0.40000000000E+02  0.00000000000E+00 0.  1.
        -11   -1    0    0    0    0 -0.00000000000E+00 -0.00000000000E+00 -0.40000000000E+02  0.40000000000E+02  0.00000000000E+00 0. -1.
         23    2    1    2    0    0  0.00000000000E+00  0.00000000000E+00  0.00000000000E+00  0.80000000000E+02  0.80000000000E+02 0.  0.
          5    1    3    3  501    0  0.36421077501E+02  0.10778452501E+01 -0.15819398323E+02  0.40000000000E+02  0.47000000000E+01 0. -1.
         -5    1    3    3    0  501 -0.36421077501E+02 -0.10778452501E+01  0.15819398323E+02  0.40000000000E+02  0.47000000000E+01 0.  1.
</event>
<event>
 5    1  0.4872488E-001  0.8000000E+02  0.7546771E-02  0.1203772E+00
         11   -1    0    0    0    0  0.00000000000E+00  0.00000000000E+00  0.40000000000E+02  0.40000000000E+02  0.00000000000E+00 0.  1.
        -11   -1    0    0    0    0 -0.00000000000E+00 -0.00000000000E+00 -0.40000000000E+02  0.40000000000E+02  0.00000000000E+00 0. -1.
         23    2    1    2    0    0  0.00000000000E+00  0.00000000000E+00  0.00000000000E+00  0.80000000000E+02  0.80000000000E+02 0.  0.
          5    1    3    3  501    0  0.13290920136E+02 -0.35142389863E+01 -0.37268103873E+02  0.40000000000E+02  0.47000000000E+01 0. -1.
         -5    1    3    3    0  501 -0.13290920136E+02  0.35142389863E+01  0.37268103873E+02  0.40000000000E+02  0.47000000000E+01 0.  1.
</event>
<event>
 5    1  0.4872488E-001  0.8000000E+02  0.7546771E-02  0.1203772E+00
         11   -1    0    0    0    0  0.00000000000E+00  0.00000000000E+00  0.40000000000E+02  0.40000000000E+02  0.00000000000E+00 0. -1.
        -11   -1    0    0    0    0 -0.00000000000E+00 -0.00000000000E+00 -0.40000000000E+02  0.40000000000E+02  0.00000000000E+00 0.  1.
         23    2    1    2    0    0  0.00000000000E+00  0.00000000000E+00  0.00000000000E+00  0.80000000000E+02  0.80000000000E+02 0.  0.
          5    1    3    3  501    0 -0.36505192008E+02 -0.79792191356E+01  0.13476387439E+02  0.40000000000E+02  0.47000000000E+01 0. -1.
         -5    1    3    3    0  501  0.36505192008E+02  0.79792191356E+01 -0.13476387439E+02  0.40000000000E+02  0.47000000000E+01 0.  1.
</event>
<event>
 5    1  0.4872488E-001  0.8000000E+02  0.7546771E-02  0.1203772E+00
         11   -1    0    0    0    0  0.00000000000E+00  0.00000000000E+00  0.40000000000E+02  0.40000000000E+02  0.00000000000E+00 0.  1.
        -11   -1    0    0    0    0 -0.00000000000E+00 -0.00000000000E+00 -0.40000000000E+02  0.40000000000E+02  0.00000000000E+00 0. -1.
         23    2    1    2    0    0  0.00000000000E+00  0.00000000000E+00  0.00000000000E+00  0.80000000000E+02  0.80000000000E+02 0.  0.
          5    1    3    3  501    0  0.37946906809E+02  0.97674848158E+01  0.65221548570E+01  0.40000000000E+02  0.47000000000E+01 0. -1.
         -5    1    3    3    0  501 -0.37946906809E+02 -0.97674848158E+01 -0.65221548570E+01  0.40000000000E+02  0.47000000000E+01 0.  1.
</event>
<event>
 5    1  0.4872488E-001  0.8000000E+02  0.7546771E-02  0.1203772E+00
         11   -1    0    0    0    0  0.00000000000E+00  0.00000000000E+00  0.40000000000E+02  0.40000000000E+02  0.00000000000E+00 0.  1.
        -11   -1    0    0    0    0 -0.00000000000E+00 -0.00000000000E+00 -0.40000000000E+02  0.40000000000E+02  0.00000000000E+00 0. -1.
         23    2    1    2    0    0  0.00000000000E+00  0.00000000000E+00  0.00000000000E+00  0.80000000000E+02  0.80000000000E+02 0.  0.
          5    1    3    3  501    0 -0.22997995655E+01 -0.36929378689E+02  0.14451363658E+02  0.40000000000E+02  0.47000000000E+01 0. -1.
         -5    1    3    3    0  501  0.22997995655E+01  0.36929378689E+02 -0.14451363658E+02  0.40000000000E+02  0.47000000000E+01 0.  1.
</event>
<event>
 5    1  0.4872488E-001  0.8000000E+02  0.7546771E-02  0.1203772E+00
         11   -1    0    0    0    0  0.00000000000E+00  0.00000000000E+00  0.40000000000E+02  0.40000000000E+02  0.00000000000E+00 0. -1.
        -11   -1    0    0    0    0 -0.00000000000E+00 -0.00000000000E+00 -0.40000000000E+02  0.40000000000E+02  0.00000000000E+00 0.  1.
         23    2    1    2    0    0  0.00000000000E+00  0.00000000000E+00  0.00000000000E+00  0.80000000000E+02  0.80000000000E+02 0.  0.
          5    1    3    3  501    0  0.20219177883E+02 -0.22156554227E+02  0.26041926782E+02  0.40000000000E+02  0.47000000000E+01 0. -1.
         -5    1    3    3    0  501 -0.20219177883E+02  0.22156554227E+02 -0.26041926782E+02  0.40000000000E+02  0.47000000000E+01 0.  1.
</event>
<event>
 5    1  0.4872488E-001  0.8000000E+02  0.7546771E-02  0.1203772E+00
         11   -1    0    0    0    0  0.00000000000E+00  0.00000000000E+00  0.40000000000E+02  0.40000000000E+02  0.00000000000E+00 0.  1.
        -11   -1    0    0    0    0 -0.00000000000E+00 -0.00000000000E+00 -0.40000000000E+02  0.40000000000E+02  0.00000000000E+00 0. -1.
         23    2    1    2    0    0  0.00000000000E+00  0.00000000000E+00  0.00000000000E+00  0.80000000000E+02  0.80000000000E+02 0.  0.
          5    1    3    3  501    0  0.17291972269E+02 -0.35757749541E+02  0.53013471845E+00  0.40000000000E+02  0.47000000000E+01 0. -1.
         -5    1    3    3    0  501 -0.17291972269E+02  0.35757749541E+02 -0.53013471845E+00  0.40000000000E+02  0.47000000000E+01 0.  1.
</event>
<event>
 5    1  0.4872488E-001  0.8000000E+02  0.7546771E-02  0.1203772E+00
         11   -1    0    0    0    0  0.00000000000E+00  0.00000000000E+00  0.40000000000E+02  0.40000000000E+02  0.00000000000E+00 0. -1.
        -11   -1    0    0    0    0 -0.00000000000E+00 -0.00000000000E+00 -0.40000000000E+02  0.40000000000E+02  0.00000000000E+00 0.  1.
         23    2    1    2    0    0  0.00000000000E+00  0.00000000000E+00  0.00000000000E+00  0.80000000000E+02  0.80000000000E+02 0.  0.
          5    1    3    3  501    0  0.84522442128E+01 -0.35985426681E+02 -0.14543680221E+02  0.40000000000E+02  0.47000000000E+01 0. -1.
         -5    1    3    3    0  501 -0.84522442128E+01  0.35985426681E+02  0.14543680221E+02  0.40000000000E+02  0.47000000000E+01 0.  1.
</event>
<event>
 5    1  0.4872488E-001  0.8000000E+02  0.7546771E-02  0.1203772E+00
         11   -1    0    0    0    0  0.00000000000E+00  0.00000000000E+00  0.40000000000E+02  0.40000000000E+02  0.00000000000E+00 0.  1.
        -11   -1    0    0    0    0 -0.00000000000E+00 -0.00000000000E+00 -0.40000000000E+02  0.40000000000E+02  0.00000000000E+00 0. -1.
         23    2    1    2    0    0  0.00000000000E+00  0.00000000000E+00  0.00000000000E+00  0.80000000000E+02  0.80000000000E+02 0.  0.
          5    1    3    3  501    0  0.19471984585E+02 -0.13359001505E+01 -0.34597213574E+02  0.40000000000E+02  0.47000000000E+01 0. -1.
         -5    1    3    3    0  501 -0.19471984585E+02  0.13359001505E+01  0.34597213574E+02  0.40000000000E+02  0.47000000000E+01 0.  1.
</event>
<event>
 5    1  0.4872488E-001  0.8000000E+02  0.7546771E-02  0.1203772E+00
         11   -1    0    0    0    0  0.00000000000E+00  0.00000000000E+00  0.40000000000E+02  0.40000000000E+02  0.00000000000E+00 0. -1.
        -11   -1    0    0    0    0 -0.00000000000E+00 -0.00000000000E+00 -0.40000000000E+02  0.40000000000E+02  0.00000000000E+00 0.  1.
         23    2    1    2    0    0  0.00000000000E+00  0.00000000000E+00  0.00000000000E+00  0.80000000000E+02  0.80000000000E+02 0.  0.
          5    1    3    3  501    0 -0.38016278051E+01  0.31152102743E+02  0.24351675932E+02  0.40000000000E+02  0.47000000000E+01 0. -1.
         -5    1    3    3    0  501  0.38016278051E+01 -0.31152102743E+02 -0.24351675932E+02  0.40000000000E+02  0.47000000000E+01 0.  1.
</event>
<event>
 5    1  0.4872488E-001  0.8000000E+02  0.7546771E-02  0.1203772E+00
         11   -1    0    0    0    0  0.00000000000E+00  0.00000000000E+00  0.40000000000E+02  0.40000000000E+02  0.00000000000E+00 0.  1.
        -11   -1    0    0    0    0 -0.00000000000E+00 -0.00000000000E+00 -0.40000000000E+02  0.40000000000E+02  0.00000000000E+00 0. -1.
         23    2    1    2    0    0  0.00000000000E+00  0.00000000000E+00  0.00000000000E+00  0.80000000000E+02  0.80000000000E+02 0.  0.
          5    1    3    3  501    0  0.37341559274E+02  0.10550189063E+02 -0.84977327378E+01  0.40000000000E+02  0.47000000000E+01 0. -1.
         -5    1    3    3    0  501 -0.37341559274E+02 -0.10550189063E+02  0.84977327378E+01  0.40000000000E+02  0.47000000000E+01 0.  1.
</event>
<event>
 5    1  0.4872488E-001  0.8000000E+02  0.7546771E-02  0.1203772E+00
         11   -1    0    0    0    0  0.00000000000E+00  0.00000000000E+00  0.40000000000E+02  0.40000000000E+02  0.00000000000E+00 0.  1.
        -11   -1    0    0    0    0 -0.00000000000E+00 -0.00000000000E+00 -0.40000000000E+02  0.40000000000E+02  0.00000000000E+00 0. -1.
         23    2    1    2    0    0  0.00000000000E+00  0.00000000000E+00  0.00000000000E+00  0.80000000000E+02  0.80000000000E+02 0.  0.
          5    1    3    3  501    0  0.28707811996E+02 -0.25445544982E+02 -0.10309984043E+02  0.40000000000E+02  0.47000000000E+01 0. -1.
         -5    1    3    3    0  501 -0.28707811996E+02  0.25445544982E+02  0.10309984043E+02  0.40000000000E+02  0.47000000000E+01 0.  1.
</event>
<event>
 5    1  0.4872488E-001  0.8000000E+02  0.7546771E-02  0.1203772E+00
         11   -1    0    0    0    0  0.00000000000E+00  0.00000000000E+00  0.40000000000E+02  0.40000000000E+02  0.00000000000E+00 0. -1.
        -11   -1    0    0    0    0 -0.00000000000E+00 -0.00000000000E+00 -0.40000000000E+02  0.40000000000E+02  0.00000000000E+00 0.  1.
         23    2    1    2    0    0  0.00000000000E+00  0.00000000000E+00  0.00000000000E+00  0.80000000000E+02  0.80000000000E+02 0.  0.
          5    1    3    3  501    0 -0.38479744486E+02  0.83452610855E+00  0.98246033223E+01  0.40000000000E+02  0.47000000000E+01 0. -1.
         -5    1    3    3    0  501  0.38479744486E+02 -0.83452610855E+00 -0.98246033223E+01  0.40000000000E+02  0.47000000000E+01 0.  1.
</event>
<event>
 5    1  0.4872488E-001  0.8000000E+02  0.7546771E-02  0.1203772E+00
         11   -1    0    0    0    0  0.00000000000E+00  0.00000000000E+00  0.40000000000E+02  0.40000000000E+02  0.00000000000E+00 0.  1.
        -11   -1    0    0    0    0 -0.00000000000E+00 -0.00000000000E+00 -0.40000000000E+02  0.40000000000E+02  0.00000000000E+00 0. -1.
         23    2    1    2    0    0  0.00000000000E+00  0.00000000000E+00  0.00000000000E+00  0.80000000000E+02  0.80000000000E+02 0.  0.
          5    1    3    3  501    0 -0.22811302118E+02  0.22412213413E+02 -0.23563683617E+02  0.40000000000E+02  0.47000000000E+01 0. -1.
         -5    1    3    3    0  501  0.22811302118E+02 -0.22412213413E+02  0.23563683617E+02  0.40000000000E+02  0.47000000000E+01 0.  1.
</event>
<event>
 5    1  0.4872488E-001  0.8000000E+02  0.7546771E-02  0.1203772E+00
         11   -1    0    0    0    0  0.00000000000E+00  0.00000000000E+00  0.40000000000E+02  0.40000000000E+02  0.00000000000E+00 0. -1.
        -11   -1    0    0    0    0 -0.00000000000E+00 -0.00000000000E+00 -0.40000000000E+02  0.40000000000E+02  0.00000000000E+00 0.  1.
         23    2    1    2    0    0  0.00000000000E+00  0.00000000000E+00  0.00000000000E+00  0.80000000000E+02  0.80000000000E+02 0.  0.
          5    1    3    3  501    0  0.28479435076E+02  0.41431758658E+01  0.27380026871E+02  0.40000000000E+02  0.47000000000E+01 0. -1.
         -5    1    3    3    0  501 -0.28479435076E+02 -0.41431758658E+01 -0.27380026871E+02  0.40000000000E+02  0.47000000000E+01 0.  1.
</event>
<event>
 5    1  0.4872488E-001  0.8000000E+02  0.7546771E-02  0.1203772E+00
         11   -1    0    0    0    0  0.00000000000E+00  0.00000000000E+00  0.40000000000E+02  0.40000000000E+02  0.00000000000E+00 0.  1.
        -11   -1    0    0    0    0 -0.00000000000E+00 -0.00000000000E+00 -0.40000000000E+02  0.40000000000E+02  0.00000000000E+00 0. -1.
         23    2    1    2    0    0  0.00000000000E+00  0.00000000000E+00  0.00000000000E+00  0.80000000000E+02  0.80000000000E+02 0.  0.
          5    1    3    3  501    0  0.25959900387E+02 -0.12653227948E+02 -0.27274335820E+02  0.40000000000E+02  0.47000000000E+01 0. -1.
         -5    1    3    3    0  501 -0.25959900387E+02  0.12653227948E+02  0.27274335820E+02  0.40000000000E+02  0.47000000000E+01 0.  1.
</event>
<event>
 5    1  0.4872488E-001  0.8000000E+02  0.7546771E-02  0.1203772E+00
         11   -1    0    0    0    0  0.00000000000E+00  0.00000000000E+00  0.40000000000E+02  0.40000000000E+02  0.00000000000E+00 0.  1.
        -11   -1    0    0    0    0 -0.00000000000E+00 -0.00000000000E+00 -0.40000000000E+02  0.40000000000E+02  0.00000000000E+00 0. -1.
         23    2    1    2    0    0  0.00000000000E+00  0.00000000000E+00  0.00000000000E+00  0.80000000000E+02  0.80000000000E+02 0.  0.
          5    1    3    3  501    0  0.39557133445E+02  0.12818311840E+01  0.33911800931E+01  0.40000000000E+02  0.47000000000E+01 0. -1.
         -5    1    3    3    0  501 -0.39557133445E+02 -0.12818311840E+01 -0.33911800931E+01  0.40000000000E+02  0.47000000000E+01 0.  1.
</event>
<event>
 5    1  0.4872488E-001  0.8000000E+02  0.7546771E-02  0.1203772E+00
         11   -1    0    0    0    0  0.00000000000E+00  0.00000000000E+00  0.40000000000E+02  0.40000000000E+02  0.00000000000E+00 0. -1.
        -11   -1    0    0    0    0 -0.00000000000E+00 -0.00000000000E+00 -0.40000000000E+02  0.40000000000E+02  0.00000000000E+00 0.  1.
         23    2    1    2    0    0  0.00000000000E+00  0.00000000000E+00  0.00000000000E+00  0.80000000000E+02  0.80000000000E+02 0.  0.
          5    1    3    3  501    0 -0.18795340801E+02 -0.21354966701E+02  0.27723826601E+02  0.40000000000E+02  0.47000000000E+01 0. -1.
         -5    1    3    3    0  501  0.18795340801E+02  0.21354966701E+02 -0.27723826601E+02  0.40000000000E+02  0.47000000000E+01 0.  1.
</event>
<event>
 5    1  0.4872488E-001  0.8000000E+02  0.7546771E-02  0.1203772E+00
         11   -1    0    0    0    0  0.00000000000E+00  0.00000000000E+00  0.40000000000E+02  0.40000000000E+02  0.00000000000E+00 0.  1.
        -11   -1    0    0    0    0 -0.00000000000E+00 -0.00000000000E+00 -0.40000000000E+02  0.40000000000E+02  0.00000000000E+00 0. -1.
         23    2    1    2    0    0  0.00000000000E+00  0.00000000000E+00  0.00000000000E+00  0.80000000000E+02  0.80000000000E+02 0.  0.
          5    1    3    3  501    0  0.27471793404E+00  0.15196312153E+02 -0.36700226525E+02  0.40000000000E+02  0.47000000000E+01 0. -1.
         -5    1    3    3    0  501 -0.27471793404E+00 -0.15196312153E+02  0.36700226525E+02  0.40000000000E+02  0.47000000000E+01 0.  1.
</event>
<event>
 5    1  0.4872488E-001  0.8000000E+02  0.7546771E-02  0.1203772E+00
         11   -1    0    0    0    0  0.00000000000E+00  0.00000000000E+00  0.40000000000E+02  0.40000000000E+02  0.00000000000E+00 0.  1.
        -11   -1    0    0    0    0 -0.00000000000E+00 -0.00000000000E+00 -0.40000000000E+02  0.40000000000E+02  0.00000000000E+00 0. -1.
         23    2    1    2    0    0  0.00000000000E+00  0.00000000000E+00  0.00000000000E+00  0.80000000000E+02  0.80000000000E+02 0.  0.
          5    1    3    3  501    0 -0.27461960272E+02  0.24435654238E+02 -0.15054884255E+02  0.40000000000E+02  0.47000000000E+01 0. -1.
         -5    1    3    3    0  501  0.27461960272E+02 -0.24435654238E+02  0.15054884255E+02  0.40000000000E+02  0.47000000000E+01 0.  1.
</event>
<event>
 5    1  0.4872488E-001  0.8000000E+02  0.7546771E-02  0.1203772E+00
         11   -1    0    0    0    0  0.00000000000E+00  0.00000000000E+00  0.40000000000E+02  0.40000000000E+02  0.00000000000E+00 0. -1.
        -11   -1    0    0    0    0 -0.00000000000E+00 -0.00000000000E+00 -0.40000000000E+02  0.40000000000E+02  0.00000000000E+00 0.  1.
         23    2    1    2    0    0  0.00000000000E+00  0.00000000000E+00  0.00000000000E+00  0.80000000000E+02  0.80000000000E+02 0.  0.
          5    1    3    3  501    0 -0.19181207450E+02 -0.59242408378E+01  0.34276736298E+02  0.40000000000E+02  0.47000000000E+01 0. -1.
         -5    1    3    3    0  501  0.19181207450E+02  0.59242408378E+01 -0.34276736298E+02  0.40000000000E+02  0.47000000000E+01 0.  1.
</event>
<event>
 5    1  0.4872488E-001  0.8000000E+02  0.7546771E-02  0.1203772E+00
         11   -1    0    0    0    0  0.00000000000E+00  0.00000000000E+00  0.40000000000E+02  0.40000000000E+02  0.00000000000E+00 0. -1.
        -11   -1    0    0    0    0 -0.00000000000E+00 -0.00000000000E+00 -0.40000000000E+02  0.40000000000E+02  0.00000000000E+00 0.  1.
         23    2    1    2    0    0  0.00000000000E+00  0.00000000000E+00  0.00000000000E+00  0.80000000000E+02  0.80000000000E+02 0.  0.
          5    1    3    3  501    0  0.22179933944E+02 -0.19953014458E+02 -0.26226660944E+02  0.40000000000E+02  0.47000000000E+01 0. -1.
         -5    1    3    3    0  501 -0.22179933944E+02  0.19953014458E+02  0.26226660944E+02  0.40000000000E+02  0.47000000000E+01 0.  1.
</event>
<event>
 5    1  0.4872488E-001  0.8000000E+02  0.7546771E-02  0.1203772E+00
         11   -1    0    0    0    0  0.00000000000E+00  0.00000000000E+00  0.40000000000E+02  0.40000000000E+02  0.00000000000E+00 0. -1.
        -11   -1    0    0    0    0 -0.00000000000E+00 -0.00000000000E+00 -0.40000000000E+02  0.40000000000E+02  0.00000000000E+00 0.  1.
         23    2    1    2    0    0  0.00000000000E+00  0.00000000000E+00  0.00000000000E+00  0.80000000000E+02  0.80000000000E+02 0.  0.
          5    1    3    3  501    0  0.11202058420E+02  0.37040547987E+02  0.89678142269E+01  0.40000000000E+02  0.47000000000E+01 0. -1.
         -5    1    3    3    0  501 -0.11202058420E+02 -0.37040547987E+02 -0.89678142269E+01  0.40000000000E+02  0.47000000000E+01 0.  1.
</event>
<event>
 5    1  0.4872488E-001  0.8000000E+02  0.7546771E-02  0.1203772E+00
         11   -1    0    0    0    0  0.00000000000E+00  0.00000000000E+00  0.40000000000E+02  0.40000000000E+02  0.00000000000E+00 0.  1.
        -11   -1    0    0    0    0 -0.00000000000E+00 -0.00000000000E+00 -0.40000000000E+02  0.40000000000E+02  0.00000000000E+00 0. -1.
         23    2    1    2    0    0  0.00000000000E+00  0.00000000000E+00  0.00000000000E+00  0.80000000000E+02  0.80000000000E+02 0.  0.
          5    1    3    3  501    0  0.22073077583E+01 -0.32410487508E+02 -0.22860404458E+02  0.40000000000E+02  0.47000000000E+01 0. -1.
         -5    1    3    3    0  501 -0.22073077583E+01  0.32410487508E+02  0.22860404458E+02  0.40000000000E+02  0.47000000000E+01 0.  1.
</event>
<event>
 5    1  0.4872488E-001  0.8000000E+02  0.7546771E-02  0.1203772E+00
         11   -1    0    0    0    0  0.00000000000E+00  0.00000000000E+00  0.40000000000E+02  0.40000000000E+02  0.00000000000E+00 0. -1.
        -11   -1    0    0    0    0 -0.00000000000E+00 -0.00000000000E+00 -0.40000000000E+02  0.40000000000E+02  0.00000000000E+00 0.  1.
         23    2    1    2    0    0  0.00000000000E+00  0.00000000000E+00  0.00000000000E+00  0.80000000000E+02  0.80000000000E+02 0.  0.
          5    1    3    3  501    0 -0.21094499599E+02  0.14034273979E+02  0.30593647062E+02  0.40000000000E+02  0.47000000000E+01 0. -1.
         -5    1    3    3    0  501  0.21094499599E+02 -0.14034273979E+02 -0.30593647062E+02  0.40000000000E+02  0.47000000000E+01 0.  1.
</event>
<event>
 5    1  0.4872488E-001  0.8000000E+02  0.7546771E-02  0.1203772E+00
         11   -1    0    0    0    0  0.00000000000E+00  0.00000000000E+00  0.40000000000E+02  0.40000000000E+02  0.00000000000E+00 0.  1.
        -11   -1    0    0    0    0 -0.00000000000E+00 -0.00000000000E+00 -0.40000000000E+02  0.40000000000E+02  0.00000000000E+00 0. -1.
         23    2    1    2    0    0  0.00000000000E+00  0.00000000000E+00  0.00000000000E+00  0.80000000000E+02  0.80000000000E+02 0.  0.
          5    1    3    3  501    0  0.39323374314E+02 -0.39224213778E+01 -0.40245301675E+01  0.40000000000E+02  0.47000000000E+01 0. -1.
         -5    1    3    3    0  501 -0.39323374314E+02  0.39224213778E+01  0.40245301675E+01  0.40000000000E+02  0.47000000000E+01 0.  1.
</event>
<event>
 5    1  0.4872488E-001  0.8000000E+02  0.7546771E-02  0.1203772E+00
         11   -1    0    0    0    0  0.00000000000E+00  0.00000000000E+00  0.40000000000E+02  0.40000000000E+02  0.00000000000E+00 0.  1.
        -11   -1    0    0    0    0 -0.00000000000E+00 -0.00000000000E+00 -0.40000000000E+02  0.40000000000E+02  0.00000000000E+00 0. -1.
         23    2    1    2    0    0  0.00000000000E+00  0.00000000000E+00  0.00000000000E+00  0.80000000000E+02  0.80000000000E+02 0.  0.
          5    1    3    3  501    0  0.29412601860E+01  0.62110108963E+01 -0.39123935540E+02  0.40000000000E+02  0.47000000000E+01 0. -1.
         -5    1    3    3    0  501 -0.29412601860E+01 -0.62110108963E+01  0.39123935540E+02  0.40000000000E+02  0.47000000000E+01 0.  1.
</event>
<event>
 5    1  0.4872488E-001  0.8000000E+02  0.7546771E-02  0.1203772E+00
         11   -1    0    0    0    0  0.00000000000E+00  0.00000000000E+00  0.40000000000E+02  0.40000000000E+02  0.00000000000E+00 0. -1.
        -11   -1    0    0    0    0 -0.00000000000E+00 -0.00000000000E+00 -0.40000000000E+02  0.40000000000E+02  0.00000000000E+00 0.  1.
         23    2    1    2    0    0  0.00000000000E+00  0.00000000000E+00  0.00000000000E+00  0.80000000000E+02  0.80000000000E+02 0.  0.
          5    1    3    3  501    0 -0.20115597297E+02  0.33861672886E+02  0.51633181934E+01  0.40000000000E+02  0.47000000000E+01 0. -1.
         -5    1    3    3    0  501  0.20115597297E+02 -0.33861672886E+02 -0.51633181934E+01  0.40000000000E+02  0.47000000000E+01 0.  1.
</event>
<event>
 5    1  0.4872488E-001  0.8000000E+02  0.7546771E-02  0.1203772E+00
         11   -1    0    0    0    0  0.00000000000E+00  0.00000000000E+00  0.40000000000E+02  0.40000000000E+02  0.00000000000E+00 0. -1.
        -11   -1    0    0    0    0 -0.00000000000E+00 -0.00000000000E+00 -0.40000000000E+02  0.40000000000E+02  0.00000000000E+00 0.  1.
         23    2    1    2    0    0  0.00000000000E+00  0.00000000000E+00  0.00000000000E+00  0.80000000000E+02  0.80000000000E+02 0.  0.
          5    1    3    3  501    0  0.33357088590E+02  0.15479489422E+02  0.15019988283E+02  0.40000000000E+02  0.47000000000E+01 0. -1.
         -5    1    3    3    0  501 -0.33357088590E+02 -0.15479489422E+02 -0.15019988283E+02  0.40000000000E+02  0.47000000000E+01 0.  1.
</event>
<event>
 5    1  0.4872488E-001  0.8000000E+02  0.7546771E-02  0.1203772E+00
         11   -1    0    0    0    0  0.00000000000E+00  0.00000000000E+00  0.40000000000E+02  0.40000000000E+02  0.00000000000E+00 0.  1.
        -11   -1    0    0    0    0 -0.00000000000E+00 -0.00000000000E+00 -0.40000000000E+02  0.40000000000E+02  0.00000000000E+00 0. -1.
         23    2    1    2    0    0  0.00000000000E+00  0.00000000000E+00  0.00000000000E+00  0.80000000000E+02  0.80000000000E+02 0.  0.
          5    1    3    3  501    0 -0.13773862287E+02 -0.10266290261E+02 -0.35816113720E+02  0.40000000000E+02  0.47000000000E+01 0. -1.
         -5    1    3    3    0  501  0.13773862287E+02  0.10266290261E+02  0.35816113720E+02  0.40000000000E+02  0.47000000000E+01 0.  1.
</event>
<event>
 5    1  0.4872488E-001  0.8000000E+02  0.7546771E-02  0.1203772E+00
         11   -1    0    0    0    0  0.00000000000E+00  0.00000000000E+00  0.40000000000E+02  0.40000000000E+02  0.00000000000E+00 0. -1.
        -11   -1    0    0    0    0 -0.00000000000E+00 -0.00000000000E+00 -0.40000000000E+02  0.40000000000E+02  0.00000000000E+00 0.  1.
         23    2    1    2    0    0  0.00000000000E+00  0.00000000000E+00  0.00000000000E+00  0.80000000000E+02  0.80000000000E+02 0.  0.
          5    1    3    3  501    0 -0.21771434787E+02  0.97460835783E+01  0.31763634587E+02  0.40000000000E+02  0.47000000000E+01 0. -1.
         -5    1    3    3    0  501  0.21771434787E+02 -0.97460835783E+01 -0.31763634587E+02  0.40000000000E+02  0.47000000000E+01 0.  1.
</event>
<event>
 5    1  0.4872488E-001  0.8000000E+02  0.7546771E-02  0.1203772E+00
         11   -1    0    0    0    0  0.00000000000E+00  0.00000000000E+00  0.40000000000E+02  0.40000000000E+02  0.00000000000E+00 0. -1.
        -11   -1    0    0    0    0 -0.00000000000E+00 -0.00000000000E+00 -0.40000000000E+02  0.40000000000E+02  0.00000000000E+00 0.  1.
         23    2    1    2    0    0  0.00000000000E+00  0.00000000000E+00  0.00000000000E+00  0.80000000000E+02  0.80000000000E+02 0.  0.
          5    1    3    3  501    0 -0.73862787019E+01 -0.13972183919E+01  0.39005136427E+02  0.40000000000E+02  0.47000000000E+01 0. -1.
         -5    1    3    3    0  501  0.73862787019E+01  0.13972183919E+01 -0.39005136427E+02  0.40000000000E+02  0.47000000000E+01 0.  1.
</event>
<event>
 5    1  0.4872488E-001  0.8000000E+02  0.7546771E-02  0.1203772E+00
         11   -1    0    0    0    0  0.00000000000E+00  0.00000000000E+00  0.40000000000E+02  0.40000000000E+02  0.00000000000E+00 0.  1.
        -11   -1    0    0    0    0 -0.00000000000E+00 -0.00000000000E+00 -0.40000000000E+02  0.40000000000E+02  0.00000000000E+00 0. -1.
         23    2    1    2    0    0  0.00000000000E+00  0.00000000000E+00  0.00000000000E+00  0.80000000000E+02  0.80000000000E+02 0.  0.
          5    1    3    3  501    0  0.30525292787E+02 -0.24641840827E+02  0.62366802803E+01  0.40000000000E+02  0.47000000000E+01 0. -1.
         -5    1    3    3    0  501 -0.30525292787E+02  0.24641840827E+02 -0.62366802803E+01  0.40000000000E+02  0.47000000000E+01 0.  1.
</event>
<event>
 5    1  0.4872488E-001  0.8000000E+02  0.7546771E-02  0.1203772E+00
         11   -1    0    0    0    0  0.00000000000E+00  0.00000000000E+00  0.40000000000E+02  0.40000000000E+02  0.00000000000E+00 0.  1.
        -11   -1    0    0    0    0 -0.00000000000E+00 -0.00000000000E+00 -0.40000000000E+02  0.40000000000E+02  0.00000000000E+00 0. -1.
         23    2    1    2    0    0  0.00000000000E+00  0.00000000000E+00  0.00000000000E+00  0.80000000000E+02  0.80000000000E+02 0.  0.
          5    1    3    3  501    0 -0.28214541566E+01  0.22511234096E+01 -0.39558587435E+02  0.40000000000E+02  0.47000000000E+01 0. -1.
         -5    1    3    3    0  501  0.28214541566E+01 -0.22511234096E+01  0.39558587435E+02  0.40000000000E+02  0.47000000000E+01 0.  1.
</event>
<event>
 5    1  0.4872488E-001  0.8000000E+02  0.7546771E-02  0.1203772E+00
         11   -1    0    0    0    0  0.00000000000E+00  0.00000000000E+00  0.40000000000E+02  0.40000000000E+02  0.00000000000E+00 0.  1.
        -11   -1    0    0    0    0 -0.00000000000E+00 -0.00000000000E+00 -0.40000000000E+02  0.40000000000E+02  0.00000000000E+00 0. -1.
         23    2    1    2    0    0  0.00000000000E+00  0.00000000000E+00  0.00000000000E+00  0.80000000000E+02  0.80000000000E+02 0.  0.
          5    1    3    3  501    0  0.37258583610E+02 -0.89735044363E+01  0.10449122716E+02  0.40000000000E+02  0.47000000000E+01 0. -1.
         -5    1    3    3    0  501 -0.37258583610E+02  0.89735044363E+01 -0.10449122716E+02  0.40000000000E+02  0.47000000000E+01 0.  1.
</event>
<event>
 5    1  0.4872488E-001  0.8000000E+02  0.7546771E-02  0.1203772E+00
         11   -1    0    0    0    0  0.00000000000E+00  0.00000000000E+00  0.40000000000E+02  0.40000000000E+02  0.00000000000E+00 0.  1.
        -11   -1    0    0    0    0 -0.00000000000E+00 -0.00000000000E+00 -0.40000000000E+02  0.40000000000E+02  0.00000000000E+00 0. -1.
         23    2    1    2    0    0  0.00000000000E+00  0.00000000000E+00  0.00000000000E+00  0.80000000000E+02  0.80000000000E+02 0.  0.
          5    1    3    3  501    0  0.97244124024E+01  0.37847085284E+02 -0.71375022886E+01  0.40000000000E+02  0.47000000000E+01 0. -1.
         -5    1    3    3    0  501 -0.97244124024E+01 -0.37847085284E+02  0.71375022886E+01  0.40000000000E+02  0.47000000000E+01 0.  1.
</event>
<event>
 5    1  0.4872488E-001  0.8000000E+02  0.7546771E-02  0.1203772E+00
         11   -1    0    0    0    0  0.00000000000E+00  0.00000000000E+00  0.40000000000E+02  0.40000000000E+02  0.00000000000E+00 0. -1.
        -11   -1    0    0    0    0 -0.00000000000E+00 -0.00000000000E+00 -0.40000000000E+02  0.40000000000E+02  0.00000000000E+00 0.  1.
         23    2    1    2    0    0  0.00000000000E+00  0.00000000000E+00  0.00000000000E+00  0.80000000000E+02  0.80000000000E+02 0.  0.
          5    1    3    3  501    0  0.28579196400E+02 -0.63145048461E+00  0.27581530114E+02  0.40000000000E+02  0.47000000000E+01 0. -1.
         -5    1    3    3    0  501 -0.28579196400E+02  0.63145048461E+00 -0.27581530114E+02  0.40000000000E+02  0.47000000000E+01 0.  1.
</event>
<event>
 5    1  0.4872488E-001  0.8000000E+02  0.7546771E-02  0.1203772E+00
         11   -1    0    0    0    0  0.00000000000E+00  0.00000000000E+00  0.40000000000E+02  0.40000000000E+02  0.00000000000E+00 0.  1.
        -11   -1    0    0    0    0 -0.00000000000E+00 -0.00000000000E+00 -0.40000000000E+02  0.40000000000E+02  0.00000000000E+00 0. -1.
         23    2    1    2    0    0  0.00000000000E+00  0.00000000000E+00  0.00000000000E+00  0.80000000000E+02  0.80000000000E+02 0.  0.
          5    1    3    3  501    0 -0.27887825711E+02  0.27953130447E+02  0.43360898664E+01  0.40000000000E+02  0.47000000000E+01 0. -1.
         -5    1    3    3    0  501  0.27887825711E+02 -0.27953130447E+02 -0.43360898664E+01  0.40000000000E+02  0.47000000000E+01 0.  1.
</event>
<event>
 5    1  0.4872488E-001  0.8000000E+02  0.7546771E-02  0.1203772E+00
         11   -1    0    0    0    0  0.00000000000E+00  0.00000000000E+00  0.40000000000E+02  0.40000000000E+02  0.00000000000E+00 0. -1.
        -11   -1    0    0    0    0 -0.00000000000E+00 -0.00000000000E+00 -0.40000000000E+02  0.40000000000E+02  0.00000000000E+00 0.  1.
         23    2    1    2    0    0  0.00000000000E+00  0.00000000000E+00  0.00000000000E+00  0.80000000000E+02  0.80000000000E+02 0.  0.
          5    1    3    3  501    0  0.14145180269E+02 -0.15538687592E+02  0.33710132944E+02  0.40000000000E+02  0.47000000000E+01 0. -1.
         -5    1    3    3    0  501 -0.14145180269E+02  0.15538687592E+02 -0.33710132944E+02  0.40000000000E+02  0.47000000000E+01 0.  1.
</event>
<event>
 5    1  0.4872488E-001  0.8000000E+02  0.7546771E-02  0.1203772E+00
         11   -1    0    0    0    0  0.00000000000E+00  0.00000000000E+00  0.40000000000E+02  0.40000000000E+02  0.00000000000E+00 0.  1.
        -11   -1    0    0    0    0 -0.00000000000E+00 -0.00000000000E+00 -0.40000000000E+02  0.40000000000E+02  0.00000000000E+00 0. -1.
         23    2    1    2    0    0  0.00000000000E+00  0.00000000000E+00  0.00000000000E+00  0.80000000000E+02  0.80000000000E+02 0.  0.
          5    1    3    3  501    0  0.32932602463E+02 -0.13448488880E+02 -0.17677438780E+02  0.40000000000E+02  0.47000000000E+01 0. -1.
         -5    1    3    3    0  501 -0.32932602463E+02  0.13448488880E+02  0.17677438780E+02  0.40000000000E+02  0.47000000000E+01 0.  1.
</event>
<event>
 5    1  0.4872488E-001  0.8000000E+02  0.7546771E-02  0.1203772E+00
         11   -1    0    0    0    0  0.00000000000E+00  0.00000000000E+00  0.40000000000E+02  0.40000000000E+02  0.00000000000E+00 0. -1.
        -11   -1    0    0    0    0 -0.00000000000E+00 -0.00000000000E+00 -0.40000000000E+02  0.40000000000E+02  0.00000000000E+00 0.  1.
         23    2    1    2    0    0  0.00000000000E+00  0.00000000000E+00  0.00000000000E+00  0.80000000000E+02  0.80000000000E+02 0.  0.
          5    1    3    3  501    0  0.24964679686E+02 -0.11991829948E+01  0.30874532034E+02  0.40000000000E+02  0.47000000000E+01 0. -1.
         -5    1    3    3    0  501 -0.24964679686E+02  0.11991829948E+01 -0.30874532034E+02  0.40000000000E+02  0.47000000000E+01 0.  1.
</event>
<event>
 5    1  0.4872488E-001  0.8000000E+02  0.7546771E-02  0.1203772E+00
         11   -1    0    0    0    0  0.00000000000E+00  0.00000000000E+00  0.40000000000E+02  0.40000000000E+02  0.00000000000E+00 0.  1.
        -11   -1    0    0    0    0 -0.00000000000E+00 -0.00000000000E+00 -0.40000000000E+02  0.40000000000E+02  0.00000000000E+00 0. -1.
         23    2    1    2    0    0  0.00000000000E+00  0.00000000000E+00  0.00000000000E+00  0.80000000000E+02  0.80000000000E+02 0.  0.
          5    1    3    3  501    0 -0.20739512686E+02  0.32616666331E+02 -0.91616423754E+01  0.40000000000E+02  0.47000000000E+01 0. -1.
         -5    1    3    3    0  501  0.20739512686E+02 -0.32616666331E+02  0.91616423754E+01  0.40000000000E+02  0.47000000000E+01 0.  1.
</event>
<event>
 5    1  0.4872488E-001  0.8000000E+02  0.7546771E-02  0.1203772E+00
         11   -1    0    0    0    0  0.00000000000E+00  0.00000000000E+00  0.40000000000E+02  0.40000000000E+02  0.00000000000E+00 0.  1.
        -11   -1    0    0    0    0 -0.00000000000E+00 -0.00000000000E+00 -0.40000000000E+02  0.40000000000E+02  0.00000000000E+00 0. -1.
         23    2    1    2    0    0  0.00000000000E+00  0.00000000000E+00  0.00000000000E+00  0.80000000000E+02  0.80000000000E+02 0.  0.
          5    1    3    3  501    0 -0.65449247006E+01  0.13234106018E+02 -0.36877261267E+02  0.40000000000E+02  0.47000000000E+01 0. -1.
         -5    1    3    3    0  501  0.65449247006E+01 -0.13234106018E+02  0.36877261267E+02  0.40000000000E+02  0.47000000000E+01 0.  1.
</event>
<event>
 5    1  0.4872488E-001  0.8000000E+02  0.7546771E-02  0.1203772E+00
         11   -1    0    0    0    0  0.00000000000E+00  0.00000000000E+00  0.40000000000E+02  0.40000000000E+02  0.00000000000E+00 0.  1.
        -11   -1    0    0    0    0 -0.00000000000E+00 -0.00000000000E+00 -0.40000000000E+02  0.40000000000E+02  0.00000000000E+00 0. -1.
         23    2    1    2    0    0  0.00000000000E+00  0.00000000000E+00  0.00000000000E+00  0.80000000000E+02  0.80000000000E+02 0.  0.
          5    1    3    3  501    0  0.17529357494E+02  0.29181938474E+01 -0.35526268739E+02  0.40000000000E+02  0.47000000000E+01 0. -1.
         -5    1    3    3    0  501 -0.17529357494E+02 -0.29181938474E+01  0.35526268739E+02  0.40000000000E+02  0.47000000000E+01 0.  1.
</event>
<event>
 5    1  0.4872488E-001  0.8000000E+02  0.7546771E-02  0.1203772E+00
         11   -1    0    0    0    0  0.00000000000E+00  0.00000000000E+00  0.40000000000E+02  0.40000000000E+02  0.00000000000E+00 0. -1.
        -11   -1    0    0    0    0 -0.00000000000E+00 -0.00000000000E+00 -0.40000000000E+02  0.40000000000E+02  0.00000000000E+00 0.  1.
         23    2    1    2    0    0  0.00000000000E+00  0.00000000000E+00  0.00000000000E+00  0.80000000000E+02  0.80000000000E+02 0.  0.
          5    1    3    3  501    0  0.23927695824E+02  0.28618450443E+02 -0.13651361353E+02  0.40000000000E+02  0.47000000000E+01 0. -1.
         -5    1    3    3    0  501 -0.23927695824E+02 -0.28618450443E+02  0.13651361353E+02  0.40000000000E+02  0.47000000000E+01 0.  1.
</event>
<event>
 5    1  0.4872488E-001  0.8000000E+02  0.7546771E-02  0.1203772E+00
         11   -1    0    0    0    0  0.00000000000E+00  0.00000000000E+00  0.40000000000E+02  0.40000000000E+02  0.00000000000E+00 0.  1.
        -11   -1    0    0    0    0 -0.00000000000E+00 -0.00000000000E+00 -0.40000000000E+02  0.40000000000E+02  0.00000000000E+00 0. -1.
         23    2    1    2    0    0  0.00000000000E+00  0.00000000000E+00  0.00000000000E+00  0.80000000000E+02  0.80000000000E+02 0.  0.
          5    1    3    3  501    0 -0.16109088501E+02  0.61260763328E+01 -0.35789362336E+02  0.40000000000E+02  0.47000000000E+01 0. -1.
         -5    1    3    3    0  501  0.16109088501E+02 -0.61260763328E+01  0.35789362336E+02  0.40000000000E+02  0.47000000000E+01 0.  1.
</event>
<event>
 5    1  0.4872488E-001  0.8000000E+02  0.7546771E-02  0.1203772E+00
         11   -1    0    0    0    0  0.00000000000E+00  0.00000000000E+00  0.40000000000E+02  0.40000000000E+02  0.00000000000E+00 0.  1.
        -11   -1    0    0    0    0 -0.00000000000E+00 -0.00000000000E+00 -0.40000000000E+02  0.40000000000E+02  0.00000000000E+00 0. -1.
         23    2    1    2    0    0  0.00000000000E+00  0.00000000000E+00  0.00000000000E+00  0.80000000000E+02  0.80000000000E+02 0.  0.
          5    1    3    3  501    0 -0.38443165256E+02 -0.93003472614E+01  0.36792099574E+01  0.40000000000E+02  0.47000000000E+01 0. -1.
         -5    1    3    3    0  501  0.38443165256E+02  0.93003472614E+01 -0.36792099574E+01  0.40000000000E+02  0.47000000000E+01 0.  1.
</event>
<event>
 5    1  0.4872488E-001  0.8000000E+02  0.7546771E-02  0.1203772E+00
         11   -1    0    0    0    0  0.00000000000E+00  0.00000000000E+00  0.40000000000E+02  0.40000000000E+02  0.00000000000E+00 0. -1.
        -11   -1    0    0    0    0 -0.00000000000E+00 -0.00000000000E+00 -0.40000000000E+02  0.40000000000E+02  0.00000000000E+00 0.  1.
         23    2    1    2    0    0  0.00000000000E+00  0.00000000000E+00  0.00000000000E+00  0.80000000000E+02  0.80000000000E+02 0.  0.
          5    1    3    3  501    0  0.35269343349E+02  0.69497555331E+01  0.16902198607E+02  0.40000000000E+02  0.47000000000E+01 0. -1.
         -5    1    3    3    0  501 -0.35269343349E+02 -0.69497555331E+01 -0.16902198607E+02  0.40000000000E+02  0.47000000000E+01 0.  1.
</event>
<event>
 5    1  0.4872488E-001  0.8000000E+02  0.7546771E-02  0.1203772E+00
         11   -1    0    0    0    0  0.00000000000E+00  0.00000000000E+00  0.40000000000E+02  0.40000000000E+02  0.00000000000E+00 0.  1.
        -11   -1    0    0    0    0 -0.00000000000E+00 -0.00000000000E+00 -0.40000000000E+02  0.40000000000E+02  0.00000000000E+00 0. -1.
         23    2    1    2    0    0  0.00000000000E+00  0.00000000000E+00  0.00000000000E+00  0.80000000000E+02  0.80000000000E+02 0.  0.
          5    1    3    3  501    0  0.32213884640E+02 -0.11209518749E+02 -0.20359821360E+02  0.40000000000E+02  0.47000000000E+01 0. -1.
         -5    1    3    3    0  501 -0.32213884640E+02  0.11209518749E+02  0.20359821360E+02  0.40000000000E+02  0.47000000000E+01 0.  1.
</event>
<event>
 5    1  0.4872488E-001  0.8000000E+02  0.7546771E-02  0.1203772E+00
         11   -1    0    0    0    0  0.00000000000E+00  0.00000000000E+00  0.40000000000E+02  0.40000000000E+02  0.00000000000E+00 0.  1.
        -11   -1    0    0    0    0 -0.00000000000E+00 -0.00000000000E+00 -0.40000000000E+02  0.40000000000E+02  0.00000000000E+00 0. -1.
         23    2    1    2    0    0  0.00000000000E+00  0.00000000000E+00  0.00000000000E+00  0.80000000000E+02  0.80000000000E+02 0.  0.
          5    1    3    3  501    0 -0.90088431292E+00 -0.23865267483E+02 -0.31741887396E+02  0.40000000000E+02  0.47000000000E+01 0. -1.
         -5    1    3    3    0  501  0.90088431292E+00  0.23865267483E+02  0.31741887396E+02  0.40000000000E+02  0.47000000000E+01 0.  1.
</event>
<event>
 5    1  0.4872488E-001  0.8000000E+02  0.7546771E-02  0.1203772E+00
         11   -1    0    0    0    0  0.00000000000E+00  0.00000000000E+00  0.40000000000E+02  0.40000000000E+02  0.00000000000E+00 0. -1.
        -11   -1    0    0    0    0 -0.00000000000E+00 -0.00000000000E+00 -0.40000000000E+02  0.40000000000E+02  0.00000000000E+00 0.  1.
         23    2    1    2    0    0  0.00000000000E+00  0.00000000000E+00  0.00000000000E+00  0.80000000000E+02  0.80000000000E+02 0.  0.
          5    1    3    3  501    0 -0.15876552951E+02  0.24985096477E+02  0.26487544628E+02  0.40000000000E+02  0.47000000000E+01 0. -1.
         -5    1    3    3    0  501  0.15876552951E+02 -0.24985096477E+02 -0.26487544628E+02  0.40000000000E+02  0.47000000000E+01 0.  1.
</event>
<event>
 5    1  0.4872488E-001  0.8000000E+02  0.7546771E-02  0.1203772E+00
         11   -1    0    0    0    0  0.00000000000E+00  0.00000000000E+00  0.40000000000E+02  0.40000000000E+02  0.00000000000E+00 0.  1.
        -11   -1    0    0    0    0 -0.00000000000E+00 -0.00000000000E+00 -0.40000000000E+02  0.40000000000E+02  0.00000000000E+00 0. -1.
         23    2    1    2    0    0  0.00000000000E+00  0.00000000000E+00  0.00000000000E+00  0.80000000000E+02  0.80000000000E+02 0.  0.
          5    1    3    3  501    0 -0.32700805974E+02  0.23059520483E+01 -0.22433231461E+02  0.40000000000E+02  0.47000000000E+01 0. -1.
         -5    1    3    3    0  501  0.32700805974E+02 -0.23059520483E+01  0.22433231461E+02  0.40000000000E+02  0.47000000000E+01 0.  1.
</event>
<event>
 5    1  0.4872488E-001  0.8000000E+02  0.7546771E-02  0.1203772E+00
         11   -1    0    0    0    0  0.00000000000E+00  0.00000000000E+00  0.40000000000E+02  0.40000000000E+02  0.00000000000E+00 0. -1.
        -11   -1    0    0    0    0 -0.00000000000E+00 -0.00000000000E+00 -0.40000000000E+02  0.40000000000E+02  0.00000000000E+00 0.  1.
         23    2    1    2    0    0  0.00000000000E+00  0.00000000000E+00  0.00000000000E+00  0.80000000000E+02  0.80000000000E+02 0.  0.
          5    1    3    3  501    0 -0.12631931971E+01 -0.66536756638E+01  0.39141320150E+02  0.40000000000E+02  0.47000000000E+01 0. -1.
         -5    1    3    3    0  501  0.12631931971E+01  0.66536756638E+01 -0.39141320150E+02  0.40000000000E+02  0.47000000000E+01 0.  1.
</event>
<event>
 5    1  0.4872488E-001  0.8000000E+02  0.7546771E-02  0.1203772E+00
         11   -1    0    0    0    0  0.00000000000E+00  0.00000000000E+00  0.40000000000E+02  0.40000000000E+02  0.00000000000E+00 0. -1.
        -11   -1    0    0    0    0 -0.00000000000E+00 -0.00000000000E+00 -0.40000000000E+02  0.40000000000E+02  0.00000000000E+00 0.  1.
         23    2    1    2    0    0  0.00000000000E+00  0.00000000000E+00  0.00000000000E+00  0.80000000000E+02  0.80000000000E+02 0.  0.
          5    1    3    3  501    0  0.21617254602E+02  0.32852736057E+02  0.55948223441E+01  0.40000000000E+02  0.47000000000E+01 0. -1.
         -5    1    3    3    0  501 -0.21617254602E+02 -0.32852736057E+02 -0.55948223441E+01  0.40000000000E+02  0.47000000000E+01 0.  1.
</event>
<event>
 5    1  0.4872488E-001  0.8000000E+02  0.7546771E-02  0.1203772E+00
         11   -1    0    0    0    0  0.00000000000E+00  0.00000000000E+00  0.40000000000E+02  0.40000000000E+02  0.00000000000E+00 0.  1.
        -11   -1    0    0    0    0 -0.00000000000E+00 -0.00000000000E+00 -0.40000000000E+02  0.40000000000E+02  0.00000000000E+00 0. -1.
         23    2    1    2    0    0  0.00000000000E+00  0.00000000000E+00  0.00000000000E+00  0.80000000000E+02  0.80000000000E+02 0.  0.
          5    1    3    3  501    0  0.36551412617E+01 -0.13798601998E+02 -0.37069509374E+02  0.40000000000E+02  0.47000000000E+01 0. -1.
         -5    1    3    3    0  501 -0.36551412617E+01  0.13798601998E+02  0.37069509374E+02  0.40000000000E+02  0.47000000000E+01 0.  1.
</event>
<event>
 5    1  0.4872488E-001  0.8000000E+02  0.7546771E-02  0.1203772E+00
         11   -1    0    0    0    0  0.00000000000E+00  0.00000000000E+00  0.40000000000E+02  0.40000000000E+02  0.00000000000E+00 0.  1.
        -11   -1    0    0    0    0 -0.00000000000E+00 -0.00000000000E+00 -0.40000000000E+02  0.40000000000E+02  0.00000000000E+00 0. -1.
         23    2    1    2    0    0  0.00000000000E+00  0.00000000000E+00  0.00000000000E+00  0.80000000000E+02  0.80000000000E+02 0.  0.
          5    1    3    3  501    0 -0.25354244659E+02  0.23089024200E+02 -0.20049170539E+02  0.40000000000E+02  0.47000000000E+01 0. -1.
         -5    1    3    3    0  501  0.25354244659E+02 -0.23089024200E+02  0.20049170539E+02  0.40000000000E+02  0.47000000000E+01 0.  1.
</event>
<event>
 5    1  0.4872488E-001  0.8000000E+02  0.7546771E-02  0.1203772E+00
         11   -1    0    0    0    0  0.00000000000E+00  0.00000000000E+00  0.40000000000E+02  0.40000000000E+02  0.00000000000E+00 0.  1.
        -11   -1    0    0    0    0 -0.00000000000E+00 -0.00000000000E+00 -0.40000000000E+02  0.40000000000E+02  0.00000000000E+00 0. -1.
         23    2    1    2    0    0  0.00000000000E+00  0.00000000000E+00  0.00000000000E+00  0.80000000000E+02  0.80000000000E+02 0.  0.
          5    1    3    3  501    0 -0.33325401877E+02 -0.43938254778E+01 -0.21166527524E+02  0.40000000000E+02  0.47000000000E+01 0. -1.
         -5    1    3    3    0  501  0.33325401877E+02  0.43938254778E+01  0.21166527524E+02  0.40000000000E+02  0.47000000000E+01 0.  1.
</event>
<event>
 5    1  0.4872488E-001  0.8000000E+02  0.7546771E-02  0.1203772E+00
         11   -1    0    0    0    0  0.00000000000E+00  0.00000000000E+00  0.40000000000E+02  0.40000000000E+02  0.00000000000E+00 0.  1.
        -11   -1    0    0    0    0 -0.00000000000E+00 -0.00000000000E+00 -0.40000000000E+02  0.40000000000E+02  0.00000000000E+00 0. -1.
         23    2    1    2    0    0  0.00000000000E+00  0.00000000000E+00  0.00000000000E+00  0.80000000000E+02  0.80000000000E+02 0.  0.
          5    1    3    3  501    0 -0.76532727628E+01  0.32084019383E+02 -0.22134884601E+02  0.40000000000E+02  0.47000000000E+01 0. -1.
         -5    1    3    3    0  501  0.76532727628E+01 -0.32084019383E+02  0.22134884601E+02  0.40000000000E+02  0.47000000000E+01 0.  1.
</event>
<event>
 5    1  0.4872488E-001  0.8000000E+02  0.7546771E-02  0.1203772E+00
         11   -1    0    0    0    0  0.00000000000E+00  0.00000000000E+00  0.40000000000E+02  0.40000000000E+02  0.00000000000E+00 0. -1.
        -11   -1    0    0    0    0 -0.00000000000E+00 -0.00000000000E+00 -0.40000000000E+02  0.40000000000E+02  0.00000000000E+00 0.  1.
         23    2    1    2    0    0  0.00000000000E+00  0.00000000000E+00  0.00000000000E+00  0.80000000000E+02  0.80000000000E+02 0.  0.
          5    1    3    3  501    0 -0.33679382352E+02  0.20995882229E+02  0.16679729798E+01  0.40000000000E+02  0.47000000000E+01 0. -1.
         -5    1    3    3    0  501  0.33679382352E+02 -0.20995882229E+02 -0.16679729798E+01  0.40000000000E+02  0.47000000000E+01 0.  1.
</event>
<event>
 5    1  0.4872488E-001  0.8000000E+02  0.7546771E-02  0.1203772E+00
         11   -1    0    0    0    0  0.00000000000E+00  0.00000000000E+00  0.40000000000E+02  0.40000000000E+02  0.00000000000E+00 0. -1.
        -11   -1    0    0    0    0 -0.00000000000E+00 -0.00000000000E+00 -0.40000000000E+02  0.40000000000E+02  0.00000000000E+00 0.  1.
         23    2    1    2    0    0  0.00000000000E+00  0.00000000000E+00  0.00000000000E+00  0.80000000000E+02  0.80000000000E+02 0.  0.
          5    1    3    3  501    0 -0.33277801847E+01  0.37507499028E+01  0.39405174206E+02  0.40000000000E+02  0.47000000000E+01 0. -1.
         -5    1    3    3    0  501  0.33277801847E+01 -0.37507499028E+01 -0.39405174206E+02  0.40000000000E+02  0.47000000000E+01 0.  1.
</event>
<event>
 5    1  0.4872488E-001  0.8000000E+02  0.7546771E-02  0.1203772E+00
         11   -1    0    0    0    0  0.00000000000E+00  0.00000000000E+00  0.40000000000E+02  0.40000000000E+02  0.00000000000E+00 0. -1.
        -11   -1    0    0    0    0 -0.00000000000E+00 -0.00000000000E+00 -0.40000000000E+02  0.40000000000E+02  0.00000000000E+00 0.  1.
         23    2    1    2    0    0  0.00000000000E+00  0.00000000000E+00  0.00000000000E+00  0.80000000000E+02  0.80000000000E+02 0.  0.
          5    1    3    3  501    0  0.88530562030E+01 -0.52136830443E+01  0.38371224961E+02  0.40000000000E+02  0.47000000000E+01 0. -1.
         -5    1    3    3    0  501 -0.88530562030E+01  0.52136830443E+01 -0.38371224961E+02  0.40000000000E+02  0.47000000000E+01 0.  1.
</event>
<event>
 5    1  0.4872488E-001  0.8000000E+02  0.7546771E-02  0.1203772E+00
         11   -1    0    0    0    0  0.00000000000E+00  0.00000000000E+00  0.40000000000E+02  0.40000000000E+02  0.00000000000E+00 0.  1.
        -11   -1    0    0    0    0 -0.00000000000E+00 -0.00000000000E+00 -0.40000000000E+02  0.40000000000E+02  0.00000000000E+00 0. -1.
         23    2    1    2    0    0  0.00000000000E+00  0.00000000000E+00  0.00000000000E+00  0.80000000000E+02  0.80000000000E+02 0.  0.
          5    1    3    3  501    0  0.25347607359E+02 -0.55743132964E+01 -0.30072177048E+02  0.40000000000E+02  0.47000000000E+01 0. -1.
         -5    1    3    3    0  501 -0.25347607359E+02  0.55743132964E+01  0.30072177048E+02  0.40000000000E+02  0.47000000000E+01 0.  1.
</event>
<event>
 5    1  0.4872488E-001  0.8000000E+02  0.7546771E-02  0.1203772E+00
         11   -1    0    0    0    0  0.00000000000E+00  0.00000000000E+00  0.40000000000E+02  0.40000000000E+02  0.00000000000E+00 0. -1.
        -11   -1    0    0    0    0 -0.00000000000E+00 -0.00000000000E+00 -0.40000000000E+02  0.40000000000E+02  0.00000000000E+00 0.  1.
         23    2    1    2    0    0  0.00000000000E+00  0.00000000000E+00  0.00000000000E+00  0.80000000000E+02  0.80000000000E+02 0.  0.
          5    1    3    3  501    0 -0.28884046111E+02 -0.44888809317E+01  0.26897431629E+02  0.40000000000E+02  0.47000000000E+01 0. -1.
         -5    1    3    3    0  501  0.28884046111E+02  0.44888809317E+01 -0.26897431629E+02  0.40000000000E+02  0.47000000000E+01 0.  1.
</event>
<event>
 5    1  0.4872488E-001  0.8000000E+02  0.7546771E-02  0.1203772E+00
         11   -1    0    0    0    0  0.00000000000E+00  0.00000000000E+00  0.40000000000E+02  0.40000000000E+02  0.00000000000E+00 0.  1.
        -11   -1    0    0    0    0 -0.00000000000E+00 -0.00000000000E+00 -0.40000000000E+02  0.40000000000E+02  0.00000000000E+00 0. -1.
         23    2    1    2    0    0  0.00000000000E+00  0.00000000000E+00  0.00000000000E+00  0.80000000000E+02  0.80000000000E+02 0.  0.
          5    1    3    3  501    0 -0.11078220994E+02 -0.27438331760E+02  0.26501339020E+02  0.40000000000E+02  0.47000000000E+01 0. -1.
         -5    1    3    3    0  501  0.11078220994E+02  0.27438331760E+02 -0.26501339020E+02  0.40000000000E+02  0.47000000000E+01 0.  1.
</event>
<event>
 5    1  0.4872488E-001  0.8000000E+02  0.7546771E-02  0.1203772E+00
         11   -1    0    0    0    0  0.00000000000E+00  0.00000000000E+00  0.40000000000E+02  0.40000000000E+02  0.00000000000E+00 0. -1.
        -11   -1    0    0    0    0 -0.00000000000E+00 -0.00000000000E+00 -0.40000000000E+02  0.40000000000E+02  0.00000000000E+00 0.  1.
         23    2    1    2    0    0  0.00000000000E+00  0.00000000000E+00  0.00000000000E+00  0.80000000000E+02  0.80000000000E+02 0.  0.
          5    1    3    3  501    0  0.12701633182E+02 -0.34729467682E+02 -0.14506639481E+02  0.40000000000E+02  0.47000000000E+01 0.  1.
         -5    1    3    3    0  501 -0.12701633182E+02  0.34729467682E+02  0.14506639481E+02  0.40000000000E+02  0.47000000000E+01 0. -1.
</event>
<event>
 5    1  0.4872488E-001  0.8000000E+02  0.7546771E-02  0.1203772E+00
         11   -1    0    0    0    0  0.00000000000E+00  0.00000000000E+00  0.40000000000E+02  0.40000000000E+02  0.00000000000E+00 0. -1.
        -11   -1    0    0    0    0 -0.00000000000E+00 -0.00000000000E+00 -0.40000000000E+02  0.40000000000E+02  0.00000000000E+00 0.  1.
         23    2    1    2    0    0  0.00000000000E+00  0.00000000000E+00  0.00000000000E+00  0.80000000000E+02  0.80000000000E+02 0.  0.
          5    1    3    3  501    0  0.20879418187E+02  0.10134006523E+02  0.32237583780E+02  0.40000000000E+02  0.47000000000E+01 0. -1.
         -5    1    3    3    0  501 -0.20879418187E+02 -0.10134006523E+02 -0.32237583780E+02  0.40000000000E+02  0.47000000000E+01 0.  1.
</event>
<event>
 5    1  0.4872488E-001  0.8000000E+02  0.7546771E-02  0.1203772E+00
         11   -1    0    0    0    0  0.00000000000E+00  0.00000000000E+00  0.40000000000E+02  0.40000000000E+02  0.00000000000E+00 0.  1.
        -11   -1    0    0    0    0 -0.00000000000E+00 -0.00000000000E+00 -0.40000000000E+02  0.40000000000E+02  0.00000000000E+00 0. -1.
         23    2    1    2    0    0  0.00000000000E+00  0.00000000000E+00  0.00000000000E+00  0.80000000000E+02  0.80000000000E+02 0.  0.
          5    1    3    3  501    0  0.22604343436E+02 -0.10115966030E+02 -0.31058346528E+02  0.40000000000E+02  0.47000000000E+01 0. -1.
         -5    1    3    3    0  501 -0.22604343436E+02  0.10115966030E+02  0.31058346528E+02  0.40000000000E+02  0.47000000000E+01 0.  1.
</event>
<event>
 5    1  0.4872488E-001  0.8000000E+02  0.7546771E-02  0.1203772E+00
         11   -1    0    0    0    0  0.00000000000E+00  0.00000000000E+00  0.40000000000E+02  0.40000000000E+02  0.00000000000E+00 0.  1.
        -11   -1    0    0    0    0 -0.00000000000E+00 -0.00000000000E+00 -0.40000000000E+02  0.40000000000E+02  0.00000000000E+00 0. -1.
         23    2    1    2    0    0  0.00000000000E+00  0.00000000000E+00  0.00000000000E+00  0.80000000000E+02  0.80000000000E+02 0.  0.
          5    1    3    3  501    0  0.19573391153E+02 -0.31042425428E+02 -0.15203952852E+02  0.40000000000E+02  0.47000000000E+01 0. -1.
         -5    1    3    3    0  501 -0.19573391153E+02  0.31042425428E+02  0.15203952852E+02  0.40000000000E+02  0.47000000000E+01 0.  1.
</event>
<event>
 5    1  0.4872488E-001  0.8000000E+02  0.7546771E-02  0.1203772E+00
         11   -1    0    0    0    0  0.00000000000E+00  0.00000000000E+00  0.40000000000E+02  0.40000000000E+02  0.00000000000E+00 0. -1.
        -11   -1    0    0    0    0 -0.00000000000E+00 -0.00000000000E+00 -0.40000000000E+02  0.40000000000E+02  0.00000000000E+00 0.  1.
         23    2    1    2    0    0  0.00000000000E+00  0.00000000000E+00  0.00000000000E+00  0.80000000000E+02  0.80000000000E+02 0.  0.
          5    1    3    3  501    0 -0.80427968816E+01 -0.21030482677E+02  0.32725253501E+02  0.40000000000E+02  0.47000000000E+01 0. -1.
         -5    1    3    3    0  501  0.80427968816E+01  0.21030482677E+02 -0.32725253501E+02  0.40000000000E+02  0.47000000000E+01 0.  1.
</event>
<event>
 5    1  0.4872488E-001  0.8000000E+02  0.7546771E-02  0.1203772E+00
         11   -1    0    0    0    0  0.00000000000E+00  0.00000000000E+00  0.40000000000E+02  0.40000000000E+02  0.00000000000E+00 0.  1.
        -11   -1    0    0    0    0 -0.00000000000E+00 -0.00000000000E+00 -0.40000000000E+02  0.40000000000E+02  0.00000000000E+00 0. -1.
         23    2    1    2    0    0  0.00000000000E+00  0.00000000000E+00  0.00000000000E+00  0.80000000000E+02  0.80000000000E+02 0.  0.
          5    1    3    3  501    0  0.95267395735E+01 -0.35509911978E+02 -0.15039859854E+02  0.40000000000E+02  0.47000000000E+01 0. -1.
         -5    1    3    3    0  501 -0.95267395735E+01  0.35509911978E+02  0.15039859854E+02  0.40000000000E+02  0.47000000000E+01 0.  1.
</event>
<event>
 5    1  0.4872488E-001  0.8000000E+02  0.7546771E-02  0.1203772E+00
         11   -1    0    0    0    0  0.00000000000E+00  0.00000000000E+00  0.40000000000E+02  0.40000000000E+02  0.00000000000E+00 0. -1.
        -11   -1    0    0    0    0 -0.00000000000E+00 -0.00000000000E+00 -0.40000000000E+02  0.40000000000E+02  0.00000000000E+00 0.  1.
         23    2    1    2    0    0  0.00000000000E+00  0.00000000000E+00  0.00000000000E+00  0.80000000000E+02  0.80000000000E+02 0.  0.
          5    1    3    3  501    0 -0.22822229903E+02 -0.12213079365E+01  0.32489447967E+02  0.40000000000E+02  0.47000000000E+01 0. -1.
         -5    1    3    3    0  501  0.22822229903E+02  0.12213079365E+01 -0.32489447967E+02  0.40000000000E+02  0.47000000000E+01 0.  1.
</event>
<event>
 5    1  0.4872488E-001  0.8000000E+02  0.7546771E-02  0.1203772E+00
         11   -1    0    0    0    0  0.00000000000E+00  0.00000000000E+00  0.40000000000E+02  0.40000000000E+02  0.00000000000E+00 0. -1.
        -11   -1    0    0    0    0 -0.00000000000E+00 -0.00000000000E+00 -0.40000000000E+02  0.40000000000E+02  0.00000000000E+00 0.  1.
         23    2    1    2    0    0  0.00000000000E+00  0.00000000000E+00  0.00000000000E+00  0.80000000000E+02  0.80000000000E+02 0.  0.
          5    1    3    3  501    0 -0.21589467784E+02 -0.24885060320E+02  0.22193211882E+02  0.40000000000E+02  0.47000000000E+01 0. -1.
         -5    1    3    3    0  501  0.21589467784E+02  0.24885060320E+02 -0.22193211882E+02  0.40000000000E+02  0.47000000000E+01 0.  1.
</event>
<event>
 5    1  0.4872488E-001  0.8000000E+02  0.7546771E-02  0.1203772E+00
         11   -1    0    0    0    0  0.00000000000E+00  0.00000000000E+00  0.40000000000E+02  0.40000000000E+02  0.00000000000E+00 0. -1.
        -11   -1    0    0    0    0 -0.00000000000E+00 -0.00000000000E+00 -0.40000000000E+02  0.40000000000E+02  0.00000000000E+00 0.  1.
         23    2    1    2    0    0  0.00000000000E+00  0.00000000000E+00  0.00000000000E+00  0.80000000000E+02  0.80000000000E+02 0.  0.
          5    1    3    3  501    0 -0.63276019004E+01 -0.13309461252E+02 -0.36888069824E+02  0.40000000000E+02  0.47000000000E+01 0.  1.
         -5    1    3    3    0  501  0.63276019004E+01  0.13309461252E+02  0.36888069824E+02  0.40000000000E+02  0.47000000000E+01 0. -1.
</event>
<event>
 5    1  0.4872488E-001  0.8000000E+02  0.7546771E-02  0.1203772E+00
         11   -1    0    0    0    0  0.00000000000E+00  0.00000000000E+00  0.40000000000E+02  0.40000000000E+02  0.00000000000E+00 0. -1.
        -11   -1    0    0    0    0 -0.00000000000E+00 -0.00000000000E+00 -0.40000000000E+02  0.40000000000E+02  0.00000000000E+00 0.  1.
         23    2    1    2    0    0  0.00000000000E+00  0.00000000000E+00  0.00000000000E+00  0.80000000000E+02  0.80000000000E+02 0.  0.
          5    1    3    3  501    0 -0.26914954180E+02  0.75248476509E+01  0.28228919734E+02  0.40000000000E+02  0.47000000000E+01 0. -1.
         -5    1    3    3    0  501  0.26914954180E+02 -0.75248476509E+01 -0.28228919734E+02  0.40000000000E+02  0.47000000000E+01 0.  1.
</event>
<event>
 5    1  0.4872488E-001  0.8000000E+02  0.7546771E-02  0.1203772E+00
         11   -1    0    0    0    0  0.00000000000E+00  0.00000000000E+00  0.40000000000E+02  0.40000000000E+02  0.00000000000E+00 0.  1.
        -11   -1    0    0    0    0 -0.00000000000E+00 -0.00000000000E+00 -0.40000000000E+02  0.40000000000E+02  0.00000000000E+00 0. -1.
         23    2    1    2    0    0  0.00000000000E+00  0.00000000000E+00  0.00000000000E+00  0.80000000000E+02  0.80000000000E+02 0.  0.
          5    1    3    3  501    0 -0.20236685307E+02  0.14044520199E+01 -0.34152804897E+02  0.40000000000E+02  0.47000000000E+01 0. -1.
         -5    1    3    3    0  501  0.20236685307E+02 -0.14044520199E+01  0.34152804897E+02  0.40000000000E+02  0.47000000000E+01 0.  1.
</event>
<event>
 5    1  0.4872488E-001  0.8000000E+02  0.7546771E-02  0.1203772E+00
         11   -1    0    0    0    0  0.00000000000E+00  0.00000000000E+00  0.40000000000E+02  0.40000000000E+02  0.00000000000E+00 0. -1.
        -11   -1    0    0    0    0 -0.00000000000E+00 -0.00000000000E+00 -0.40000000000E+02  0.40000000000E+02  0.00000000000E+00 0.  1.
         23    2    1    2    0    0  0.00000000000E+00  0.00000000000E+00  0.00000000000E+00  0.80000000000E+02  0.80000000000E+02 0.  0.
          5    1    3    3  501    0  0.35540300243E+01  0.36610074357E+02  0.14999377526E+02  0.40000000000E+02  0.47000000000E+01 0. -1.
         -5    1    3    3    0  501 -0.35540300243E+01 -0.36610074357E+02 -0.14999377526E+02  0.40000000000E+02  0.47000000000E+01 0.  1.
</event>
<event>
 5    1  0.4872488E-001  0.8000000E+02  0.7546771E-02  0.1203772E+00
         11   -1    0    0    0    0  0.00000000000E+00  0.00000000000E+00  0.40000000000E+02  0.40000000000E+02  0.00000000000E+00 0.  1.
        -11   -1    0    0    0    0 -0.00000000000E+00 -0.00000000000E+00 -0.40000000000E+02  0.40000000000E+02  0.00000000000E+00 0. -1.
         23    2    1    2    0    0  0.00000000000E+00  0.00000000000E+00  0.00000000000E+00  0.80000000000E+02  0.80000000000E+02 0.  0.
          5    1    3    3  501    0  0.51616742937E+01 -0.13835462330E+02 -0.36876104737E+02  0.40000000000E+02  0.47000000000E+01 0. -1.
         -5    1    3    3    0  501 -0.51616742937E+01  0.13835462330E+02  0.36876104737E+02  0.40000000000E+02  0.47000000000E+01 0.  1.
</event>
<event>
 5    1  0.4872488E-001  0.8000000E+02  0.7546771E-02  0.1203772E+00
         11   -1    0    0    0    0  0.00000000000E+00  0.00000000000E+00  0.40000000000E+02  0.40000000000E+02  0.00000000000E+00 0.  1.
        -11   -1    0    0    0    0 -0.00000000000E+00 -0.00000000000E+00 -0.40000000000E+02  0.40000000000E+02  0.00000000000E+00 0. -1.
         23    2    1    2    0    0  0.00000000000E+00  0.00000000000E+00  0.00000000000E+00  0.80000000000E+02  0.80000000000E+02 0.  0.
          5    1    3    3  501    0  0.10382350486E+02 -0.31564148892E+02 -0.21767436761E+02  0.40000000000E+02  0.47000000000E+01 0. -1.
         -5    1    3    3    0  501 -0.10382350486E+02  0.31564148892E+02  0.21767436761E+02  0.40000000000E+02  0.47000000000E+01 0.  1.
</event>
<event>
 5    1  0.4872488E-001  0.8000000E+02  0.7546771E-02  0.1203772E+00
         11   -1    0    0    0    0  0.00000000000E+00  0.00000000000E+00  0.40000000000E+02  0.40000000000E+02  0.00000000000E+00 0. -1.
        -11   -1    0    0    0    0 -0.00000000000E+00 -0.00000000000E+00 -0.40000000000E+02  0.40000000000E+02  0.00000000000E+00 0.  1.
         23    2    1    2    0    0  0.00000000000E+00  0.00000000000E+00  0.00000000000E+00  0.80000000000E+02  0.80000000000E+02 0.  0.
          5    1    3    3  501    0  0.19232489174E+00 -0.26834398255E+02  0.29288019418E+02  0.40000000000E+02  0.47000000000E+01 0. -1.
         -5    1    3    3    0  501 -0.19232489174E+00  0.26834398255E+02 -0.29288019418E+02  0.40000000000E+02  0.47000000000E+01 0.  1.
</event>
<event>
 5    1  0.4872488E-001  0.8000000E+02  0.7546771E-02  0.1203772E+00
         11   -1    0    0    0    0  0.00000000000E+00  0.00000000000E+00  0.40000000000E+02  0.40000000000E+02  0.00000000000E+00 0. -1.
        -11   -1    0    0    0    0 -0.00000000000E+00 -0.00000000000E+00 -0.40000000000E+02  0.40000000000E+02  0.00000000000E+00 0.  1.
         23    2    1    2    0    0  0.00000000000E+00  0.00000000000E+00  0.00000000000E+00  0.80000000000E+02  0.80000000000E+02 0.  0.
          5    1    3    3  501    0 -0.16991356864E+01 -0.24327796678E+02 -0.31355721117E+02  0.40000000000E+02  0.47000000000E+01 0.  1.
         -5    1    3    3    0  501  0.16991356864E+01  0.24327796678E+02  0.31355721117E+02  0.40000000000E+02  0.47000000000E+01 0. -1.
</event>
<event>
 5    1  0.4872488E-001  0.8000000E+02  0.7546771E-02  0.1203772E+00
         11   -1    0    0    0    0  0.00000000000E+00  0.00000000000E+00  0.40000000000E+02  0.40000000000E+02  0.00000000000E+00 0.  1.
        -11   -1    0    0    0    0 -0.00000000000E+00 -0.00000000000E+00 -0.40000000000E+02  0.40000000000E+02  0.00000000000E+00 0. -1.
         23    2    1    2    0    0  0.00000000000E+00  0.00000000000E+00  0.00000000000E+00  0.80000000000E+02  0.80000000000E+02 0.  0.
          5    1    3    3  501    0  0.33454949291E+02  0.18559877002E+02 -0.10686783127E+02  0.40000000000E+02  0.47000000000E+01 0. -1.
         -5    1    3    3    0  501 -0.33454949291E+02 -0.18559877002E+02  0.10686783127E+02  0.40000000000E+02  0.47000000000E+01 0.  1.
</event>
<event>
 5    1  0.4872488E-001  0.8000000E+02  0.7546771E-02  0.1203772E+00
         11   -1    0    0    0    0  0.00000000000E+00  0.00000000000E+00  0.40000000000E+02  0.40000000000E+02  0.00000000000E+00 0.  1.
        -11   -1    0    0    0    0 -0.00000000000E+00 -0.00000000000E+00 -0.40000000000E+02  0.40000000000E+02  0.00000000000E+00 0. -1.
         23    2    1    2    0    0  0.00000000000E+00  0.00000000000E+00  0.00000000000E+00  0.80000000000E+02  0.80000000000E+02 0.  0.
          5    1    3    3  501    0  0.33774779937E+02 -0.77541434742E+01 -0.19417710967E+02  0.40000000000E+02  0.47000000000E+01 0. -1.
         -5    1    3    3    0  501 -0.33774779937E+02  0.77541434742E+01  0.19417710967E+02  0.40000000000E+02  0.47000000000E+01 0.  1.
</event>
<event>
 5    1  0.4872488E-001  0.8000000E+02  0.7546771E-02  0.1203772E+00
         11   -1    0    0    0    0  0.00000000000E+00  0.00000000000E+00  0.40000000000E+02  0.40000000000E+02  0.00000000000E+00 0.  1.
        -11   -1    0    0    0    0 -0.00000000000E+00 -0.00000000000E+00 -0.40000000000E+02  0.40000000000E+02  0.00000000000E+00 0. -1.
         23    2    1    2    0    0  0.00000000000E+00  0.00000000000E+00  0.00000000000E+00  0.80000000000E+02  0.80000000000E+02 0.  0.
          5    1    3    3  501    0  0.69872875015E+01 -0.18752227850E+02 -0.34313871306E+02  0.40000000000E+02  0.47000000000E+01 0. -1.
         -5    1    3    3    0  501 -0.69872875015E+01  0.18752227850E+02  0.34313871306E+02  0.40000000000E+02  0.47000000000E+01 0.  1.
</event>
<event>
 5    1  0.4872488E-001  0.8000000E+02  0.7546771E-02  0.1203772E+00
         11   -1    0    0    0    0  0.00000000000E+00  0.00000000000E+00  0.40000000000E+02  0.40000000000E+02  0.00000000000E+00 0.  1.
        -11   -1    0    0    0    0 -0.00000000000E+00 -0.00000000000E+00 -0.40000000000E+02  0.40000000000E+02  0.00000000000E+00 0. -1.
         23    2    1    2    0    0  0.00000000000E+00  0.00000000000E+00  0.00000000000E+00  0.80000000000E+02  0.80000000000E+02 0.  0.
          5    1    3    3  501    0  0.30726087696E+01  0.21968651936E+02 -0.32952198826E+02  0.40000000000E+02  0.47000000000E+01 0. -1.
         -5    1    3    3    0  501 -0.30726087696E+01 -0.21968651936E+02  0.32952198826E+02  0.40000000000E+02  0.47000000000E+01 0.  1.
</event>
<event>
 5    1  0.4872488E-001  0.8000000E+02  0.7546771E-02  0.1203772E+00
         11   -1    0    0    0    0  0.00000000000E+00  0.00000000000E+00  0.40000000000E+02  0.40000000000E+02  0.00000000000E+00 0. -1.
        -11   -1    0    0    0    0 -0.00000000000E+00 -0.00000000000E+00 -0.40000000000E+02  0.40000000000E+02  0.00000000000E+00 0.  1.
         23    2    1    2    0    0  0.00000000000E+00  0.00000000000E+00  0.00000000000E+00  0.80000000000E+02  0.80000000000E+02 0.  0.
          5    1    3    3  501    0  0.22003016977E+02 -0.18394525680E+02  0.27484880734E+02  0.40000000000E+02  0.47000000000E+01 0. -1.
         -5    1    3    3    0  501 -0.22003016977E+02  0.18394525680E+02 -0.27484880734E+02  0.40000000000E+02  0.47000000000E+01 0.  1.
</event>
<event>
 5    1  0.4872488E-001  0.8000000E+02  0.7546771E-02  0.1203772E+00
         11   -1    0    0    0    0  0.00000000000E+00  0.00000000000E+00  0.40000000000E+02  0.40000000000E+02  0.00000000000E+00 0. -1.
        -11   -1    0    0    0    0 -0.00000000000E+00 -0.00000000000E+00 -0.40000000000E+02  0.40000000000E+02  0.00000000000E+00 0.  1.
         23    2    1    2    0    0  0.00000000000E+00  0.00000000000E+00  0.00000000000E+00  0.80000000000E+02  0.80000000000E+02 0.  0.
          5    1    3    3  501    0 -0.36930316719E+02  0.52959611497E+01  0.13638713376E+02  0.40000000000E+02  0.47000000000E+01 0. -1.
         -5    1    3    3    0  501  0.36930316719E+02 -0.52959611497E+01 -0.13638713376E+02  0.40000000000E+02  0.47000000000E+01 0.  1.
</event>
<event>
 5    1  0.4872488E-001  0.8000000E+02  0.7546771E-02  0.1203772E+00
         11   -1    0    0    0    0  0.00000000000E+00  0.00000000000E+00  0.40000000000E+02  0.40000000000E+02  0.00000000000E+00 0. -1.
        -11   -1    0    0    0    0 -0.00000000000E+00 -0.00000000000E+00 -0.40000000000E+02  0.40000000000E+02  0.00000000000E+00 0.  1.
         23    2    1    2    0    0  0.00000000000E+00  0.00000000000E+00  0.00000000000E+00  0.80000000000E+02  0.80000000000E+02 0.  0.
          5    1    3    3  501    0 -0.37443767611E+01  0.38605437457E+02 -0.85737880461E+01  0.40000000000E+02  0.47000000000E+01 0. -1.
         -5    1    3    3    0  501  0.37443767611E+01 -0.38605437457E+02  0.85737880461E+01  0.40000000000E+02  0.47000000000E+01 0.  1.
</event>
<event>
 5    1  0.4872488E-001  0.8000000E+02  0.7546771E-02  0.1203772E+00
         11   -1    0    0    0    0  0.00000000000E+00  0.00000000000E+00  0.40000000000E+02  0.40000000000E+02  0.00000000000E+00 0.  1.
        -11   -1    0    0    0    0 -0.00000000000E+00 -0.00000000000E+00 -0.40000000000E+02  0.40000000000E+02  0.00000000000E+00 0. -1.
         23    2    1    2    0    0  0.00000000000E+00  0.00000000000E+00  0.00000000000E+00  0.80000000000E+02  0.80000000000E+02 0.  0.
          5    1    3    3  501    0 -0.32422708191E+02  0.15365990596E+02 -0.17045947511E+02  0.40000000000E+02  0.47000000000E+01 0. -1.
         -5    1    3    3    0  501  0.32422708191E+02 -0.15365990596E+02  0.17045947511E+02  0.40000000000E+02  0.47000000000E+01 0.  1.
</event>
<event>
 5    1  0.4872488E-001  0.8000000E+02  0.7546771E-02  0.1203772E+00
         11   -1    0    0    0    0  0.00000000000E+00  0.00000000000E+00  0.40000000000E+02  0.40000000000E+02  0.00000000000E+00 0. -1.
        -11   -1    0    0    0    0 -0.00000000000E+00 -0.00000000000E+00 -0.40000000000E+02  0.40000000000E+02  0.00000000000E+00 0.  1.
         23    2    1    2    0    0  0.00000000000E+00  0.00000000000E+00  0.00000000000E+00  0.80000000000E+02  0.80000000000E+02 0.  0.
          5    1    3    3  501    0 -0.30198221031E+02  0.25389157954E+02 -0.46225647592E+01  0.40000000000E+02  0.47000000000E+01 0.  1.
         -5    1    3    3    0  501  0.30198221031E+02 -0.25389157954E+02  0.46225647592E+01  0.40000000000E+02  0.47000000000E+01 0. -1.
</event>
<event>
 5    1  0.4872488E-001  0.8000000E+02  0.7546771E-02  0.1203772E+00
         11   -1    0    0    0    0  0.00000000000E+00  0.00000000000E+00  0.40000000000E+02  0.40000000000E+02  0.00000000000E+00 0.  1.
        -11   -1    0    0    0    0 -0.00000000000E+00 -0.00000000000E+00 -0.40000000000E+02  0.40000000000E+02  0.00000000000E+00 0. -1.
         23    2    1    2    0    0  0.00000000000E+00  0.00000000000E+00  0.00000000000E+00  0.80000000000E+02  0.80000000000E+02 0.  0.
          5    1    3    3  501    0 -0.20399535602E+02 -0.74175589102E+01 -0.33267833819E+02  0.40000000000E+02  0.47000000000E+01 0. -1.
         -5    1    3    3    0  501  0.20399535602E+02  0.74175589102E+01  0.33267833819E+02  0.40000000000E+02  0.47000000000E+01 0.  1.
</event>
<event>
 5    1  0.4872488E-001  0.8000000E+02  0.7546771E-02  0.1203772E+00
         11   -1    0    0    0    0  0.00000000000E+00  0.00000000000E+00  0.40000000000E+02  0.40000000000E+02  0.00000000000E+00 0.  1.
        -11   -1    0    0    0    0 -0.00000000000E+00 -0.00000000000E+00 -0.40000000000E+02  0.40000000000E+02  0.00000000000E+00 0. -1.
         23    2    1    2    0    0  0.00000000000E+00  0.00000000000E+00  0.00000000000E+00  0.80000000000E+02  0.80000000000E+02 0.  0.
          5    1    3    3  501    0  0.29935317197E+02 -0.51288275893E+01 -0.25602380981E+02  0.40000000000E+02  0.47000000000E+01 0. -1.
         -5    1    3    3    0  501 -0.29935317197E+02  0.51288275893E+01  0.25602380981E+02  0.40000000000E+02  0.47000000000E+01 0.  1.
</event>
<event>
 5    1  0.4872488E-001  0.8000000E+02  0.7546771E-02  0.1203772E+00
         11   -1    0    0    0    0  0.00000000000E+00  0.00000000000E+00  0.40000000000E+02  0.40000000000E+02  0.00000000000E+00 0.  1.
        -11   -1    0    0    0    0 -0.00000000000E+00 -0.00000000000E+00 -0.40000000000E+02  0.40000000000E+02  0.00000000000E+00 0. -1.
         23    2    1    2    0    0  0.00000000000E+00  0.00000000000E+00  0.00000000000E+00  0.80000000000E+02  0.80000000000E+02 0.  0.
          5    1    3    3  501    0 -0.13061681893E+02  0.26228642127E+02 -0.26820902265E+02  0.40000000000E+02  0.47000000000E+01 0. -1.
         -5    1    3    3    0  501  0.13061681893E+02 -0.26228642127E+02  0.26820902265E+02  0.40000000000E+02  0.47000000000E+01 0.  1.
</event>
<event>
 5    1  0.4872488E-001  0.8000000E+02  0.7546771E-02  0.1203772E+00
         11   -1    0    0    0    0  0.00000000000E+00  0.00000000000E+00  0.40000000000E+02  0.40000000000E+02  0.00000000000E+00 0.  1.
        -11   -1    0    0    0    0 -0.00000000000E+00 -0.00000000000E+00 -0.40000000000E+02  0.40000000000E+02  0.00000000000E+00 0. -1.
         23    2    1    2    0    0  0.00000000000E+00  0.00000000000E+00  0.00000000000E+00  0.80000000000E+02  0.80000000000E+02 0.  0.
          5    1    3    3  501    0 -0.36393736706E+02 -0.55977173613E+01 -0.14902063243E+02  0.40000000000E+02  0.47000000000E+01 0. -1.
         -5    1    3    3    0  501  0.36393736706E+02  0.55977173613E+01  0.14902063243E+02  0.40000000000E+02  0.47000000000E+01 0.  1.
</event>
<event>
 5    1  0.4872488E-001  0.8000000E+02  0.7546771E-02  0.1203772E+00
         11   -1    0    0    0    0  0.00000000000E+00  0.00000000000E+00  0.40000000000E+02  0.40000000000E+02  0.00000000000E+00 0. -1.
        -11   -1    0    0    0    0 -0.00000000000E+00 -0.00000000000E+00 -0.40000000000E+02  0.40000000000E+02  0.00000000000E+00 0.  1.
         23    2    1    2    0    0  0.00000000000E+00  0.00000000000E+00  0.00000000000E+00  0.80000000000E+02  0.80000000000E+02 0.  0.
          5    1    3    3  501    0 -0.23483334530E+02  0.31945907272E+02 -0.24294048521E+01  0.40000000000E+02  0.47000000000E+01 0. -1.
         -5    1    3    3    0  501  0.23483334530E+02 -0.31945907272E+02  0.24294048521E+01  0.40000000000E+02  0.47000000000E+01 0.  1.
</event>
<event>
 5    1  0.4872488E-001  0.8000000E+02  0.7546771E-02  0.1203772E+00
         11   -1    0    0    0    0  0.00000000000E+00  0.00000000000E+00  0.40000000000E+02  0.40000000000E+02  0.00000000000E+00 0. -1.
        -11   -1    0    0    0    0 -0.00000000000E+00 -0.00000000000E+00 -0.40000000000E+02  0.40000000000E+02  0.00000000000E+00 0.  1.
         23    2    1    2    0    0  0.00000000000E+00  0.00000000000E+00  0.00000000000E+00  0.80000000000E+02  0.80000000000E+02 0.  0.
          5    1    3    3  501    0 -0.75995929572E+01  0.36643119162E+02 -0.13320585758E+02  0.40000000000E+02  0.47000000000E+01 0. -1.
         -5    1    3    3    0  501  0.75995929572E+01 -0.36643119162E+02  0.13320585758E+02  0.40000000000E+02  0.47000000000E+01 0.  1.
</event>
<event>
 5    1  0.4872488E-001  0.8000000E+02  0.7546771E-02  0.1203772E+00
         11   -1    0    0    0    0  0.00000000000E+00  0.00000000000E+00  0.40000000000E+02  0.40000000000E+02  0.00000000000E+00 0. -1.
        -11   -1    0    0    0    0 -0.00000000000E+00 -0.00000000000E+00 -0.40000000000E+02  0.40000000000E+02  0.00000000000E+00 0.  1.
         23    2    1    2    0    0  0.00000000000E+00  0.00000000000E+00  0.00000000000E+00  0.80000000000E+02  0.80000000000E+02 0.  0.
          5    1    3    3  501    0 -0.14431282727E+02 -0.29057265324E+02  0.22919934790E+02  0.40000000000E+02  0.47000000000E+01 0. -1.
         -5    1    3    3    0  501  0.14431282727E+02  0.29057265324E+02 -0.22919934790E+02  0.40000000000E+02  0.47000000000E+01 0.  1.
</event>
<event>
 5    1  0.4872488E-001  0.8000000E+02  0.7546771E-02  0.1203772E+00
         11   -1    0    0    0    0  0.00000000000E+00  0.00000000000E+00  0.40000000000E+02  0.40000000000E+02  0.00000000000E+00 0.  1.
        -11   -1    0    0    0    0 -0.00000000000E+00 -0.00000000000E+00 -0.40000000000E+02  0.40000000000E+02  0.00000000000E+00 0. -1.
         23    2    1    2    0    0  0.00000000000E+00  0.00000000000E+00  0.00000000000E+00  0.80000000000E+02  0.80000000000E+02 0.  0.
          5    1    3    3  501    0  0.22724164905E+02  0.56366039738E+01 -0.32089733951E+02  0.40000000000E+02  0.47000000000E+01 0. -1.
         -5    1    3    3    0  501 -0.22724164905E+02 -0.56366039738E+01  0.32089733951E+02  0.40000000000E+02  0.47000000000E+01 0.  1.
</event>
<event>
 5    1  0.4872488E-001  0.8000000E+02  0.7546771E-02  0.1203772E+00
         11   -1    0    0    0    0  0.00000000000E+00  0.00000000000E+00  0.40000000000E+02  0.40000000000E+02  0.00000000000E+00 0.  1.
        -11   -1    0    0    0    0 -0.00000000000E+00 -0.00000000000E+00 -0.40000000000E+02  0.40000000000E+02  0.00000000000E+00 0. -1.
         23    2    1    2    0    0  0.00000000000E+00  0.00000000000E+00  0.00000000000E+00  0.80000000000E+02  0.80000000000E+02 0.  0.
          5    1    3    3  501    0  0.18634401390E+02  0.10021013381E+02 -0.33619166790E+02  0.40000000000E+02  0.47000000000E+01 0. -1.
         -5    1    3    3    0  501 -0.18634401390E+02 -0.10021013381E+02  0.33619166790E+02  0.40000000000E+02  0.47000000000E+01 0.  1.
</event>
<event>
 5    1  0.4872488E-001  0.8000000E+02  0.7546771E-02  0.1203772E+00
         11   -1    0    0    0    0  0.00000000000E+00  0.00000000000E+00  0.40000000000E+02  0.40000000000E+02  0.00000000000E+00 0. -1.
        -11   -1    0    0    0    0 -0.00000000000E+00 -0.00000000000E+00 -0.40000000000E+02  0.40000000000E+02  0.00000000000E+00 0.  1.
         23    2    1    2    0    0  0.00000000000E+00  0.00000000000E+00  0.00000000000E+00  0.80000000000E+02  0.80000000000E+02 0.  0.
          5    1    3    3  501    0 -0.33419764557E+01  0.15672458452E+02 -0.36347148986E+02  0.40000000000E+02  0.47000000000E+01 0.  1.
         -5    1    3    3    0  501  0.33419764557E+01 -0.15672458452E+02  0.36347148986E+02  0.40000000000E+02  0.47000000000E+01 0. -1.
</event>
<event>
 5    1  0.4872488E-001  0.8000000E+02  0.7546771E-02  0.1203772E+00
         11   -1    0    0    0    0  0.00000000000E+00  0.00000000000E+00  0.40000000000E+02  0.40000000000E+02  0.00000000000E+00 0. -1.
        -11   -1    0    0    0    0 -0.00000000000E+00 -0.00000000000E+00 -0.40000000000E+02  0.40000000000E+02  0.00000000000E+00 0.  1.
         23    2    1    2    0    0  0.00000000000E+00  0.00000000000E+00  0.00000000000E+00  0.80000000000E+02  0.80000000000E+02 0.  0.
          5    1    3    3  501    0 -0.15748820317E+02  0.26383023210E+02 -0.25175796808E+02  0.40000000000E+02  0.47000000000E+01 0.  1.
         -5    1    3    3    0  501  0.15748820317E+02 -0.26383023210E+02  0.25175796808E+02  0.40000000000E+02  0.47000000000E+01 0. -1.
</event>
<event>
 5    1  0.4872488E-001  0.8000000E+02  0.7546771E-02  0.1203772E+00
         11   -1    0    0    0    0  0.00000000000E+00  0.00000000000E+00  0.40000000000E+02  0.40000000000E+02  0.00000000000E+00 0. -1.
        -11   -1    0    0    0    0 -0.00000000000E+00 -0.00000000000E+00 -0.40000000000E+02  0.40000000000E+02  0.00000000000E+00 0.  1.
         23    2    1    2    0    0  0.00000000000E+00  0.00000000000E+00  0.00000000000E+00  0.80000000000E+02  0.80000000000E+02 0.  0.
          5    1    3    3  501    0 -0.12549206688E+02 -0.14559744613E+02  0.34762641561E+02  0.40000000000E+02  0.47000000000E+01 0. -1.
         -5    1    3    3    0  501  0.12549206688E+02  0.14559744613E+02 -0.34762641561E+02  0.40000000000E+02  0.47000000000E+01 0.  1.
</event>
<event>
 5    1  0.4872488E-001  0.8000000E+02  0.7546771E-02  0.1203772E+00
         11   -1    0    0    0    0  0.00000000000E+00  0.00000000000E+00  0.40000000000E+02  0.40000000000E+02  0.00000000000E+00 0.  1.
        -11   -1    0    0    0    0 -0.00000000000E+00 -0.00000000000E+00 -0.40000000000E+02  0.40000000000E+02  0.00000000000E+00 0. -1.
         23    2    1    2    0    0  0.00000000000E+00  0.00000000000E+00  0.00000000000E+00  0.80000000000E+02  0.80000000000E+02 0.  0.
          5    1    3    3  501    0  0.10821953748E+02  0.37779588229E+02  0.57877482952E+01  0.40000000000E+02  0.47000000000E+01 0. -1.
         -5    1    3    3    0  501 -0.10821953748E+02 -0.37779588229E+02 -0.57877482952E+01  0.40000000000E+02  0.47000000000E+01 0.  1.
</event>
<event>
 5    1  0.4872488E-001  0.8000000E+02  0.7546771E-02  0.1203772E+00
         11   -1    0    0    0    0  0.00000000000E+00  0.00000000000E+00  0.40000000000E+02  0.40000000000E+02  0.00000000000E+00 0. -1.
        -11   -1    0    0    0    0 -0.00000000000E+00 -0.00000000000E+00 -0.40000000000E+02  0.40000000000E+02  0.00000000000E+00 0.  1.
         23    2    1    2    0    0  0.00000000000E+00  0.00000000000E+00  0.00000000000E+00  0.80000000000E+02  0.80000000000E+02 0.  0.
          5    1    3    3  501    0  0.73134161514E+01 -0.47611610943E+01  0.38752487523E+02  0.40000000000E+02  0.47000000000E+01 0. -1.
         -5    1    3    3    0  501 -0.73134161514E+01  0.47611610943E+01 -0.38752487523E+02  0.40000000000E+02  0.47000000000E+01 0.  1.
</event>
<event>
 5    1  0.4872488E-001  0.8000000E+02  0.7546771E-02  0.1203772E+00
         11   -1    0    0    0    0  0.00000000000E+00  0.00000000000E+00  0.40000000000E+02  0.40000000000E+02  0.00000000000E+00 0.  1.
        -11   -1    0    0    0    0 -0.00000000000E+00 -0.00000000000E+00 -0.40000000000E+02  0.40000000000E+02  0.00000000000E+00 0. -1.
         23    2    1    2    0    0  0.00000000000E+00  0.00000000000E+00  0.00000000000E+00  0.80000000000E+02  0.80000000000E+02 0.  0.
          5    1    3    3  501    0 -0.28665002006E+02  0.32033698495E+01 -0.27312379640E+02  0.40000000000E+02  0.47000000000E+01 0. -1.
         -5    1    3    3    0  501  0.28665002006E+02 -0.32033698495E+01  0.27312379640E+02  0.40000000000E+02  0.47000000000E+01 0.  1.
</event>
<event>
 5    1  0.4872488E-001  0.8000000E+02  0.7546771E-02  0.1203772E+00
         11   -1    0    0    0    0  0.00000000000E+00  0.00000000000E+00  0.40000000000E+02  0.40000000000E+02  0.00000000000E+00 0. -1.
        -11   -1    0    0    0    0 -0.00000000000E+00 -0.00000000000E+00 -0.40000000000E+02  0.40000000000E+02  0.00000000000E+00 0.  1.
         23    2    1    2    0    0  0.00000000000E+00  0.00000000000E+00  0.00000000000E+00  0.80000000000E+02  0.80000000000E+02 0.  0.
          5    1    3    3  501    0 -0.29609462969E+02 -0.14362729775E+02 -0.22246386136E+02  0.40000000000E+02  0.47000000000E+01 0.  1.
         -5    1    3    3    0  501  0.29609462969E+02  0.14362729775E+02  0.22246386136E+02  0.40000000000E+02  0.47000000000E+01 0. -1.
</event>
<event>
 5    1  0.4872488E-001  0.8000000E+02  0.7546771E-02  0.1203772E+00
         11   -1    0    0    0    0  0.00000000000E+00  0.00000000000E+00  0.40000000000E+02  0.40000000000E+02  0.00000000000E+00 0.  1.
        -11   -1    0    0    0    0 -0.00000000000E+00 -0.00000000000E+00 -0.40000000000E+02  0.40000000000E+02  0.00000000000E+00 0. -1.
         23    2    1    2    0    0  0.00000000000E+00  0.00000000000E+00  0.00000000000E+00  0.80000000000E+02  0.80000000000E+02 0.  0.
          5    1    3    3  501    0 -0.13048851280E+02  0.26095361024E+01 -0.37427634197E+02  0.40000000000E+02  0.47000000000E+01 0. -1.
         -5    1    3    3    0  501  0.13048851280E+02 -0.26095361024E+01  0.37427634197E+02  0.40000000000E+02  0.47000000000E+01 0.  1.
</event>
<event>
 5    1  0.4872488E-001  0.8000000E+02  0.7546771E-02  0.1203772E+00
         11   -1    0    0    0    0  0.00000000000E+00  0.00000000000E+00  0.40000000000E+02  0.40000000000E+02  0.00000000000E+00 0.  1.
        -11   -1    0    0    0    0 -0.00000000000E+00 -0.00000000000E+00 -0.40000000000E+02  0.40000000000E+02  0.00000000000E+00 0. -1.
         23    2    1    2    0    0  0.00000000000E+00  0.00000000000E+00  0.00000000000E+00  0.80000000000E+02  0.80000000000E+02 0.  0.
          5    1    3    3  501    0 -0.25667268762E+01  0.30681037546E+02 -0.25099718091E+02  0.40000000000E+02  0.47000000000E+01 0. -1.
         -5    1    3    3    0  501  0.25667268762E+01 -0.30681037546E+02  0.25099718091E+02  0.40000000000E+02  0.47000000000E+01 0.  1.
</event>
<event>
 5    1  0.4872488E-001  0.8000000E+02  0.7546771E-02  0.1203772E+00
         11   -1    0    0    0    0  0.00000000000E+00  0.00000000000E+00  0.40000000000E+02  0.40000000000E+02  0.00000000000E+00 0. -1.
        -11   -1    0    0    0    0 -0.00000000000E+00 -0.00000000000E+00 -0.40000000000E+02  0.40000000000E+02  0.00000000000E+00 0.  1.
         23    2    1    2    0    0  0.00000000000E+00  0.00000000000E+00  0.00000000000E+00  0.80000000000E+02  0.80000000000E+02 0.  0.
          5    1    3    3  501    0  0.45160275631E+01  0.28026288627E+02  0.27785655307E+02  0.40000000000E+02  0.47000000000E+01 0. -1.
         -5    1    3    3    0  501 -0.45160275631E+01 -0.28026288627E+02 -0.27785655307E+02  0.40000000000E+02  0.47000000000E+01 0.  1.
</event>
<event>
 5    1  0.4872488E-001  0.8000000E+02  0.7546771E-02  0.1203772E+00
         11   -1    0    0    0    0  0.00000000000E+00  0.00000000000E+00  0.40000000000E+02  0.40000000000E+02  0.00000000000E+00 0. -1.
        -11   -1    0    0    0    0 -0.00000000000E+00 -0.00000000000E+00 -0.40000000000E+02  0.40000000000E+02  0.00000000000E+00 0.  1.
         23    2    1    2    0    0  0.00000000000E+00  0.00000000000E+00  0.00000000000E+00  0.80000000000E+02  0.80000000000E+02 0.  0.
          5    1    3    3  501    0  0.17142775751E+02 -0.49839036613E+00  0.35829971345E+02  0.40000000000E+02  0.47000000000E+01 0. -1.
         -5    1    3    3    0  501 -0.17142775751E+02  0.49839036613E+00 -0.35829971345E+02  0.40000000000E+02  0.47000000000E+01 0.  1.
</event>
<event>
 5    1  0.4872488E-001  0.8000000E+02  0.7546771E-02  0.1203772E+00
         11   -1    0    0    0    0  0.00000000000E+00  0.00000000000E+00  0.40000000000E+02  0.40000000000E+02  0.00000000000E+00 0.  1.
        -11   -1    0    0    0    0 -0.00000000000E+00 -0.00000000000E+00 -0.40000000000E+02  0.40000000000E+02  0.00000000000E+00 0. -1.
         23    2    1    2    0    0  0.00000000000E+00  0.00000000000E+00  0.00000000000E+00  0.80000000000E+02  0.80000000000E+02 0.  0.
          5    1    3    3  501    0  0.22611423496E+02  0.27330000767E+02 -0.17880284829E+02  0.40000000000E+02  0.47000000000E+01 0. -1.
         -5    1    3    3    0  501 -0.22611423496E+02 -0.27330000767E+02  0.17880284829E+02  0.40000000000E+02  0.47000000000E+01 0.  1.
</event>
<event>
 5    1  0.4872488E-001  0.8000000E+02  0.7546771E-02  0.1203772E+00
         11   -1    0    0    0    0  0.00000000000E+00  0.00000000000E+00  0.40000000000E+02  0.40000000000E+02  0.00000000000E+00 0.  1.
        -11   -1    0    0    0    0 -0.00000000000E+00 -0.00000000000E+00 -0.40000000000E+02  0.40000000000E+02  0.00000000000E+00 0. -1.
         23    2    1    2    0    0  0.00000000000E+00  0.00000000000E+00  0.00000000000E+00  0.80000000000E+02  0.80000000000E+02 0.  0.
          5    1    3    3  501    0  0.16181602554E+02 -0.35326676719E+02 -0.82517665240E+01  0.40000000000E+02  0.47000000000E+01 0. -1.
         -5    1    3    3    0  501 -0.16181602554E+02  0.35326676719E+02  0.82517665240E+01  0.40000000000E+02  0.47000000000E+01 0.  1.
</event>
<event>
 5    1  0.4872488E-001  0.8000000E+02  0.7546771E-02  0.1203772E+00
         11   -1    0    0    0    0  0.00000000000E+00  0.00000000000E+00  0.40000000000E+02  0.40000000000E+02  0.00000000000E+00 0. -1.
        -11   -1    0    0    0    0 -0.00000000000E+00 -0.00000000000E+00 -0.40000000000E+02  0.40000000000E+02  0.00000000000E+00 0.  1.
         23    2    1    2    0    0  0.00000000000E+00  0.00000000000E+00  0.00000000000E+00  0.80000000000E+02  0.80000000000E+02 0.  0.
          5    1    3    3  501    0  0.39385454805E+02 -0.24275144681E+01  0.45610441039E+01  0.40000000000E+02  0.47000000000E+01 0.  1.
         -5    1    3    3    0  501 -0.39385454805E+02  0.24275144681E+01 -0.45610441039E+01  0.40000000000E+02  0.47000000000E+01 0. -1.
</event>
<event>
 5    1  0.4872488E-001  0.8000000E+02  0.7546771E-02  0.1203772E+00
         11   -1    0    0    0    0  0.00000000000E+00  0.00000000000E+00  0.40000000000E+02  0.40000000000E+02  0.00000000000E+00 0.  1.
        -11   -1    0    0    0    0 -0.00000000000E+00 -0.00000000000E+00 -0.40000000000E+02  0.40000000000E+02  0.00000000000E+00 0. -1.
         23    2    1    2    0    0  0.00000000000E+00  0.00000000000E+00  0.00000000000E+00  0.80000000000E+02  0.80000000000E+02 0.  0.
          5    1    3    3  501    0 -0.41639536343E+01  0.18394140134E+02 -0.34960364684E+02  0.40000000000E+02  0.47000000000E+01 0. -1.
         -5    1    3    3    0  501  0.41639536343E+01 -0.18394140134E+02  0.34960364684E+02  0.40000000000E+02  0.47000000000E+01 0.  1.
</event>
<event>
 5    1  0.4872488E-001  0.8000000E+02  0.7546771E-02  0.1203772E+00
         11   -1    0    0    0    0  0.00000000000E+00  0.00000000000E+00  0.40000000000E+02  0.40000000000E+02  0.00000000000E+00 0.  1.
        -11   -1    0    0    0    0 -0.00000000000E+00 -0.00000000000E+00 -0.40000000000E+02  0.40000000000E+02  0.00000000000E+00 0. -1.
         23    2    1    2    0    0  0.00000000000E+00  0.00000000000E+00  0.00000000000E+00  0.80000000000E+02  0.80000000000E+02 0.  0.
          5    1    3    3  501    0 -0.81732788257E+00  0.39171797079E+01 -0.39520851183E+02  0.40000000000E+02  0.47000000000E+01 0. -1.
         -5    1    3    3    0  501  0.81732788257E+00 -0.39171797079E+01  0.39520851183E+02  0.40000000000E+02  0.47000000000E+01 0.  1.
</event>
<event>
 5    1  0.4872488E-001  0.8000000E+02  0.7546771E-02  0.1203772E+00
         11   -1    0    0    0    0  0.00000000000E+00  0.00000000000E+00  0.40000000000E+02  0.40000000000E+02  0.00000000000E+00 0. -1.
        -11   -1    0    0    0    0 -0.00000000000E+00 -0.00000000000E+00 -0.40000000000E+02  0.40000000000E+02  0.00000000000E+00 0.  1.
         23    2    1    2    0    0  0.00000000000E+00  0.00000000000E+00  0.00000000000E+00  0.80000000000E+02  0.80000000000E+02 0.  0.
          5    1    3    3  501    0  0.62116064047E+01 -0.19380582016E+02 -0.34113325646E+02  0.40000000000E+02  0.47000000000E+01 0.  1.
         -5    1    3    3    0  501 -0.62116064047E+01  0.19380582016E+02  0.34113325646E+02  0.40000000000E+02  0.47000000000E+01 0. -1.
</event>
<event>
 5    1  0.4872488E-001  0.8000000E+02  0.7546771E-02  0.1203772E+00
         11   -1    0    0    0    0  0.00000000000E+00  0.00000000000E+00  0.40000000000E+02  0.40000000000E+02  0.00000000000E+00 0.  1.
        -11   -1    0    0    0    0 -0.00000000000E+00 -0.00000000000E+00 -0.40000000000E+02  0.40000000000E+02  0.00000000000E+00 0. -1.
         23    2    1    2    0    0  0.00000000000E+00  0.00000000000E+00  0.00000000000E+00  0.80000000000E+02  0.80000000000E+02 0.  0.
          5    1    3    3  501    0 -0.12849093759E+02  0.20720173194E+02 -0.31360567794E+02  0.40000000000E+02  0.47000000000E+01 0. -1.
         -5    1    3    3    0  501  0.12849093759E+02 -0.20720173194E+02  0.31360567794E+02  0.40000000000E+02  0.47000000000E+01 0.  1.
</event>
<event>
 5    1  0.4872488E-001  0.8000000E+02  0.7546771E-02  0.1203772E+00
         11   -1    0    0    0    0  0.00000000000E+00  0.00000000000E+00  0.40000000000E+02  0.40000000000E+02  0.00000000000E+00 0. -1.
        -11   -1    0    0    0    0 -0.00000000000E+00 -0.00000000000E+00 -0.40000000000E+02  0.40000000000E+02  0.00000000000E+00 0.  1.
         23    2    1    2    0    0  0.00000000000E+00  0.00000000000E+00  0.00000000000E+00  0.80000000000E+02  0.80000000000E+02 0.  0.
          5    1    3    3  501    0 -0.26543199269E+02 -0.20646693752E+02  0.21144328074E+02  0.40000000000E+02  0.47000000000E+01 0. -1.
         -5    1    3    3    0  501  0.26543199269E+02  0.20646693752E+02 -0.21144328074E+02  0.40000000000E+02  0.47000000000E+01 0.  1.
</event>
<event>
 5    1  0.4872488E-001  0.8000000E+02  0.7546771E-02  0.1203772E+00
         11   -1    0    0    0    0  0.00000000000E+00  0.00000000000E+00  0.40000000000E+02  0.40000000000E+02  0.00000000000E+00 0. -1.
        -11   -1    0    0    0    0 -0.00000000000E+00 -0.00000000000E+00 -0.40000000000E+02  0.40000000000E+02  0.00000000000E+00 0.  1.
         23    2    1    2    0    0  0.00000000000E+00  0.00000000000E+00  0.00000000000E+00  0.80000000000E+02  0.80000000000E+02 0.  0.
          5    1    3    3  501    0  0.21863507645E+02  0.18319600082E+02  0.27645782432E+02  0.40000000000E+02  0.47000000000E+01 0. -1.
         -5    1    3    3    0  501 -0.21863507645E+02 -0.18319600082E+02 -0.27645782432E+02  0.40000000000E+02  0.47000000000E+01 0.  1.
</event>
<event>
 5    1  0.4872488E-001  0.8000000E+02  0.7546771E-02  0.1203772E+00
         11   -1    0    0    0    0  0.00000000000E+00  0.00000000000E+00  0.40000000000E+02  0.40000000000E+02  0.00000000000E+00 0.  1.
        -11   -1    0    0    0    0 -0.00000000000E+00 -0.00000000000E+00 -0.40000000000E+02  0.40000000000E+02  0.00000000000E+00 0. -1.
         23    2    1    2    0    0  0.00000000000E+00  0.00000000000E+00  0.00000000000E+00  0.80000000000E+02  0.80000000000E+02 0.  0.
          5    1    3    3  501    0 -0.48855631746E+01  0.14883065257E+02 -0.36503912681E+02  0.40000000000E+02  0.47000000000E+01 0. -1.
         -5    1    3    3    0  501  0.48855631746E+01 -0.14883065257E+02  0.36503912681E+02  0.40000000000E+02  0.47000000000E+01 0.  1.
</event>
<event>
 5    1  0.4872488E-001  0.8000000E+02  0.7546771E-02  0.1203772E+00
         11   -1    0    0    0    0  0.00000000000E+00  0.00000000000E+00  0.40000000000E+02  0.40000000000E+02  0.00000000000E+00 0.  1.
        -11   -1    0    0    0    0 -0.00000000000E+00 -0.00000000000E+00 -0.40000000000E+02  0.40000000000E+02  0.00000000000E+00 0. -1.
         23    2    1    2    0    0  0.00000000000E+00  0.00000000000E+00  0.00000000000E+00  0.80000000000E+02  0.80000000000E+02 0.  0.
          5    1    3    3  501    0  0.28712838078E+02 -0.16831979253E+01 -0.27397988507E+02  0.40000000000E+02  0.47000000000E+01 0. -1.
         -5    1    3    3    0  501 -0.28712838078E+02  0.16831979253E+01  0.27397988507E+02  0.40000000000E+02  0.47000000000E+01 0.  1.
</event>
<event>
 5    1  0.4872488E-001  0.8000000E+02  0.7546771E-02  0.1203772E+00
         11   -1    0    0    0    0  0.00000000000E+00  0.00000000000E+00  0.40000000000E+02  0.40000000000E+02  0.00000000000E+00 0. -1.
        -11   -1    0    0    0    0 -0.00000000000E+00 -0.00000000000E+00 -0.40000000000E+02  0.40000000000E+02  0.00000000000E+00 0.  1.
         23    2    1    2    0    0  0.00000000000E+00  0.00000000000E+00  0.00000000000E+00  0.80000000000E+02  0.80000000000E+02 0.  0.
          5    1    3    3  501    0  0.23845352704E+02  0.81059381332E+01  0.30718120408E+02  0.40000000000E+02  0.47000000000E+01 0. -1.
         -5    1    3    3    0  501 -0.23845352704E+02 -0.81059381332E+01 -0.30718120408E+02  0.40000000000E+02  0.47000000000E+01 0.  1.
</event>
<event>
 5    1  0.4872488E-001  0.8000000E+02  0.7546771E-02  0.1203772E+00
         11   -1    0    0    0    0  0.00000000000E+00  0.00000000000E+00  0.40000000000E+02  0.40000000000E+02  0.00000000000E+00 0. -1.
        -11   -1    0    0    0    0 -0.00000000000E+00 -0.00000000000E+00 -0.40000000000E+02  0.40000000000E+02  0.00000000000E+00 0.  1.
         23    2    1    2    0    0  0.00000000000E+00  0.00000000000E+00  0.00000000000E+00  0.80000000000E+02  0.80000000000E+02 0.  0.
          5    1    3    3  501    0  0.10957482379E+02 -0.36102323493E+02 -0.12428427830E+02  0.40000000000E+02  0.47000000000E+01 0.  1.
         -5    1    3    3    0  501 -0.10957482379E+02  0.36102323493E+02  0.12428427830E+02  0.40000000000E+02  0.47000000000E+01 0. -1.
</event>
<event>
 5    1  0.4872488E-001  0.8000000E+02  0.7546771E-02  0.1203772E+00
         11   -1    0    0    0    0  0.00000000000E+00  0.00000000000E+00  0.40000000000E+02  0.40000000000E+02  0.00000000000E+00 0.  1.
        -11   -1    0    0    0    0 -0.00000000000E+00 -0.00000000000E+00 -0.40000000000E+02  0.40000000000E+02  0.00000000000E+00 0. -1.
         23    2    1    2    0    0  0.00000000000E+00  0.00000000000E+00  0.00000000000E+00  0.80000000000E+02  0.80000000000E+02 0.  0.
          5    1    3    3  501    0  0.55622435813E+01  0.30332145872E+02 -0.25038617637E+02  0.40000000000E+02  0.47000000000E+01 0. -1.
         -5    1    3    3    0  501 -0.55622435813E+01 -0.30332145872E+02  0.25038617637E+02  0.40000000000E+02  0.47000000000E+01 0.  1.
</event>
<event>
 5    1  0.4872488E-001  0.8000000E+02  0.7546771E-02  0.1203772E+00
         11   -1    0    0    0    0  0.00000000000E+00  0.00000000000E+00  0.40000000000E+02  0.40000000000E+02  0.00000000000E+00 0. -1.
        -11   -1    0    0    0    0 -0.00000000000E+00 -0.00000000000E+00 -0.40000000000E+02  0.40000000000E+02  0.00000000000E+00 0.  1.
         23    2    1    2    0    0  0.00000000000E+00  0.00000000000E+00  0.00000000000E+00  0.80000000000E+02  0.80000000000E+02 0.  0.
          5    1    3    3  501    0  0.54216522273E-01  0.24723693405E+02  0.31090931877E+02  0.40000000000E+02  0.47000000000E+01 0. -1.
         -5    1    3    3    0  501 -0.54216522273E-01 -0.24723693405E+02 -0.31090931877E+02  0.40000000000E+02  0.47000000000E+01 0.  1.
</event>
<event>
 5    1  0.4872488E-001  0.8000000E+02  0.7546771E-02  0.1203772E+00
         11   -1    0    0    0    0  0.00000000000E+00  0.00000000000E+00  0.40000000000E+02  0.40000000000E+02  0.00000000000E+00 0. -1.
        -11   -1    0    0    0    0 -0.00000000000E+00 -0.00000000000E+00 -0.40000000000E+02  0.40000000000E+02  0.00000000000E+00 0.  1.
         23    2    1    2    0    0  0.00000000000E+00  0.00000000000E+00  0.00000000000E+00  0.80000000000E+02  0.80000000000E+02 0.  0.
          5    1    3    3  501    0  0.19213758098E+02 -0.12758264946E+02  0.32341431250E+02  0.40000000000E+02  0.47000000000E+01 0. -1.
         -5    1    3    3    0  501 -0.19213758098E+02  0.12758264946E+02 -0.32341431250E+02  0.40000000000E+02  0.47000000000E+01 0.  1.
</event>
<event>
 5    1  0.4872488E-001  0.8000000E+02  0.7546771E-02  0.1203772E+00
         11   -1    0    0    0    0  0.00000000000E+00  0.00000000000E+00  0.40000000000E+02  0.40000000000E+02  0.00000000000E+00 0. -1.
        -11   -1    0    0    0    0 -0.00000000000E+00 -0.00000000000E+00 -0.40000000000E+02  0.40000000000E+02  0.00000000000E+00 0.  1.
         23    2    1    2    0    0  0.00000000000E+00  0.00000000000E+00  0.00000000000E+00  0.80000000000E+02  0.80000000000E+02 0.  0.
          5    1    3    3  501    0  0.26658326422E+02 -0.13139213970E+02  0.26355354079E+02  0.40000000000E+02  0.47000000000E+01 0. -1.
         -5    1    3    3    0  501 -0.26658326422E+02  0.13139213970E+02 -0.26355354079E+02  0.40000000000E+02  0.47000000000E+01 0.  1.
</event>
<event>
 5    1  0.4872488E-001  0.8000000E+02  0.7546771E-02  0.1203772E+00
         11   -1    0    0    0    0  0.00000000000E+00  0.00000000000E+00  0.40000000000E+02  0.40000000000E+02  0.00000000000E+00 0.  1.
        -11   -1    0    0    0    0 -0.00000000000E+00 -0.00000000000E+00 -0.40000000000E+02  0.40000000000E+02  0.00000000000E+00 0. -1.
         23    2    1    2    0    0  0.00000000000E+00  0.00000000000E+00  0.00000000000E+00  0.80000000000E+02  0.80000000000E+02 0.  0.
          5    1    3    3  501    0 -0.94370497928E+01  0.28416982816E+02 -0.26102244709E+02  0.40000000000E+02  0.47000000000E+01 0. -1.
         -5    1    3    3    0  501  0.94370497928E+01 -0.28416982816E+02  0.26102244709E+02  0.40000000000E+02  0.47000000000E+01 0.  1.
</event>
<event>
 5    1  0.4872488E-001  0.8000000E+02  0.7546771E-02  0.1203772E+00
         11   -1    0    0    0    0  0.00000000000E+00  0.00000000000E+00  0.40000000000E+02  0.40000000000E+02  0.00000000000E+00 0.  1.
        -11   -1    0    0    0    0 -0.00000000000E+00 -0.00000000000E+00 -0.40000000000E+02  0.40000000000E+02  0.00000000000E+00 0. -1.
         23    2    1    2    0    0  0.00000000000E+00  0.00000000000E+00  0.00000000000E+00  0.80000000000E+02  0.80000000000E+02 0.  0.
          5    1    3    3  501    0 -0.26820973061E+02 -0.15632934318E+02 -0.24782186519E+02  0.40000000000E+02  0.47000000000E+01 0. -1.
         -5    1    3    3    0  501  0.26820973061E+02  0.15632934318E+02  0.24782186519E+02  0.40000000000E+02  0.47000000000E+01 0.  1.
</event>
<event>
 5    1  0.4872488E-001  0.8000000E+02  0.7546771E-02  0.1203772E+00
         11   -1    0    0    0    0  0.00000000000E+00  0.00000000000E+00  0.40000000000E+02  0.40000000000E+02  0.00000000000E+00 0. -1.
        -11   -1    0    0    0    0 -0.00000000000E+00 -0.00000000000E+00 -0.40000000000E+02  0.40000000000E+02  0.00000000000E+00 0.  1.
         23    2    1    2    0    0  0.00000000000E+00  0.00000000000E+00  0.00000000000E+00  0.80000000000E+02  0.80000000000E+02 0.  0.
          5    1    3    3  501    0 -0.37204288861E+02  0.20208126489E+01 -0.13771971775E+02  0.40000000000E+02  0.47000000000E+01 0.  1.
         -5    1    3    3    0  501  0.37204288861E+02 -0.20208126489E+01  0.13771971775E+02  0.40000000000E+02  0.47000000000E+01 0. -1.
</event>
<event>
 5    1  0.4872488E-001  0.8000000E+02  0.7546771E-02  0.1203772E+00
         11   -1    0    0    0    0  0.00000000000E+00  0.00000000000E+00  0.40000000000E+02  0.40000000000E+02  0.00000000000E+00 0. -1.
        -11   -1    0    0    0    0 -0.00000000000E+00 -0.00000000000E+00 -0.40000000000E+02  0.40000000000E+02  0.00000000000E+00 0.  1.
         23    2    1    2    0    0  0.00000000000E+00  0.00000000000E+00  0.00000000000E+00  0.80000000000E+02  0.80000000000E+02 0.  0.
          5    1    3    3  501    0  0.77585917913E+01 -0.38818035138E+02 -0.32976357407E+01  0.40000000000E+02  0.47000000000E+01 0. -1.
         -5    1    3    3    0  501 -0.77585917913E+01  0.38818035138E+02  0.32976357407E+01  0.40000000000E+02  0.47000000000E+01 0.  1.
</event>
<event>
 5    1  0.4872488E-001  0.8000000E+02  0.7546771E-02  0.1203772E+00
         11   -1    0    0    0    0  0.00000000000E+00  0.00000000000E+00  0.40000000000E+02  0.40000000000E+02  0.00000000000E+00 0.  1.
        -11   -1    0    0    0    0 -0.00000000000E+00 -0.00000000000E+00 -0.40000000000E+02  0.40000000000E+02  0.00000000000E+00 0. -1.
         23    2    1    2    0    0  0.00000000000E+00  0.00000000000E+00  0.00000000000E+00  0.80000000000E+02  0.80000000000E+02 0.  0.
          5    1    3    3  501    0 -0.82600167836E+01  0.24590965630E+02 -0.30082661653E+02  0.40000000000E+02  0.47000000000E+01 0. -1.
         -5    1    3    3    0  501  0.82600167836E+01 -0.24590965630E+02  0.30082661653E+02  0.40000000000E+02  0.47000000000E+01 0.  1.
</event>
<event>
 5    1  0.4872488E-001  0.8000000E+02  0.7546771E-02  0.1203772E+00
         11   -1    0    0    0    0  0.00000000000E+00  0.00000000000E+00  0.40000000000E+02  0.40000000000E+02  0.00000000000E+00 0. -1.
        -11   -1    0    0    0    0 -0.00000000000E+00 -0.00000000000E+00 -0.40000000000E+02  0.40000000000E+02  0.00000000000E+00 0.  1.
         23    2    1    2    0    0  0.00000000000E+00  0.00000000000E+00  0.00000000000E+00  0.80000000000E+02  0.80000000000E+02 0.  0.
          5    1    3    3  501    0  0.25600567994E+02 -0.14526007466E+02  0.26674257731E+02  0.40000000000E+02  0.47000000000E+01 0. -1.
         -5    1    3    3    0  501 -0.25600567994E+02  0.14526007466E+02 -0.26674257731E+02  0.40000000000E+02  0.47000000000E+01 0.  1.
</event>
<event>
 5    1  0.4872488E-001  0.8000000E+02  0.7546771E-02  0.1203772E+00
         11   -1    0    0    0    0  0.00000000000E+00  0.00000000000E+00  0.40000000000E+02  0.40000000000E+02  0.00000000000E+00 0.  1.
        -11   -1    0    0    0    0 -0.00000000000E+00 -0.00000000000E+00 -0.40000000000E+02  0.40000000000E+02  0.00000000000E+00 0. -1.
         23    2    1    2    0    0  0.00000000000E+00  0.00000000000E+00  0.00000000000E+00  0.80000000000E+02  0.80000000000E+02 0.  0.
          5    1    3    3  501    0  0.10713000013E+02 -0.14608214977E+02 -0.35351685758E+02  0.40000000000E+02  0.47000000000E+01 0. -1.
         -5    1    3    3    0  501 -0.10713000013E+02  0.14608214977E+02  0.35351685758E+02  0.40000000000E+02  0.47000000000E+01 0.  1.
</event>
<event>
 5    1  0.4872488E-001  0.8000000E+02  0.7546771E-02  0.1203772E+00
         11   -1    0    0    0    0  0.00000000000E+00  0.00000000000E+00  0.40000000000E+02  0.40000000000E+02  0.00000000000E+00 0. -1.
        -11   -1    0    0    0    0 -0.00000000000E+00 -0.00000000000E+00 -0.40000000000E+02  0.40000000000E+02  0.00000000000E+00 0.  1.
         23    2    1    2    0    0  0.00000000000E+00  0.00000000000E+00  0.00000000000E+00  0.80000000000E+02  0.80000000000E+02 0.  0.
          5    1    3    3  501    0  0.31231989174E+02 -0.68549183497E+01  0.23568685722E+02  0.40000000000E+02  0.47000000000E+01 0. -1.
         -5    1    3    3    0  501 -0.31231989174E+02  0.68549183497E+01 -0.23568685722E+02  0.40000000000E+02  0.47000000000E+01 0.  1.
</event>
<event>
 5    1  0.4872488E-001  0.8000000E+02  0.7546771E-02  0.1203772E+00
         11   -1    0    0    0    0  0.00000000000E+00  0.00000000000E+00  0.40000000000E+02  0.40000000000E+02  0.00000000000E+00 0. -1.
        -11   -1    0    0    0    0 -0.00000000000E+00 -0.00000000000E+00 -0.40000000000E+02  0.40000000000E+02  0.00000000000E+00 0.  1.
         23    2    1    2    0    0  0.00000000000E+00  0.00000000000E+00  0.00000000000E+00  0.80000000000E+02  0.80000000000E+02 0.  0.
          5    1    3    3  501    0 -0.69072719799E+01  0.33402892913E+02  0.20357955174E+02  0.40000000000E+02  0.47000000000E+01 0. -1.
         -5    1    3    3    0  501  0.69072719799E+01 -0.33402892913E+02 -0.20357955174E+02  0.40000000000E+02  0.47000000000E+01 0.  1.
</event>
<event>
 5    1  0.4872488E-001  0.8000000E+02  0.7546771E-02  0.1203772E+00
         11   -1    0    0    0    0  0.00000000000E+00  0.00000000000E+00  0.40000000000E+02  0.40000000000E+02  0.00000000000E+00 0.  1.
        -11   -1    0    0    0    0 -0.00000000000E+00 -0.00000000000E+00 -0.40000000000E+02  0.40000000000E+02  0.00000000000E+00 0. -1.
         23    2    1    2    0    0  0.00000000000E+00  0.00000000000E+00  0.00000000000E+00  0.80000000000E+02  0.80000000000E+02 0.  0.
          5    1    3    3  501    0 -0.11761292370E+02 -0.26651553087E+02 -0.27005123956E+02  0.40000000000E+02  0.47000000000E+01 0. -1.
         -5    1    3    3    0  501  0.11761292370E+02  0.26651553087E+02  0.27005123956E+02  0.40000000000E+02  0.47000000000E+01 0.  1.
</event>
<event>
 5    1  0.4872488E-001  0.8000000E+02  0.7546771E-02  0.1203772E+00
         11   -1    0    0    0    0  0.00000000000E+00  0.00000000000E+00  0.40000000000E+02  0.40000000000E+02  0.00000000000E+00 0. -1.
        -11   -1    0    0    0    0 -0.00000000000E+00 -0.00000000000E+00 -0.40000000000E+02  0.40000000000E+02  0.00000000000E+00 0.  1.
         23    2    1    2    0    0  0.00000000000E+00  0.00000000000E+00  0.00000000000E+00  0.80000000000E+02  0.80000000000E+02 0.  0.
          5    1    3    3  501    0 -0.78901408798E+01 -0.27079144193E+02  0.27970978293E+02  0.40000000000E+02  0.47000000000E+01 0. -1.
         -5    1    3    3    0  501  0.78901408798E+01  0.27079144193E+02 -0.27970978293E+02  0.40000000000E+02  0.47000000000E+01 0.  1.
</event>
<event>
 5    1  0.4872488E-001  0.8000000E+02  0.7546771E-02  0.1203772E+00
         11   -1    0    0    0    0  0.00000000000E+00  0.00000000000E+00  0.40000000000E+02  0.40000000000E+02  0.00000000000E+00 0.  1.
        -11   -1    0    0    0    0 -0.00000000000E+00 -0.00000000000E+00 -0.40000000000E+02  0.40000000000E+02  0.00000000000E+00 0. -1.
         23    2    1    2    0    0  0.00000000000E+00  0.00000000000E+00  0.00000000000E+00  0.80000000000E+02  0.80000000000E+02 0.  0.
          5    1    3    3  501    0 -0.34935098773E+02 -0.55234680707E+01 -0.18081487057E+02  0.40000000000E+02  0.47000000000E+01 0. -1.
         -5    1    3    3    0  501  0.34935098773E+02  0.55234680707E+01  0.18081487057E+02  0.40000000000E+02  0.47000000000E+01 0.  1.
</event>
<event>
 5    1  0.4872488E-001  0.8000000E+02  0.7546771E-02  0.1203772E+00
         11   -1    0    0    0    0  0.00000000000E+00  0.00000000000E+00  0.40000000000E+02  0.40000000000E+02  0.00000000000E+00 0. -1.
        -11   -1    0    0    0    0 -0.00000000000E+00 -0.00000000000E+00 -0.40000000000E+02  0.40000000000E+02  0.00000000000E+00 0.  1.
         23    2    1    2    0    0  0.00000000000E+00  0.00000000000E+00  0.00000000000E+00  0.80000000000E+02  0.80000000000E+02 0.  0.
          5    1    3    3  501    0  0.49785347223E+01  0.37981691348E+02  0.10512626427E+02  0.40000000000E+02  0.47000000000E+01 0. -1.
         -5    1    3    3    0  501 -0.49785347223E+01 -0.37981691348E+02 -0.10512626427E+02  0.40000000000E+02  0.47000000000E+01 0.  1.
</event>
<event>
 5    1  0.4872488E-001  0.8000000E+02  0.7546771E-02  0.1203772E+00
         11   -1    0    0    0    0  0.00000000000E+00  0.00000000000E+00  0.40000000000E+02  0.40000000000E+02  0.00000000000E+00 0. -1.
        -11   -1    0    0    0    0 -0.00000000000E+00 -0.00000000000E+00 -0.40000000000E+02  0.40000000000E+02  0.00000000000E+00 0.  1.
         23    2    1    2    0    0  0.00000000000E+00  0.00000000000E+00  0.00000000000E+00  0.80000000000E+02  0.80000000000E+02 0.  0.
          5    1    3    3  501    0 -0.36665610347E+02 -0.42434445192E+01 -0.14681151061E+02  0.40000000000E+02  0.47000000000E+01 0. -1.
         -5    1    3    3    0  501  0.36665610347E+02  0.42434445192E+01  0.14681151061E+02  0.40000000000E+02  0.47000000000E+01 0.  1.
</event>
<event>
 5    1  0.4872488E-001  0.8000000E+02  0.7546771E-02  0.1203772E+00
         11   -1    0    0    0    0  0.00000000000E+00  0.00000000000E+00  0.40000000000E+02  0.40000000000E+02  0.00000000000E+00 0. -1.
        -11   -1    0    0    0    0 -0.00000000000E+00 -0.00000000000E+00 -0.40000000000E+02  0.40000000000E+02  0.00000000000E+00 0.  1.
         23    2    1    2    0    0  0.00000000000E+00  0.00000000000E+00  0.00000000000E+00  0.80000000000E+02  0.80000000000E+02 0.  0.
          5    1    3    3  501    0  0.65865000295E+00 -0.23593808769E+02  0.31950091830E+02  0.40000000000E+02  0.47000000000E+01 0. -1.
         -5    1    3    3    0  501 -0.65865000295E+00  0.23593808769E+02 -0.31950091830E+02  0.40000000000E+02  0.47000000000E+01 0.  1.
</event>
<event>
 5    1  0.4872488E-001  0.8000000E+02  0.7546771E-02  0.1203772E+00
         11   -1    0    0    0    0  0.00000000000E+00  0.00000000000E+00  0.40000000000E+02  0.40000000000E+02  0.00000000000E+00 0.  1.
        -11   -1    0    0    0    0 -0.00000000000E+00 -0.00000000000E+00 -0.40000000000E+02  0.40000000000E+02  0.00000000000E+00 0. -1.
         23    2    1    2    0    0  0.00000000000E+00  0.00000000000E+00  0.00000000000E+00  0.80000000000E+02  0.80000000000E+02 0.  0.
          5    1    3    3  501    0 -0.35167042900E+01  0.35871107386E+02 -0.16697498191E+02  0.40000000000E+02  0.47000000000E+01 0. -1.
         -5    1    3    3    0  501  0.35167042900E+01 -0.35871107386E+02  0.16697498191E+02  0.40000000000E+02  0.47000000000E+01 0.  1.
</event>
<event>
 5    1  0.4872488E-001  0.8000000E+02  0.7546771E-02  0.1203772E+00
         11   -1    0    0    0    0  0.00000000000E+00  0.00000000000E+00  0.40000000000E+02  0.40000000000E+02  0.00000000000E+00 0.  1.
        -11   -1    0    0    0    0 -0.00000000000E+00 -0.00000000000E+00 -0.40000000000E+02  0.40000000000E+02  0.00000000000E+00 0. -1.
         23    2    1    2    0    0  0.00000000000E+00  0.00000000000E+00  0.00000000000E+00  0.80000000000E+02  0.80000000000E+02 0.  0.
          5    1    3    3  501    0 -0.21316043192E+02  0.27106422383E+02 -0.19717458462E+02  0.40000000000E+02  0.47000000000E+01 0. -1.
         -5    1    3    3    0  501  0.21316043192E+02 -0.27106422383E+02  0.19717458462E+02  0.40000000000E+02  0.47000000000E+01 0.  1.
</event>
<event>
 5    1  0.4872488E-001  0.8000000E+02  0.7546771E-02  0.1203772E+00
         11   -1    0    0    0    0  0.00000000000E+00  0.00000000000E+00  0.40000000000E+02  0.40000000000E+02  0.00000000000E+00 0. -1.
        -11   -1    0    0    0    0 -0.00000000000E+00 -0.00000000000E+00 -0.40000000000E+02  0.40000000000E+02  0.00000000000E+00 0.  1.
         23    2    1    2    0    0  0.00000000000E+00  0.00000000000E+00  0.00000000000E+00  0.80000000000E+02  0.80000000000E+02 0.  0.
          5    1    3    3  501    0  0.20131591237E+02  0.18598879786E+02  0.28752577362E+02  0.40000000000E+02  0.47000000000E+01 0. -1.
         -5    1    3    3    0  501 -0.20131591237E+02 -0.18598879786E+02 -0.28752577362E+02  0.40000000000E+02  0.47000000000E+01 0.  1.
</event>
<event>
 5    1  0.4872488E-001  0.8000000E+02  0.7546771E-02  0.1203772E+00
         11   -1    0    0    0    0  0.00000000000E+00  0.00000000000E+00  0.40000000000E+02  0.40000000000E+02  0.00000000000E+00 0. -1.
        -11   -1    0    0    0    0 -0.00000000000E+00 -0.00000000000E+00 -0.40000000000E+02  0.40000000000E+02  0.00000000000E+00 0.  1.
         23    2    1    2    0    0  0.00000000000E+00  0.00000000000E+00  0.00000000000E+00  0.80000000000E+02  0.80000000000E+02 0.  0.
          5    1    3    3  501    0  0.12690501965E+02 -0.13326384299E+02  0.35203247597E+02  0.40000000000E+02  0.47000000000E+01 0. -1.
         -5    1    3    3    0  501 -0.12690501965E+02  0.13326384299E+02 -0.35203247597E+02  0.40000000000E+02  0.47000000000E+01 0.  1.
</event>
<event>
 5    1  0.4872488E-001  0.8000000E+02  0.7546771E-02  0.1203772E+00
         11   -1    0    0    0    0  0.00000000000E+00  0.00000000000E+00  0.40000000000E+02  0.40000000000E+02  0.00000000000E+00 0. -1.
        -11   -1    0    0    0    0 -0.00000000000E+00 -0.00000000000E+00 -0.40000000000E+02  0.40000000000E+02  0.00000000000E+00 0.  1.
         23    2    1    2    0    0  0.00000000000E+00  0.00000000000E+00  0.00000000000E+00  0.80000000000E+02  0.80000000000E+02 0.  0.
          5    1    3    3  501    0  0.24764445622E+02 -0.27032830275E+02  0.15292426895E+02  0.40000000000E+02  0.47000000000E+01 0. -1.
         -5    1    3    3    0  501 -0.24764445622E+02  0.27032830275E+02 -0.15292426895E+02  0.40000000000E+02  0.47000000000E+01 0.  1.
</event>
<event>
 5    1  0.4872488E-001  0.8000000E+02  0.7546771E-02  0.1203772E+00
         11   -1    0    0    0    0  0.00000000000E+00  0.00000000000E+00  0.40000000000E+02  0.40000000000E+02  0.00000000000E+00 0.  1.
        -11   -1    0    0    0    0 -0.00000000000E+00 -0.00000000000E+00 -0.40000000000E+02  0.40000000000E+02  0.00000000000E+00 0. -1.
         23    2    1    2    0    0  0.00000000000E+00  0.00000000000E+00  0.00000000000E+00  0.80000000000E+02  0.80000000000E+02 0.  0.
          5    1    3    3  501    0 -0.15291490250E+01  0.19969145356E+02 -0.34304590611E+02  0.40000000000E+02  0.47000000000E+01 0. -1.
         -5    1    3    3    0  501  0.15291490250E+01 -0.19969145356E+02  0.34304590611E+02  0.40000000000E+02  0.47000000000E+01 0.  1.
</event>
<event>
 5    1  0.4872488E-001  0.8000000E+02  0.7546771E-02  0.1203772E+00
         11   -1    0    0    0    0  0.00000000000E+00  0.00000000000E+00  0.40000000000E+02  0.40000000000E+02  0.00000000000E+00 0.  1.
        -11   -1    0    0    0    0 -0.00000000000E+00 -0.00000000000E+00 -0.40000000000E+02  0.40000000000E+02  0.00000000000E+00 0. -1.
         23    2    1    2    0    0  0.00000000000E+00  0.00000000000E+00  0.00000000000E+00  0.80000000000E+02  0.80000000000E+02 0.  0.
          5    1    3    3  501    0  0.29535688577E-01  0.11335732006E+02 -0.38071121701E+02  0.40000000000E+02  0.47000000000E+01 0. -1.
         -5    1    3    3    0  501 -0.29535688577E-01 -0.11335732006E+02  0.38071121701E+02  0.40000000000E+02  0.47000000000E+01 0.  1.
</event>
<event>
 5    1  0.4872488E-001  0.8000000E+02  0.7546771E-02  0.1203772E+00
         11   -1    0    0    0    0  0.00000000000E+00  0.00000000000E+00  0.40000000000E+02  0.40000000000E+02  0.00000000000E+00 0. -1.
        -11   -1    0    0    0    0 -0.00000000000E+00 -0.00000000000E+00 -0.40000000000E+02  0.40000000000E+02  0.00000000000E+00 0.  1.
         23    2    1    2    0    0  0.00000000000E+00  0.00000000000E+00  0.00000000000E+00  0.80000000000E+02  0.80000000000E+02 0.  0.
          5    1    3    3  501    0  0.11336452655E+02  0.33767869275E+02 -0.17581975026E+02  0.40000000000E+02  0.47000000000E+01 0.  1.
         -5    1    3    3    0  501 -0.11336452655E+02 -0.33767869275E+02  0.17581975026E+02  0.40000000000E+02  0.47000000000E+01 0. -1.
</event>
<event>
 5    1  0.4872488E-001  0.8000000E+02  0.7546771E-02  0.1203772E+00
         11   -1    0    0    0    0  0.00000000000E+00  0.00000000000E+00  0.40000000000E+02  0.40000000000E+02  0.00000000000E+00 0. -1.
        -11   -1    0    0    0    0 -0.00000000000E+00 -0.00000000000E+00 -0.40000000000E+02  0.40000000000E+02  0.00000000000E+00 0.  1.
         23    2    1    2    0    0  0.00000000000E+00  0.00000000000E+00  0.00000000000E+00  0.80000000000E+02  0.80000000000E+02 0.  0.
          5    1    3    3  501    0  0.37505490649E+02 -0.13020136930E+02 -0.13130900531E+01  0.40000000000E+02  0.47000000000E+01 0.  1.
         -5    1    3    3    0  501 -0.37505490649E+02  0.13020136930E+02  0.13130900531E+01  0.40000000000E+02  0.47000000000E+01 0. -1.
</event>
<event>
 5    1  0.4872488E-001  0.8000000E+02  0.7546771E-02  0.1203772E+00
         11   -1    0    0    0    0  0.00000000000E+00  0.00000000000E+00  0.40000000000E+02  0.40000000000E+02  0.00000000000E+00 0.  1.
        -11   -1    0    0    0    0 -0.00000000000E+00 -0.00000000000E+00 -0.40000000000E+02  0.40000000000E+02  0.00000000000E+00 0. -1.
         23    2    1    2    0    0  0.00000000000E+00  0.00000000000E+00  0.00000000000E+00  0.80000000000E+02  0.80000000000E+02 0.  0.
          5    1    3    3  501    0 -0.37155066307E+02 -0.61613168171E+01 -0.12627320492E+02  0.40000000000E+02  0.47000000000E+01 0. -1.
         -5    1    3    3    0  501  0.37155066307E+02  0.61613168171E+01  0.12627320492E+02  0.40000000000E+02  0.47000000000E+01 0.  1.
</event>
<event>
 5    1  0.4872488E-001  0.8000000E+02  0.7546771E-02  0.1203772E+00
         11   -1    0    0    0    0  0.00000000000E+00  0.00000000000E+00  0.40000000000E+02  0.40000000000E+02  0.00000000000E+00 0. -1.
        -11   -1    0    0    0    0 -0.00000000000E+00 -0.00000000000E+00 -0.40000000000E+02  0.40000000000E+02  0.00000000000E+00 0.  1.
         23    2    1    2    0    0  0.00000000000E+00  0.00000000000E+00  0.00000000000E+00  0.80000000000E+02  0.80000000000E+02 0.  0.
          5    1    3    3  501    0  0.11548529885E+02 -0.37612584502E+02  0.54621373652E+01  0.40000000000E+02  0.47000000000E+01 0. -1.
         -5    1    3    3    0  501 -0.11548529885E+02  0.37612584502E+02 -0.54621373652E+01  0.40000000000E+02  0.47000000000E+01 0.  1.
</event>
<event>
 5    1  0.4872488E-001  0.8000000E+02  0.7546771E-02  0.1203772E+00
         11   -1    0    0    0    0  0.00000000000E+00  0.00000000000E+00  0.40000000000E+02  0.40000000000E+02  0.00000000000E+00 0. -1.
        -11   -1    0    0    0    0 -0.00000000000E+00 -0.00000000000E+00 -0.40000000000E+02  0.40000000000E+02  0.00000000000E+00 0.  1.
         23    2    1    2    0    0  0.00000000000E+00  0.00000000000E+00  0.00000000000E+00  0.80000000000E+02  0.80000000000E+02 0.  0.
          5    1    3    3  501    0  0.18876858179E+02  0.27488932191E+02  0.21585477347E+02  0.40000000000E+02  0.47000000000E+01 0. -1.
         -5    1    3    3    0  501 -0.18876858179E+02 -0.27488932191E+02 -0.21585477347E+02  0.40000000000E+02  0.47000000000E+01 0.  1.
</event>
<event>
 5    1  0.4872488E-001  0.8000000E+02  0.7546771E-02  0.1203772E+00
         11   -1    0    0    0    0  0.00000000000E+00  0.00000000000E+00  0.40000000000E+02  0.40000000000E+02  0.00000000000E+00 0.  1.
        -11   -1    0    0    0    0 -0.00000000000E+00 -0.00000000000E+00 -0.40000000000E+02  0.40000000000E+02  0.00000000000E+00 0. -1.
         23    2    1    2    0    0  0.00000000000E+00  0.00000000000E+00  0.00000000000E+00  0.80000000000E+02  0.80000000000E+02 0.  0.
          5    1    3    3  501    0 -0.33692010613E+02  0.50038030606E+01 -0.20438208723E+02  0.40000000000E+02  0.47000000000E+01 0. -1.
         -5    1    3    3    0  501  0.33692010613E+02 -0.50038030606E+01  0.20438208723E+02  0.40000000000E+02  0.47000000000E+01 0.  1.
</event>
<event>
 5    1  0.4872488E-001  0.8000000E+02  0.7546771E-02  0.1203772E+00
         11   -1    0    0    0    0  0.00000000000E+00  0.00000000000E+00  0.40000000000E+02  0.40000000000E+02  0.00000000000E+00 0. -1.
        -11   -1    0    0    0    0 -0.00000000000E+00 -0.00000000000E+00 -0.40000000000E+02  0.40000000000E+02  0.00000000000E+00 0.  1.
         23    2    1    2    0    0  0.00000000000E+00  0.00000000000E+00  0.00000000000E+00  0.80000000000E+02  0.80000000000E+02 0.  0.
          5    1    3    3  501    0 -0.89559985872E+00 -0.38743407900E+02  0.87210231736E+01  0.40000000000E+02  0.47000000000E+01 0. -1.
         -5    1    3    3    0  501  0.89559985872E+00  0.38743407900E+02 -0.87210231736E+01  0.40000000000E+02  0.47000000000E+01 0.  1.
</event>
<event>
 5    1  0.4872488E-001  0.8000000E+02  0.7546771E-02  0.1203772E+00
         11   -1    0    0    0    0  0.00000000000E+00  0.00000000000E+00  0.40000000000E+02  0.40000000000E+02  0.00000000000E+00 0. -1.
        -11   -1    0    0    0    0 -0.00000000000E+00 -0.00000000000E+00 -0.40000000000E+02  0.40000000000E+02  0.00000000000E+00 0.  1.
         23    2    1    2    0    0  0.00000000000E+00  0.00000000000E+00  0.00000000000E+00  0.80000000000E+02  0.80000000000E+02 0.  0.
          5    1    3    3  501    0 -0.37943860705E+02 -0.35315377971E+01  0.11211675859E+02  0.40000000000E+02  0.47000000000E+01 0. -1.
         -5    1    3    3    0  501  0.37943860705E+02  0.35315377971E+01 -0.11211675859E+02  0.40000000000E+02  0.47000000000E+01 0.  1.
</event>
<event>
 5    1  0.4872488E-001  0.8000000E+02  0.7546771E-02  0.1203772E+00
         11   -1    0    0    0    0  0.00000000000E+00  0.00000000000E+00  0.40000000000E+02  0.40000000000E+02  0.00000000000E+00 0.  1.
        -11   -1    0    0    0    0 -0.00000000000E+00 -0.00000000000E+00 -0.40000000000E+02  0.40000000000E+02  0.00000000000E+00 0. -1.
         23    2    1    2    0    0  0.00000000000E+00  0.00000000000E+00  0.00000000000E+00  0.80000000000E+02  0.80000000000E+02 0.  0.
          5    1    3    3  501    0  0.84004613774E+01  0.29004002026E+02 -0.25809109150E+02  0.40000000000E+02  0.47000000000E+01 0. -1.
         -5    1    3    3    0  501 -0.84004613774E+01 -0.29004002026E+02  0.25809109150E+02  0.40000000000E+02  0.47000000000E+01 0.  1.
</event>
<event>
 5    1  0.4872488E-001  0.8000000E+02  0.7546771E-02  0.1203772E+00
         11   -1    0    0    0    0  0.00000000000E+00  0.00000000000E+00  0.40000000000E+02  0.40000000000E+02  0.00000000000E+00 0.  1.
        -11   -1    0    0    0    0 -0.00000000000E+00 -0.00000000000E+00 -0.40000000000E+02  0.40000000000E+02  0.00000000000E+00 0. -1.
         23    2    1    2    0    0  0.00000000000E+00  0.00000000000E+00  0.00000000000E+00  0.80000000000E+02  0.80000000000E+02 0.  0.
          5    1    3    3  501    0 -0.68114859234E+01 -0.35486575820E+02 -0.16498987729E+02  0.40000000000E+02  0.47000000000E+01 0. -1.
         -5    1    3    3    0  501  0.68114859234E+01  0.35486575820E+02  0.16498987729E+02  0.40000000000E+02  0.47000000000E+01 0.  1.
</event>
<event>
 5    1  0.4872488E-001  0.8000000E+02  0.7546771E-02  0.1203772E+00
         11   -1    0    0    0    0  0.00000000000E+00  0.00000000000E+00  0.40000000000E+02  0.40000000000E+02  0.00000000000E+00 0. -1.
        -11   -1    0    0    0    0 -0.00000000000E+00 -0.00000000000E+00 -0.40000000000E+02  0.40000000000E+02  0.00000000000E+00 0.  1.
         23    2    1    2    0    0  0.00000000000E+00  0.00000000000E+00  0.00000000000E+00  0.80000000000E+02  0.80000000000E+02 0.  0.
          5    1    3    3  501    0  0.37239808433E+02  0.11363480486E+02  0.78726094208E+01  0.40000000000E+02  0.47000000000E+01 0. -1.
         -5    1    3    3    0  501 -0.37239808433E+02 -0.11363480486E+02 -0.78726094208E+01  0.40000000000E+02  0.47000000000E+01 0.  1.
</event>
<event>
 5    1  0.4872488E-001  0.8000000E+02  0.7546771E-02  0.1203772E+00
         11   -1    0    0    0    0  0.00000000000E+00  0.00000000000E+00  0.40000000000E+02  0.40000000000E+02  0.00000000000E+00 0.  1.
        -11   -1    0    0    0    0 -0.00000000000E+00 -0.00000000000E+00 -0.40000000000E+02  0.40000000000E+02  0.00000000000E+00 0. -1.
         23    2    1    2    0    0  0.00000000000E+00  0.00000000000E+00  0.00000000000E+00  0.80000000000E+02  0.80000000000E+02 0.  0.
          5    1    3    3  501    0  0.37312875755E+02 -0.13625630088E+02 -0.38828016416E-01  0.40000000000E+02  0.47000000000E+01 0. -1.
         -5    1    3    3    0  501 -0.37312875755E+02  0.13625630088E+02  0.38828016416E-01  0.40000000000E+02  0.47000000000E+01 0.  1.
</event>
<event>
 5    1  0.4872488E-001  0.8000000E+02  0.7546771E-02  0.1203772E+00
         11   -1    0    0    0    0  0.00000000000E+00  0.00000000000E+00  0.40000000000E+02  0.40000000000E+02  0.00000000000E+00 0. -1.
        -11   -1    0    0    0    0 -0.00000000000E+00 -0.00000000000E+00 -0.40000000000E+02  0.40000000000E+02  0.00000000000E+00 0.  1.
         23    2    1    2    0    0  0.00000000000E+00  0.00000000000E+00  0.00000000000E+00  0.80000000000E+02  0.80000000000E+02 0.  0.
          5    1    3    3  501    0  0.27368853945E+01 -0.17802720199E+02  0.35404556371E+02  0.40000000000E+02  0.47000000000E+01 0. -1.
         -5    1    3    3    0  501 -0.27368853945E+01  0.17802720199E+02 -0.35404556371E+02  0.40000000000E+02  0.47000000000E+01 0.  1.
</event>
<event>
 5    1  0.4872488E-001  0.8000000E+02  0.7546771E-02  0.1203772E+00
         11   -1    0    0    0    0  0.00000000000E+00  0.00000000000E+00  0.40000000000E+02  0.40000000000E+02  0.00000000000E+00 0.  1.
        -11   -1    0    0    0    0 -0.00000000000E+00 -0.00000000000E+00 -0.40000000000E+02  0.40000000000E+02  0.00000000000E+00 0. -1.
         23    2    1    2    0    0  0.00000000000E+00  0.00000000000E+00  0.00000000000E+00  0.80000000000E+02  0.80000000000E+02 0.  0.
          5    1    3    3  501    0 -0.16935320722E+00 -0.23053855515E+02 -0.32348123058E+02  0.40000000000E+02  0.47000000000E+01 0. -1.
         -5    1    3    3    0  501  0.16935320722E+00  0.23053855515E+02  0.32348123058E+02  0.40000000000E+02  0.47000000000E+01 0.  1.
</event>
<event>
 5    1  0.4872488E-001  0.8000000E+02  0.7546771E-02  0.1203772E+00
         11   -1    0    0    0    0  0.00000000000E+00  0.00000000000E+00  0.40000000000E+02  0.40000000000E+02  0.00000000000E+00 0. -1.
        -11   -1    0    0    0    0 -0.00000000000E+00 -0.00000000000E+00 -0.40000000000E+02  0.40000000000E+02  0.00000000000E+00 0.  1.
         23    2    1    2    0    0  0.00000000000E+00  0.00000000000E+00  0.00000000000E+00  0.80000000000E+02  0.80000000000E+02 0.  0.
          5    1    3    3  501    0  0.21814470401E+01  0.36572814492E+02  0.15348632803E+02  0.40000000000E+02  0.47000000000E+01 0.  1.
         -5    1    3    3    0  501 -0.21814470401E+01 -0.36572814492E+02 -0.15348632803E+02  0.40000000000E+02  0.47000000000E+01 0. -1.
</event>
<event>
 5    1  0.4872488E-001  0.8000000E+02  0.7546771E-02  0.1203772E+00
         11   -1    0    0    0    0  0.00000000000E+00  0.00000000000E+00  0.40000000000E+02  0.40000000000E+02  0.00000000000E+00 0.  1.
        -11   -1    0    0    0    0 -0.00000000000E+00 -0.00000000000E+00 -0.40000000000E+02  0.40000000000E+02  0.00000000000E+00 0. -1.
         23    2    1    2    0    0  0.00000000000E+00  0.00000000000E+00  0.00000000000E+00  0.80000000000E+02  0.80000000000E+02 0.  0.
          5    1    3    3  501    0 -0.53679847632E+01 -0.37587752442E+02  0.11672857658E+02  0.40000000000E+02  0.47000000000E+01 0. -1.
         -5    1    3    3    0  501  0.53679847632E+01  0.37587752442E+02 -0.11672857658E+02  0.40000000000E+02  0.47000000000E+01 0.  1.
</event>
<event>
 5    1  0.4872488E-001  0.8000000E+02  0.7546771E-02  0.1203772E+00
         11   -1    0    0    0    0  0.00000000000E+00  0.00000000000E+00  0.40000000000E+02  0.40000000000E+02  0.00000000000E+00 0. -1.
        -11   -1    0    0    0    0 -0.00000000000E+00 -0.00000000000E+00 -0.40000000000E+02  0.40000000000E+02  0.00000000000E+00 0.  1.
         23    2    1    2    0    0  0.00000000000E+00  0.00000000000E+00  0.00000000000E+00  0.80000000000E+02  0.80000000000E+02 0.  0.
          5    1    3    3  501    0  0.39110566551E+01  0.28462838354E+02  0.27431377448E+02  0.40000000000E+02  0.47000000000E+01 0. -1.
         -5    1    3    3    0  501 -0.39110566551E+01 -0.28462838354E+02 -0.27431377448E+02  0.40000000000E+02  0.47000000000E+01 0.  1.
</event>
<event>
 5    1  0.4872488E-001  0.8000000E+02  0.7546771E-02  0.1203772E+00
         11   -1    0    0    0    0  0.00000000000E+00  0.00000000000E+00  0.40000000000E+02  0.40000000000E+02  0.00000000000E+00 0.  1.
        -11   -1    0    0    0    0 -0.00000000000E+00 -0.00000000000E+00 -0.40000000000E+02  0.40000000000E+02  0.00000000000E+00 0. -1.
         23    2    1    2    0    0  0.00000000000E+00  0.00000000000E+00  0.00000000000E+00  0.80000000000E+02  0.80000000000E+02 0.  0.
          5    1    3    3  501    0  0.87018641180E+01 -0.15045274931E+01 -0.38728851750E+02  0.40000000000E+02  0.47000000000E+01 0. -1.
         -5    1    3    3    0  501 -0.87018641180E+01  0.15045274931E+01  0.38728851750E+02  0.40000000000E+02  0.47000000000E+01 0.  1.
</event>
<event>
 5    1  0.4872488E-001  0.8000000E+02  0.7546771E-02  0.1203772E+00
         11   -1    0    0    0    0  0.00000000000E+00  0.00000000000E+00  0.40000000000E+02  0.40000000000E+02  0.00000000000E+00 0. -1.
        -11   -1    0    0    0    0 -0.00000000000E+00 -0.00000000000E+00 -0.40000000000E+02  0.40000000000E+02  0.00000000000E+00 0.  1.
         23    2    1    2    0    0  0.00000000000E+00  0.00000000000E+00  0.00000000000E+00  0.80000000000E+02  0.80000000000E+02 0.  0.
          5    1    3    3  501    0 -0.13542954687E+02  0.57443332792E+01  0.36898523189E+02  0.40000000000E+02  0.47000000000E+01 0. -1.
         -5    1    3    3    0  501  0.13542954687E+02 -0.57443332792E+01 -0.36898523189E+02  0.40000000000E+02  0.47000000000E+01 0.  1.
</event>
<event>
 5    1  0.4872488E-001  0.8000000E+02  0.7546771E-02  0.1203772E+00
         11   -1    0    0    0    0  0.00000000000E+00  0.00000000000E+00  0.40000000000E+02  0.40000000000E+02  0.00000000000E+00 0. -1.
        -11   -1    0    0    0    0 -0.00000000000E+00 -0.00000000000E+00 -0.40000000000E+02  0.40000000000E+02  0.00000000000E+00 0.  1.
         23    2    1    2    0    0  0.00000000000E+00  0.00000000000E+00  0.00000000000E+00  0.80000000000E+02  0.80000000000E+02 0.  0.
          5    1    3    3  501    0 -0.35573927469E+02 -0.15582093004E+02  0.83429048922E+01  0.40000000000E+02  0.47000000000E+01 0. -1.
         -5    1    3    3    0  501  0.35573927469E+02  0.15582093004E+02 -0.83429048922E+01  0.40000000000E+02  0.47000000000E+01 0.  1.
</event>
<event>
 5    1  0.4872488E-001  0.8000000E+02  0.7546771E-02  0.1203772E+00
         11   -1    0    0    0    0  0.00000000000E+00  0.00000000000E+00  0.40000000000E+02  0.40000000000E+02  0.00000000000E+00 0.  1.
        -11   -1    0    0    0    0 -0.00000000000E+00 -0.00000000000E+00 -0.40000000000E+02  0.40000000000E+02  0.00000000000E+00 0. -1.
         23    2    1    2    0    0  0.00000000000E+00  0.00000000000E+00  0.00000000000E+00  0.80000000000E+02  0.80000000000E+02 0.  0.
          5    1    3    3  501    0  0.88227437062E+01  0.31414326918E+02 -0.22654122313E+02  0.40000000000E+02  0.47000000000E+01 0. -1.
         -5    1    3    3    0  501 -0.88227437062E+01 -0.31414326918E+02  0.22654122313E+02  0.40000000000E+02  0.47000000000E+01 0.  1.
</event>
<event>
 5    1  0.4872488E-001  0.8000000E+02  0.7546771E-02  0.1203772E+00
         11   -1    0    0    0    0  0.00000000000E+00  0.00000000000E+00  0.40000000000E+02  0.40000000000E+02  0.00000000000E+00 0.  1.
        -11   -1    0    0    0    0 -0.00000000000E+00 -0.00000000000E+00 -0.40000000000E+02  0.40000000000E+02  0.00000000000E+00 0. -1.
         23    2    1    2    0    0  0.00000000000E+00  0.00000000000E+00  0.00000000000E+00  0.80000000000E+02  0.80000000000E+02 0.  0.
          5    1    3    3  501    0  0.27119704270E+02  0.21536812865E+02  0.19457577750E+02  0.40000000000E+02  0.47000000000E+01 0.  1.
         -5    1    3    3    0  501 -0.27119704270E+02 -0.21536812865E+02 -0.19457577750E+02  0.40000000000E+02  0.47000000000E+01 0.  1.
</event>
<event>
 5    1  0.4872488E-001  0.8000000E+02  0.7546771E-02  0.1203772E+00
         11   -1    0    0    0    0  0.00000000000E+00  0.00000000000E+00  0.40000000000E+02  0.40000000000E+02  0.00000000000E+00 0. -1.
        -11   -1    0    0    0    0 -0.00000000000E+00 -0.00000000000E+00 -0.40000000000E+02  0.40000000000E+02  0.00000000000E+00 0.  1.
         23    2    1    2    0    0  0.00000000000E+00  0.00000000000E+00  0.00000000000E+00  0.80000000000E+02  0.80000000000E+02 0.  0.
          5    1    3    3  501    0  0.25772585638E+02 -0.10972338143E+02  0.28165433162E+02  0.40000000000E+02  0.47000000000E+01 0. -1.
         -5    1    3    3    0  501 -0.25772585638E+02  0.10972338143E+02 -0.28165433162E+02  0.40000000000E+02  0.47000000000E+01 0.  1.
</event>
<event>
 5    1  0.4872488E-001  0.8000000E+02  0.7546771E-02  0.1203772E+00
         11   -1    0    0    0    0  0.00000000000E+00  0.00000000000E+00  0.40000000000E+02  0.40000000000E+02  0.00000000000E+00 0.  1.
        -11   -1    0    0    0    0 -0.00000000000E+00 -0.00000000000E+00 -0.40000000000E+02  0.40000000000E+02  0.00000000000E+00 0. -1.
         23    2    1    2    0    0  0.00000000000E+00  0.00000000000E+00  0.00000000000E+00  0.80000000000E+02  0.80000000000E+02 0.  0.
          5    1    3    3  501    0 -0.85675732299E+01 -0.24494933675E+02 -0.30074988167E+02  0.40000000000E+02  0.47000000000E+01 0. -1.
         -5    1    3    3    0  501  0.85675732299E+01  0.24494933675E+02  0.30074988167E+02  0.40000000000E+02  0.47000000000E+01 0.  1.
</event>
<event>
 5    1  0.4872488E-001  0.8000000E+02  0.7546771E-02  0.1203772E+00
         11   -1    0    0    0    0  0.00000000000E+00  0.00000000000E+00  0.40000000000E+02  0.40000000000E+02  0.00000000000E+00 0. -1.
        -11   -1    0    0    0    0 -0.00000000000E+00 -0.00000000000E+00 -0.40000000000E+02  0.40000000000E+02  0.00000000000E+00 0.  1.
         23    2    1    2    0    0  0.00000000000E+00  0.00000000000E+00  0.00000000000E+00  0.80000000000E+02  0.80000000000E+02 0.  0.
          5    1    3    3  501    0 -0.34410702105E+01 -0.37258146742E+02 -0.13337898529E+02  0.40000000000E+02  0.47000000000E+01 0. -1.
         -5    1    3    3    0  501  0.34410702105E+01  0.37258146742E+02  0.13337898529E+02  0.40000000000E+02  0.47000000000E+01 0.  1.
</event>
<event>
 5    1  0.4872488E-001  0.8000000E+02  0.7546771E-02  0.1203772E+00
         11   -1    0    0    0    0  0.00000000000E+00  0.00000000000E+00  0.40000000000E+02  0.40000000000E+02  0.00000000000E+00 0.  1.
        -11   -1    0    0    0    0 -0.00000000000E+00 -0.00000000000E+00 -0.40000000000E+02  0.40000000000E+02  0.00000000000E+00 0. -1.
         23    2    1    2    0    0  0.00000000000E+00  0.00000000000E+00  0.00000000000E+00  0.80000000000E+02  0.80000000000E+02 0.  0.
          5    1    3    3  501    0 -0.27751092244E+02  0.33099022146E+01 -0.28228202681E+02  0.40000000000E+02  0.47000000000E+01 0. -1.
         -5    1    3    3    0  501  0.27751092244E+02 -0.33099022146E+01  0.28228202681E+02  0.40000000000E+02  0.47000000000E+01 0.  1.
</event>
<event>
 5    1  0.4872488E-001  0.8000000E+02  0.7546771E-02  0.1203772E+00
         11   -1    0    0    0    0  0.00000000000E+00  0.00000000000E+00  0.40000000000E+02  0.40000000000E+02  0.00000000000E+00 0.  1.
        -11   -1    0    0    0    0 -0.00000000000E+00 -0.00000000000E+00 -0.40000000000E+02  0.40000000000E+02  0.00000000000E+00 0. -1.
         23    2    1    2    0    0  0.00000000000E+00  0.00000000000E+00  0.00000000000E+00  0.80000000000E+02  0.80000000000E+02 0.  0.
          5    1    3    3  501    0  0.10762724334E+02 -0.35190761159E+02  0.14956072144E+02  0.40000000000E+02  0.47000000000E+01 0. -1.
         -5    1    3    3    0  501 -0.10762724334E+02  0.35190761159E+02 -0.14956072144E+02  0.40000000000E+02  0.47000000000E+01 0.  1.
</event>
<event>
 5    1  0.4872488E-001  0.8000000E+02  0.7546771E-02  0.1203772E+00
         11   -1    0    0    0    0  0.00000000000E+00  0.00000000000E+00  0.40000000000E+02  0.40000000000E+02  0.00000000000E+00 0.  1.
        -11   -1    0    0    0    0 -0.00000000000E+00 -0.00000000000E+00 -0.40000000000E+02  0.40000000000E+02  0.00000000000E+00 0. -1.
         23    2    1    2    0    0  0.00000000000E+00  0.00000000000E+00  0.00000000000E+00  0.80000000000E+02  0.80000000000E+02 0.  0.
          5    1    3    3  501    0 -0.17525075360E+02  0.24061307579E+01 -0.35566729796E+02  0.40000000000E+02  0.47000000000E+01 0. -1.
         -5    1    3    3    0  501  0.17525075360E+02 -0.24061307579E+01  0.35566729796E+02  0.40000000000E+02  0.47000000000E+01 0.  1.
</event>
<event>
 5    1  0.4872488E-001  0.8000000E+02  0.7546771E-02  0.1203772E+00
         11   -1    0    0    0    0  0.00000000000E+00  0.00000000000E+00  0.40000000000E+02  0.40000000000E+02  0.00000000000E+00 0.  1.
        -11   -1    0    0    0    0 -0.00000000000E+00 -0.00000000000E+00 -0.40000000000E+02  0.40000000000E+02  0.00000000000E+00 0. -1.
         23    2    1    2    0    0  0.00000000000E+00  0.00000000000E+00  0.00000000000E+00  0.80000000000E+02  0.80000000000E+02 0.  0.
          5    1    3    3  501    0 -0.38939892031E+02  0.48224834805E+01  0.61918060114E+01  0.40000000000E+02  0.47000000000E+01 0. -1.
         -5    1    3    3    0  501  0.38939892031E+02 -0.48224834805E+01 -0.61918060114E+01  0.40000000000E+02  0.47000000000E+01 0.  1.
</event>
<event>
 5    1  0.4872488E-001  0.8000000E+02  0.7546771E-02  0.1203772E+00
         11   -1    0    0    0    0  0.00000000000E+00  0.00000000000E+00  0.40000000000E+02  0.40000000000E+02  0.00000000000E+00 0. -1.
        -11   -1    0    0    0    0 -0.00000000000E+00 -0.00000000000E+00 -0.40000000000E+02  0.40000000000E+02  0.00000000000E+00 0.  1.
         23    2    1    2    0    0  0.00000000000E+00  0.00000000000E+00  0.00000000000E+00  0.80000000000E+02  0.80000000000E+02 0.  0.
          5    1    3    3  501    0  0.32086003442E+01 -0.35218082292E+02  0.18091477649E+02  0.40000000000E+02  0.47000000000E+01 0. -1.
         -5    1    3    3    0  501 -0.32086003442E+01  0.35218082292E+02 -0.18091477649E+02  0.40000000000E+02  0.47000000000E+01 0.  1.
</event>
<event>
 5    1  0.4872488E-001  0.8000000E+02  0.7546771E-02  0.1203772E+00
         11   -1    0    0    0    0  0.00000000000E+00  0.00000000000E+00  0.40000000000E+02  0.40000000000E+02  0.00000000000E+00 0. -1.
        -11   -1    0    0    0    0 -0.00000000000E+00 -0.00000000000E+00 -0.40000000000E+02  0.40000000000E+02  0.00000000000E+00 0.  1.
         23    2    1    2    0    0  0.00000000000E+00  0.00000000000E+00  0.00000000000E+00  0.80000000000E+02  0.80000000000E+02 0.  0.
          5    1    3    3  501    0 -0.15682936405E+02 -0.27650007711E+02  0.23820843379E+02  0.40000000000E+02  0.47000000000E+01 0. -1.
         -5    1    3    3    0  501  0.15682936405E+02  0.27650007711E+02 -0.23820843379E+02  0.40000000000E+02  0.47000000000E+01 0.  1.
</event>
<event>
 5    1  0.4872488E-001  0.8000000E+02  0.7546771E-02  0.1203772E+00
         11   -1    0    0    0    0  0.00000000000E+00  0.00000000000E+00  0.40000000000E+02  0.40000000000E+02  0.00000000000E+00 0.  1.
        -11   -1    0    0    0    0 -0.00000000000E+00 -0.00000000000E+00 -0.40000000000E+02  0.40000000000E+02  0.00000000000E+00 0. -1.
         23    2    1    2    0    0  0.00000000000E+00  0.00000000000E+00  0.00000000000E+00  0.80000000000E+02  0.80000000000E+02 0.  0.
          5    1    3    3  501    0 -0.78292807240E+01 -0.14411066559E+02 -0.36179186337E+02  0.40000000000E+02  0.47000000000E+01 0. -1.
         -5    1    3    3    0  501  0.78292807240E+01  0.14411066559E+02  0.36179186337E+02  0.40000000000E+02  0.47000000000E+01 0.  1.
</event>
<event>
 5    1  0.4872488E-001  0.8000000E+02  0.7546771E-02  0.1203772E+00
         11   -1    0    0    0    0  0.00000000000E+00  0.00000000000E+00  0.40000000000E+02  0.40000000000E+02  0.00000000000E+00 0.  1.
        -11   -1    0    0    0    0 -0.00000000000E+00 -0.00000000000E+00 -0.40000000000E+02  0.40000000000E+02  0.00000000000E+00 0. -1.
         23    2    1    2    0    0  0.00000000000E+00  0.00000000000E+00  0.00000000000E+00  0.80000000000E+02  0.80000000000E+02 0.  0.
          5    1    3    3  501    0  0.13742404214E+02 -0.90231621293E+01 -0.36161289684E+02  0.40000000000E+02  0.47000000000E+01 0. -1.
         -5    1    3    3    0  501 -0.13742404214E+02  0.90231621293E+01  0.36161289684E+02  0.40000000000E+02  0.47000000000E+01 0.  1.
</event>
<event>
 5    1  0.4872488E-001  0.8000000E+02  0.7546771E-02  0.1203772E+00
         11   -1    0    0    0    0  0.00000000000E+00  0.00000000000E+00  0.40000000000E+02  0.40000000000E+02  0.00000000000E+00 0.  1.
        -11   -1    0    0    0    0 -0.00000000000E+00 -0.00000000000E+00 -0.40000000000E+02  0.40000000000E+02  0.00000000000E+00 0. -1.
         23    2    1    2    0    0  0.00000000000E+00  0.00000000000E+00  0.00000000000E+00  0.80000000000E+02  0.80000000000E+02 0.  0.
          5    1    3    3  501    0 -0.35229957836E+01 -0.19103852000E+02 -0.34648828833E+02  0.40000000000E+02  0.47000000000E+01 0. -1.
         -5    1    3    3    0  501  0.35229957836E+01  0.19103852000E+02  0.34648828833E+02  0.40000000000E+02  0.47000000000E+01 0.  1.
</event>
<event>
 5    1  0.4872488E-001  0.8000000E+02  0.7546771E-02  0.1203772E+00
         11   -1    0    0    0    0  0.00000000000E+00  0.00000000000E+00  0.40000000000E+02  0.40000000000E+02  0.00000000000E+00 0. -1.
        -11   -1    0    0    0    0 -0.00000000000E+00 -0.00000000000E+00 -0.40000000000E+02  0.40000000000E+02  0.00000000000E+00 0.  1.
         23    2    1    2    0    0  0.00000000000E+00  0.00000000000E+00  0.00000000000E+00  0.80000000000E+02  0.80000000000E+02 0.  0.
          5    1    3    3  501    0  0.28377182507E+01 -0.70307742795E+01  0.38992634794E+02  0.40000000000E+02  0.47000000000E+01 0. -1.
         -5    1    3    3    0  501 -0.28377182507E+01  0.70307742795E+01 -0.38992634794E+02  0.40000000000E+02  0.47000000000E+01 0.  1.
</event>
<event>
 5    1  0.4872488E-001  0.8000000E+02  0.7546771E-02  0.1203772E+00
         11   -1    0    0    0    0  0.00000000000E+00  0.00000000000E+00  0.40000000000E+02  0.40000000000E+02  0.00000000000E+00 0. -1.
        -11   -1    0    0    0    0 -0.00000000000E+00 -0.00000000000E+00 -0.40000000000E+02  0.40000000000E+02  0.00000000000E+00 0.  1.
         23    2    1    2    0    0  0.00000000000E+00  0.00000000000E+00  0.00000000000E+00  0.80000000000E+02  0.80000000000E+02 0.  0.
          5    1    3    3  501    0  0.38708193930E+02  0.18925710336E+00  0.89190753107E+01  0.40000000000E+02  0.47000000000E+01 0. -1.
         -5    1    3    3    0  501 -0.38708193930E+02 -0.18925710336E+00 -0.89190753107E+01  0.40000000000E+02  0.47000000000E+01 0.  1.
</event>
<event>
 5    1  0.4872488E-001  0.8000000E+02  0.7546771E-02  0.1203772E+00
         11   -1    0    0    0    0  0.00000000000E+00  0.00000000000E+00  0.40000000000E+02  0.40000000000E+02  0.00000000000E+00 0.  1.
        -11   -1    0    0    0    0 -0.00000000000E+00 -0.00000000000E+00 -0.40000000000E+02  0.40000000000E+02  0.00000000000E+00 0. -1.
         23    2    1    2    0    0  0.00000000000E+00  0.00000000000E+00  0.00000000000E+00  0.80000000000E+02  0.80000000000E+02 0.  0.
          5    1    3    3  501    0  0.32157222987E+02  0.20175504029E+02 -0.11694958184E+02  0.40000000000E+02  0.47000000000E+01 0. -1.
         -5    1    3    3    0  501 -0.32157222987E+02 -0.20175504029E+02  0.11694958184E+02  0.40000000000E+02  0.47000000000E+01 0.  1.
</event>
<event>
 5    1  0.4872488E-001  0.8000000E+02  0.7546771E-02  0.1203772E+00
         11   -1    0    0    0    0  0.00000000000E+00  0.00000000000E+00  0.40000000000E+02  0.40000000000E+02  0.00000000000E+00 0. -1.
        -11   -1    0    0    0    0 -0.00000000000E+00 -0.00000000000E+00 -0.40000000000E+02  0.40000000000E+02  0.00000000000E+00 0.  1.
         23    2    1    2    0    0  0.00000000000E+00  0.00000000000E+00  0.00000000000E+00  0.80000000000E+02  0.80000000000E+02 0.  0.
          5    1    3    3  501    0 -0.26650554098E+02  0.51183076905E+01  0.29007945337E+02  0.40000000000E+02  0.47000000000E+01 0. -1.
         -5    1    3    3    0  501  0.26650554098E+02 -0.51183076905E+01 -0.29007945337E+02  0.40000000000E+02  0.47000000000E+01 0.  1.
</event>
<event>
 5    1  0.4872488E-001  0.8000000E+02  0.7546771E-02  0.1203772E+00
         11   -1    0    0    0    0  0.00000000000E+00  0.00000000000E+00  0.40000000000E+02  0.40000000000E+02  0.00000000000E+00 0. -1.
        -11   -1    0    0    0    0 -0.00000000000E+00 -0.00000000000E+00 -0.40000000000E+02  0.40000000000E+02  0.00000000000E+00 0.  1.
         23    2    1    2    0    0  0.00000000000E+00  0.00000000000E+00  0.00000000000E+00  0.80000000000E+02  0.80000000000E+02 0.  0.
          5    1    3    3  501    0 -0.32356385801E+02  0.18657749021E+02 -0.13522673528E+02  0.40000000000E+02  0.47000000000E+01 0.  1.
         -5    1    3    3    0  501  0.32356385801E+02 -0.18657749021E+02  0.13522673528E+02  0.40000000000E+02  0.47000000000E+01 0. -1.
</event>
<event>
 5    1  0.4872488E-001  0.8000000E+02  0.7546771E-02  0.1203772E+00
         11   -1    0    0    0    0  0.00000000000E+00  0.00000000000E+00  0.40000000000E+02  0.40000000000E+02  0.00000000000E+00 0. -1.
        -11   -1    0    0    0    0 -0.00000000000E+00 -0.00000000000E+00 -0.40000000000E+02  0.40000000000E+02  0.00000000000E+00 0.  1.
         23    2    1    2    0    0  0.00000000000E+00  0.00000000000E+00  0.00000000000E+00  0.80000000000E+02  0.80000000000E+02 0.  0.
          5    1    3    3  501    0  0.58329925657E+00  0.38672230421E+02 -0.90569507160E+01  0.40000000000E+02  0.47000000000E+01 0. -1.
         -5    1    3    3    0  501 -0.58329925657E+00 -0.38672230421E+02  0.90569507160E+01  0.40000000000E+02  0.47000000000E+01 0.  1.
</event>
<event>
 5    1  0.4872488E-001  0.8000000E+02  0.7546771E-02  0.1203772E+00
         11   -1    0    0    0    0  0.00000000000E+00  0.00000000000E+00  0.40000000000E+02  0.40000000000E+02  0.00000000000E+00 0.  1.
        -11   -1    0    0    0    0 -0.00000000000E+00 -0.00000000000E+00 -0.40000000000E+02  0.40000000000E+02  0.00000000000E+00 0. -1.
         23    2    1    2    0    0  0.00000000000E+00  0.00000000000E+00  0.00000000000E+00  0.80000000000E+02  0.80000000000E+02 0.  0.
          5    1    3    3  501    0 -0.14021768451E+02 -0.33763004173E+01 -0.37012168337E+02  0.40000000000E+02  0.47000000000E+01 0. -1.
         -5    1    3    3    0  501  0.14021768451E+02  0.33763004173E+01  0.37012168337E+02  0.40000000000E+02  0.47000000000E+01 0.  1.
</event>
<event>
 5    1  0.4872488E-001  0.8000000E+02  0.7546771E-02  0.1203772E+00
         11   -1    0    0    0    0  0.00000000000E+00  0.00000000000E+00  0.40000000000E+02  0.40000000000E+02  0.00000000000E+00 0.  1.
        -11   -1    0    0    0    0 -0.00000000000E+00 -0.00000000000E+00 -0.40000000000E+02  0.40000000000E+02  0.00000000000E+00 0. -1.
         23    2    1    2    0    0  0.00000000000E+00  0.00000000000E+00  0.00000000000E+00  0.80000000000E+02  0.80000000000E+02 0.  0.
          5    1    3    3  501    0  0.36405473074E+02 -0.93698632204E+01  0.12835777868E+02  0.40000000000E+02  0.47000000000E+01 0. -1.
         -5    1    3    3    0  501 -0.36405473074E+02  0.93698632204E+01 -0.12835777868E+02  0.40000000000E+02  0.47000000000E+01 0.  1.
</event>
<event>
 5    1  0.4872488E-001  0.8000000E+02  0.7546771E-02  0.1203772E+00
         11   -1    0    0    0    0  0.00000000000E+00  0.00000000000E+00  0.40000000000E+02  0.40000000000E+02  0.00000000000E+00 0.  1.
        -11   -1    0    0    0    0 -0.00000000000E+00 -0.00000000000E+00 -0.40000000000E+02  0.40000000000E+02  0.00000000000E+00 0. -1.
         23    2    1    2    0    0  0.00000000000E+00  0.00000000000E+00  0.00000000000E+00  0.80000000000E+02  0.80000000000E+02 0.  0.
          5    1    3    3  501    0  0.52492904020E+01 -0.31767728803E+02 -0.23262982546E+02  0.40000000000E+02  0.47000000000E+01 0. -1.
         -5    1    3    3    0  501 -0.52492904020E+01  0.31767728803E+02  0.23262982546E+02  0.40000000000E+02  0.47000000000E+01 0.  1.
</event>
<event>
 5    1  0.4872488E-001  0.8000000E+02  0.7546771E-02  0.1203772E+00
         11   -1    0    0    0    0  0.00000000000E+00  0.00000000000E+00  0.40000000000E+02  0.40000000000E+02  0.00000000000E+00 0. -1.
        -11   -1    0    0    0    0 -0.00000000000E+00 -0.00000000000E+00 -0.40000000000E+02  0.40000000000E+02  0.00000000000E+00 0.  1.
         23    2    1    2    0    0  0.00000000000E+00  0.00000000000E+00  0.00000000000E+00  0.80000000000E+02  0.80000000000E+02 0.  0.
          5    1    3    3  501    0  0.25261809651E+02 -0.30610627741E+02 -0.16554281876E+01  0.40000000000E+02  0.47000000000E+01 0. -1.
         -5    1    3    3    0  501 -0.25261809651E+02  0.30610627741E+02  0.16554281876E+01  0.40000000000E+02  0.47000000000E+01 0.  1.
</event>
<event>
 5    1  0.4872488E-001  0.8000000E+02  0.7546771E-02  0.1203772E+00
         11   -1    0    0    0    0  0.00000000000E+00  0.00000000000E+00  0.40000000000E+02  0.40000000000E+02  0.00000000000E+00 0. -1.
        -11   -1    0    0    0    0 -0.00000000000E+00 -0.00000000000E+00 -0.40000000000E+02  0.40000000000E+02  0.00000000000E+00 0.  1.
         23    2    1    2    0    0  0.00000000000E+00  0.00000000000E+00  0.00000000000E+00  0.80000000000E+02  0.80000000000E+02 0.  0.
          5    1    3    3  501    0  0.26648986020E+02  0.49057910283E+01  0.29046079916E+02  0.40000000000E+02  0.47000000000E+01 0. -1.
         -5    1    3    3    0  501 -0.26648986020E+02 -0.49057910283E+01 -0.29046079916E+02  0.40000000000E+02  0.47000000000E+01 0.  1.
</event>
<event>
 5    1  0.4872488E-001  0.8000000E+02  0.7546771E-02  0.1203772E+00
         11   -1    0    0    0    0  0.00000000000E+00  0.00000000000E+00  0.40000000000E+02  0.40000000000E+02  0.00000000000E+00 0.  1.
        -11   -1    0    0    0    0 -0.00000000000E+00 -0.00000000000E+00 -0.40000000000E+02  0.40000000000E+02  0.00000000000E+00 0. -1.
         23    2    1    2    0    0  0.00000000000E+00  0.00000000000E+00  0.00000000000E+00  0.80000000000E+02  0.80000000000E+02 0.  0.
          5    1    3    3  501    0 -0.28701511417E+02  0.10643015161E+02 -0.25315202363E+02  0.40000000000E+02  0.47000000000E+01 0. -1.
         -5    1    3    3    0  501  0.28701511417E+02 -0.10643015161E+02  0.25315202363E+02  0.40000000000E+02  0.47000000000E+01 0.  1.
</event>
<event>
 5    1  0.4872488E-001  0.8000000E+02  0.7546771E-02  0.1203772E+00
         11   -1    0    0    0    0  0.00000000000E+00  0.00000000000E+00  0.40000000000E+02  0.40000000000E+02  0.00000000000E+00 0.  1.
        -11   -1    0    0    0    0 -0.00000000000E+00 -0.00000000000E+00 -0.40000000000E+02  0.40000000000E+02  0.00000000000E+00 0. -1.
         23    2    1    2    0    0  0.00000000000E+00  0.00000000000E+00  0.00000000000E+00  0.80000000000E+02  0.80000000000E+02 0.  0.
          5    1    3    3  501    0  0.31215796979E+02 -0.24563802424E+02  0.32191527014E+00  0.40000000000E+02  0.47000000000E+01 0. -1.
         -5    1    3    3    0  501 -0.31215796979E+02  0.24563802424E+02 -0.32191527014E+00  0.40000000000E+02  0.47000000000E+01 0.  1.
</event>
<event>
 5    1  0.4872488E-001  0.8000000E+02  0.7546771E-02  0.1203772E+00
         11   -1    0    0    0    0  0.00000000000E+00  0.00000000000E+00  0.40000000000E+02  0.40000000000E+02  0.00000000000E+00 0.  1.
        -11   -1    0    0    0    0 -0.00000000000E+00 -0.00000000000E+00 -0.40000000000E+02  0.40000000000E+02  0.00000000000E+00 0. -1.
         23    2    1    2    0    0  0.00000000000E+00  0.00000000000E+00  0.00000000000E+00  0.80000000000E+02  0.80000000000E+02 0.  0.
          5    1    3    3  501    0  0.19481709158E+02 -0.22313683474E+02 -0.26466441735E+02  0.40000000000E+02  0.47000000000E+01 0. -1.
         -5    1    3    3    0  501 -0.19481709158E+02  0.22313683474E+02  0.26466441735E+02  0.40000000000E+02  0.47000000000E+01 0.  1.
</event>
<event>
 5    1  0.4872488E-001  0.8000000E+02  0.7546771E-02  0.1203772E+00
         11   -1    0    0    0    0  0.00000000000E+00  0.00000000000E+00  0.40000000000E+02  0.40000000000E+02  0.00000000000E+00 0.  1.
        -11   -1    0    0    0    0 -0.00000000000E+00 -0.00000000000E+00 -0.40000000000E+02  0.40000000000E+02  0.00000000000E+00 0. -1.
         23    2    1    2    0    0  0.00000000000E+00  0.00000000000E+00  0.00000000000E+00  0.80000000000E+02  0.80000000000E+02 0.  0.
          5    1    3    3  501    0  0.35486425882E+02  0.34471525166E+01 -0.17514014893E+02  0.40000000000E+02  0.47000000000E+01 0. -1.
         -5    1    3    3    0  501 -0.35486425882E+02 -0.34471525166E+01  0.17514014893E+02  0.40000000000E+02  0.47000000000E+01 0.  1.
</event>
<event>
 5    1  0.4872488E-001  0.8000000E+02  0.7546771E-02  0.1203772E+00
         11   -1    0    0    0    0  0.00000000000E+00  0.00000000000E+00  0.40000000000E+02  0.40000000000E+02  0.00000000000E+00 0. -1.
        -11   -1    0    0    0    0 -0.00000000000E+00 -0.00000000000E+00 -0.40000000000E+02  0.40000000000E+02  0.00000000000E+00 0.  1.
         23    2    1    2    0    0  0.00000000000E+00  0.00000000000E+00  0.00000000000E+00  0.80000000000E+02  0.80000000000E+02 0.  0.
          5    1    3    3  501    0 -0.63743470164E+01 -0.22465875911E+02  0.32133504628E+02  0.40000000000E+02  0.47000000000E+01 0. -1.
         -5    1    3    3    0  501  0.63743470164E+01  0.22465875911E+02 -0.32133504628E+02  0.40000000000E+02  0.47000000000E+01 0.  1.
</event>
<event>
 5    1  0.4872488E-001  0.8000000E+02  0.7546771E-02  0.1203772E+00
         11   -1    0    0    0    0  0.00000000000E+00  0.00000000000E+00  0.40000000000E+02  0.40000000000E+02  0.00000000000E+00 0.  1.
        -11   -1    0    0    0    0 -0.00000000000E+00 -0.00000000000E+00 -0.40000000000E+02  0.40000000000E+02  0.00000000000E+00 0. -1.
         23    2    1    2    0    0  0.00000000000E+00  0.00000000000E+00  0.00000000000E+00  0.80000000000E+02  0.80000000000E+02 0.  0.
          5    1    3    3  501    0 -0.52184313037E+01  0.26364972788E+02 -0.29250062985E+02  0.40000000000E+02  0.47000000000E+01 0. -1.
         -5    1    3    3    0  501  0.52184313037E+01 -0.26364972788E+02  0.29250062985E+02  0.40000000000E+02  0.47000000000E+01 0.  1.
</event>
<event>
 5    1  0.4872488E-001  0.8000000E+02  0.7546771E-02  0.1203772E+00
         11   -1    0    0    0    0  0.00000000000E+00  0.00000000000E+00  0.40000000000E+02  0.40000000000E+02  0.00000000000E+00 0.  1.
        -11   -1    0    0    0    0 -0.00000000000E+00 -0.00000000000E+00 -0.40000000000E+02  0.40000000000E+02  0.00000000000E+00 0. -1.
         23    2    1    2    0    0  0.00000000000E+00  0.00000000000E+00  0.00000000000E+00  0.80000000000E+02  0.80000000000E+02 0.  0.
          5    1    3    3  501    0 -0.69986467188E+01 -0.15163393477E+02 -0.36041648719E+02  0.40000000000E+02  0.47000000000E+01 0. -1.
         -5    1    3    3    0  501  0.69986467188E+01  0.15163393477E+02  0.36041648719E+02  0.40000000000E+02  0.47000000000E+01 0.  1.
</event>
<event>
 5    1  0.4872488E-001  0.8000000E+02  0.7546771E-02  0.1203772E+00
         11   -1    0    0    0    0  0.00000000000E+00  0.00000000000E+00  0.40000000000E+02  0.40000000000E+02  0.00000000000E+00 0. -1.
        -11   -1    0    0    0    0 -0.00000000000E+00 -0.00000000000E+00 -0.40000000000E+02  0.40000000000E+02  0.00000000000E+00 0.  1.
         23    2    1    2    0    0  0.00000000000E+00  0.00000000000E+00  0.00000000000E+00  0.80000000000E+02  0.80000000000E+02 0.  0.
          5    1    3    3  501    0 -0.16427157508E+02 -0.23500377890E+02  0.27491648464E+02  0.40000000000E+02  0.47000000000E+01 0. -1.
         -5    1    3    3    0  501  0.16427157508E+02  0.23500377890E+02 -0.27491648464E+02  0.40000000000E+02  0.47000000000E+01 0.  1.
</event>
<event>
 5    1  0.4872488E-001  0.8000000E+02  0.7546771E-02  0.1203772E+00
         11   -1    0    0    0    0  0.00000000000E+00  0.00000000000E+00  0.40000000000E+02  0.40000000000E+02  0.00000000000E+00 0. -1.
        -11   -1    0    0    0    0 -0.00000000000E+00 -0.00000000000E+00 -0.40000000000E+02  0.40000000000E+02  0.00000000000E+00 0.  1.
         23    2    1    2    0    0  0.00000000000E+00  0.00000000000E+00  0.00000000000E+00  0.80000000000E+02  0.80000000000E+02 0.  0.
          5    1    3    3  501    0  0.51511749925E+01 -0.43301712680E+01  0.39148754935E+02  0.40000000000E+02  0.47000000000E+01 0. -1.
         -5    1    3    3    0  501 -0.51511749925E+01  0.43301712680E+01 -0.39148754935E+02  0.40000000000E+02  0.47000000000E+01 0.  1.
</event>
<event>
 5    1  0.4872488E-001  0.8000000E+02  0.7546771E-02  0.1203772E+00
         11   -1    0    0    0    0  0.00000000000E+00  0.00000000000E+00  0.40000000000E+02  0.40000000000E+02  0.00000000000E+00 0.  1.
        -11   -1    0    0    0    0 -0.00000000000E+00 -0.00000000000E+00 -0.40000000000E+02  0.40000000000E+02  0.00000000000E+00 0. -1.
         23    2    1    2    0    0  0.00000000000E+00  0.00000000000E+00  0.00000000000E+00  0.80000000000E+02  0.80000000000E+02 0.  0.
          5    1    3    3  501    0 -0.16337937394E+02 -0.35705632401E+01 -0.36030998874E+02  0.40000000000E+02  0.47000000000E+01 0. -1.
         -5    1    3    3    0  501  0.16337937394E+02  0.35705632401E+01  0.36030998874E+02  0.40000000000E+02  0.47000000000E+01 0.  1.
</event>
<event>
 5    1  0.4872488E-001  0.8000000E+02  0.7546771E-02  0.1203772E+00
         11   -1    0    0    0    0  0.00000000000E+00  0.00000000000E+00  0.40000000000E+02  0.40000000000E+02  0.00000000000E+00 0.  1.
        -11   -1    0    0    0    0 -0.00000000000E+00 -0.00000000000E+00 -0.40000000000E+02  0.40000000000E+02  0.00000000000E+00 0. -1.
         23    2    1    2    0    0  0.00000000000E+00  0.00000000000E+00  0.00000000000E+00  0.80000000000E+02  0.80000000000E+02 0.  0.
          5    1    3    3  501    0 -0.36171060203E+02  0.75320438289E+01 -0.14588787461E+02  0.40000000000E+02  0.47000000000E+01 0. -1.
         -5    1    3    3    0  501  0.36171060203E+02 -0.75320438289E+01  0.14588787461E+02  0.40000000000E+02  0.47000000000E+01 0.  1.
</event>
<event>
 5    1  0.4872488E-001  0.8000000E+02  0.7546771E-02  0.1203772E+00
         11   -1    0    0    0    0  0.00000000000E+00  0.00000000000E+00  0.40000000000E+02  0.40000000000E+02  0.00000000000E+00 0.  1.
        -11   -1    0    0    0    0 -0.00000000000E+00 -0.00000000000E+00 -0.40000000000E+02  0.40000000000E+02  0.00000000000E+00 0. -1.
         23    2    1    2    0    0  0.00000000000E+00  0.00000000000E+00  0.00000000000E+00  0.80000000000E+02  0.80000000000E+02 0.  0.
          5    1    3    3  501    0 -0.12110644831E+02 -0.32885420962E+02 -0.18702710230E+02  0.40000000000E+02  0.47000000000E+01 0. -1.
         -5    1    3    3    0  501  0.12110644831E+02  0.32885420962E+02  0.18702710230E+02  0.40000000000E+02  0.47000000000E+01 0.  1.
</event>
<event>
 5    1  0.4872488E-001  0.8000000E+02  0.7546771E-02  0.1203772E+00
         11   -1    0    0    0    0  0.00000000000E+00  0.00000000000E+00  0.40000000000E+02  0.40000000000E+02  0.00000000000E+00 0. -1.
        -11   -1    0    0    0    0 -0.00000000000E+00 -0.00000000000E+00 -0.40000000000E+02  0.40000000000E+02  0.00000000000E+00 0.  1.
         23    2    1    2    0    0  0.00000000000E+00  0.00000000000E+00  0.00000000000E+00  0.80000000000E+02  0.80000000000E+02 0.  0.
          5    1    3    3  501    0 -0.32317246179E+02  0.71015602328E+01  0.21978931768E+02  0.40000000000E+02  0.47000000000E+01 0. -1.
         -5    1    3    3    0  501  0.32317246179E+02 -0.71015602328E+01 -0.21978931768E+02  0.40000000000E+02  0.47000000000E+01 0.  1.
</event>
<event>
 5    1  0.4872488E-001  0.8000000E+02  0.7546771E-02  0.1203772E+00
         11   -1    0    0    0    0  0.00000000000E+00  0.00000000000E+00  0.40000000000E+02  0.40000000000E+02  0.00000000000E+00 0.  1.
        -11   -1    0    0    0    0 -0.00000000000E+00 -0.00000000000E+00 -0.40000000000E+02  0.40000000000E+02  0.00000000000E+00 0. -1.
         23    2    1    2    0    0  0.00000000000E+00  0.00000000000E+00  0.00000000000E+00  0.80000000000E+02  0.80000000000E+02 0.  0.
          5    1    3    3  501    0 -0.87482564003E+01  0.93607267247E+01 -0.37599930919E+02  0.40000000000E+02  0.47000000000E+01 0. -1.
         -5    1    3    3    0  501  0.87482564003E+01 -0.93607267247E+01  0.37599930919E+02  0.40000000000E+02  0.47000000000E+01 0.  1.
</event>
<event>
 5    1  0.4872488E-001  0.8000000E+02  0.7546771E-02  0.1203772E+00
         11   -1    0    0    0    0  0.00000000000E+00  0.00000000000E+00  0.40000000000E+02  0.40000000000E+02  0.00000000000E+00 0.  1.
        -11   -1    0    0    0    0 -0.00000000000E+00 -0.00000000000E+00 -0.40000000000E+02  0.40000000000E+02  0.00000000000E+00 0. -1.
         23    2    1    2    0    0  0.00000000000E+00  0.00000000000E+00  0.00000000000E+00  0.80000000000E+02  0.80000000000E+02 0.  0.
          5    1    3    3  501    0  0.21492546682E+02  0.11682737664E+02 -0.31296870096E+02  0.40000000000E+02  0.47000000000E+01 0. -1.
         -5    1    3    3    0  501 -0.21492546682E+02 -0.11682737664E+02  0.31296870096E+02  0.40000000000E+02  0.47000000000E+01 0.  1.
</event>
<event>
 5    1  0.4872488E-001  0.8000000E+02  0.7546771E-02  0.1203772E+00
         11   -1    0    0    0    0  0.00000000000E+00  0.00000000000E+00  0.40000000000E+02  0.40000000000E+02  0.00000000000E+00 0.  1.
        -11   -1    0    0    0    0 -0.00000000000E+00 -0.00000000000E+00 -0.40000000000E+02  0.40000000000E+02  0.00000000000E+00 0. -1.
         23    2    1    2    0    0  0.00000000000E+00  0.00000000000E+00  0.00000000000E+00  0.80000000000E+02  0.80000000000E+02 0.  0.
          5    1    3    3  501    0 -0.23804719376E+02  0.20623827524E+02 -0.24205434797E+02  0.40000000000E+02  0.47000000000E+01 0. -1.
         -5    1    3    3    0  501  0.23804719376E+02 -0.20623827524E+02  0.24205434797E+02  0.40000000000E+02  0.47000000000E+01 0.  1.
</event>
<event>
 5    1  0.4872488E-001  0.8000000E+02  0.7546771E-02  0.1203772E+00
         11   -1    0    0    0    0  0.00000000000E+00  0.00000000000E+00  0.40000000000E+02  0.40000000000E+02  0.00000000000E+00 0.  1.
        -11   -1    0    0    0    0 -0.00000000000E+00 -0.00000000000E+00 -0.40000000000E+02  0.40000000000E+02  0.00000000000E+00 0. -1.
         23    2    1    2    0    0  0.00000000000E+00  0.00000000000E+00  0.00000000000E+00  0.80000000000E+02  0.80000000000E+02 0.  0.
          5    1    3    3  501    0  0.25331209643E+02  0.28930716015E+02 -0.99626045231E+01  0.40000000000E+02  0.47000000000E+01 0. -1.
         -5    1    3    3    0  501 -0.25331209643E+02 -0.28930716015E+02  0.99626045231E+01  0.40000000000E+02  0.47000000000E+01 0.  1.
</event>
<event>
 5    1  0.4872488E-001  0.8000000E+02  0.7546771E-02  0.1203772E+00
         11   -1    0    0    0    0  0.00000000000E+00  0.00000000000E+00  0.40000000000E+02  0.40000000000E+02  0.00000000000E+00 0.  1.
        -11   -1    0    0    0    0 -0.00000000000E+00 -0.00000000000E+00 -0.40000000000E+02  0.40000000000E+02  0.00000000000E+00 0. -1.
         23    2    1    2    0    0  0.00000000000E+00  0.00000000000E+00  0.00000000000E+00  0.80000000000E+02  0.80000000000E+02 0.  0.
          5    1    3    3  501    0 -0.31395009542E+02 -0.23482858989E+02  0.63889521481E+01  0.40000000000E+02  0.47000000000E+01 0. -1.
         -5    1    3    3    0  501  0.31395009542E+02  0.23482858989E+02 -0.63889521481E+01  0.40000000000E+02  0.47000000000E+01 0.  1.
</event>
<event>
 5    1  0.4872488E-001  0.8000000E+02  0.7546771E-02  0.1203772E+00
         11   -1    0    0    0    0  0.00000000000E+00  0.00000000000E+00  0.40000000000E+02  0.40000000000E+02  0.00000000000E+00 0.  1.
        -11   -1    0    0    0    0 -0.00000000000E+00 -0.00000000000E+00 -0.40000000000E+02  0.40000000000E+02  0.00000000000E+00 0. -1.
         23    2    1    2    0    0  0.00000000000E+00  0.00000000000E+00  0.00000000000E+00  0.80000000000E+02  0.80000000000E+02 0.  0.
          5    1    3    3  501    0  0.77360435600E+01 -0.17834904972E+02 -0.34640724511E+02  0.40000000000E+02  0.47000000000E+01 0. -1.
         -5    1    3    3    0  501 -0.77360435600E+01  0.17834904972E+02  0.34640724511E+02  0.40000000000E+02  0.47000000000E+01 0.  1.
</event>
<event>
 5    1  0.4872488E-001  0.8000000E+02  0.7546771E-02  0.1203772E+00
         11   -1    0    0    0    0  0.00000000000E+00  0.00000000000E+00  0.40000000000E+02  0.40000000000E+02  0.00000000000E+00 0. -1.
        -11   -1    0    0    0    0 -0.00000000000E+00 -0.00000000000E+00 -0.40000000000E+02  0.40000000000E+02  0.00000000000E+00 0.  1.
         23    2    1    2    0    0  0.00000000000E+00  0.00000000000E+00  0.00000000000E+00  0.80000000000E+02  0.80000000000E+02 0.  0.
          5    1    3    3  501    0 -0.12966669916E+02  0.37219246297E+02  0.49500683220E+01  0.40000000000E+02  0.47000000000E+01 0. -1.
         -5    1    3    3    0  501  0.12966669916E+02 -0.37219246297E+02 -0.49500683220E+01  0.40000000000E+02  0.47000000000E+01 0.  1.
</event>
<event>
 5    1  0.4872488E-001  0.8000000E+02  0.7546771E-02  0.1203772E+00
         11   -1    0    0    0    0  0.00000000000E+00  0.00000000000E+00  0.40000000000E+02  0.40000000000E+02  0.00000000000E+00 0.  1.
        -11   -1    0    0    0    0 -0.00000000000E+00 -0.00000000000E+00 -0.40000000000E+02  0.40000000000E+02  0.00000000000E+00 0. -1.
         23    2    1    2    0    0  0.00000000000E+00  0.00000000000E+00  0.00000000000E+00  0.80000000000E+02  0.80000000000E+02 0.  0.
          5    1    3    3  501    0  0.13799109500E+02  0.34912606641E+02 -0.12984778570E+02  0.40000000000E+02  0.47000000000E+01 0. -1.
         -5    1    3    3    0  501 -0.13799109500E+02 -0.34912606641E+02  0.12984778570E+02  0.40000000000E+02  0.47000000000E+01 0.  1.
</event>
<event>
 5    1  0.4872488E-001  0.8000000E+02  0.7546771E-02  0.1203772E+00
         11   -1    0    0    0    0  0.00000000000E+00  0.00000000000E+00  0.40000000000E+02  0.40000000000E+02  0.00000000000E+00 0. -1.
        -11   -1    0    0    0    0 -0.00000000000E+00 -0.00000000000E+00 -0.40000000000E+02  0.40000000000E+02  0.00000000000E+00 0.  1.
         23    2    1    2    0    0  0.00000000000E+00  0.00000000000E+00  0.00000000000E+00  0.80000000000E+02  0.80000000000E+02 0.  0.
          5    1    3    3  501    0 -0.80226670030E+00 -0.23471974105E+02  0.32036429260E+02  0.40000000000E+02  0.47000000000E+01 0. -1.
         -5    1    3    3    0  501  0.80226670030E+00  0.23471974105E+02 -0.32036429260E+02  0.40000000000E+02  0.47000000000E+01 0.  1.
</event>
<event>
 5    1  0.4872488E-001  0.8000000E+02  0.7546771E-02  0.1203772E+00
         11   -1    0    0    0    0  0.00000000000E+00  0.00000000000E+00  0.40000000000E+02  0.40000000000E+02  0.00000000000E+00 0.  1.
        -11   -1    0    0    0    0 -0.00000000000E+00 -0.00000000000E+00 -0.40000000000E+02  0.40000000000E+02  0.00000000000E+00 0. -1.
         23    2    1    2    0    0  0.00000000000E+00  0.00000000000E+00  0.00000000000E+00  0.80000000000E+02  0.80000000000E+02 0.  0.
          5    1    3    3  501    0  0.75508327784E+00 -0.72798704891E-01 -0.39715671335E+02  0.40000000000E+02  0.47000000000E+01 0. -1.
         -5    1    3    3    0  501 -0.75508327784E+00  0.72798704891E-01  0.39715671335E+02  0.40000000000E+02  0.47000000000E+01 0.  1.
</event>
<event>
 5    1  0.4872488E-001  0.8000000E+02  0.7546771E-02  0.1203772E+00
         11   -1    0    0    0    0  0.00000000000E+00  0.00000000000E+00  0.40000000000E+02  0.40000000000E+02  0.00000000000E+00 0. -1.
        -11   -1    0    0    0    0 -0.00000000000E+00 -0.00000000000E+00 -0.40000000000E+02  0.40000000000E+02  0.00000000000E+00 0.  1.
         23    2    1    2    0    0  0.00000000000E+00  0.00000000000E+00  0.00000000000E+00  0.80000000000E+02  0.80000000000E+02 0.  0.
          5    1    3    3  501    0 -0.69594813616E+01  0.10729400589E+00  0.39108363647E+02  0.40000000000E+02  0.47000000000E+01 0. -1.
         -5    1    3    3    0  501  0.69594813616E+01 -0.10729400589E+00 -0.39108363647E+02  0.40000000000E+02  0.47000000000E+01 0.  1.
</event>
<event>
 5    1  0.4872488E-001  0.8000000E+02  0.7546771E-02  0.1203772E+00
         11   -1    0    0    0    0  0.00000000000E+00  0.00000000000E+00  0.40000000000E+02  0.40000000000E+02  0.00000000000E+00 0. -1.
        -11   -1    0    0    0    0 -0.00000000000E+00 -0.00000000000E+00 -0.40000000000E+02  0.40000000000E+02  0.00000000000E+00 0.  1.
         23    2    1    2    0    0  0.00000000000E+00  0.00000000000E+00  0.00000000000E+00  0.80000000000E+02  0.80000000000E+02 0.  0.
          5    1    3    3  501    0 -0.29182435710E+02 -0.20885942380E+01 -0.26868815012E+02  0.40000000000E+02  0.47000000000E+01 0.  1.
         -5    1    3    3    0  501  0.29182435710E+02  0.20885942380E+01  0.26868815012E+02  0.40000000000E+02  0.47000000000E+01 0. -1.
</event>
<event>
 5    1  0.4872488E-001  0.8000000E+02  0.7546771E-02  0.1203772E+00
         11   -1    0    0    0    0  0.00000000000E+00  0.00000000000E+00  0.40000000000E+02  0.40000000000E+02  0.00000000000E+00 0. -1.
        -11   -1    0    0    0    0 -0.00000000000E+00 -0.00000000000E+00 -0.40000000000E+02  0.40000000000E+02  0.00000000000E+00 0.  1.
         23    2    1    2    0    0  0.00000000000E+00  0.00000000000E+00  0.00000000000E+00  0.80000000000E+02  0.80000000000E+02 0.  0.
          5    1    3    3  501    0 -0.15737677599E+02  0.15233918703E+01  0.36440565048E+02  0.40000000000E+02  0.47000000000E+01 0. -1.
         -5    1    3    3    0  501  0.15737677599E+02 -0.15233918703E+01 -0.36440565048E+02  0.40000000000E+02  0.47000000000E+01 0.  1.
</event>
<event>
 5    1  0.4872488E-001  0.8000000E+02  0.7546771E-02  0.1203772E+00
         11   -1    0    0    0    0  0.00000000000E+00  0.00000000000E+00  0.40000000000E+02  0.40000000000E+02  0.00000000000E+00 0. -1.
        -11   -1    0    0    0    0 -0.00000000000E+00 -0.00000000000E+00 -0.40000000000E+02  0.40000000000E+02  0.00000000000E+00 0.  1.
         23    2    1    2    0    0  0.00000000000E+00  0.00000000000E+00  0.00000000000E+00  0.80000000000E+02  0.80000000000E+02 0.  0.
          5    1    3    3  501    0 -0.20480028488E+02  0.28114600368E+02 -0.19184568781E+02  0.40000000000E+02  0.47000000000E+01 0.  1.
         -5    1    3    3    0  501  0.20480028488E+02 -0.28114600368E+02  0.19184568781E+02  0.40000000000E+02  0.47000000000E+01 0. -1.
</event>
<event>
 5    1  0.4872488E-001  0.8000000E+02  0.7546771E-02  0.1203772E+00
         11   -1    0    0    0    0  0.00000000000E+00  0.00000000000E+00  0.40000000000E+02  0.40000000000E+02  0.00000000000E+00 0. -1.
        -11   -1    0    0    0    0 -0.00000000000E+00 -0.00000000000E+00 -0.40000000000E+02  0.40000000000E+02  0.00000000000E+00 0.  1.
         23    2    1    2    0    0  0.00000000000E+00  0.00000000000E+00  0.00000000000E+00  0.80000000000E+02  0.80000000000E+02 0.  0.
          5    1    3    3  501    0 -0.35581867162E+02  0.15802418282E+02  0.78818973426E+01  0.40000000000E+02  0.47000000000E+01 0. -1.
         -5    1    3    3    0  501  0.35581867162E+02 -0.15802418282E+02 -0.78818973426E+01  0.40000000000E+02  0.47000000000E+01 0.  1.
</event>
<event>
 5    1  0.4872488E-001  0.8000000E+02  0.7546771E-02  0.1203772E+00
         11   -1    0    0    0    0  0.00000000000E+00  0.00000000000E+00  0.40000000000E+02  0.40000000000E+02  0.00000000000E+00 0. -1.
        -11   -1    0    0    0    0 -0.00000000000E+00 -0.00000000000E+00 -0.40000000000E+02  0.40000000000E+02  0.00000000000E+00 0.  1.
         23    2    1    2    0    0  0.00000000000E+00  0.00000000000E+00  0.00000000000E+00  0.80000000000E+02  0.80000000000E+02 0.  0.
          5    1    3    3  501    0  0.32790549836E+02 -0.16501003257E+02  0.15179154554E+02  0.40000000000E+02  0.47000000000E+01 0. -1.
         -5    1    3    3    0  501 -0.32790549836E+02  0.16501003257E+02 -0.15179154554E+02  0.40000000000E+02  0.47000000000E+01 0.  1.
</event>
<event>
 5    1  0.4872488E-001  0.8000000E+02  0.7546771E-02  0.1203772E+00
         11   -1    0    0    0    0  0.00000000000E+00  0.00000000000E+00  0.40000000000E+02  0.40000000000E+02  0.00000000000E+00 0.  1.
        -11   -1    0    0    0    0 -0.00000000000E+00 -0.00000000000E+00 -0.40000000000E+02  0.40000000000E+02  0.00000000000E+00 0. -1.
         23    2    1    2    0    0  0.00000000000E+00  0.00000000000E+00  0.00000000000E+00  0.80000000000E+02  0.80000000000E+02 0.  0.
          5    1    3    3  501    0 -0.18375183784E+02  0.19453539990E+02 -0.29356811863E+02  0.40000000000E+02  0.47000000000E+01 0. -1.
         -5    1    3    3    0  501  0.18375183784E+02 -0.19453539990E+02  0.29356811863E+02  0.40000000000E+02  0.47000000000E+01 0.  1.
</event>
<event>
 5    1  0.4872488E-001  0.8000000E+02  0.7546771E-02  0.1203772E+00
         11   -1    0    0    0    0  0.00000000000E+00  0.00000000000E+00  0.40000000000E+02  0.40000000000E+02  0.00000000000E+00 0.  1.
        -11   -1    0    0    0    0 -0.00000000000E+00 -0.00000000000E+00 -0.40000000000E+02  0.40000000000E+02  0.00000000000E+00 0. -1.
         23    2    1    2    0    0  0.00000000000E+00  0.00000000000E+00  0.00000000000E+00  0.80000000000E+02  0.80000000000E+02 0.  0.
          5    1    3    3  501    0  0.12901493483E+02 -0.11035454290E+02 -0.35912117934E+02  0.40000000000E+02  0.47000000000E+01 0. -1.
         -5    1    3    3    0  501 -0.12901493483E+02  0.11035454290E+02  0.35912117934E+02  0.40000000000E+02  0.47000000000E+01 0.  1.
</event>
<event>
 5    1  0.4872488E-001  0.8000000E+02  0.7546771E-02  0.1203772E+00
         11   -1    0    0    0    0  0.00000000000E+00  0.00000000000E+00  0.40000000000E+02  0.40000000000E+02  0.00000000000E+00 0. -1.
        -11   -1    0    0    0    0 -0.00000000000E+00 -0.00000000000E+00 -0.40000000000E+02  0.40000000000E+02  0.00000000000E+00 0.  1.
         23    2    1    2    0    0  0.00000000000E+00  0.00000000000E+00  0.00000000000E+00  0.80000000000E+02  0.80000000000E+02 0.  0.
          5    1    3    3  501    0  0.29648389008E+02  0.26292802590E+02 -0.27516469988E+01  0.40000000000E+02  0.47000000000E+01 0. -1.
         -5    1    3    3    0  501 -0.29648389008E+02 -0.26292802590E+02  0.27516469988E+01  0.40000000000E+02  0.47000000000E+01 0.  1.
</event>
<event>
 5    1  0.4872488E-001  0.8000000E+02  0.7546771E-02  0.1203772E+00
         11   -1    0    0    0    0  0.00000000000E+00  0.00000000000E+00  0.40000000000E+02  0.40000000000E+02  0.00000000000E+00 0.  1.
        -11   -1    0    0    0    0 -0.00000000000E+00 -0.00000000000E+00 -0.40000000000E+02  0.40000000000E+02  0.00000000000E+00 0. -1.
         23    2    1    2    0    0  0.00000000000E+00  0.00000000000E+00  0.00000000000E+00  0.80000000000E+02  0.80000000000E+02 0.  0.
          5    1    3    3  501    0 -0.34570193248E+01  0.34481910833E+02 -0.19415376449E+02  0.40000000000E+02  0.47000000000E+01 0. -1.
         -5    1    3    3    0  501  0.34570193248E+01 -0.34481910833E+02  0.19415376449E+02  0.40000000000E+02  0.47000000000E+01 0.  1.
</event>
<event>
 5    1  0.4872488E-001  0.8000000E+02  0.7546771E-02  0.1203772E+00
         11   -1    0    0    0    0  0.00000000000E+00  0.00000000000E+00  0.40000000000E+02  0.40000000000E+02  0.00000000000E+00 0. -1.
        -11   -1    0    0    0    0 -0.00000000000E+00 -0.00000000000E+00 -0.40000000000E+02  0.40000000000E+02  0.00000000000E+00 0.  1.
         23    2    1    2    0    0  0.00000000000E+00  0.00000000000E+00  0.00000000000E+00  0.80000000000E+02  0.80000000000E+02 0.  0.
          5    1    3    3  501    0  0.12846608572E+02  0.35353814486E+02 -0.12766457985E+02  0.40000000000E+02  0.47000000000E+01 0.  1.
         -5    1    3    3    0  501 -0.12846608572E+02 -0.35353814486E+02  0.12766457985E+02  0.40000000000E+02  0.47000000000E+01 0. -1.
</event>
<event>
 5    1  0.4872488E-001  0.8000000E+02  0.7546771E-02  0.1203772E+00
         11   -1    0    0    0    0  0.00000000000E+00  0.00000000000E+00  0.40000000000E+02  0.40000000000E+02  0.00000000000E+00 0.  1.
        -11   -1    0    0    0    0 -0.00000000000E+00 -0.00000000000E+00 -0.40000000000E+02  0.40000000000E+02  0.00000000000E+00 0. -1.
         23    2    1    2    0    0  0.00000000000E+00  0.00000000000E+00  0.00000000000E+00  0.80000000000E+02  0.80000000000E+02 0.  0.
          5    1    3    3  501    0 -0.14059832051E+02  0.27616860757E+02 -0.24850354618E+02  0.40000000000E+02  0.47000000000E+01 0. -1.
         -5    1    3    3    0  501  0.14059832051E+02 -0.27616860757E+02  0.24850354618E+02  0.40000000000E+02  0.47000000000E+01 0.  1.
</event>
<event>
 5    1  0.4872488E-001  0.8000000E+02  0.7546771E-02  0.1203772E+00
         11   -1    0    0    0    0  0.00000000000E+00  0.00000000000E+00  0.40000000000E+02  0.40000000000E+02  0.00000000000E+00 0. -1.
        -11   -1    0    0    0    0 -0.00000000000E+00 -0.00000000000E+00 -0.40000000000E+02  0.40000000000E+02  0.00000000000E+00 0.  1.
         23    2    1    2    0    0  0.00000000000E+00  0.00000000000E+00  0.00000000000E+00  0.80000000000E+02  0.80000000000E+02 0.  0.
          5    1    3    3  501    0 -0.25754514437E+02 -0.26464231279E+02  0.14637603933E+02  0.40000000000E+02  0.47000000000E+01 0. -1.
         -5    1    3    3    0  501  0.25754514437E+02  0.26464231279E+02 -0.14637603933E+02  0.40000000000E+02  0.47000000000E+01 0.  1.
</event>
<event>
 5    1  0.4872488E-001  0.8000000E+02  0.7546771E-02  0.1203772E+00
         11   -1    0    0    0    0  0.00000000000E+00  0.00000000000E+00  0.40000000000E+02  0.40000000000E+02  0.00000000000E+00 0.  1.
        -11   -1    0    0    0    0 -0.00000000000E+00 -0.00000000000E+00 -0.40000000000E+02  0.40000000000E+02  0.00000000000E+00 0. -1.
         23    2    1    2    0    0  0.00000000000E+00  0.00000000000E+00  0.00000000000E+00  0.80000000000E+02  0.80000000000E+02 0.  0.
          5    1    3    3  501    0  0.17072481324E+02  0.99289741914E+01 -0.34465284751E+02  0.40000000000E+02  0.47000000000E+01 0. -1.
         -5    1    3    3    0  501 -0.17072481324E+02 -0.99289741914E+01  0.34465284751E+02  0.40000000000E+02  0.47000000000E+01 0.  1.
</event>
<event>
 5    1  0.4872488E-001  0.8000000E+02  0.7546771E-02  0.1203772E+00
         11   -1    0    0    0    0  0.00000000000E+00  0.00000000000E+00  0.40000000000E+02  0.40000000000E+02  0.00000000000E+00 0.  1.
        -11   -1    0    0    0    0 -0.00000000000E+00 -0.00000000000E+00 -0.40000000000E+02  0.40000000000E+02  0.00000000000E+00 0. -1.
         23    2    1    2    0    0  0.00000000000E+00  0.00000000000E+00  0.00000000000E+00  0.80000000000E+02  0.80000000000E+02 0.  0.
          5    1    3    3  501    0  0.14207598275E+02  0.22787437985E+02 -0.29270921088E+02  0.40000000000E+02  0.47000000000E+01 0. -1.
         -5    1    3    3    0  501 -0.14207598275E+02 -0.22787437985E+02  0.29270921088E+02  0.40000000000E+02  0.47000000000E+01 0.  1.
</event>
<event>
 5    1  0.4872488E-001  0.8000000E+02  0.7546771E-02  0.1203772E+00
         11   -1    0    0    0    0  0.00000000000E+00  0.00000000000E+00  0.40000000000E+02  0.40000000000E+02  0.00000000000E+00 0. -1.
        -11   -1    0    0    0    0 -0.00000000000E+00 -0.00000000000E+00 -0.40000000000E+02  0.40000000000E+02  0.00000000000E+00 0.  1.
         23    2    1    2    0    0  0.00000000000E+00  0.00000000000E+00  0.00000000000E+00  0.80000000000E+02  0.80000000000E+02 0.  0.
          5    1    3    3  501    0  0.19094724241E+02  0.34823520189E+02  0.78990364830E+00  0.40000000000E+02  0.47000000000E+01 0. -1.
         -5    1    3    3    0  501 -0.19094724241E+02 -0.34823520189E+02 -0.78990364830E+00  0.40000000000E+02  0.47000000000E+01 0.  1.
</event>
<event>
 5    1  0.4872488E-001  0.8000000E+02  0.7546771E-02  0.1203772E+00
         11   -1    0    0    0    0  0.00000000000E+00  0.00000000000E+00  0.40000000000E+02  0.40000000000E+02  0.00000000000E+00 0.  1.
        -11   -1    0    0    0    0 -0.00000000000E+00 -0.00000000000E+00 -0.40000000000E+02  0.40000000000E+02  0.00000000000E+00 0. -1.
         23    2    1    2    0    0  0.00000000000E+00  0.00000000000E+00  0.00000000000E+00  0.80000000000E+02  0.80000000000E+02 0.  0.
          5    1    3    3  501    0  0.31301919533E+02  0.17219307887E+02 -0.17366498479E+02  0.40000000000E+02  0.47000000000E+01 0. -1.
         -5    1    3    3    0  501 -0.31301919533E+02 -0.17219307887E+02  0.17366498479E+02  0.40000000000E+02  0.47000000000E+01 0.  1.
</event>
<event>
 5    1  0.4872488E-001  0.8000000E+02  0.7546771E-02  0.1203772E+00
         11   -1    0    0    0    0  0.00000000000E+00  0.00000000000E+00  0.40000000000E+02  0.40000000000E+02  0.00000000000E+00 0.  1.
        -11   -1    0    0    0    0 -0.00000000000E+00 -0.00000000000E+00 -0.40000000000E+02  0.40000000000E+02  0.00000000000E+00 0. -1.
         23    2    1    2    0    0  0.00000000000E+00  0.00000000000E+00  0.00000000000E+00  0.80000000000E+02  0.80000000000E+02 0.  0.
          5    1    3    3  501    0  0.83191936556E+01 -0.17084642216E+02 -0.34882890036E+02  0.40000000000E+02  0.47000000000E+01 0. -1.
         -5    1    3    3    0  501 -0.83191936556E+01  0.17084642216E+02  0.34882890036E+02  0.40000000000E+02  0.47000000000E+01 0.  1.
</event>
<event>
 5    1  0.4872488E-001  0.8000000E+02  0.7546771E-02  0.1203772E+00
         11   -1    0    0    0    0  0.00000000000E+00  0.00000000000E+00  0.40000000000E+02  0.40000000000E+02  0.00000000000E+00 0. -1.
        -11   -1    0    0    0    0 -0.00000000000E+00 -0.00000000000E+00 -0.40000000000E+02  0.40000000000E+02  0.00000000000E+00 0.  1.
         23    2    1    2    0    0  0.00000000000E+00  0.00000000000E+00  0.00000000000E+00  0.80000000000E+02  0.80000000000E+02 0.  0.
          5    1    3    3  501    0 -0.34020717392E+02  0.10399980610E+02  0.17673177174E+02  0.40000000000E+02  0.47000000000E+01 0. -1.
         -5    1    3    3    0  501  0.34020717392E+02 -0.10399980610E+02 -0.17673177174E+02  0.40000000000E+02  0.47000000000E+01 0.  1.
</event>
<event>
 5    1  0.4872488E-001  0.8000000E+02  0.7546771E-02  0.1203772E+00
         11   -1    0    0    0    0  0.00000000000E+00  0.00000000000E+00  0.40000000000E+02  0.40000000000E+02  0.00000000000E+00 0. -1.
        -11   -1    0    0    0    0 -0.00000000000E+00 -0.00000000000E+00 -0.40000000000E+02  0.40000000000E+02  0.00000000000E+00 0.  1.
         23    2    1    2    0    0  0.00000000000E+00  0.00000000000E+00  0.00000000000E+00  0.80000000000E+02  0.80000000000E+02 0.  0.
          5    1    3    3  501    0 -0.16720460116E+02  0.10815697983E+02  0.34370872707E+02  0.40000000000E+02  0.47000000000E+01 0. -1.
         -5    1    3    3    0  501  0.16720460116E+02 -0.10815697983E+02 -0.34370872707E+02  0.40000000000E+02  0.47000000000E+01 0.  1.
</event>
<event>
 5    1  0.4872488E-001  0.8000000E+02  0.7546771E-02  0.1203772E+00
         11   -1    0    0    0    0  0.00000000000E+00  0.00000000000E+00  0.40000000000E+02  0.40000000000E+02  0.00000000000E+00 0. -1.
        -11   -1    0    0    0    0 -0.00000000000E+00 -0.00000000000E+00 -0.40000000000E+02  0.40000000000E+02  0.00000000000E+00 0.  1.
         23    2    1    2    0    0  0.00000000000E+00  0.00000000000E+00  0.00000000000E+00  0.80000000000E+02  0.80000000000E+02 0.  0.
          5    1    3    3  501    0 -0.26257922977E+02  0.28000384091E+02  0.10218119775E+02  0.40000000000E+02  0.47000000000E+01 0. -1.
         -5    1    3    3    0  501  0.26257922977E+02 -0.28000384091E+02 -0.10218119775E+02  0.40000000000E+02  0.47000000000E+01 0.  1.
</event>
<event>
 5    1  0.4872488E-001  0.8000000E+02  0.7546771E-02  0.1203772E+00
         11   -1    0    0    0    0  0.00000000000E+00  0.00000000000E+00  0.40000000000E+02  0.40000000000E+02  0.00000000000E+00 0. -1.
        -11   -1    0    0    0    0 -0.00000000000E+00 -0.00000000000E+00 -0.40000000000E+02  0.40000000000E+02  0.00000000000E+00 0.  1.
         23    2    1    2    0    0  0.00000000000E+00  0.00000000000E+00  0.00000000000E+00  0.80000000000E+02  0.80000000000E+02 0.  0.
          5    1    3    3  501    0  0.18311282252E+02 -0.14421167217E+02  0.32165771845E+02  0.40000000000E+02  0.47000000000E+01 0. -1.
         -5    1    3    3    0  501 -0.18311282252E+02  0.14421167217E+02 -0.32165771845E+02  0.40000000000E+02  0.47000000000E+01 0.  1.
</event>
<event>
 5    1  0.4872488E-001  0.8000000E+02  0.7546771E-02  0.1203772E+00
         11   -1    0    0    0    0  0.00000000000E+00  0.00000000000E+00  0.40000000000E+02  0.40000000000E+02  0.00000000000E+00 0.  1.
        -11   -1    0    0    0    0 -0.00000000000E+00 -0.00000000000E+00 -0.40000000000E+02  0.40000000000E+02  0.00000000000E+00 0. -1.
         23    2    1    2    0    0  0.00000000000E+00  0.00000000000E+00  0.00000000000E+00  0.80000000000E+02  0.80000000000E+02 0.  0.
          5    1    3    3  501    0  0.17009680151E+02 -0.14896796041E+02 -0.32659856841E+02  0.40000000000E+02  0.47000000000E+01 0. -1.
         -5    1    3    3    0  501 -0.17009680151E+02  0.14896796041E+02  0.32659856841E+02  0.40000000000E+02  0.47000000000E+01 0.  1.
</event>
<event>
 5    1  0.4872488E-001  0.8000000E+02  0.7546771E-02  0.1203772E+00
         11   -1    0    0    0    0  0.00000000000E+00  0.00000000000E+00  0.40000000000E+02  0.40000000000E+02  0.00000000000E+00 0.  1.
        -11   -1    0    0    0    0 -0.00000000000E+00 -0.00000000000E+00 -0.40000000000E+02  0.40000000000E+02  0.00000000000E+00 0. -1.
         23    2    1    2    0    0  0.00000000000E+00  0.00000000000E+00  0.00000000000E+00  0.80000000000E+02  0.80000000000E+02 0.  0.
          5    1    3    3  501    0 -0.23825586965E+02  0.31747646193E+02  0.15291719798E+01  0.40000000000E+02  0.47000000000E+01 0. -1.
         -5    1    3    3    0  501  0.23825586965E+02 -0.31747646193E+02 -0.15291719798E+01  0.40000000000E+02  0.47000000000E+01 0.  1.
</event>
<event>
 5    1  0.4872488E-001  0.8000000E+02  0.7546771E-02  0.1203772E+00
         11   -1    0    0    0    0  0.00000000000E+00  0.00000000000E+00  0.40000000000E+02  0.40000000000E+02  0.00000000000E+00 0.  1.
        -11   -1    0    0    0    0 -0.00000000000E+00 -0.00000000000E+00 -0.40000000000E+02  0.40000000000E+02  0.00000000000E+00 0. -1.
         23    2    1    2    0    0  0.00000000000E+00  0.00000000000E+00  0.00000000000E+00  0.80000000000E+02  0.80000000000E+02 0.  0.
          5    1    3    3  501    0 -0.14132261965E+02 -0.25560480499E+02 -0.26923057189E+02  0.40000000000E+02  0.47000000000E+01 0. -1.
         -5    1    3    3    0  501  0.14132261965E+02  0.25560480499E+02  0.26923057189E+02  0.40000000000E+02  0.47000000000E+01 0.  1.
</event>
<event>
 5    1  0.4872488E-001  0.8000000E+02  0.7546771E-02  0.1203772E+00
         11   -1    0    0    0    0  0.00000000000E+00  0.00000000000E+00  0.40000000000E+02  0.40000000000E+02  0.00000000000E+00 0.  1.
        -11   -1    0    0    0    0 -0.00000000000E+00 -0.00000000000E+00 -0.40000000000E+02  0.40000000000E+02  0.00000000000E+00 0. -1.
         23    2    1    2    0    0  0.00000000000E+00  0.00000000000E+00  0.00000000000E+00  0.80000000000E+02  0.80000000000E+02 0.  0.
          5    1    3    3  501    0 -0.32985556470E+02 -0.12906459295E+02 -0.17980166095E+02  0.40000000000E+02  0.47000000000E+01 0. -1.
         -5    1    3    3    0  501  0.32985556470E+02  0.12906459295E+02  0.17980166095E+02  0.40000000000E+02  0.47000000000E+01 0.  1.
</event>
<event>
 5    1  0.4872488E-001  0.8000000E+02  0.7546771E-02  0.1203772E+00
         11   -1    0    0    0    0  0.00000000000E+00  0.00000000000E+00  0.40000000000E+02  0.40000000000E+02  0.00000000000E+00 0.  1.
        -11   -1    0    0    0    0 -0.00000000000E+00 -0.00000000000E+00 -0.40000000000E+02  0.40000000000E+02  0.00000000000E+00 0. -1.
         23    2    1    2    0    0  0.00000000000E+00  0.00000000000E+00  0.00000000000E+00  0.80000000000E+02  0.80000000000E+02 0.  0.
          5    1    3    3  501    0  0.35808828032E+02 -0.10155566597E+02 -0.13874519885E+02  0.40000000000E+02  0.47000000000E+01 0. -1.
         -5    1    3    3    0  501 -0.35808828032E+02  0.10155566597E+02  0.13874519885E+02  0.40000000000E+02  0.47000000000E+01 0.  1.
</event>
<event>
 5    1  0.4872488E-001  0.8000000E+02  0.7546771E-02  0.1203772E+00
         11   -1    0    0    0    0  0.00000000000E+00  0.00000000000E+00  0.40000000000E+02  0.40000000000E+02  0.00000000000E+00 0. -1.
        -11   -1    0    0    0    0 -0.00000000000E+00 -0.00000000000E+00 -0.40000000000E+02  0.40000000000E+02  0.00000000000E+00 0.  1.
         23    2    1    2    0    0  0.00000000000E+00  0.00000000000E+00  0.00000000000E+00  0.80000000000E+02  0.80000000000E+02 0.  0.
          5    1    3    3  501    0 -0.91088800988E+01  0.31994213785E+02  0.21709642734E+02  0.40000000000E+02  0.47000000000E+01 0. -1.
         -5    1    3    3    0  501  0.91088800988E+01 -0.31994213785E+02 -0.21709642734E+02  0.40000000000E+02  0.47000000000E+01 0.  1.
</event>
<event>
 5    1  0.4872488E-001  0.8000000E+02  0.7546771E-02  0.1203772E+00
         11   -1    0    0    0    0  0.00000000000E+00  0.00000000000E+00  0.40000000000E+02  0.40000000000E+02  0.00000000000E+00 0. -1.
        -11   -1    0    0    0    0 -0.00000000000E+00 -0.00000000000E+00 -0.40000000000E+02  0.40000000000E+02  0.00000000000E+00 0.  1.
         23    2    1    2    0    0  0.00000000000E+00  0.00000000000E+00  0.00000000000E+00  0.80000000000E+02  0.80000000000E+02 0.  0.
          5    1    3    3  501    0  0.28409809257E+02  0.61481407410E+01  0.27073845375E+02  0.40000000000E+02  0.47000000000E+01 0. -1.
         -5    1    3    3    0  501 -0.28409809257E+02 -0.61481407410E+01 -0.27073845375E+02  0.40000000000E+02  0.47000000000E+01 0.  1.
</event>
<event>
 5    1  0.4872488E-001  0.8000000E+02  0.7546771E-02  0.1203772E+00
         11   -1    0    0    0    0  0.00000000000E+00  0.00000000000E+00  0.40000000000E+02  0.40000000000E+02  0.00000000000E+00 0. -1.
        -11   -1    0    0    0    0 -0.00000000000E+00 -0.00000000000E+00 -0.40000000000E+02  0.40000000000E+02  0.00000000000E+00 0.  1.
         23    2    1    2    0    0  0.00000000000E+00  0.00000000000E+00  0.00000000000E+00  0.80000000000E+02  0.80000000000E+02 0.  0.
          5    1    3    3  501    0 -0.11435181327E+02 -0.86042752966E+01  0.37055540404E+02  0.40000000000E+02  0.47000000000E+01 0. -1.
         -5    1    3    3    0  501  0.11435181327E+02  0.86042752966E+01 -0.37055540404E+02  0.40000000000E+02  0.47000000000E+01 0.  1.
</event>
<event>
 5    1  0.4872488E-001  0.8000000E+02  0.7546771E-02  0.1203772E+00
         11   -1    0    0    0    0  0.00000000000E+00  0.00000000000E+00  0.40000000000E+02  0.40000000000E+02  0.00000000000E+00 0. -1.
        -11   -1    0    0    0    0 -0.00000000000E+00 -0.00000000000E+00 -0.40000000000E+02  0.40000000000E+02  0.00000000000E+00 0.  1.
         23    2    1    2    0    0  0.00000000000E+00  0.00000000000E+00  0.00000000000E+00  0.80000000000E+02  0.80000000000E+02 0.  0.
          5    1    3    3  501    0 -0.22493526385E+02  0.26098234701E+02  0.19769507233E+02  0.40000000000E+02  0.47000000000E+01 0. -1.
         -5    1    3    3    0  501  0.22493526385E+02 -0.26098234701E+02 -0.19769507233E+02  0.40000000000E+02  0.47000000000E+01 0.  1.
</event>
<event>
 5    1  0.4872488E-001  0.8000000E+02  0.7546771E-02  0.1203772E+00
         11   -1    0    0    0    0  0.00000000000E+00  0.00000000000E+00  0.40000000000E+02  0.40000000000E+02  0.00000000000E+00 0.  1.
        -11   -1    0    0    0    0 -0.00000000000E+00 -0.00000000000E+00 -0.40000000000E+02  0.40000000000E+02  0.00000000000E+00 0. -1.
         23    2    1    2    0    0  0.00000000000E+00  0.00000000000E+00  0.00000000000E+00  0.80000000000E+02  0.80000000000E+02 0.  0.
          5    1    3    3  501    0  0.33703978567E+01  0.13680155208E+02 -0.37140325413E+02  0.40000000000E+02  0.47000000000E+01 0. -1.
         -5    1    3    3    0  501 -0.33703978567E+01 -0.13680155208E+02  0.37140325413E+02  0.40000000000E+02  0.47000000000E+01 0.  1.
</event>
<event>
 5    1  0.4872488E-001  0.8000000E+02  0.7546771E-02  0.1203772E+00
         11   -1    0    0    0    0  0.00000000000E+00  0.00000000000E+00  0.40000000000E+02  0.40000000000E+02  0.00000000000E+00 0.  1.
        -11   -1    0    0    0    0 -0.00000000000E+00 -0.00000000000E+00 -0.40000000000E+02  0.40000000000E+02  0.00000000000E+00 0. -1.
         23    2    1    2    0    0  0.00000000000E+00  0.00000000000E+00  0.00000000000E+00  0.80000000000E+02  0.80000000000E+02 0.  0.
          5    1    3    3  501    0 -0.12519155791E+02 -0.24453833499E+02 -0.28691301217E+02  0.40000000000E+02  0.47000000000E+01 0. -1.
         -5    1    3    3    0  501  0.12519155791E+02  0.24453833499E+02  0.28691301217E+02  0.40000000000E+02  0.47000000000E+01 0.  1.
</event>
<event>
 5    1  0.4872488E-001  0.8000000E+02  0.7546771E-02  0.1203772E+00
         11   -1    0    0    0    0  0.00000000000E+00  0.00000000000E+00  0.40000000000E+02  0.40000000000E+02  0.00000000000E+00 0.  1.
        -11   -1    0    0    0    0 -0.00000000000E+00 -0.00000000000E+00 -0.40000000000E+02  0.40000000000E+02  0.00000000000E+00 0. -1.
         23    2    1    2    0    0  0.00000000000E+00  0.00000000000E+00  0.00000000000E+00  0.80000000000E+02  0.80000000000E+02 0.  0.
          5    1    3    3  501    0 -0.38894086361E+02 -0.39533282620E+01 -0.70378435459E+01  0.40000000000E+02  0.47000000000E+01 0. -1.
         -5    1    3    3    0  501  0.38894086361E+02  0.39533282620E+01  0.70378435459E+01  0.40000000000E+02  0.47000000000E+01 0.  1.
</event>
<event>
 5    1  0.4872488E-001  0.8000000E+02  0.7546771E-02  0.1203772E+00
         11   -1    0    0    0    0  0.00000000000E+00  0.00000000000E+00  0.40000000000E+02  0.40000000000E+02  0.00000000000E+00 0. -1.
        -11   -1    0    0    0    0 -0.00000000000E+00 -0.00000000000E+00 -0.40000000000E+02  0.40000000000E+02  0.00000000000E+00 0.  1.
         23    2    1    2    0    0  0.00000000000E+00  0.00000000000E+00  0.00000000000E+00  0.80000000000E+02  0.80000000000E+02 0.  0.
          5    1    3    3  501    0 -0.75336661546E+01  0.14708816772E+02 -0.36122078891E+02  0.40000000000E+02  0.47000000000E+01 0.  1.
         -5    1    3    3    0  501  0.75336661546E+01 -0.14708816772E+02  0.36122078891E+02  0.40000000000E+02  0.47000000000E+01 0. -1.
</event>
<event>
 5    1  0.4872488E-001  0.8000000E+02  0.7546771E-02  0.1203772E+00
         11   -1    0    0    0    0  0.00000000000E+00  0.00000000000E+00  0.40000000000E+02  0.40000000000E+02  0.00000000000E+00 0. -1.
        -11   -1    0    0    0    0 -0.00000000000E+00 -0.00000000000E+00 -0.40000000000E+02  0.40000000000E+02  0.00000000000E+00 0.  1.
         23    2    1    2    0    0  0.00000000000E+00  0.00000000000E+00  0.00000000000E+00  0.80000000000E+02  0.80000000000E+02 0.  0.
          5    1    3    3  501    0 -0.17820865924E+02 -0.13081769586E+02 -0.33002939903E+02  0.40000000000E+02  0.47000000000E+01 0.  1.
         -5    1    3    3    0  501  0.17820865924E+02  0.13081769586E+02  0.33002939903E+02  0.40000000000E+02  0.47000000000E+01 0. -1.
</event>
<event>
 5    1  0.4872488E-001  0.8000000E+02  0.7546771E-02  0.1203772E+00
         11   -1    0    0    0    0  0.00000000000E+00  0.00000000000E+00  0.40000000000E+02  0.40000000000E+02  0.00000000000E+00 0.  1.
        -11   -1    0    0    0    0 -0.00000000000E+00 -0.00000000000E+00 -0.40000000000E+02  0.40000000000E+02  0.00000000000E+00 0. -1.
         23    2    1    2    0    0  0.00000000000E+00  0.00000000000E+00  0.00000000000E+00  0.80000000000E+02  0.80000000000E+02 0.  0.
          5    1    3    3  501    0 -0.13645303737E+00 -0.64065926737E+01 -0.39202639591E+02  0.40000000000E+02  0.47000000000E+01 0. -1.
         -5    1    3    3    0  501  0.13645303737E+00  0.64065926737E+01  0.39202639591E+02  0.40000000000E+02  0.47000000000E+01 0.  1.
</event>
<event>
 5    1  0.4872488E-001  0.8000000E+02  0.7546771E-02  0.1203772E+00
         11   -1    0    0    0    0  0.00000000000E+00  0.00000000000E+00  0.40000000000E+02  0.40000000000E+02  0.00000000000E+00 0.  1.
        -11   -1    0    0    0    0 -0.00000000000E+00 -0.00000000000E+00 -0.40000000000E+02  0.40000000000E+02  0.00000000000E+00 0. -1.
         23    2    1    2    0    0  0.00000000000E+00  0.00000000000E+00  0.00000000000E+00  0.80000000000E+02  0.80000000000E+02 0.  0.
          5    1    3    3  501    0  0.18469142356E+02  0.13414431576E+02 -0.32509287998E+02  0.40000000000E+02  0.47000000000E+01 0. -1.
         -5    1    3    3    0  501 -0.18469142356E+02 -0.13414431576E+02  0.32509287998E+02  0.40000000000E+02  0.47000000000E+01 0.  1.
</event>
<event>
 5    1  0.4872488E-001  0.8000000E+02  0.7546771E-02  0.1203772E+00
         11   -1    0    0    0    0  0.00000000000E+00  0.00000000000E+00  0.40000000000E+02  0.40000000000E+02  0.00000000000E+00 0. -1.
        -11   -1    0    0    0    0 -0.00000000000E+00 -0.00000000000E+00 -0.40000000000E+02  0.40000000000E+02  0.00000000000E+00 0.  1.
         23    2    1    2    0    0  0.00000000000E+00  0.00000000000E+00  0.00000000000E+00  0.80000000000E+02  0.80000000000E+02 0.  0.
          5    1    3    3  501    0 -0.14257160002E+02  0.21260518237E+02  0.30374886880E+02  0.40000000000E+02  0.47000000000E+01 0. -1.
         -5    1    3    3    0  501  0.14257160002E+02 -0.21260518237E+02 -0.30374886880E+02  0.40000000000E+02  0.47000000000E+01 0.  1.
</event>
<event>
 5    1  0.4872488E-001  0.8000000E+02  0.7546771E-02  0.1203772E+00
         11   -1    0    0    0    0  0.00000000000E+00  0.00000000000E+00  0.40000000000E+02  0.40000000000E+02  0.00000000000E+00 0. -1.
        -11   -1    0    0    0    0 -0.00000000000E+00 -0.00000000000E+00 -0.40000000000E+02  0.40000000000E+02  0.00000000000E+00 0.  1.
         23    2    1    2    0    0  0.00000000000E+00  0.00000000000E+00  0.00000000000E+00  0.80000000000E+02  0.80000000000E+02 0.  0.
          5    1    3    3  501    0  0.42548667919E+01 -0.18727532385E+02 -0.34771908768E+02  0.40000000000E+02  0.47000000000E+01 0.  1.
         -5    1    3    3    0  501 -0.42548667919E+01  0.18727532385E+02  0.34771908768E+02  0.40000000000E+02  0.47000000000E+01 0. -1.
</event>
<event>
 5    1  0.4872488E-001  0.8000000E+02  0.7546771E-02  0.1203772E+00
         11   -1    0    0    0    0  0.00000000000E+00  0.00000000000E+00  0.40000000000E+02  0.40000000000E+02  0.00000000000E+00 0.  1.
        -11   -1    0    0    0    0 -0.00000000000E+00 -0.00000000000E+00 -0.40000000000E+02  0.40000000000E+02  0.00000000000E+00 0. -1.
         23    2    1    2    0    0  0.00000000000E+00  0.00000000000E+00  0.00000000000E+00  0.80000000000E+02  0.80000000000E+02 0.  0.
          5    1    3    3  501    0 -0.19966004721E+02  0.45144279084E+01 -0.34042452852E+02  0.40000000000E+02  0.47000000000E+01 0. -1.
         -5    1    3    3    0  501  0.19966004721E+02 -0.45144279084E+01  0.34042452852E+02  0.40000000000E+02  0.47000000000E+01 0.  1.
</event>
<event>
 5    1  0.4872488E-001  0.8000000E+02  0.7546771E-02  0.1203772E+00
         11   -1    0    0    0    0  0.00000000000E+00  0.00000000000E+00  0.40000000000E+02  0.40000000000E+02  0.00000000000E+00 0.  1.
        -11   -1    0    0    0    0 -0.00000000000E+00 -0.00000000000E+00 -0.40000000000E+02  0.40000000000E+02  0.00000000000E+00 0. -1.
         23    2    1    2    0    0  0.00000000000E+00  0.00000000000E+00  0.00000000000E+00  0.80000000000E+02  0.80000000000E+02 0.  0.
          5    1    3    3  501    0 -0.10715729474E+02 -0.47183544024E+01 -0.37958138437E+02  0.40000000000E+02  0.47000000000E+01 0. -1.
         -5    1    3    3    0  501  0.10715729474E+02  0.47183544024E+01  0.37958138437E+02  0.40000000000E+02  0.47000000000E+01 0.  1.
</event>
<event>
 5    1  0.4872488E-001  0.8000000E+02  0.7546771E-02  0.1203772E+00
         11   -1    0    0    0    0  0.00000000000E+00  0.00000000000E+00  0.40000000000E+02  0.40000000000E+02  0.00000000000E+00 0. -1.
        -11   -1    0    0    0    0 -0.00000000000E+00 -0.00000000000E+00 -0.40000000000E+02  0.40000000000E+02  0.00000000000E+00 0.  1.
         23    2    1    2    0    0  0.00000000000E+00  0.00000000000E+00  0.00000000000E+00  0.80000000000E+02  0.80000000000E+02 0.  0.
          5    1    3    3  501    0 -0.11141340804E+00  0.22970729233E+02  0.32407455710E+02  0.40000000000E+02  0.47000000000E+01 0. -1.
         -5    1    3    3    0  501  0.11141340804E+00 -0.22970729233E+02 -0.32407455710E+02  0.40000000000E+02  0.47000000000E+01 0.  1.
</event>
<event>
 5    1  0.4872488E-001  0.8000000E+02  0.7546771E-02  0.1203772E+00
         11   -1    0    0    0    0  0.00000000000E+00  0.00000000000E+00  0.40000000000E+02  0.40000000000E+02  0.00000000000E+00 0.  1.
        -11   -1    0    0    0    0 -0.00000000000E+00 -0.00000000000E+00 -0.40000000000E+02  0.40000000000E+02  0.00000000000E+00 0. -1.
         23    2    1    2    0    0  0.00000000000E+00  0.00000000000E+00  0.00000000000E+00  0.80000000000E+02  0.80000000000E+02 0.  0.
          5    1    3    3  501    0 -0.20175951560E+01 -0.27557739934E+02 -0.28537874475E+02  0.40000000000E+02  0.47000000000E+01 0. -1.
         -5    1    3    3    0  501  0.20175951560E+01  0.27557739934E+02  0.28537874475E+02  0.40000000000E+02  0.47000000000E+01 0.  1.
</event>
<event>
 5    1  0.4872488E-001  0.8000000E+02  0.7546771E-02  0.1203772E+00
         11   -1    0    0    0    0  0.00000000000E+00  0.00000000000E+00  0.40000000000E+02  0.40000000000E+02  0.00000000000E+00 0. -1.
        -11   -1    0    0    0    0 -0.00000000000E+00 -0.00000000000E+00 -0.40000000000E+02  0.40000000000E+02  0.00000000000E+00 0.  1.
         23    2    1    2    0    0  0.00000000000E+00  0.00000000000E+00  0.00000000000E+00  0.80000000000E+02  0.80000000000E+02 0.  0.
          5    1    3    3  501    0 -0.18038247582E+02  0.98067797828E+01  0.34005274509E+02  0.40000000000E+02  0.47000000000E+01 0. -1.
         -5    1    3    3    0  501  0.18038247582E+02 -0.98067797828E+01 -0.34005274509E+02  0.40000000000E+02  0.47000000000E+01 0.  1.
</event>
<event>
 5    1  0.4872488E-001  0.8000000E+02  0.7546771E-02  0.1203772E+00
         11   -1    0    0    0    0  0.00000000000E+00  0.00000000000E+00  0.40000000000E+02  0.40000000000E+02  0.00000000000E+00 0.  1.
        -11   -1    0    0    0    0 -0.00000000000E+00 -0.00000000000E+00 -0.40000000000E+02  0.40000000000E+02  0.00000000000E+00 0. -1.
         23    2    1    2    0    0  0.00000000000E+00  0.00000000000E+00  0.00000000000E+00  0.80000000000E+02  0.80000000000E+02 0.  0.
          5    1    3    3  501    0  0.30186832206E+02 -0.25230590843E+02  0.54847467646E+01  0.40000000000E+02  0.47000000000E+01 0. -1.
         -5    1    3    3    0  501 -0.30186832206E+02  0.25230590843E+02 -0.54847467646E+01  0.40000000000E+02  0.47000000000E+01 0.  1.
</event>
<event>
 5    1  0.4872488E-001  0.8000000E+02  0.7546771E-02  0.1203772E+00
         11   -1    0    0    0    0  0.00000000000E+00  0.00000000000E+00  0.40000000000E+02  0.40000000000E+02  0.00000000000E+00 0.  1.
        -11   -1    0    0    0    0 -0.00000000000E+00 -0.00000000000E+00 -0.40000000000E+02  0.40000000000E+02  0.00000000000E+00 0. -1.
         23    2    1    2    0    0  0.00000000000E+00  0.00000000000E+00  0.00000000000E+00  0.80000000000E+02  0.80000000000E+02 0.  0.
          5    1    3    3  501    0  0.35432458289E+02 -0.13386870236E+02 -0.11968400265E+02  0.40000000000E+02  0.47000000000E+01 0. -1.
         -5    1    3    3    0  501 -0.35432458289E+02  0.13386870236E+02  0.11968400265E+02  0.40000000000E+02  0.47000000000E+01 0.  1.
</event>
<event>
 5    1  0.4872488E-001  0.8000000E+02  0.7546771E-02  0.1203772E+00
         11   -1    0    0    0    0  0.00000000000E+00  0.00000000000E+00  0.40000000000E+02  0.40000000000E+02  0.00000000000E+00 0. -1.
        -11   -1    0    0    0    0 -0.00000000000E+00 -0.00000000000E+00 -0.40000000000E+02  0.40000000000E+02  0.00000000000E+00 0.  1.
         23    2    1    2    0    0  0.00000000000E+00  0.00000000000E+00  0.00000000000E+00  0.80000000000E+02  0.80000000000E+02 0.  0.
          5    1    3    3  501    0  0.85739560314E+01  0.33803111830E+02  0.19019645333E+02  0.40000000000E+02  0.47000000000E+01 0. -1.
         -5    1    3    3    0  501 -0.85739560314E+01 -0.33803111830E+02 -0.19019645333E+02  0.40000000000E+02  0.47000000000E+01 0.  1.
</event>
<event>
 5    1  0.4872488E-001  0.8000000E+02  0.7546771E-02  0.1203772E+00
         11   -1    0    0    0    0  0.00000000000E+00  0.00000000000E+00  0.40000000000E+02  0.40000000000E+02  0.00000000000E+00 0.  1.
        -11   -1    0    0    0    0 -0.00000000000E+00 -0.00000000000E+00 -0.40000000000E+02  0.40000000000E+02  0.00000000000E+00 0. -1.
         23    2    1    2    0    0  0.00000000000E+00  0.00000000000E+00  0.00000000000E+00  0.80000000000E+02  0.80000000000E+02 0.  0.
          5    1    3    3  501    0 -0.54215817164E+01 -0.25981594386E+02 -0.29554580099E+02  0.40000000000E+02  0.47000000000E+01 0. -1.
         -5    1    3    3    0  501  0.54215817164E+01  0.25981594386E+02  0.29554580099E+02  0.40000000000E+02  0.47000000000E+01 0.  1.
</event>
<event>
 5    1  0.4872488E-001  0.8000000E+02  0.7546771E-02  0.1203772E+00
         11   -1    0    0    0    0  0.00000000000E+00  0.00000000000E+00  0.40000000000E+02  0.40000000000E+02  0.00000000000E+00 0. -1.
        -11   -1    0    0    0    0 -0.00000000000E+00 -0.00000000000E+00 -0.40000000000E+02  0.40000000000E+02  0.00000000000E+00 0.  1.
         23    2    1    2    0    0  0.00000000000E+00  0.00000000000E+00  0.00000000000E+00  0.80000000000E+02  0.80000000000E+02 0.  0.
          5    1    3    3  501    0 -0.15904571429E+01  0.38729044981E+02  0.86857078527E+01  0.40000000000E+02  0.47000000000E+01 0. -1.
         -5    1    3    3    0  501  0.15904571429E+01 -0.38729044981E+02 -0.86857078527E+01  0.40000000000E+02  0.47000000000E+01 0.  1.
</event>
<event>
 5    1  0.4872488E-001  0.8000000E+02  0.7546771E-02  0.1203772E+00
         11   -1    0    0    0    0  0.00000000000E+00  0.00000000000E+00  0.40000000000E+02  0.40000000000E+02  0.00000000000E+00 0. -1.
        -11   -1    0    0    0    0 -0.00000000000E+00 -0.00000000000E+00 -0.40000000000E+02  0.40000000000E+02  0.00000000000E+00 0.  1.
         23    2    1    2    0    0  0.00000000000E+00  0.00000000000E+00  0.00000000000E+00  0.80000000000E+02  0.80000000000E+02 0.  0.
          5    1    3    3  501    0 -0.10039222812E+02  0.14978541627E+01  0.38404172146E+02  0.40000000000E+02  0.47000000000E+01 0. -1.
         -5    1    3    3    0  501  0.10039222812E+02 -0.14978541627E+01 -0.38404172146E+02  0.40000000000E+02  0.47000000000E+01 0.  1.
</event>
<event>
 5    1  0.4872488E-001  0.8000000E+02  0.7546771E-02  0.1203772E+00
         11   -1    0    0    0    0  0.00000000000E+00  0.00000000000E+00  0.40000000000E+02  0.40000000000E+02  0.00000000000E+00 0. -1.
        -11   -1    0    0    0    0 -0.00000000000E+00 -0.00000000000E+00 -0.40000000000E+02  0.40000000000E+02  0.00000000000E+00 0.  1.
         23    2    1    2    0    0  0.00000000000E+00  0.00000000000E+00  0.00000000000E+00  0.80000000000E+02  0.80000000000E+02 0.  0.
          5    1    3    3  501    0  0.27195279034E+02 -0.40808859987E+01  0.28664842015E+02  0.40000000000E+02  0.47000000000E+01 0. -1.
         -5    1    3    3    0  501 -0.27195279034E+02  0.40808859987E+01 -0.28664842015E+02  0.40000000000E+02  0.47000000000E+01 0.  1.
</event>
<event>
 5    1  0.4872488E-001  0.8000000E+02  0.7546771E-02  0.1203772E+00
         11   -1    0    0    0    0  0.00000000000E+00  0.00000000000E+00  0.40000000000E+02  0.40000000000E+02  0.00000000000E+00 0.  1.
        -11   -1    0    0    0    0 -0.00000000000E+00 -0.00000000000E+00 -0.40000000000E+02  0.40000000000E+02  0.00000000000E+00 0. -1.
         23    2    1    2    0    0  0.00000000000E+00  0.00000000000E+00  0.00000000000E+00  0.80000000000E+02  0.80000000000E+02 0.  0.
          5    1    3    3  501    0 -0.35884433669E+02 -0.11138558854E+02 -0.12889915708E+02  0.40000000000E+02  0.47000000000E+01 0. -1.
         -5    1    3    3    0  501  0.35884433669E+02  0.11138558854E+02  0.12889915708E+02  0.40000000000E+02  0.47000000000E+01 0.  1.
</event>
<event>
 5    1  0.4872488E-001  0.8000000E+02  0.7546771E-02  0.1203772E+00
         11   -1    0    0    0    0  0.00000000000E+00  0.00000000000E+00  0.40000000000E+02  0.40000000000E+02  0.00000000000E+00 0. -1.
        -11   -1    0    0    0    0 -0.00000000000E+00 -0.00000000000E+00 -0.40000000000E+02  0.40000000000E+02  0.00000000000E+00 0.  1.
         23    2    1    2    0    0  0.00000000000E+00  0.00000000000E+00  0.00000000000E+00  0.80000000000E+02  0.80000000000E+02 0.  0.
          5    1    3    3  501    0 -0.12138176070E+02 -0.35906406986E+02  0.11887161943E+02  0.40000000000E+02  0.47000000000E+01 0. -1.
         -5    1    3    3    0  501  0.12138176070E+02  0.35906406986E+02 -0.11887161943E+02  0.40000000000E+02  0.47000000000E+01 0.  1.
</event>
<event>
 5    1  0.4872488E-001  0.8000000E+02  0.7546771E-02  0.1203772E+00
         11   -1    0    0    0    0  0.00000000000E+00  0.00000000000E+00  0.40000000000E+02  0.40000000000E+02  0.00000000000E+00 0.  1.
        -11   -1    0    0    0    0 -0.00000000000E+00 -0.00000000000E+00 -0.40000000000E+02  0.40000000000E+02  0.00000000000E+00 0. -1.
         23    2    1    2    0    0  0.00000000000E+00  0.00000000000E+00  0.00000000000E+00  0.80000000000E+02  0.80000000000E+02 0.  0.
          5    1    3    3  501    0  0.58208661156E+01 -0.13598493583E+02 -0.36866088617E+02  0.40000000000E+02  0.47000000000E+01 0. -1.
         -5    1    3    3    0  501 -0.58208661156E+01  0.13598493583E+02  0.36866088617E+02  0.40000000000E+02  0.47000000000E+01 0.  1.
</event>
<event>
 5    1  0.4872488E-001  0.8000000E+02  0.7546771E-02  0.1203772E+00
         11   -1    0    0    0    0  0.00000000000E+00  0.00000000000E+00  0.40000000000E+02  0.40000000000E+02  0.00000000000E+00 0.  1.
        -11   -1    0    0    0    0 -0.00000000000E+00 -0.00000000000E+00 -0.40000000000E+02  0.40000000000E+02  0.00000000000E+00 0. -1.
         23    2    1    2    0    0  0.00000000000E+00  0.00000000000E+00  0.00000000000E+00  0.80000000000E+02  0.80000000000E+02 0.  0.
          5    1    3    3  501    0  0.38340278736E+02  0.76937379086E+01 -0.69813625755E+01  0.40000000000E+02  0.47000000000E+01 0. -1.
         -5    1    3    3    0  501 -0.38340278736E+02 -0.76937379086E+01  0.69813625755E+01  0.40000000000E+02  0.47000000000E+01 0.  1.
</event>
<event>
 5    1  0.4872488E-001  0.8000000E+02  0.7546771E-02  0.1203772E+00
         11   -1    0    0    0    0  0.00000000000E+00  0.00000000000E+00  0.40000000000E+02  0.40000000000E+02  0.00000000000E+00 0. -1.
        -11   -1    0    0    0    0 -0.00000000000E+00 -0.00000000000E+00 -0.40000000000E+02  0.40000000000E+02  0.00000000000E+00 0.  1.
         23    2    1    2    0    0  0.00000000000E+00  0.00000000000E+00  0.00000000000E+00  0.80000000000E+02  0.80000000000E+02 0.  0.
          5    1    3    3  501    0  0.10538165094E+02 -0.36460673880E+02  0.11725030350E+02  0.40000000000E+02  0.47000000000E+01 0. -1.
         -5    1    3    3    0  501 -0.10538165094E+02  0.36460673880E+02 -0.11725030350E+02  0.40000000000E+02  0.47000000000E+01 0.  1.
</event>
<event>
 5    1  0.4872488E-001  0.8000000E+02  0.7546771E-02  0.1203772E+00
         11   -1    0    0    0    0  0.00000000000E+00  0.00000000000E+00  0.40000000000E+02  0.40000000000E+02  0.00000000000E+00 0.  1.
        -11   -1    0    0    0    0 -0.00000000000E+00 -0.00000000000E+00 -0.40000000000E+02  0.40000000000E+02  0.00000000000E+00 0. -1.
         23    2    1    2    0    0  0.00000000000E+00  0.00000000000E+00  0.00000000000E+00  0.80000000000E+02  0.80000000000E+02 0.  0.
          5    1    3    3  501    0 -0.22892050659E+02 -0.23246554181E+02 -0.22659694070E+02  0.40000000000E+02  0.47000000000E+01 0. -1.
         -5    1    3    3    0  501  0.22892050659E+02  0.23246554181E+02  0.22659694070E+02  0.40000000000E+02  0.47000000000E+01 0.  1.
</event>
<event>
 5    1  0.4872488E-001  0.8000000E+02  0.7546771E-02  0.1203772E+00
         11   -1    0    0    0    0  0.00000000000E+00  0.00000000000E+00  0.40000000000E+02  0.40000000000E+02  0.00000000000E+00 0.  1.
        -11   -1    0    0    0    0 -0.00000000000E+00 -0.00000000000E+00 -0.40000000000E+02  0.40000000000E+02  0.00000000000E+00 0. -1.
         23    2    1    2    0    0  0.00000000000E+00  0.00000000000E+00  0.00000000000E+00  0.80000000000E+02  0.80000000000E+02 0.  0.
          5    1    3    3  501    0  0.34622322432E+02  0.19221931648E+02 -0.31180335389E+01  0.40000000000E+02  0.47000000000E+01 0. -1.
         -5    1    3    3    0  501 -0.34622322432E+02 -0.19221931648E+02  0.31180335389E+01  0.40000000000E+02  0.47000000000E+01 0.  1.
</event>
<event>
 5    1  0.4872488E-001  0.8000000E+02  0.7546771E-02  0.1203772E+00
         11   -1    0    0    0    0  0.00000000000E+00  0.00000000000E+00  0.40000000000E+02  0.40000000000E+02  0.00000000000E+00 0. -1.
        -11   -1    0    0    0    0 -0.00000000000E+00 -0.00000000000E+00 -0.40000000000E+02  0.40000000000E+02  0.00000000000E+00 0.  1.
         23    2    1    2    0    0  0.00000000000E+00  0.00000000000E+00  0.00000000000E+00  0.80000000000E+02  0.80000000000E+02 0.  0.
          5    1    3    3  501    0 -0.21489108638E+01  0.27797164711E+01 -0.39567225812E+02  0.40000000000E+02  0.47000000000E+01 0.  1.
         -5    1    3    3    0  501  0.21489108638E+01 -0.27797164711E+01  0.39567225812E+02  0.40000000000E+02  0.47000000000E+01 0. -1.
</event>
<event>
 5    1  0.4872488E-001  0.8000000E+02  0.7546771E-02  0.1203772E+00
         11   -1    0    0    0    0  0.00000000000E+00  0.00000000000E+00  0.40000000000E+02  0.40000000000E+02  0.00000000000E+00 0. -1.
        -11   -1    0    0    0    0 -0.00000000000E+00 -0.00000000000E+00 -0.40000000000E+02  0.40000000000E+02  0.00000000000E+00 0.  1.
         23    2    1    2    0    0  0.00000000000E+00  0.00000000000E+00  0.00000000000E+00  0.80000000000E+02  0.80000000000E+02 0.  0.
          5    1    3    3  501    0 -0.37582007118E+02 -0.90035776401E+01 -0.91890331741E+01  0.40000000000E+02  0.47000000000E+01 0. -1.
         -5    1    3    3    0  501  0.37582007118E+02  0.90035776401E+01  0.91890331741E+01  0.40000000000E+02  0.47000000000E+01 0.  1.
</event>
<event>
 5    1  0.4872488E-001  0.8000000E+02  0.7546771E-02  0.1203772E+00
         11   -1    0    0    0    0  0.00000000000E+00  0.00000000000E+00  0.40000000000E+02  0.40000000000E+02  0.00000000000E+00 0.  1.
        -11   -1    0    0    0    0 -0.00000000000E+00 -0.00000000000E+00 -0.40000000000E+02  0.40000000000E+02  0.00000000000E+00 0. -1.
         23    2    1    2    0    0  0.00000000000E+00  0.00000000000E+00  0.00000000000E+00  0.80000000000E+02  0.80000000000E+02 0.  0.
          5    1    3    3  501    0 -0.28776078207E+02 -0.22362107423E+02 -0.15804539684E+02  0.40000000000E+02  0.47000000000E+01 0. -1.
         -5    1    3    3    0  501  0.28776078207E+02  0.22362107423E+02  0.15804539684E+02  0.40000000000E+02  0.47000000000E+01 0.  1.
</event>
<event>
 5    1  0.4872488E-001  0.8000000E+02  0.7546771E-02  0.1203772E+00
         11   -1    0    0    0    0  0.00000000000E+00  0.00000000000E+00  0.40000000000E+02  0.40000000000E+02  0.00000000000E+00 0. -1.
        -11   -1    0    0    0    0 -0.00000000000E+00 -0.00000000000E+00 -0.40000000000E+02  0.40000000000E+02  0.00000000000E+00 0.  1.
         23    2    1    2    0    0  0.00000000000E+00  0.00000000000E+00  0.00000000000E+00  0.80000000000E+02  0.80000000000E+02 0.  0.
          5    1    3    3  501    0  0.18234612051E+01  0.29870832736E+02 -0.26121223955E+02  0.40000000000E+02  0.47000000000E+01 0.  1.
         -5    1    3    3    0  501 -0.18234612051E+01 -0.29870832736E+02  0.26121223955E+02  0.40000000000E+02  0.47000000000E+01 0. -1.
</event>
<event>
 5    1  0.4872488E-001  0.8000000E+02  0.7546771E-02  0.1203772E+00
         11   -1    0    0    0    0  0.00000000000E+00  0.00000000000E+00  0.40000000000E+02  0.40000000000E+02  0.00000000000E+00 0. -1.
        -11   -1    0    0    0    0 -0.00000000000E+00 -0.00000000000E+00 -0.40000000000E+02  0.40000000000E+02  0.00000000000E+00 0.  1.
         23    2    1    2    0    0  0.00000000000E+00  0.00000000000E+00  0.00000000000E+00  0.80000000000E+02  0.80000000000E+02 0.  0.
          5    1    3    3  501    0  0.15916638613E+02  0.21990374546E+02  0.28999897286E+02  0.40000000000E+02  0.47000000000E+01 0. -1.
         -5    1    3    3    0  501 -0.15916638613E+02 -0.21990374546E+02 -0.28999897286E+02  0.40000000000E+02  0.47000000000E+01 0.  1.
</event>
<event>
 5    1  0.4872488E-001  0.8000000E+02  0.7546771E-02  0.1203772E+00
         11   -1    0    0    0    0  0.00000000000E+00  0.00000000000E+00  0.40000000000E+02  0.40000000000E+02  0.00000000000E+00 0. -1.
        -11   -1    0    0    0    0 -0.00000000000E+00 -0.00000000000E+00 -0.40000000000E+02  0.40000000000E+02  0.00000000000E+00 0.  1.
         23    2    1    2    0    0  0.00000000000E+00  0.00000000000E+00  0.00000000000E+00  0.80000000000E+02  0.80000000000E+02 0.  0.
          5    1    3    3  501    0 -0.25661564921E+02 -0.30262362120E+02 -0.18930199986E+01  0.40000000000E+02  0.47000000000E+01 0. -1.
         -5    1    3    3    0  501  0.25661564921E+02  0.30262362120E+02  0.18930199986E+01  0.40000000000E+02  0.47000000000E+01 0.  1.
</event>
<event>
 5    1  0.4872488E-001  0.8000000E+02  0.7546771E-02  0.1203772E+00
         11   -1    0    0    0    0  0.00000000000E+00  0.00000000000E+00  0.40000000000E+02  0.40000000000E+02  0.00000000000E+00 0. -1.
        -11   -1    0    0    0    0 -0.00000000000E+00 -0.00000000000E+00 -0.40000000000E+02  0.40000000000E+02  0.00000000000E+00 0.  1.
         23    2    1    2    0    0  0.00000000000E+00  0.00000000000E+00  0.00000000000E+00  0.80000000000E+02  0.80000000000E+02 0.  0.
          5    1    3    3  501    0  0.28698633747E+02 -0.11044046894E+02  0.25146121952E+02  0.40000000000E+02  0.47000000000E+01 0. -1.
         -5    1    3    3    0  501 -0.28698633747E+02  0.11044046894E+02 -0.25146121952E+02  0.40000000000E+02  0.47000000000E+01 0.  1.
</event>
<event>
 5    1  0.4872488E-001  0.8000000E+02  0.7546771E-02  0.1203772E+00
         11   -1    0    0    0    0  0.00000000000E+00  0.00000000000E+00  0.40000000000E+02  0.40000000000E+02  0.00000000000E+00 0. -1.
        -11   -1    0    0    0    0 -0.00000000000E+00 -0.00000000000E+00 -0.40000000000E+02  0.40000000000E+02  0.00000000000E+00 0.  1.
         23    2    1    2    0    0  0.00000000000E+00  0.00000000000E+00  0.00000000000E+00  0.80000000000E+02  0.80000000000E+02 0.  0.
          5    1    3    3  501    0 -0.38257691768E+02 -0.86954022266E+01  0.62168320460E+01  0.40000000000E+02  0.47000000000E+01 0. -1.
         -5    1    3    3    0  501  0.38257691768E+02  0.86954022266E+01 -0.62168320460E+01  0.40000000000E+02  0.47000000000E+01 0.  1.
</event>
<event>
 5    1  0.4872488E-001  0.8000000E+02  0.7546771E-02  0.1203772E+00
         11   -1    0    0    0    0  0.00000000000E+00  0.00000000000E+00  0.40000000000E+02  0.40000000000E+02  0.00000000000E+00 0. -1.
        -11   -1    0    0    0    0 -0.00000000000E+00 -0.00000000000E+00 -0.40000000000E+02  0.40000000000E+02  0.00000000000E+00 0.  1.
         23    2    1    2    0    0  0.00000000000E+00  0.00000000000E+00  0.00000000000E+00  0.80000000000E+02  0.80000000000E+02 0.  0.
          5    1    3    3  501    0 -0.37494474610E+02 -0.11367047628E+02 -0.65471063804E+01  0.40000000000E+02  0.47000000000E+01 0. -1.
         -5    1    3    3    0  501  0.37494474610E+02  0.11367047628E+02  0.65471063804E+01  0.40000000000E+02  0.47000000000E+01 0.  1.
</event>
<event>
 5    1  0.4872488E-001  0.8000000E+02  0.7546771E-02  0.1203772E+00
         11   -1    0    0    0    0  0.00000000000E+00  0.00000000000E+00  0.40000000000E+02  0.40000000000E+02  0.00000000000E+00 0. -1.
        -11   -1    0    0    0    0 -0.00000000000E+00 -0.00000000000E+00 -0.40000000000E+02  0.40000000000E+02  0.00000000000E+00 0.  1.
         23    2    1    2    0    0  0.00000000000E+00  0.00000000000E+00  0.00000000000E+00  0.80000000000E+02  0.80000000000E+02 0.  0.
          5    1    3    3  501    0  0.29663103403E+02 -0.57895649361E+01  0.25777727487E+02  0.40000000000E+02  0.47000000000E+01 0. -1.
         -5    1    3    3    0  501 -0.29663103403E+02  0.57895649361E+01 -0.25777727487E+02  0.40000000000E+02  0.47000000000E+01 0.  1.
</event>
<event>
 5    1  0.4872488E-001  0.8000000E+02  0.7546771E-02  0.1203772E+00
         11   -1    0    0    0    0  0.00000000000E+00  0.00000000000E+00  0.40000000000E+02  0.40000000000E+02  0.00000000000E+00 0.  1.
        -11   -1    0    0    0    0 -0.00000000000E+00 -0.00000000000E+00 -0.40000000000E+02  0.40000000000E+02  0.00000000000E+00 0. -1.
         23    2    1    2    0    0  0.00000000000E+00  0.00000000000E+00  0.00000000000E+00  0.80000000000E+02  0.80000000000E+02 0.  0.
          5    1    3    3  501    0 -0.27358441937E+02 -0.19191782486E+01 -0.28735734020E+02  0.40000000000E+02  0.47000000000E+01 0. -1.
         -5    1    3    3    0  501  0.27358441937E+02  0.19191782486E+01  0.28735734020E+02  0.40000000000E+02  0.47000000000E+01 0.  1.
</event>
<event>
 5    1  0.4872488E-001  0.8000000E+02  0.7546771E-02  0.1203772E+00
         11   -1    0    0    0    0  0.00000000000E+00  0.00000000000E+00  0.40000000000E+02  0.40000000000E+02  0.00000000000E+00 0.  1.
        -11   -1    0    0    0    0 -0.00000000000E+00 -0.00000000000E+00 -0.40000000000E+02  0.40000000000E+02  0.00000000000E+00 0. -1.
         23    2    1    2    0    0  0.00000000000E+00  0.00000000000E+00  0.00000000000E+00  0.80000000000E+02  0.80000000000E+02 0.  0.
          5    1    3    3  501    0 -0.24166351287E+02 -0.97118820811E+01 -0.29992946036E+02  0.40000000000E+02  0.47000000000E+01 0. -1.
         -5    1    3    3    0  501  0.24166351287E+02  0.97118820811E+01  0.29992946036E+02  0.40000000000E+02  0.47000000000E+01 0.  1.
</event>
<event>
 5    1  0.4872488E-001  0.8000000E+02  0.7546771E-02  0.1203772E+00
         11   -1    0    0    0    0  0.00000000000E+00  0.00000000000E+00  0.40000000000E+02  0.40000000000E+02  0.00000000000E+00 0. -1.
        -11   -1    0    0    0    0 -0.00000000000E+00 -0.00000000000E+00 -0.40000000000E+02  0.40000000000E+02  0.00000000000E+00 0.  1.
         23    2    1    2    0    0  0.00000000000E+00  0.00000000000E+00  0.00000000000E+00  0.80000000000E+02  0.80000000000E+02 0.  0.
          5    1    3    3  501    0 -0.38993882048E+02 -0.10221228275E+01 -0.75061593199E+01  0.40000000000E+02  0.47000000000E+01 0. -1.
         -5    1    3    3    0  501  0.38993882048E+02  0.10221228275E+01  0.75061593199E+01  0.40000000000E+02  0.47000000000E+01 0.  1.
</event>
<event>
 5    1  0.4872488E-001  0.8000000E+02  0.7546771E-02  0.1203772E+00
         11   -1    0    0    0    0  0.00000000000E+00  0.00000000000E+00  0.40000000000E+02  0.40000000000E+02  0.00000000000E+00 0. -1.
        -11   -1    0    0    0    0 -0.00000000000E+00 -0.00000000000E+00 -0.40000000000E+02  0.40000000000E+02  0.00000000000E+00 0.  1.
         23    2    1    2    0    0  0.00000000000E+00  0.00000000000E+00  0.00000000000E+00  0.80000000000E+02  0.80000000000E+02 0.  0.
          5    1    3    3  501    0 -0.31877077800E+02 -0.22481737004E+02  0.75055587539E+01  0.40000000000E+02  0.47000000000E+01 0. -1.
         -5    1    3    3    0  501  0.31877077800E+02  0.22481737004E+02 -0.75055587539E+01  0.40000000000E+02  0.47000000000E+01 0.  1.
</event>
<event>
 5    1  0.4872488E-001  0.8000000E+02  0.7546771E-02  0.1203772E+00
         11   -1    0    0    0    0  0.00000000000E+00  0.00000000000E+00  0.40000000000E+02  0.40000000000E+02  0.00000000000E+00 0.  1.
        -11   -1    0    0    0    0 -0.00000000000E+00 -0.00000000000E+00 -0.40000000000E+02  0.40000000000E+02  0.00000000000E+00 0. -1.
         23    2    1    2    0    0  0.00000000000E+00  0.00000000000E+00  0.00000000000E+00  0.80000000000E+02  0.80000000000E+02 0.  0.
          5    1    3    3  501    0 -0.66498251990E+01 -0.32833690997E+02 -0.21345691845E+02  0.40000000000E+02  0.47000000000E+01 0. -1.
         -5    1    3    3    0  501  0.66498251990E+01  0.32833690997E+02  0.21345691845E+02  0.40000000000E+02  0.47000000000E+01 0.  1.
</event>
<event>
 5    1  0.4872488E-001  0.8000000E+02  0.7546771E-02  0.1203772E+00
         11   -1    0    0    0    0  0.00000000000E+00  0.00000000000E+00  0.40000000000E+02  0.40000000000E+02  0.00000000000E+00 0.  1.
        -11   -1    0    0    0    0 -0.00000000000E+00 -0.00000000000E+00 -0.40000000000E+02  0.40000000000E+02  0.00000000000E+00 0. -1.
         23    2    1    2    0    0  0.00000000000E+00  0.00000000000E+00  0.00000000000E+00  0.80000000000E+02  0.80000000000E+02 0.  0.
          5    1    3    3  501    0 -0.26475609827E+02 -0.19710377910E+02 -0.22100974797E+02  0.40000000000E+02  0.47000000000E+01 0. -1.
         -5    1    3    3    0  501  0.26475609827E+02  0.19710377910E+02  0.22100974797E+02  0.40000000000E+02  0.47000000000E+01 0.  1.
</event>
<event>
 5    1  0.4872488E-001  0.8000000E+02  0.7546771E-02  0.1203772E+00
         11   -1    0    0    0    0  0.00000000000E+00  0.00000000000E+00  0.40000000000E+02  0.40000000000E+02  0.00000000000E+00 0. -1.
        -11   -1    0    0    0    0 -0.00000000000E+00 -0.00000000000E+00 -0.40000000000E+02  0.40000000000E+02  0.00000000000E+00 0.  1.
         23    2    1    2    0    0  0.00000000000E+00  0.00000000000E+00  0.00000000000E+00  0.80000000000E+02  0.80000000000E+02 0.  0.
          5    1    3    3  501    0 -0.15810098623E+02 -0.64167013215E+01  0.35871670238E+02  0.40000000000E+02  0.47000000000E+01 0. -1.
         -5    1    3    3    0  501  0.15810098623E+02  0.64167013215E+01 -0.35871670238E+02  0.40000000000E+02  0.47000000000E+01 0.  1.
</event>
<event>
 5    1  0.4872488E-001  0.8000000E+02  0.7546771E-02  0.1203772E+00
         11   -1    0    0    0    0  0.00000000000E+00  0.00000000000E+00  0.40000000000E+02  0.40000000000E+02  0.00000000000E+00 0.  1.
        -11   -1    0    0    0    0 -0.00000000000E+00 -0.00000000000E+00 -0.40000000000E+02  0.40000000000E+02  0.00000000000E+00 0. -1.
         23    2    1    2    0    0  0.00000000000E+00  0.00000000000E+00  0.00000000000E+00  0.80000000000E+02  0.80000000000E+02 0.  0.
          5    1    3    3  501    0 -0.22105150018E+02  0.30535471049E+02 -0.12524270458E+02  0.40000000000E+02  0.47000000000E+01 0. -1.
         -5    1    3    3    0  501  0.22105150018E+02 -0.30535471049E+02  0.12524270458E+02  0.40000000000E+02  0.47000000000E+01 0.  1.
</event>
<event>
 5    1  0.4872488E-001  0.8000000E+02  0.7546771E-02  0.1203772E+00
         11   -1    0    0    0    0  0.00000000000E+00  0.00000000000E+00  0.40000000000E+02  0.40000000000E+02  0.00000000000E+00 0.  1.
        -11   -1    0    0    0    0 -0.00000000000E+00 -0.00000000000E+00 -0.40000000000E+02  0.40000000000E+02  0.00000000000E+00 0. -1.
         23    2    1    2    0    0  0.00000000000E+00  0.00000000000E+00  0.00000000000E+00  0.80000000000E+02  0.80000000000E+02 0.  0.
          5    1    3    3  501    0 -0.22584344948E+01  0.12976872309E+02 -0.37475462088E+02  0.40000000000E+02  0.47000000000E+01 0. -1.
         -5    1    3    3    0  501  0.22584344948E+01 -0.12976872309E+02  0.37475462088E+02  0.40000000000E+02  0.47000000000E+01 0.  1.
</event>
<event>
 5    1  0.4872488E-001  0.8000000E+02  0.7546771E-02  0.1203772E+00
         11   -1    0    0    0    0  0.00000000000E+00  0.00000000000E+00  0.40000000000E+02  0.40000000000E+02  0.00000000000E+00 0. -1.
        -11   -1    0    0    0    0 -0.00000000000E+00 -0.00000000000E+00 -0.40000000000E+02  0.40000000000E+02  0.00000000000E+00 0.  1.
         23    2    1    2    0    0  0.00000000000E+00  0.00000000000E+00  0.00000000000E+00  0.80000000000E+02  0.80000000000E+02 0.  0.
          5    1    3    3  501    0  0.46671489086E+00  0.12982574238E+02  0.37538579400E+02  0.40000000000E+02  0.47000000000E+01 0. -1.
         -5    1    3    3    0  501 -0.46671489086E+00 -0.12982574238E+02 -0.37538579400E+02  0.40000000000E+02  0.47000000000E+01 0.  1.
</event>
<event>
 5    1  0.4872488E-001  0.8000000E+02  0.7546771E-02  0.1203772E+00
         11   -1    0    0    0    0  0.00000000000E+00  0.00000000000E+00  0.40000000000E+02  0.40000000000E+02  0.00000000000E+00 0.  1.
        -11   -1    0    0    0    0 -0.00000000000E+00 -0.00000000000E+00 -0.40000000000E+02  0.40000000000E+02  0.00000000000E+00 0. -1.
         23    2    1    2    0    0  0.00000000000E+00  0.00000000000E+00  0.00000000000E+00  0.80000000000E+02  0.80000000000E+02 0.  0.
          5    1    3    3  501    0  0.27354271416E+02  0.63382841257E+01 -0.28097686553E+02  0.40000000000E+02  0.47000000000E+01 0. -1.
         -5    1    3    3    0  501 -0.27354271416E+02 -0.63382841257E+01  0.28097686553E+02  0.40000000000E+02  0.47000000000E+01 0.  1.
</event>
<event>
 5    1  0.4872488E-001  0.8000000E+02  0.7546771E-02  0.1203772E+00
         11   -1    0    0    0    0  0.00000000000E+00  0.00000000000E+00  0.40000000000E+02  0.40000000000E+02  0.00000000000E+00 0.  1.
        -11   -1    0    0    0    0 -0.00000000000E+00 -0.00000000000E+00 -0.40000000000E+02  0.40000000000E+02  0.00000000000E+00 0. -1.
         23    2    1    2    0    0  0.00000000000E+00  0.00000000000E+00  0.00000000000E+00  0.80000000000E+02  0.80000000000E+02 0.  0.
          5    1    3    3  501    0 -0.51481763702E+01  0.31420455307E+02 -0.23752079242E+02  0.40000000000E+02  0.47000000000E+01 0. -1.
         -5    1    3    3    0  501  0.51481763702E+01 -0.31420455307E+02  0.23752079242E+02  0.40000000000E+02  0.47000000000E+01 0.  1.
</event>
<event>
 5    1  0.4872488E-001  0.8000000E+02  0.7546771E-02  0.1203772E+00
         11   -1    0    0    0    0  0.00000000000E+00  0.00000000000E+00  0.40000000000E+02  0.40000000000E+02  0.00000000000E+00 0.  1.
        -11   -1    0    0    0    0 -0.00000000000E+00 -0.00000000000E+00 -0.40000000000E+02  0.40000000000E+02  0.00000000000E+00 0. -1.
         23    2    1    2    0    0  0.00000000000E+00  0.00000000000E+00  0.00000000000E+00  0.80000000000E+02  0.80000000000E+02 0.  0.
          5    1    3    3  501    0  0.14682956760E+02 -0.11702854483E+02 -0.35005199295E+02  0.40000000000E+02  0.47000000000E+01 0. -1.
         -5    1    3    3    0  501 -0.14682956760E+02  0.11702854483E+02  0.35005199295E+02  0.40000000000E+02  0.47000000000E+01 0.  1.
</event>
<event>
 5    1  0.4872488E-001  0.8000000E+02  0.7546771E-02  0.1203772E+00
         11   -1    0    0    0    0  0.00000000000E+00  0.00000000000E+00  0.40000000000E+02  0.40000000000E+02  0.00000000000E+00 0.  1.
        -11   -1    0    0    0    0 -0.00000000000E+00 -0.00000000000E+00 -0.40000000000E+02  0.40000000000E+02  0.00000000000E+00 0. -1.
         23    2    1    2    0    0  0.00000000000E+00  0.00000000000E+00  0.00000000000E+00  0.80000000000E+02  0.80000000000E+02 0.  0.
          5    1    3    3  501    0  0.40475261472E+01 -0.28051003581E+02 -0.27832871396E+02  0.40000000000E+02  0.47000000000E+01 0. -1.
         -5    1    3    3    0  501 -0.40475261472E+01  0.28051003581E+02  0.27832871396E+02  0.40000000000E+02  0.47000000000E+01 0.  1.
</event>
<event>
 5    1  0.4872488E-001  0.8000000E+02  0.7546771E-02  0.1203772E+00
         11   -1    0    0    0    0  0.00000000000E+00  0.00000000000E+00  0.40000000000E+02  0.40000000000E+02  0.00000000000E+00 0.  1.
        -11   -1    0    0    0    0 -0.00000000000E+00 -0.00000000000E+00 -0.40000000000E+02  0.40000000000E+02  0.00000000000E+00 0. -1.
         23    2    1    2    0    0  0.00000000000E+00  0.00000000000E+00  0.00000000000E+00  0.80000000000E+02  0.80000000000E+02 0.  0.
          5    1    3    3  501    0 -0.41296677302E+01 -0.20397430584E+02 -0.33834903133E+02  0.40000000000E+02  0.47000000000E+01 0. -1.
         -5    1    3    3    0  501  0.41296677302E+01  0.20397430584E+02  0.33834903133E+02  0.40000000000E+02  0.47000000000E+01 0.  1.
</event>
<event>
 5    1  0.4872488E-001  0.8000000E+02  0.7546771E-02  0.1203772E+00
         11   -1    0    0    0    0  0.00000000000E+00  0.00000000000E+00  0.40000000000E+02  0.40000000000E+02  0.00000000000E+00 0. -1.
        -11   -1    0    0    0    0 -0.00000000000E+00 -0.00000000000E+00 -0.40000000000E+02  0.40000000000E+02  0.00000000000E+00 0.  1.
         23    2    1    2    0    0  0.00000000000E+00  0.00000000000E+00  0.00000000000E+00  0.80000000000E+02  0.80000000000E+02 0.  0.
          5    1    3    3  501    0 -0.68627389286E+01 -0.15208569720E+02  0.36048747849E+02  0.40000000000E+02  0.47000000000E+01 0. -1.
         -5    1    3    3    0  501  0.68627389286E+01  0.15208569720E+02 -0.36048747849E+02  0.40000000000E+02  0.47000000000E+01 0.  1.
</event>
<event>
 5    1  0.4872488E-001  0.8000000E+02  0.7546771E-02  0.1203772E+00
         11   -1    0    0    0    0  0.00000000000E+00  0.00000000000E+00  0.40000000000E+02  0.40000000000E+02  0.00000000000E+00 0.  1.
        -11   -1    0    0    0    0 -0.00000000000E+00 -0.00000000000E+00 -0.40000000000E+02  0.40000000000E+02  0.00000000000E+00 0. -1.
         23    2    1    2    0    0  0.00000000000E+00  0.00000000000E+00  0.00000000000E+00  0.80000000000E+02  0.80000000000E+02 0.  0.
          5    1    3    3  501    0  0.20445497692E+01 -0.38228690712E+02 -0.10597028956E+02  0.40000000000E+02  0.47000000000E+01 0. -1.
         -5    1    3    3    0  501 -0.20445497692E+01  0.38228690712E+02  0.10597028956E+02  0.40000000000E+02  0.47000000000E+01 0.  1.
</event>
<event>
 5    1  0.4872488E-001  0.8000000E+02  0.7546771E-02  0.1203772E+00
         11   -1    0    0    0    0  0.00000000000E+00  0.00000000000E+00  0.40000000000E+02  0.40000000000E+02  0.00000000000E+00 0.  1.
        -11   -1    0    0    0    0 -0.00000000000E+00 -0.00000000000E+00 -0.40000000000E+02  0.40000000000E+02  0.00000000000E+00 0. -1.
         23    2    1    2    0    0  0.00000000000E+00  0.00000000000E+00  0.00000000000E+00  0.80000000000E+02  0.80000000000E+02 0.  0.
          5    1    3    3  501    0 -0.46241614821E+00 -0.36619017640E+02 -0.15386478427E+02  0.40000000000E+02  0.47000000000E+01 0. -1.
         -5    1    3    3    0  501  0.46241614821E+00  0.36619017640E+02  0.15386478427E+02  0.40000000000E+02  0.47000000000E+01 0.  1.
</event>
<event>
 5    1  0.4872488E-001  0.8000000E+02  0.7546771E-02  0.1203772E+00
         11   -1    0    0    0    0  0.00000000000E+00  0.00000000000E+00  0.40000000000E+02  0.40000000000E+02  0.00000000000E+00 0. -1.
        -11   -1    0    0    0    0 -0.00000000000E+00 -0.00000000000E+00 -0.40000000000E+02  0.40000000000E+02  0.00000000000E+00 0.  1.
         23    2    1    2    0    0  0.00000000000E+00  0.00000000000E+00  0.00000000000E+00  0.80000000000E+02  0.80000000000E+02 0.  0.
          5    1    3    3  501    0  0.24913122938E+01 -0.94971214508E+01  0.38490363043E+02  0.40000000000E+02  0.47000000000E+01 0. -1.
         -5    1    3    3    0  501 -0.24913122938E+01  0.94971214508E+01 -0.38490363043E+02  0.40000000000E+02  0.47000000000E+01 0.  1.
</event>
<event>
 5    1  0.4872488E-001  0.8000000E+02  0.7546771E-02  0.1203772E+00
         11   -1    0    0    0    0  0.00000000000E+00  0.00000000000E+00  0.40000000000E+02  0.40000000000E+02  0.00000000000E+00 0. -1.
        -11   -1    0    0    0    0 -0.00000000000E+00 -0.00000000000E+00 -0.40000000000E+02  0.40000000000E+02  0.00000000000E+00 0.  1.
         23    2    1    2    0    0  0.00000000000E+00  0.00000000000E+00  0.00000000000E+00  0.80000000000E+02  0.80000000000E+02 0.  0.
          5    1    3    3  501    0  0.43534477134E+01  0.30262616138E+02  0.25360038594E+02  0.40000000000E+02  0.47000000000E+01 0. -1.
         -5    1    3    3    0  501 -0.43534477134E+01 -0.30262616138E+02 -0.25360038594E+02  0.40000000000E+02  0.47000000000E+01 0.  1.
</event>
<event>
 5    1  0.4872488E-001  0.8000000E+02  0.7546771E-02  0.1203772E+00
         11   -1    0    0    0    0  0.00000000000E+00  0.00000000000E+00  0.40000000000E+02  0.40000000000E+02  0.00000000000E+00 0. -1.
        -11   -1    0    0    0    0 -0.00000000000E+00 -0.00000000000E+00 -0.40000000000E+02  0.40000000000E+02  0.00000000000E+00 0.  1.
         23    2    1    2    0    0  0.00000000000E+00  0.00000000000E+00  0.00000000000E+00  0.80000000000E+02  0.80000000000E+02 0.  0.
          5    1    3    3  501    0  0.45853464775E+00  0.17457413033E+02  0.35678263357E+02  0.40000000000E+02  0.47000000000E+01 0. -1.
         -5    1    3    3    0  501 -0.45853464775E+00 -0.17457413033E+02 -0.35678263357E+02  0.40000000000E+02  0.47000000000E+01 0.  1.
</event>
<event>
 5    1  0.4872488E-001  0.8000000E+02  0.7546771E-02  0.1203772E+00
         11   -1    0    0    0    0  0.00000000000E+00  0.00000000000E+00  0.40000000000E+02  0.40000000000E+02  0.00000000000E+00 0.  1.
        -11   -1    0    0    0    0 -0.00000000000E+00 -0.00000000000E+00 -0.40000000000E+02  0.40000000000E+02  0.00000000000E+00 0. -1.
         23    2    1    2    0    0  0.00000000000E+00  0.00000000000E+00  0.00000000000E+00  0.80000000000E+02  0.80000000000E+02 0.  0.
          5    1    3    3  501    0 -0.26590519476E+02 -0.14001863788E+01 -0.29477003785E+02  0.40000000000E+02  0.47000000000E+01 0. -1.
         -5    1    3    3    0  501  0.26590519476E+02  0.14001863788E+01  0.29477003785E+02  0.40000000000E+02  0.47000000000E+01 0.  1.
</event>
<event>
 5    1  0.4872488E-001  0.8000000E+02  0.7546771E-02  0.1203772E+00
         11   -1    0    0    0    0  0.00000000000E+00  0.00000000000E+00  0.40000000000E+02  0.40000000000E+02  0.00000000000E+00 0. -1.
        -11   -1    0    0    0    0 -0.00000000000E+00 -0.00000000000E+00 -0.40000000000E+02  0.40000000000E+02  0.00000000000E+00 0.  1.
         23    2    1    2    0    0  0.00000000000E+00  0.00000000000E+00  0.00000000000E+00  0.80000000000E+02  0.80000000000E+02 0.  0.
          5    1    3    3  501    0 -0.18911215508E+02  0.38562921674E+01  0.34718942074E+02  0.40000000000E+02  0.47000000000E+01 0. -1.
         -5    1    3    3    0  501  0.18911215508E+02 -0.38562921674E+01 -0.34718942074E+02  0.40000000000E+02  0.47000000000E+01 0.  1.
</event>
<event>
 5    1  0.4872488E-001  0.8000000E+02  0.7546771E-02  0.1203772E+00
         11   -1    0    0    0    0  0.00000000000E+00  0.00000000000E+00  0.40000000000E+02  0.40000000000E+02  0.00000000000E+00 0. -1.
        -11   -1    0    0    0    0 -0.00000000000E+00 -0.00000000000E+00 -0.40000000000E+02  0.40000000000E+02  0.00000000000E+00 0.  1.
         23    2    1    2    0    0  0.00000000000E+00  0.00000000000E+00  0.00000000000E+00  0.80000000000E+02  0.80000000000E+02 0.  0.
          5    1    3    3  501    0 -0.31462112001E+02 -0.24230022931E+02 -0.97544718833E+00  0.40000000000E+02  0.47000000000E+01 0. -1.
         -5    1    3    3    0  501  0.31462112001E+02  0.24230022931E+02  0.97544718833E+00  0.40000000000E+02  0.47000000000E+01 0.  1.
</event>
<event>
 5    1  0.4872488E-001  0.8000000E+02  0.7546771E-02  0.1203772E+00
         11   -1    0    0    0    0  0.00000000000E+00  0.00000000000E+00  0.40000000000E+02  0.40000000000E+02  0.00000000000E+00 0. -1.
        -11   -1    0    0    0    0 -0.00000000000E+00 -0.00000000000E+00 -0.40000000000E+02  0.40000000000E+02  0.00000000000E+00 0.  1.
         23    2    1    2    0    0  0.00000000000E+00  0.00000000000E+00  0.00000000000E+00  0.80000000000E+02  0.80000000000E+02 0.  0.
          5    1    3    3  501    0  0.29943054424E+02 -0.26066992739E+02  0.13547624423E+01  0.40000000000E+02  0.47000000000E+01 0. -1.
         -5    1    3    3    0  501 -0.29943054424E+02  0.26066992739E+02 -0.13547624423E+01  0.40000000000E+02  0.47000000000E+01 0.  1.
</event>
<event>
 5    1  0.4872488E-001  0.8000000E+02  0.7546771E-02  0.1203772E+00
         11   -1    0    0    0    0  0.00000000000E+00  0.00000000000E+00  0.40000000000E+02  0.40000000000E+02  0.00000000000E+00 0. -1.
        -11   -1    0    0    0    0 -0.00000000000E+00 -0.00000000000E+00 -0.40000000000E+02  0.40000000000E+02  0.00000000000E+00 0.  1.
         23    2    1    2    0    0  0.00000000000E+00  0.00000000000E+00  0.00000000000E+00  0.80000000000E+02  0.80000000000E+02 0.  0.
          5    1    3    3  501    0 -0.27518279521E+02  0.12625904382E+02  0.25714603452E+02  0.40000000000E+02  0.47000000000E+01 0. -1.
         -5    1    3    3    0  501  0.27518279521E+02 -0.12625904382E+02 -0.25714603452E+02  0.40000000000E+02  0.47000000000E+01 0.  1.
</event>
<event>
 5    1  0.4872488E-001  0.8000000E+02  0.7546771E-02  0.1203772E+00
         11   -1    0    0    0    0  0.00000000000E+00  0.00000000000E+00  0.40000000000E+02  0.40000000000E+02  0.00000000000E+00 0.  1.
        -11   -1    0    0    0    0 -0.00000000000E+00 -0.00000000000E+00 -0.40000000000E+02  0.40000000000E+02  0.00000000000E+00 0. -1.
         23    2    1    2    0    0  0.00000000000E+00  0.00000000000E+00  0.00000000000E+00  0.80000000000E+02  0.80000000000E+02 0.  0.
          5    1    3    3  501    0  0.22926364265E+02  0.30164021934E+02 -0.11934136012E+02  0.40000000000E+02  0.47000000000E+01 0. -1.
         -5    1    3    3    0  501 -0.22926364265E+02 -0.30164021934E+02  0.11934136012E+02  0.40000000000E+02  0.47000000000E+01 0.  1.
</event>
<event>
 5    1  0.4872488E-001  0.8000000E+02  0.7546771E-02  0.1203772E+00
         11   -1    0    0    0    0  0.00000000000E+00  0.00000000000E+00  0.40000000000E+02  0.40000000000E+02  0.00000000000E+00 0. -1.
        -11   -1    0    0    0    0 -0.00000000000E+00 -0.00000000000E+00 -0.40000000000E+02  0.40000000000E+02  0.00000000000E+00 0.  1.
         23    2    1    2    0    0  0.00000000000E+00  0.00000000000E+00  0.00000000000E+00  0.80000000000E+02  0.80000000000E+02 0.  0.
          5    1    3    3  501    0 -0.10473279830E+02 -0.31426479867E+02  0.21922517483E+02  0.40000000000E+02  0.47000000000E+01 0. -1.
         -5    1    3    3    0  501  0.10473279830E+02  0.31426479867E+02 -0.21922517483E+02  0.40000000000E+02  0.47000000000E+01 0.  1.
</event>
<event>
 5    1  0.4872488E-001  0.8000000E+02  0.7546771E-02  0.1203772E+00
         11   -1    0    0    0    0  0.00000000000E+00  0.00000000000E+00  0.40000000000E+02  0.40000000000E+02  0.00000000000E+00 0.  1.
        -11   -1    0    0    0    0 -0.00000000000E+00 -0.00000000000E+00 -0.40000000000E+02  0.40000000000E+02  0.00000000000E+00 0. -1.
         23    2    1    2    0    0  0.00000000000E+00  0.00000000000E+00  0.00000000000E+00  0.80000000000E+02  0.80000000000E+02 0.  0.
          5    1    3    3  501    0 -0.32070172547E+01 -0.95905441269E+01 -0.38414144578E+02  0.40000000000E+02  0.47000000000E+01 0. -1.
         -5    1    3    3    0  501  0.32070172547E+01  0.95905441269E+01  0.38414144578E+02  0.40000000000E+02  0.47000000000E+01 0.  1.
</event>
<event>
 5    1  0.4872488E-001  0.8000000E+02  0.7546771E-02  0.1203772E+00
         11   -1    0    0    0    0  0.00000000000E+00  0.00000000000E+00  0.40000000000E+02  0.40000000000E+02  0.00000000000E+00 0.  1.
        -11   -1    0    0    0    0 -0.00000000000E+00 -0.00000000000E+00 -0.40000000000E+02  0.40000000000E+02  0.00000000000E+00 0. -1.
         23    2    1    2    0    0  0.00000000000E+00  0.00000000000E+00  0.00000000000E+00  0.80000000000E+02  0.80000000000E+02 0.  0.
          5    1    3    3  501    0  0.21728599617E+01  0.21283185276E+02 -0.33469608664E+02  0.40000000000E+02  0.47000000000E+01 0. -1.
         -5    1    3    3    0  501 -0.21728599617E+01 -0.21283185276E+02  0.33469608664E+02  0.40000000000E+02  0.47000000000E+01 0.  1.
</event>
<event>
 5    1  0.4872488E-001  0.8000000E+02  0.7546771E-02  0.1203772E+00
         11   -1    0    0    0    0  0.00000000000E+00  0.00000000000E+00  0.40000000000E+02  0.40000000000E+02  0.00000000000E+00 0. -1.
        -11   -1    0    0    0    0 -0.00000000000E+00 -0.00000000000E+00 -0.40000000000E+02  0.40000000000E+02  0.00000000000E+00 0.  1.
         23    2    1    2    0    0  0.00000000000E+00  0.00000000000E+00  0.00000000000E+00  0.80000000000E+02  0.80000000000E+02 0.  0.
          5    1    3    3  501    0 -0.21970022702E+02 -0.29563041009E+02  0.14874633064E+02  0.40000000000E+02  0.47000000000E+01 0.  1.
         -5    1    3    3    0  501  0.21970022702E+02  0.29563041009E+02 -0.14874633064E+02  0.40000000000E+02  0.47000000000E+01 0. -1.
</event>
<event>
 5    1  0.4872488E-001  0.8000000E+02  0.7546771E-02  0.1203772E+00
         11   -1    0    0    0    0  0.00000000000E+00  0.00000000000E+00  0.40000000000E+02  0.40000000000E+02  0.00000000000E+00 0. -1.
        -11   -1    0    0    0    0 -0.00000000000E+00 -0.00000000000E+00 -0.40000000000E+02  0.40000000000E+02  0.00000000000E+00 0.  1.
         23    2    1    2    0    0  0.00000000000E+00  0.00000000000E+00  0.00000000000E+00  0.80000000000E+02  0.80000000000E+02 0.  0.
          5    1    3    3  501    0  0.20086627997E+02  0.60335668235E+01  0.33734751327E+02  0.40000000000E+02  0.47000000000E+01 0. -1.
         -5    1    3    3    0  501 -0.20086627997E+02 -0.60335668235E+01 -0.33734751327E+02  0.40000000000E+02  0.47000000000E+01 0.  1.
</event>
<event>
 5    1  0.4872488E-001  0.8000000E+02  0.7546771E-02  0.1203772E+00
         11   -1    0    0    0    0  0.00000000000E+00  0.00000000000E+00  0.40000000000E+02  0.40000000000E+02  0.00000000000E+00 0. -1.
        -11   -1    0    0    0    0 -0.00000000000E+00 -0.00000000000E+00 -0.40000000000E+02  0.40000000000E+02  0.00000000000E+00 0.  1.
         23    2    1    2    0    0  0.00000000000E+00  0.00000000000E+00  0.00000000000E+00  0.80000000000E+02  0.80000000000E+02 0.  0.
          5    1    3    3  501    0  0.85010609081E+01  0.17901582788E+02  0.34426375021E+02  0.40000000000E+02  0.47000000000E+01 0. -1.
         -5    1    3    3    0  501 -0.85010609081E+01 -0.17901582788E+02 -0.34426375021E+02  0.40000000000E+02  0.47000000000E+01 0.  1.
</event>
<event>
 5    1  0.4872488E-001  0.8000000E+02  0.7546771E-02  0.1203772E+00
         11   -1    0    0    0    0  0.00000000000E+00  0.00000000000E+00  0.40000000000E+02  0.40000000000E+02  0.00000000000E+00 0.  1.
        -11   -1    0    0    0    0 -0.00000000000E+00 -0.00000000000E+00 -0.40000000000E+02  0.40000000000E+02  0.00000000000E+00 0. -1.
         23    2    1    2    0    0  0.00000000000E+00  0.00000000000E+00  0.00000000000E+00  0.80000000000E+02  0.80000000000E+02 0.  0.
          5    1    3    3  501    0 -0.13836133979E+02 -0.21513898287E+02 -0.30391175972E+02  0.40000000000E+02  0.47000000000E+01 0. -1.
         -5    1    3    3    0  501  0.13836133979E+02  0.21513898287E+02  0.30391175972E+02  0.40000000000E+02  0.47000000000E+01 0.  1.
</event>
<event>
 5    1  0.4872488E-001  0.8000000E+02  0.7546771E-02  0.1203772E+00
         11   -1    0    0    0    0  0.00000000000E+00  0.00000000000E+00  0.40000000000E+02  0.40000000000E+02  0.00000000000E+00 0.  1.
        -11   -1    0    0    0    0 -0.00000000000E+00 -0.00000000000E+00 -0.40000000000E+02  0.40000000000E+02  0.00000000000E+00 0. -1.
         23    2    1    2    0    0  0.00000000000E+00  0.00000000000E+00  0.00000000000E+00  0.80000000000E+02  0.80000000000E+02 0.  0.
          5    1    3    3  501    0 -0.13084779113E+02  0.25751804644E+02 -0.27267986965E+02  0.40000000000E+02  0.47000000000E+01 0. -1.
         -5    1    3    3    0  501  0.13084779113E+02 -0.25751804644E+02  0.27267986965E+02  0.40000000000E+02  0.47000000000E+01 0.  1.
</event>
<event>
 5    1  0.4872488E-001  0.8000000E+02  0.7546771E-02  0.1203772E+00
         11   -1    0    0    0    0  0.00000000000E+00  0.00000000000E+00  0.40000000000E+02  0.40000000000E+02  0.00000000000E+00 0.  1.
        -11   -1    0    0    0    0 -0.00000000000E+00 -0.00000000000E+00 -0.40000000000E+02  0.40000000000E+02  0.00000000000E+00 0. -1.
         23    2    1    2    0    0  0.00000000000E+00  0.00000000000E+00  0.00000000000E+00  0.80000000000E+02  0.80000000000E+02 0.  0.
          5    1    3    3  501    0 -0.22814094770E+02  0.29010985058E+02 -0.14689786445E+02  0.40000000000E+02  0.47000000000E+01 0. -1.
         -5    1    3    3    0  501  0.22814094770E+02 -0.29010985058E+02  0.14689786445E+02  0.40000000000E+02  0.47000000000E+01 0.  1.
</event>
<event>
 5    1  0.4872488E-001  0.8000000E+02  0.7546771E-02  0.1203772E+00
         11   -1    0    0    0    0  0.00000000000E+00  0.00000000000E+00  0.40000000000E+02  0.40000000000E+02  0.00000000000E+00 0. -1.
        -11   -1    0    0    0    0 -0.00000000000E+00 -0.00000000000E+00 -0.40000000000E+02  0.40000000000E+02  0.00000000000E+00 0.  1.
         23    2    1    2    0    0  0.00000000000E+00  0.00000000000E+00  0.00000000000E+00  0.80000000000E+02  0.80000000000E+02 0.  0.
          5    1    3    3  501    0  0.34347301737E+01  0.23937803433E+02  0.31513397078E+02  0.40000000000E+02  0.47000000000E+01 0. -1.
         -5    1    3    3    0  501 -0.34347301737E+01 -0.23937803433E+02 -0.31513397078E+02  0.40000000000E+02  0.47000000000E+01 0.  1.
</event>
<event>
 5    1  0.4872488E-001  0.8000000E+02  0.7546771E-02  0.1203772E+00
         11   -1    0    0    0    0  0.00000000000E+00  0.00000000000E+00  0.40000000000E+02  0.40000000000E+02  0.00000000000E+00 0.  1.
        -11   -1    0    0    0    0 -0.00000000000E+00 -0.00000000000E+00 -0.40000000000E+02  0.40000000000E+02  0.00000000000E+00 0. -1.
         23    2    1    2    0    0  0.00000000000E+00  0.00000000000E+00  0.00000000000E+00  0.80000000000E+02  0.80000000000E+02 0.  0.
          5    1    3    3  501    0  0.24581452785E+02 -0.31136044974E+02 -0.20515560796E+01  0.40000000000E+02  0.47000000000E+01 0. -1.
         -5    1    3    3    0  501 -0.24581452785E+02  0.31136044974E+02  0.20515560796E+01  0.40000000000E+02  0.47000000000E+01 0.  1.
</event>
<event>
 5    1  0.4872488E-001  0.8000000E+02  0.7546771E-02  0.1203772E+00
         11   -1    0    0    0    0  0.00000000000E+00  0.00000000000E+00  0.40000000000E+02  0.40000000000E+02  0.00000000000E+00 0. -1.
        -11   -1    0    0    0    0 -0.00000000000E+00 -0.00000000000E+00 -0.40000000000E+02  0.40000000000E+02  0.00000000000E+00 0.  1.
         23    2    1    2    0    0  0.00000000000E+00  0.00000000000E+00  0.00000000000E+00  0.80000000000E+02  0.80000000000E+02 0.  0.
          5    1    3    3  501    0 -0.10275637776E+02 -0.20468772286E+02  0.32455363646E+02  0.40000000000E+02  0.47000000000E+01 0. -1.
         -5    1    3    3    0  501  0.10275637776E+02  0.20468772286E+02 -0.32455363646E+02  0.40000000000E+02  0.47000000000E+01 0.  1.
</event>
<event>
 5    1  0.4872488E-001  0.8000000E+02  0.7546771E-02  0.1203772E+00
         11   -1    0    0    0    0  0.00000000000E+00  0.00000000000E+00  0.40000000000E+02  0.40000000000E+02  0.00000000000E+00 0.  1.
        -11   -1    0    0    0    0 -0.00000000000E+00 -0.00000000000E+00 -0.40000000000E+02  0.40000000000E+02  0.00000000000E+00 0. -1.
         23    2    1    2    0    0  0.00000000000E+00  0.00000000000E+00  0.00000000000E+00  0.80000000000E+02  0.80000000000E+02 0.  0.
          5    1    3    3  501    0  0.64429413275E+01 -0.53014283846E+01 -0.38836752750E+02  0.40000000000E+02  0.47000000000E+01 0. -1.
         -5    1    3    3    0  501 -0.64429413275E+01  0.53014283846E+01  0.38836752750E+02  0.40000000000E+02  0.47000000000E+01 0.  1.
</event>
<event>
 5    1  0.4872488E-001  0.8000000E+02  0.7546771E-02  0.1203772E+00
         11   -1    0    0    0    0  0.00000000000E+00  0.00000000000E+00  0.40000000000E+02  0.40000000000E+02  0.00000000000E+00 0. -1.
        -11   -1    0    0    0    0 -0.00000000000E+00 -0.00000000000E+00 -0.40000000000E+02  0.40000000000E+02  0.00000000000E+00 0.  1.
         23    2    1    2    0    0  0.00000000000E+00  0.00000000000E+00  0.00000000000E+00  0.80000000000E+02  0.80000000000E+02 0.  0.
          5    1    3    3  501    0 -0.17960616866E+02 -0.29332322644E+02  0.19873124820E+02  0.40000000000E+02  0.47000000000E+01 0. -1.
         -5    1    3    3    0  501  0.17960616866E+02  0.29332322644E+02 -0.19873124820E+02  0.40000000000E+02  0.47000000000E+01 0.  1.
</event>
<event>
 5    1  0.4872488E-001  0.8000000E+02  0.7546771E-02  0.1203772E+00
         11   -1    0    0    0    0  0.00000000000E+00  0.00000000000E+00  0.40000000000E+02  0.40000000000E+02  0.00000000000E+00 0. -1.
        -11   -1    0    0    0    0 -0.00000000000E+00 -0.00000000000E+00 -0.40000000000E+02  0.40000000000E+02  0.00000000000E+00 0.  1.
         23    2    1    2    0    0  0.00000000000E+00  0.00000000000E+00  0.00000000000E+00  0.80000000000E+02  0.80000000000E+02 0.  0.
          5    1    3    3  501    0  0.72755047638E+01  0.33363437139E+02  0.20294287194E+02  0.40000000000E+02  0.47000000000E+01 0. -1.
         -5    1    3    3    0  501 -0.72755047638E+01 -0.33363437139E+02 -0.20294287194E+02  0.40000000000E+02  0.47000000000E+01 0.  1.
</event>
<event>
 5    1  0.4872488E-001  0.8000000E+02  0.7546771E-02  0.1203772E+00
         11   -1    0    0    0    0  0.00000000000E+00  0.00000000000E+00  0.40000000000E+02  0.40000000000E+02  0.00000000000E+00 0. -1.
        -11   -1    0    0    0    0 -0.00000000000E+00 -0.00000000000E+00 -0.40000000000E+02  0.40000000000E+02  0.00000000000E+00 0.  1.
         23    2    1    2    0    0  0.00000000000E+00  0.00000000000E+00  0.00000000000E+00  0.80000000000E+02  0.80000000000E+02 0.  0.
          5    1    3    3  501    0 -0.23083521603E+01 -0.33285998408E+02  0.21555134430E+02  0.40000000000E+02  0.47000000000E+01 0. -1.
         -5    1    3    3    0  501  0.23083521603E+01  0.33285998408E+02 -0.21555134430E+02  0.40000000000E+02  0.47000000000E+01 0.  1.
</event>
<event>
 5    1  0.4872488E-001  0.8000000E+02  0.7546771E-02  0.1203772E+00
         11   -1    0    0    0    0  0.00000000000E+00  0.00000000000E+00  0.40000000000E+02  0.40000000000E+02  0.00000000000E+00 0.  1.
        -11   -1    0    0    0    0 -0.00000000000E+00 -0.00000000000E+00 -0.40000000000E+02  0.40000000000E+02  0.00000000000E+00 0. -1.
         23    2    1    2    0    0  0.00000000000E+00  0.00000000000E+00  0.00000000000E+00  0.80000000000E+02  0.80000000000E+02 0.  0.
          5    1    3    3  501    0 -0.39204673794E+02 -0.11401466684E+01  0.62931405732E+01  0.40000000000E+02  0.47000000000E+01 0. -1.
         -5    1    3    3    0  501  0.39204673794E+02  0.11401466684E+01 -0.62931405732E+01  0.40000000000E+02  0.47000000000E+01 0.  1.
</event>
<event>
 5    1  0.4872488E-001  0.8000000E+02  0.7546771E-02  0.1203772E+00
         11   -1    0    0    0    0  0.00000000000E+00  0.00000000000E+00  0.40000000000E+02  0.40000000000E+02  0.00000000000E+00 0. -1.
        -11   -1    0    0    0    0 -0.00000000000E+00 -0.00000000000E+00 -0.40000000000E+02  0.40000000000E+02  0.00000000000E+00 0.  1.
         23    2    1    2    0    0  0.00000000000E+00  0.00000000000E+00  0.00000000000E+00  0.80000000000E+02  0.80000000000E+02 0.  0.
          5    1    3    3  501    0 -0.64110554524E+01  0.23684599126E+02  0.31238568025E+02  0.40000000000E+02  0.47000000000E+01 0. -1.
         -5    1    3    3    0  501  0.64110554524E+01 -0.23684599126E+02 -0.31238568025E+02  0.40000000000E+02  0.47000000000E+01 0.  1.
</event>
<event>
 5    1  0.4872488E-001  0.8000000E+02  0.7546771E-02  0.1203772E+00
         11   -1    0    0    0    0  0.00000000000E+00  0.00000000000E+00  0.40000000000E+02  0.40000000000E+02  0.00000000000E+00 0. -1.
        -11   -1    0    0    0    0 -0.00000000000E+00 -0.00000000000E+00 -0.40000000000E+02  0.40000000000E+02  0.00000000000E+00 0.  1.
         23    2    1    2    0    0  0.00000000000E+00  0.00000000000E+00  0.00000000000E+00  0.80000000000E+02  0.80000000000E+02 0.  0.
          5    1    3    3  501    0 -0.27201975642E+02 -0.15534742160E+02  0.24426098894E+02  0.40000000000E+02  0.47000000000E+01 0. -1.
         -5    1    3    3    0  501  0.27201975642E+02  0.15534742160E+02 -0.24426098894E+02  0.40000000000E+02  0.47000000000E+01 0.  1.
</event>
<event>
 5    1  0.4872488E-001  0.8000000E+02  0.7546771E-02  0.1203772E+00
         11   -1    0    0    0    0  0.00000000000E+00  0.00000000000E+00  0.40000000000E+02  0.40000000000E+02  0.00000000000E+00 0. -1.
        -11   -1    0    0    0    0 -0.00000000000E+00 -0.00000000000E+00 -0.40000000000E+02  0.40000000000E+02  0.00000000000E+00 0.  1.
         23    2    1    2    0    0  0.00000000000E+00  0.00000000000E+00  0.00000000000E+00  0.80000000000E+02  0.80000000000E+02 0.  0.
          5    1    3    3  501    0 -0.10448145519E+02  0.15332861860E+02  0.35123348394E+02  0.40000000000E+02  0.47000000000E+01 0. -1.
         -5    1    3    3    0  501  0.10448145519E+02 -0.15332861860E+02 -0.35123348394E+02  0.40000000000E+02  0.47000000000E+01 0.  1.
</event>
<event>
 5    1  0.4872488E-001  0.8000000E+02  0.7546771E-02  0.1203772E+00
         11   -1    0    0    0    0  0.00000000000E+00  0.00000000000E+00  0.40000000000E+02  0.40000000000E+02  0.00000000000E+00 0.  1.
        -11   -1    0    0    0    0 -0.00000000000E+00 -0.00000000000E+00 -0.40000000000E+02  0.40000000000E+02  0.00000000000E+00 0. -1.
         23    2    1    2    0    0  0.00000000000E+00  0.00000000000E+00  0.00000000000E+00  0.80000000000E+02  0.80000000000E+02 0.  0.
          5    1    3    3  501    0 -0.96076792341E+01 -0.12962796406E+02 -0.36298325155E+02  0.40000000000E+02  0.47000000000E+01 0. -1.
         -5    1    3    3    0  501  0.96076792341E+01  0.12962796406E+02  0.36298325155E+02  0.40000000000E+02  0.47000000000E+01 0.  1.
</event>
<event>
 5    1  0.4872488E-001  0.8000000E+02  0.7546771E-02  0.1203772E+00
         11   -1    0    0    0    0  0.00000000000E+00  0.00000000000E+00  0.40000000000E+02  0.40000000000E+02  0.00000000000E+00 0.  1.
        -11   -1    0    0    0    0 -0.00000000000E+00 -0.00000000000E+00 -0.40000000000E+02  0.40000000000E+02  0.00000000000E+00 0. -1.
         23    2    1    2    0    0  0.00000000000E+00  0.00000000000E+00  0.00000000000E+00  0.80000000000E+02  0.80000000000E+02 0.  0.
          5    1    3    3  501    0  0.22572375041E+02  0.32208587570E+02  0.55681928617E+01  0.40000000000E+02  0.47000000000E+01 0. -1.
         -5    1    3    3    0  501 -0.22572375041E+02 -0.32208587570E+02 -0.55681928617E+01  0.40000000000E+02  0.47000000000E+01 0.  1.
</event>
<event>
 5    1  0.4872488E-001  0.8000000E+02  0.7546771E-02  0.1203772E+00
         11   -1    0    0    0    0  0.00000000000E+00  0.00000000000E+00  0.40000000000E+02  0.40000000000E+02  0.00000000000E+00 0.  1.
        -11   -1    0    0    0    0 -0.00000000000E+00 -0.00000000000E+00 -0.40000000000E+02  0.40000000000E+02  0.00000000000E+00 0. -1.
         23    2    1    2    0    0  0.00000000000E+00  0.00000000000E+00  0.00000000000E+00  0.80000000000E+02  0.80000000000E+02 0.  0.
          5    1    3    3  501    0  0.14143456428E+02 -0.37109111655E+02  0.88683279906E+00  0.40000000000E+02  0.47000000000E+01 0. -1.
         -5    1    3    3    0  501 -0.14143456428E+02  0.37109111655E+02 -0.88683279906E+00  0.40000000000E+02  0.47000000000E+01 0.  1.
</event>
<event>
 5    1  0.4872488E-001  0.8000000E+02  0.7546771E-02  0.1203772E+00
         11   -1    0    0    0    0  0.00000000000E+00  0.00000000000E+00  0.40000000000E+02  0.40000000000E+02  0.00000000000E+00 0. -1.
        -11   -1    0    0    0    0 -0.00000000000E+00 -0.00000000000E+00 -0.40000000000E+02  0.40000000000E+02  0.00000000000E+00 0.  1.
         23    2    1    2    0    0  0.00000000000E+00  0.00000000000E+00  0.00000000000E+00  0.80000000000E+02  0.80000000000E+02 0.  0.
          5    1    3    3  501    0 -0.10478152377E+02 -0.37944483365E+02 -0.53230165281E+01  0.40000000000E+02  0.47000000000E+01 0.  1.
         -5    1    3    3    0  501  0.10478152377E+02  0.37944483365E+02  0.53230165281E+01  0.40000000000E+02  0.47000000000E+01 0. -1.
</event>
<event>
 5    1  0.4872488E-001  0.8000000E+02  0.7546771E-02  0.1203772E+00
         11   -1    0    0    0    0  0.00000000000E+00  0.00000000000E+00  0.40000000000E+02  0.40000000000E+02  0.00000000000E+00 0.  1.
        -11   -1    0    0    0    0 -0.00000000000E+00 -0.00000000000E+00 -0.40000000000E+02  0.40000000000E+02  0.00000000000E+00 0. -1.
         23    2    1    2    0    0  0.00000000000E+00  0.00000000000E+00  0.00000000000E+00  0.80000000000E+02  0.80000000000E+02 0.  0.
          5    1    3    3  501    0 -0.77577908833E+01  0.25374510643E+01 -0.38875288072E+02  0.40000000000E+02  0.47000000000E+01 0. -1.
         -5    1    3    3    0  501  0.77577908833E+01 -0.25374510643E+01  0.38875288072E+02  0.40000000000E+02  0.47000000000E+01 0.  1.
</event>
<event>
 5    1  0.4872488E-001  0.8000000E+02  0.7546771E-02  0.1203772E+00
         11   -1    0    0    0    0  0.00000000000E+00  0.00000000000E+00  0.40000000000E+02  0.40000000000E+02  0.00000000000E+00 0.  1.
        -11   -1    0    0    0    0 -0.00000000000E+00 -0.00000000000E+00 -0.40000000000E+02  0.40000000000E+02  0.00000000000E+00 0. -1.
         23    2    1    2    0    0  0.00000000000E+00  0.00000000000E+00  0.00000000000E+00  0.80000000000E+02  0.80000000000E+02 0.  0.
          5    1    3    3  501    0  0.18377504311E+02  0.12067418369E+02 -0.33084055816E+02  0.40000000000E+02  0.47000000000E+01 0. -1.
         -5    1    3    3    0  501 -0.18377504311E+02 -0.12067418369E+02  0.33084055816E+02  0.40000000000E+02  0.47000000000E+01 0.  1.
</event>
<event>
 5    1  0.4872488E-001  0.8000000E+02  0.7546771E-02  0.1203772E+00
         11   -1    0    0    0    0  0.00000000000E+00  0.00000000000E+00  0.40000000000E+02  0.40000000000E+02  0.00000000000E+00 0. -1.
        -11   -1    0    0    0    0 -0.00000000000E+00 -0.00000000000E+00 -0.40000000000E+02  0.40000000000E+02  0.00000000000E+00 0.  1.
         23    2    1    2    0    0  0.00000000000E+00  0.00000000000E+00  0.00000000000E+00  0.80000000000E+02  0.80000000000E+02 0.  0.
          5    1    3    3  501    0 -0.31874297493E+02  0.15765164064E+02  0.17703072089E+02  0.40000000000E+02  0.47000000000E+01 0. -1.
         -5    1    3    3    0  501  0.31874297493E+02 -0.15765164064E+02 -0.17703072089E+02  0.40000000000E+02  0.47000000000E+01 0.  1.
</event>
<event>
 5    1  0.4872488E-001  0.8000000E+02  0.7546771E-02  0.1203772E+00
         11   -1    0    0    0    0  0.00000000000E+00  0.00000000000E+00  0.40000000000E+02  0.40000000000E+02  0.00000000000E+00 0. -1.
        -11   -1    0    0    0    0 -0.00000000000E+00 -0.00000000000E+00 -0.40000000000E+02  0.40000000000E+02  0.00000000000E+00 0.  1.
         23    2    1    2    0    0  0.00000000000E+00  0.00000000000E+00  0.00000000000E+00  0.80000000000E+02  0.80000000000E+02 0.  0.
          5    1    3    3  501    0 -0.22967544245E+02  0.13034406258E+01  0.32383683452E+02  0.40000000000E+02  0.47000000000E+01 0. -1.
         -5    1    3    3    0  501  0.22967544245E+02 -0.13034406258E+01 -0.32383683452E+02  0.40000000000E+02  0.47000000000E+01 0.  1.
</event>
<event>
 5    1  0.4872488E-001  0.8000000E+02  0.7546771E-02  0.1203772E+00
         11   -1    0    0    0    0  0.00000000000E+00  0.00000000000E+00  0.40000000000E+02  0.40000000000E+02  0.00000000000E+00 0.  1.
        -11   -1    0    0    0    0 -0.00000000000E+00 -0.00000000000E+00 -0.40000000000E+02  0.40000000000E+02  0.00000000000E+00 0. -1.
         23    2    1    2    0    0  0.00000000000E+00  0.00000000000E+00  0.00000000000E+00  0.80000000000E+02  0.80000000000E+02 0.  0.
          5    1    3    3  501    0 -0.32579657341E+02  0.86749120188E+01 -0.21005280978E+02  0.40000000000E+02  0.47000000000E+01 0. -1.
         -5    1    3    3    0  501  0.32579657341E+02 -0.86749120188E+01  0.21005280978E+02  0.40000000000E+02  0.47000000000E+01 0.  1.
</event>
<event>
 5    1  0.4872488E-001  0.8000000E+02  0.7546771E-02  0.1203772E+00
         11   -1    0    0    0    0  0.00000000000E+00  0.00000000000E+00  0.40000000000E+02  0.40000000000E+02  0.00000000000E+00 0.  1.
        -11   -1    0    0    0    0 -0.00000000000E+00 -0.00000000000E+00 -0.40000000000E+02  0.40000000000E+02  0.00000000000E+00 0. -1.
         23    2    1    2    0    0  0.00000000000E+00  0.00000000000E+00  0.00000000000E+00  0.80000000000E+02  0.80000000000E+02 0.  0.
          5    1    3    3  501    0  0.11426603592E+02 -0.30115785129E+02 -0.23246122611E+02  0.40000000000E+02  0.47000000000E+01 0. -1.
         -5    1    3    3    0  501 -0.11426603592E+02  0.30115785129E+02  0.23246122611E+02  0.40000000000E+02  0.47000000000E+01 0.  1.
</event>
<event>
 5    1  0.4872488E-001  0.8000000E+02  0.7546771E-02  0.1203772E+00
         11   -1    0    0    0    0  0.00000000000E+00  0.00000000000E+00  0.40000000000E+02  0.40000000000E+02  0.00000000000E+00 0. -1.
        -11   -1    0    0    0    0 -0.00000000000E+00 -0.00000000000E+00 -0.40000000000E+02  0.40000000000E+02  0.00000000000E+00 0.  1.
         23    2    1    2    0    0  0.00000000000E+00  0.00000000000E+00  0.00000000000E+00  0.80000000000E+02  0.80000000000E+02 0.  0.
          5    1    3    3  501    0 -0.23888422070E+02  0.10176490481E+02  0.30061475887E+02  0.40000000000E+02  0.47000000000E+01 0. -1.
         -5    1    3    3    0  501  0.23888422070E+02 -0.10176490481E+02 -0.30061475887E+02  0.40000000000E+02  0.47000000000E+01 0.  1.
</event>
<event>
 5    1  0.4872488E-001  0.8000000E+02  0.7546771E-02  0.1203772E+00
         11   -1    0    0    0    0  0.00000000000E+00  0.00000000000E+00  0.40000000000E+02  0.40000000000E+02  0.00000000000E+00 0.  1.
        -11   -1    0    0    0    0 -0.00000000000E+00 -0.00000000000E+00 -0.40000000000E+02  0.40000000000E+02  0.00000000000E+00 0. -1.
         23    2    1    2    0    0  0.00000000000E+00  0.00000000000E+00  0.00000000000E+00  0.80000000000E+02  0.80000000000E+02 0.  0.
          5    1    3    3  501    0  0.24129481438E+02  0.13413924788E+02 -0.28561245550E+02  0.40000000000E+02  0.47000000000E+01 0. -1.
         -5    1    3    3    0  501 -0.24129481438E+02 -0.13413924788E+02  0.28561245550E+02  0.40000000000E+02  0.47000000000E+01 0.  1.
</event>
<event>
 5    1  0.4872488E-001  0.8000000E+02  0.7546771E-02  0.1203772E+00
         11   -1    0    0    0    0  0.00000000000E+00  0.00000000000E+00  0.40000000000E+02  0.40000000000E+02  0.00000000000E+00 0.  1.
        -11   -1    0    0    0    0 -0.00000000000E+00 -0.00000000000E+00 -0.40000000000E+02  0.40000000000E+02  0.00000000000E+00 0. -1.
         23    2    1    2    0    0  0.00000000000E+00  0.00000000000E+00  0.00000000000E+00  0.80000000000E+02  0.80000000000E+02 0.  0.
          5    1    3    3  501    0  0.15168567741E+02 -0.22175920142E+02 -0.29258385440E+02  0.40000000000E+02  0.47000000000E+01 0. -1.
         -5    1    3    3    0  501 -0.15168567741E+02  0.22175920142E+02  0.29258385440E+02  0.40000000000E+02  0.47000000000E+01 0.  1.
</event>
<event>
 5    1  0.4872488E-001  0.8000000E+02  0.7546771E-02  0.1203772E+00
         11   -1    0    0    0    0  0.00000000000E+00  0.00000000000E+00  0.40000000000E+02  0.40000000000E+02  0.00000000000E+00 0. -1.
        -11   -1    0    0    0    0 -0.00000000000E+00 -0.00000000000E+00 -0.40000000000E+02  0.40000000000E+02  0.00000000000E+00 0.  1.
         23    2    1    2    0    0  0.00000000000E+00  0.00000000000E+00  0.00000000000E+00  0.80000000000E+02  0.80000000000E+02 0.  0.
          5    1    3    3  501    0  0.16270898404E+02 -0.78594778965E+01  0.35375082647E+02  0.40000000000E+02  0.47000000000E+01 0. -1.
         -5    1    3    3    0  501 -0.16270898404E+02  0.78594778965E+01 -0.35375082647E+02  0.40000000000E+02  0.47000000000E+01 0.  1.
</event>
<event>
 5    1  0.4872488E-001  0.8000000E+02  0.7546771E-02  0.1203772E+00
         11   -1    0    0    0    0  0.00000000000E+00  0.00000000000E+00  0.40000000000E+02  0.40000000000E+02  0.00000000000E+00 0.  1.
        -11   -1    0    0    0    0 -0.00000000000E+00 -0.00000000000E+00 -0.40000000000E+02  0.40000000000E+02  0.00000000000E+00 0. -1.
         23    2    1    2    0    0  0.00000000000E+00  0.00000000000E+00  0.00000000000E+00  0.80000000000E+02  0.80000000000E+02 0.  0.
          5    1    3    3  501    0  0.57461978359E+01  0.39286831724E+02 -0.11983586880E+01  0.40000000000E+02  0.47000000000E+01 0. -1.
         -5    1    3    3    0  501 -0.57461978359E+01 -0.39286831724E+02  0.11983586880E+01  0.40000000000E+02  0.47000000000E+01 0.  1.
</event>
<event>
 5    1  0.4872488E-001  0.8000000E+02  0.7546771E-02  0.1203772E+00
         11   -1    0    0    0    0  0.00000000000E+00  0.00000000000E+00  0.40000000000E+02  0.40000000000E+02  0.00000000000E+00 0.  1.
        -11   -1    0    0    0    0 -0.00000000000E+00 -0.00000000000E+00 -0.40000000000E+02  0.40000000000E+02  0.00000000000E+00 0. -1.
         23    2    1    2    0    0  0.00000000000E+00  0.00000000000E+00  0.00000000000E+00  0.80000000000E+02  0.80000000000E+02 0.  0.
          5    1    3    3  501    0  0.15234480582E+02  0.30612532209E+02 -0.20216168607E+02  0.40000000000E+02  0.47000000000E+01 0. -1.
         -5    1    3    3    0  501 -0.15234480582E+02 -0.30612532209E+02  0.20216168607E+02  0.40000000000E+02  0.47000000000E+01 0.  1.
</event>
<event>
 5    1  0.4872488E-001  0.8000000E+02  0.7546771E-02  0.1203772E+00
         11   -1    0    0    0    0  0.00000000000E+00  0.00000000000E+00  0.40000000000E+02  0.40000000000E+02  0.00000000000E+00 0. -1.
        -11   -1    0    0    0    0 -0.00000000000E+00 -0.00000000000E+00 -0.40000000000E+02  0.40000000000E+02  0.00000000000E+00 0.  1.
         23    2    1    2    0    0  0.00000000000E+00  0.00000000000E+00  0.00000000000E+00  0.80000000000E+02  0.80000000000E+02 0.  0.
          5    1    3    3  501    0 -0.45822786376E+01  0.25803819824E+02  0.29850889517E+02  0.40000000000E+02  0.47000000000E+01 0. -1.
         -5    1    3    3    0  501  0.45822786376E+01 -0.25803819824E+02 -0.29850889517E+02  0.40000000000E+02  0.47000000000E+01 0.  1.
</event>
<event>
 5    1  0.4872488E-001  0.8000000E+02  0.7546771E-02  0.1203772E+00
         11   -1    0    0    0    0  0.00000000000E+00  0.00000000000E+00  0.40000000000E+02  0.40000000000E+02  0.00000000000E+00 0.  1.
        -11   -1    0    0    0    0 -0.00000000000E+00 -0.00000000000E+00 -0.40000000000E+02  0.40000000000E+02  0.00000000000E+00 0. -1.
         23    2    1    2    0    0  0.00000000000E+00  0.00000000000E+00  0.00000000000E+00  0.80000000000E+02  0.80000000000E+02 0.  0.
          5    1    3    3  501    0  0.29839919008E+02 -0.18626631444E+02 -0.18453667240E+02  0.40000000000E+02  0.47000000000E+01 0. -1.
         -5    1    3    3    0  501 -0.29839919008E+02  0.18626631444E+02  0.18453667240E+02  0.40000000000E+02  0.47000000000E+01 0.  1.
</event>
<event>
 5    1  0.4872488E-001  0.8000000E+02  0.7546771E-02  0.1203772E+00
         11   -1    0    0    0    0  0.00000000000E+00  0.00000000000E+00  0.40000000000E+02  0.40000000000E+02  0.00000000000E+00 0. -1.
        -11   -1    0    0    0    0 -0.00000000000E+00 -0.00000000000E+00 -0.40000000000E+02  0.40000000000E+02  0.00000000000E+00 0.  1.
         23    2    1    2    0    0  0.00000000000E+00  0.00000000000E+00  0.00000000000E+00  0.80000000000E+02  0.80000000000E+02 0.  0.
          5    1    3    3  501    0 -0.37241662427E+02  0.11571459410E+02 -0.75544627081E+01  0.40000000000E+02  0.47000000000E+01 0. -1.
         -5    1    3    3    0  501  0.37241662427E+02 -0.11571459410E+02  0.75544627081E+01  0.40000000000E+02  0.47000000000E+01 0.  1.
</event>
<event>
 5    1  0.4872488E-001  0.8000000E+02  0.7546771E-02  0.1203772E+00
         11   -1    0    0    0    0  0.00000000000E+00  0.00000000000E+00  0.40000000000E+02  0.40000000000E+02  0.00000000000E+00 0.  1.
        -11   -1    0    0    0    0 -0.00000000000E+00 -0.00000000000E+00 -0.40000000000E+02  0.40000000000E+02  0.00000000000E+00 0. -1.
         23    2    1    2    0    0  0.00000000000E+00  0.00000000000E+00  0.00000000000E+00  0.80000000000E+02  0.80000000000E+02 0.  0.
          5    1    3    3  501    0 -0.88341812082E+01 -0.25065239973E+02 -0.29522889213E+02  0.40000000000E+02  0.47000000000E+01 0. -1.
         -5    1    3    3    0  501  0.88341812082E+01  0.25065239973E+02  0.29522889213E+02  0.40000000000E+02  0.47000000000E+01 0.  1.
</event>
<event>
 5    1  0.4872488E-001  0.8000000E+02  0.7546771E-02  0.1203772E+00
         11   -1    0    0    0    0  0.00000000000E+00  0.00000000000E+00  0.40000000000E+02  0.40000000000E+02  0.00000000000E+00 0. -1.
        -11   -1    0    0    0    0 -0.00000000000E+00 -0.00000000000E+00 -0.40000000000E+02  0.40000000000E+02  0.00000000000E+00 0.  1.
         23    2    1    2    0    0  0.00000000000E+00  0.00000000000E+00  0.00000000000E+00  0.80000000000E+02  0.80000000000E+02 0.  0.
          5    1    3    3  501    0 -0.17340460324E+02 -0.26408867615E+02  0.24078831929E+02  0.40000000000E+02  0.47000000000E+01 0. -1.
         -5    1    3    3    0  501  0.17340460324E+02  0.26408867615E+02 -0.24078831929E+02  0.40000000000E+02  0.47000000000E+01 0.  1.
</event>
<event>
 5    1  0.4872488E-001  0.8000000E+02  0.7546771E-02  0.1203772E+00
         11   -1    0    0    0    0  0.00000000000E+00  0.00000000000E+00  0.40000000000E+02  0.40000000000E+02  0.00000000000E+00 0.  1.
        -11   -1    0    0    0    0 -0.00000000000E+00 -0.00000000000E+00 -0.40000000000E+02  0.40000000000E+02  0.00000000000E+00 0. -1.
         23    2    1    2    0    0  0.00000000000E+00  0.00000000000E+00  0.00000000000E+00  0.80000000000E+02  0.80000000000E+02 0.  0.
          5    1    3    3  501    0 -0.35189356775E+02 -0.13107649982E+02 -0.12954099031E+02  0.40000000000E+02  0.47000000000E+01 0. -1.
         -5    1    3    3    0  501  0.35189356775E+02  0.13107649982E+02  0.12954099031E+02  0.40000000000E+02  0.47000000000E+01 0.  1.
</event>
<event>
 5    1  0.4872488E-001  0.8000000E+02  0.7546771E-02  0.1203772E+00
         11   -1    0    0    0    0  0.00000000000E+00  0.00000000000E+00  0.40000000000E+02  0.40000000000E+02  0.00000000000E+00 0.  1.
        -11   -1    0    0    0    0 -0.00000000000E+00 -0.00000000000E+00 -0.40000000000E+02  0.40000000000E+02  0.00000000000E+00 0. -1.
         23    2    1    2    0    0  0.00000000000E+00  0.00000000000E+00  0.00000000000E+00  0.80000000000E+02  0.80000000000E+02 0.  0.
          5    1    3    3  501    0  0.64999913745E+01 -0.22000104748E+02 -0.32429238400E+02  0.40000000000E+02  0.47000000000E+01 0. -1.
         -5    1    3    3    0  501 -0.64999913745E+01  0.22000104748E+02  0.32429238400E+02  0.40000000000E+02  0.47000000000E+01 0.  1.
</event>
<event>
 5    1  0.4872488E-001  0.8000000E+02  0.7546771E-02  0.1203772E+00
         11   -1    0    0    0    0  0.00000000000E+00  0.00000000000E+00  0.40000000000E+02  0.40000000000E+02  0.00000000000E+00 0.  1.
        -11   -1    0    0    0    0 -0.00000000000E+00 -0.00000000000E+00 -0.40000000000E+02  0.40000000000E+02  0.00000000000E+00 0. -1.
         23    2    1    2    0    0  0.00000000000E+00  0.00000000000E+00  0.00000000000E+00  0.80000000000E+02  0.80000000000E+02 0.  0.
          5    1    3    3  501    0 -0.12651495483E+02  0.33116302508E+02 -0.17920942226E+02  0.40000000000E+02  0.47000000000E+01 0. -1.
         -5    1    3    3    0  501  0.12651495483E+02 -0.33116302508E+02  0.17920942226E+02  0.40000000000E+02  0.47000000000E+01 0.  1.
</event>
<event>
 5    1  0.4872488E-001  0.8000000E+02  0.7546771E-02  0.1203772E+00
         11   -1    0    0    0    0  0.00000000000E+00  0.00000000000E+00  0.40000000000E+02  0.40000000000E+02  0.00000000000E+00 0. -1.
        -11   -1    0    0    0    0 -0.00000000000E+00 -0.00000000000E+00 -0.40000000000E+02  0.40000000000E+02  0.00000000000E+00 0.  1.
         23    2    1    2    0    0  0.00000000000E+00  0.00000000000E+00  0.00000000000E+00  0.80000000000E+02  0.80000000000E+02 0.  0.
          5    1    3    3  501    0 -0.54841706215E+01 -0.19784408983E+02  0.34006044078E+02  0.40000000000E+02  0.47000000000E+01 0. -1.
         -5    1    3    3    0  501  0.54841706215E+01  0.19784408983E+02 -0.34006044078E+02  0.40000000000E+02  0.47000000000E+01 0.  1.
</event>
<event>
 5    1  0.4872488E-001  0.8000000E+02  0.7546771E-02  0.1203772E+00
         11   -1    0    0    0    0  0.00000000000E+00  0.00000000000E+00  0.40000000000E+02  0.40000000000E+02  0.00000000000E+00 0. -1.
        -11   -1    0    0    0    0 -0.00000000000E+00 -0.00000000000E+00 -0.40000000000E+02  0.40000000000E+02  0.00000000000E+00 0.  1.
         23    2    1    2    0    0  0.00000000000E+00  0.00000000000E+00  0.00000000000E+00  0.80000000000E+02  0.80000000000E+02 0.  0.
          5    1    3    3  501    0 -0.31968958394E+02 -0.23574360504E+02  0.38108532749E+00  0.40000000000E+02  0.47000000000E+01 0. -1.
         -5    1    3    3    0  501  0.31968958394E+02  0.23574360504E+02 -0.38108532749E+00  0.40000000000E+02  0.47000000000E+01 0.  1.
</event>
<event>
 5    1  0.4872488E-001  0.8000000E+02  0.7546771E-02  0.1203772E+00
         11   -1    0    0    0    0  0.00000000000E+00  0.00000000000E+00  0.40000000000E+02  0.40000000000E+02  0.00000000000E+00 0. -1.
        -11   -1    0    0    0    0 -0.00000000000E+00 -0.00000000000E+00 -0.40000000000E+02  0.40000000000E+02  0.00000000000E+00 0.  1.
         23    2    1    2    0    0  0.00000000000E+00  0.00000000000E+00  0.00000000000E+00  0.80000000000E+02  0.80000000000E+02 0.  0.
          5    1    3    3  501    0  0.25622342967E+02  0.25905416776E+02  0.15821343891E+02  0.40000000000E+02  0.47000000000E+01 0. -1.
         -5    1    3    3    0  501 -0.25622342967E+02 -0.25905416776E+02 -0.15821343891E+02  0.40000000000E+02  0.47000000000E+01 0.  1.
</event>
<event>
 5    1  0.4872488E-001  0.8000000E+02  0.7546771E-02  0.1203772E+00
         11   -1    0    0    0    0  0.00000000000E+00  0.00000000000E+00  0.40000000000E+02  0.40000000000E+02  0.00000000000E+00 0. -1.
        -11   -1    0    0    0    0 -0.00000000000E+00 -0.00000000000E+00 -0.40000000000E+02  0.40000000000E+02  0.00000000000E+00 0.  1.
         23    2    1    2    0    0  0.00000000000E+00  0.00000000000E+00  0.00000000000E+00  0.80000000000E+02  0.80000000000E+02 0.  0.
          5    1    3    3  501    0  0.15277563009E+02  0.59496741163E+01  0.36181589882E+02  0.40000000000E+02  0.47000000000E+01 0. -1.
         -5    1    3    3    0  501 -0.15277563009E+02 -0.59496741163E+01 -0.36181589882E+02  0.40000000000E+02  0.47000000000E+01 0.  1.
</event>
<event>
 5    1  0.4872488E-001  0.8000000E+02  0.7546771E-02  0.1203772E+00
         11   -1    0    0    0    0  0.00000000000E+00  0.00000000000E+00  0.40000000000E+02  0.40000000000E+02  0.00000000000E+00 0.  1.
        -11   -1    0    0    0    0 -0.00000000000E+00 -0.00000000000E+00 -0.40000000000E+02  0.40000000000E+02  0.00000000000E+00 0. -1.
         23    2    1    2    0    0  0.00000000000E+00  0.00000000000E+00  0.00000000000E+00  0.80000000000E+02  0.80000000000E+02 0.  0.
          5    1    3    3  501    0 -0.23700607085E+02 -0.26506986742E+02 -0.17707932619E+02  0.40000000000E+02  0.47000000000E+01 0. -1.
         -5    1    3    3    0  501  0.23700607085E+02  0.26506986742E+02  0.17707932619E+02  0.40000000000E+02  0.47000000000E+01 0.  1.
</event>
<event>
 5    1  0.4872488E-001  0.8000000E+02  0.7546771E-02  0.1203772E+00
         11   -1    0    0    0    0  0.00000000000E+00  0.00000000000E+00  0.40000000000E+02  0.40000000000E+02  0.00000000000E+00 0.  1.
        -11   -1    0    0    0    0 -0.00000000000E+00 -0.00000000000E+00 -0.40000000000E+02  0.40000000000E+02  0.00000000000E+00 0. -1.
         23    2    1    2    0    0  0.00000000000E+00  0.00000000000E+00  0.00000000000E+00  0.80000000000E+02  0.80000000000E+02 0.  0.
          5    1    3    3  501    0  0.67803731539E+01  0.29836703893E+02 -0.25331949010E+02  0.40000000000E+02  0.47000000000E+01 0. -1.
         -5    1    3    3    0  501 -0.67803731539E+01 -0.29836703893E+02  0.25331949010E+02  0.40000000000E+02  0.47000000000E+01 0.  1.
</event>
<event>
 5    1  0.4872488E-001  0.8000000E+02  0.7546771E-02  0.1203772E+00
         11   -1    0    0    0    0  0.00000000000E+00  0.00000000000E+00  0.40000000000E+02  0.40000000000E+02  0.00000000000E+00 0. -1.
        -11   -1    0    0    0    0 -0.00000000000E+00 -0.00000000000E+00 -0.40000000000E+02  0.40000000000E+02  0.00000000000E+00 0.  1.
         23    2    1    2    0    0  0.00000000000E+00  0.00000000000E+00  0.00000000000E+00  0.80000000000E+02  0.80000000000E+02 0.  0.
          5    1    3    3  501    0  0.24793772953E+02 -0.21315642921E+02  0.22557087347E+02  0.40000000000E+02  0.47000000000E+01 0. -1.
         -5    1    3    3    0  501 -0.24793772953E+02  0.21315642921E+02 -0.22557087347E+02  0.40000000000E+02  0.47000000000E+01 0.  1.
</event>
<event>
 5    1  0.4872488E-001  0.8000000E+02  0.7546771E-02  0.1203772E+00
         11   -1    0    0    0    0  0.00000000000E+00  0.00000000000E+00  0.40000000000E+02  0.40000000000E+02  0.00000000000E+00 0.  1.
        -11   -1    0    0    0    0 -0.00000000000E+00 -0.00000000000E+00 -0.40000000000E+02  0.40000000000E+02  0.00000000000E+00 0. -1.
         23    2    1    2    0    0  0.00000000000E+00  0.00000000000E+00  0.00000000000E+00  0.80000000000E+02  0.80000000000E+02 0.  0.
          5    1    3    3  501    0 -0.67924120713E+01 -0.36838143708E+02 -0.13218332209E+02  0.40000000000E+02  0.47000000000E+01 0. -1.
         -5    1    3    3    0  501  0.67924120713E+01  0.36838143708E+02  0.13218332209E+02  0.40000000000E+02  0.47000000000E+01 0.  1.
</event>
<event>
 5    1  0.4872488E-001  0.8000000E+02  0.7546771E-02  0.1203772E+00
         11   -1    0    0    0    0  0.00000000000E+00  0.00000000000E+00  0.40000000000E+02  0.40000000000E+02  0.00000000000E+00 0.  1.
        -11   -1    0    0    0    0 -0.00000000000E+00 -0.00000000000E+00 -0.40000000000E+02  0.40000000000E+02  0.00000000000E+00 0. -1.
         23    2    1    2    0    0  0.00000000000E+00  0.00000000000E+00  0.00000000000E+00  0.80000000000E+02  0.80000000000E+02 0.  0.
          5    1    3    3  501    0  0.74636619059E+01  0.20761882231E+02 -0.33032529379E+02  0.40000000000E+02  0.47000000000E+01 0. -1.
         -5    1    3    3    0  501 -0.74636619059E+01 -0.20761882231E+02  0.33032529379E+02  0.40000000000E+02  0.47000000000E+01 0.  1.
</event>
<event>
 5    1  0.4872488E-001  0.8000000E+02  0.7546771E-02  0.1203772E+00
         11   -1    0    0    0    0  0.00000000000E+00  0.00000000000E+00  0.40000000000E+02  0.40000000000E+02  0.00000000000E+00 0. -1.
        -11   -1    0    0    0    0 -0.00000000000E+00 -0.00000000000E+00 -0.40000000000E+02  0.40000000000E+02  0.00000000000E+00 0.  1.
         23    2    1    2    0    0  0.00000000000E+00  0.00000000000E+00  0.00000000000E+00  0.80000000000E+02  0.80000000000E+02 0.  0.
          5    1    3    3  501    0 -0.86806671501E+01 -0.33928803761E+02 -0.18745460601E+02  0.40000000000E+02  0.47000000000E+01 0.  1.
         -5    1    3    3    0  501  0.86806671501E+01  0.33928803761E+02  0.18745460601E+02  0.40000000000E+02  0.47000000000E+01 0. -1.
</event>
<event>
 5    1  0.4872488E-001  0.8000000E+02  0.7546771E-02  0.1203772E+00
         11   -1    0    0    0    0  0.00000000000E+00  0.00000000000E+00  0.40000000000E+02  0.40000000000E+02  0.00000000000E+00 0.  1.
        -11   -1    0    0    0    0 -0.00000000000E+00 -0.00000000000E+00 -0.40000000000E+02  0.40000000000E+02  0.00000000000E+00 0. -1.
         23    2    1    2    0    0  0.00000000000E+00  0.00000000000E+00  0.00000000000E+00  0.80000000000E+02  0.80000000000E+02 0.  0.
          5    1    3    3  501    0  0.28542167049E+02  0.26538604473E+02  0.76783574266E+01  0.40000000000E+02  0.47000000000E+01 0. -1.
         -5    1    3    3    0  501 -0.28542167049E+02 -0.26538604473E+02 -0.76783574266E+01  0.40000000000E+02  0.47000000000E+01 0.  1.
</event>
<event>
 5    1  0.4872488E-001  0.8000000E+02  0.7546771E-02  0.1203772E+00
         11   -1    0    0    0    0  0.00000000000E+00  0.00000000000E+00  0.40000000000E+02  0.40000000000E+02  0.00000000000E+00 0.  1.
        -11   -1    0    0    0    0 -0.00000000000E+00 -0.00000000000E+00 -0.40000000000E+02  0.40000000000E+02  0.00000000000E+00 0. -1.
         23    2    1    2    0    0  0.00000000000E+00  0.00000000000E+00  0.00000000000E+00  0.80000000000E+02  0.80000000000E+02 0.  0.
          5    1    3    3  501    0 -0.27121861379E+02 -0.21286193463E+02 -0.19728471892E+02  0.40000000000E+02  0.47000000000E+01 0. -1.
         -5    1    3    3    0  501  0.27121861379E+02  0.21286193463E+02  0.19728471892E+02  0.40000000000E+02  0.47000000000E+01 0.  1.
</event>
<event>
 5    1  0.4872488E-001  0.8000000E+02  0.7546771E-02  0.1203772E+00
         11   -1    0    0    0    0  0.00000000000E+00  0.00000000000E+00  0.40000000000E+02  0.40000000000E+02  0.00000000000E+00 0. -1.
        -11   -1    0    0    0    0 -0.00000000000E+00 -0.00000000000E+00 -0.40000000000E+02  0.40000000000E+02  0.00000000000E+00 0.  1.
         23    2    1    2    0    0  0.00000000000E+00  0.00000000000E+00  0.00000000000E+00  0.80000000000E+02  0.80000000000E+02 0.  0.
          5    1    3    3  501    0  0.31490965457E+02  0.24184392318E+02 -0.11594234721E+01  0.40000000000E+02  0.47000000000E+01 0.  1.
         -5    1    3    3    0  501 -0.31490965457E+02 -0.24184392318E+02  0.11594234721E+01  0.40000000000E+02  0.47000000000E+01 0. -1.
</event>
<event>
 5    1  0.4872488E-001  0.8000000E+02  0.7546771E-02  0.1203772E+00
         11   -1    0    0    0    0  0.00000000000E+00  0.00000000000E+00  0.40000000000E+02  0.40000000000E+02  0.00000000000E+00 0. -1.
        -11   -1    0    0    0    0 -0.00000000000E+00 -0.00000000000E+00 -0.40000000000E+02  0.40000000000E+02  0.00000000000E+00 0.  1.
         23    2    1    2    0    0  0.00000000000E+00  0.00000000000E+00  0.00000000000E+00  0.80000000000E+02  0.80000000000E+02 0.  0.
          5    1    3    3  501    0 -0.30660663972E+02 -0.22621637657E+02  0.11229211662E+02  0.40000000000E+02  0.47000000000E+01 0. -1.
         -5    1    3    3    0  501  0.30660663972E+02  0.22621637657E+02 -0.11229211662E+02  0.40000000000E+02  0.47000000000E+01 0.  1.
</event>
<event>
 5    1  0.4872488E-001  0.8000000E+02  0.7546771E-02  0.1203772E+00
         11   -1    0    0    0    0  0.00000000000E+00  0.00000000000E+00  0.40000000000E+02  0.40000000000E+02  0.00000000000E+00 0.  1.
        -11   -1    0    0    0    0 -0.00000000000E+00 -0.00000000000E+00 -0.40000000000E+02  0.40000000000E+02  0.00000000000E+00 0. -1.
         23    2    1    2    0    0  0.00000000000E+00  0.00000000000E+00  0.00000000000E+00  0.80000000000E+02  0.80000000000E+02 0.  0.
          5    1    3    3  501    0 -0.31471623108E+02  0.23777575174E+02 -0.46982824294E+01  0.40000000000E+02  0.47000000000E+01 0. -1.
         -5    1    3    3    0  501  0.31471623108E+02 -0.23777575174E+02  0.46982824294E+01  0.40000000000E+02  0.47000000000E+01 0.  1.
</event>
<event>
 5    1  0.4872488E-001  0.8000000E+02  0.7546771E-02  0.1203772E+00
         11   -1    0    0    0    0  0.00000000000E+00  0.00000000000E+00  0.40000000000E+02  0.40000000000E+02  0.00000000000E+00 0.  1.
        -11   -1    0    0    0    0 -0.00000000000E+00 -0.00000000000E+00 -0.40000000000E+02  0.40000000000E+02  0.00000000000E+00 0. -1.
         23    2    1    2    0    0  0.00000000000E+00  0.00000000000E+00  0.00000000000E+00  0.80000000000E+02  0.80000000000E+02 0.  0.
          5    1    3    3  501    0 -0.27733370636E+02 -0.11496071356E+02 -0.26011737668E+02  0.40000000000E+02  0.47000000000E+01 0. -1.
         -5    1    3    3    0  501  0.27733370636E+02  0.11496071356E+02  0.26011737668E+02  0.40000000000E+02  0.47000000000E+01 0.  1.
</event>
<event>
 5    1  0.4872488E-001  0.8000000E+02  0.7546771E-02  0.1203772E+00
         11   -1    0    0    0    0  0.00000000000E+00  0.00000000000E+00  0.40000000000E+02  0.40000000000E+02  0.00000000000E+00 0. -1.
        -11   -1    0    0    0    0 -0.00000000000E+00 -0.00000000000E+00 -0.40000000000E+02  0.40000000000E+02  0.00000000000E+00 0.  1.
         23    2    1    2    0    0  0.00000000000E+00  0.00000000000E+00  0.00000000000E+00  0.80000000000E+02  0.80000000000E+02 0.  0.
          5    1    3    3  501    0  0.13280112631E+02 -0.36362121402E+02  0.89075662008E+01  0.40000000000E+02  0.47000000000E+01 0. -1.
         -5    1    3    3    0  501 -0.13280112631E+02  0.36362121402E+02 -0.89075662008E+01  0.40000000000E+02  0.47000000000E+01 0.  1.
</event>
<event>
 5    1  0.4872488E-001  0.8000000E+02  0.7546771E-02  0.1203772E+00
         11   -1    0    0    0    0  0.00000000000E+00  0.00000000000E+00  0.40000000000E+02  0.40000000000E+02  0.00000000000E+00 0. -1.
        -11   -1    0    0    0    0 -0.00000000000E+00 -0.00000000000E+00 -0.40000000000E+02  0.40000000000E+02  0.00000000000E+00 0.  1.
         23    2    1    2    0    0  0.00000000000E+00  0.00000000000E+00  0.00000000000E+00  0.80000000000E+02  0.80000000000E+02 0.  0.
          5    1    3    3  501    0  0.29193633903E+02 -0.21700219702E+02  0.15960645488E+02  0.40000000000E+02  0.47000000000E+01 0. -1.
         -5    1    3    3    0  501 -0.29193633903E+02  0.21700219702E+02 -0.15960645488E+02  0.40000000000E+02  0.47000000000E+01 0.  1.
</event>
<event>
 5    1  0.4872488E-001  0.8000000E+02  0.7546771E-02  0.1203772E+00
         11   -1    0    0    0    0  0.00000000000E+00  0.00000000000E+00  0.40000000000E+02  0.40000000000E+02  0.00000000000E+00 0.  1.
        -11   -1    0    0    0    0 -0.00000000000E+00 -0.00000000000E+00 -0.40000000000E+02  0.40000000000E+02  0.00000000000E+00 0. -1.
         23    2    1    2    0    0  0.00000000000E+00  0.00000000000E+00  0.00000000000E+00  0.80000000000E+02  0.80000000000E+02 0.  0.
          5    1    3    3  501    0 -0.21787686274E+02 -0.20837448964E+02 -0.25865178281E+02  0.40000000000E+02  0.47000000000E+01 0. -1.
         -5    1    3    3    0  501  0.21787686274E+02  0.20837448964E+02  0.25865178281E+02  0.40000000000E+02  0.47000000000E+01 0.  1.
</event>
<event>
 5    1  0.4872488E-001  0.8000000E+02  0.7546771E-02  0.1203772E+00
         11   -1    0    0    0    0  0.00000000000E+00  0.00000000000E+00  0.40000000000E+02  0.40000000000E+02  0.00000000000E+00 0. -1.
        -11   -1    0    0    0    0 -0.00000000000E+00 -0.00000000000E+00 -0.40000000000E+02  0.40000000000E+02  0.00000000000E+00 0.  1.
         23    2    1    2    0    0  0.00000000000E+00  0.00000000000E+00  0.00000000000E+00  0.80000000000E+02  0.80000000000E+02 0.  0.
          5    1    3    3  501    0  0.39114795800E+02  0.44107308227E+01  0.53374341339E+01  0.40000000000E+02  0.47000000000E+01 0. -1.
         -5    1    3    3    0  501 -0.39114795800E+02 -0.44107308227E+01 -0.53374341339E+01  0.40000000000E+02  0.47000000000E+01 0.  1.
</event>
<event>
 5    1  0.4872488E-001  0.8000000E+02  0.7546771E-02  0.1203772E+00
         11   -1    0    0    0    0  0.00000000000E+00  0.00000000000E+00  0.40000000000E+02  0.40000000000E+02  0.00000000000E+00 0.  1.
        -11   -1    0    0    0    0 -0.00000000000E+00 -0.00000000000E+00 -0.40000000000E+02  0.40000000000E+02  0.00000000000E+00 0. -1.
         23    2    1    2    0    0  0.00000000000E+00  0.00000000000E+00  0.00000000000E+00  0.80000000000E+02  0.80000000000E+02 0.  0.
          5    1    3    3  501    0 -0.30919762096E+02  0.19019706479E+02 -0.16128517519E+02  0.40000000000E+02  0.47000000000E+01 0. -1.
         -5    1    3    3    0  501  0.30919762096E+02 -0.19019706479E+02  0.16128517519E+02  0.40000000000E+02  0.47000000000E+01 0.  1.
</event>
<event>
 5    1  0.4872488E-001  0.8000000E+02  0.7546771E-02  0.1203772E+00
         11   -1    0    0    0    0  0.00000000000E+00  0.00000000000E+00  0.40000000000E+02  0.40000000000E+02  0.00000000000E+00 0.  1.
        -11   -1    0    0    0    0 -0.00000000000E+00 -0.00000000000E+00 -0.40000000000E+02  0.40000000000E+02  0.00000000000E+00 0. -1.
         23    2    1    2    0    0  0.00000000000E+00  0.00000000000E+00  0.00000000000E+00  0.80000000000E+02  0.80000000000E+02 0.  0.
          5    1    3    3  501    0 -0.78651188416E+01 -0.20182655738E+02 -0.33297301887E+02  0.40000000000E+02  0.47000000000E+01 0. -1.
         -5    1    3    3    0  501  0.78651188416E+01  0.20182655738E+02  0.33297301887E+02  0.40000000000E+02  0.47000000000E+01 0.  1.
</event>
<event>
 5    1  0.4872488E-001  0.8000000E+02  0.7546771E-02  0.1203772E+00
         11   -1    0    0    0    0  0.00000000000E+00  0.00000000000E+00  0.40000000000E+02  0.40000000000E+02  0.00000000000E+00 0.  1.
        -11   -1    0    0    0    0 -0.00000000000E+00 -0.00000000000E+00 -0.40000000000E+02  0.40000000000E+02  0.00000000000E+00 0. -1.
         23    2    1    2    0    0  0.00000000000E+00  0.00000000000E+00  0.00000000000E+00  0.80000000000E+02  0.80000000000E+02 0.  0.
          5    1    3    3  501    0  0.41381963986E+01  0.37647134515E+02  0.11978255022E+02  0.40000000000E+02  0.47000000000E+01 0. -1.
         -5    1    3    3    0  501 -0.41381963986E+01 -0.37647134515E+02 -0.11978255022E+02  0.40000000000E+02  0.47000000000E+01 0.  1.
</event>
<event>
 5    1  0.4872488E-001  0.8000000E+02  0.7546771E-02  0.1203772E+00
         11   -1    0    0    0    0  0.00000000000E+00  0.00000000000E+00  0.40000000000E+02  0.40000000000E+02  0.00000000000E+00 0. -1.
        -11   -1    0    0    0    0 -0.00000000000E+00 -0.00000000000E+00 -0.40000000000E+02  0.40000000000E+02  0.00000000000E+00 0.  1.
         23    2    1    2    0    0  0.00000000000E+00  0.00000000000E+00  0.00000000000E+00  0.80000000000E+02  0.80000000000E+02 0.  0.
          5    1    3    3  501    0  0.30917686250E+01  0.12751703574E+02  0.37493266365E+02  0.40000000000E+02  0.47000000000E+01 0. -1.
         -5    1    3    3    0  501 -0.30917686250E+01 -0.12751703574E+02 -0.37493266365E+02  0.40000000000E+02  0.47000000000E+01 0.  1.
</event>
<event>
 5    1  0.4872488E-001  0.8000000E+02  0.7546771E-02  0.1203772E+00
         11   -1    0    0    0    0  0.00000000000E+00  0.00000000000E+00  0.40000000000E+02  0.40000000000E+02  0.00000000000E+00 0.  1.
        -11   -1    0    0    0    0 -0.00000000000E+00 -0.00000000000E+00 -0.40000000000E+02  0.40000000000E+02  0.00000000000E+00 0. -1.
         23    2    1    2    0    0  0.00000000000E+00  0.00000000000E+00  0.00000000000E+00  0.80000000000E+02  0.80000000000E+02 0.  0.
          5    1    3    3  501    0  0.16938832005E+02 -0.14308737173E+02 -0.32958246476E+02  0.40000000000E+02  0.47000000000E+01 0. -1.
         -5    1    3    3    0  501 -0.16938832005E+02  0.14308737173E+02  0.32958246476E+02  0.40000000000E+02  0.47000000000E+01 0.  1.
</event>
<event>
 5    1  0.4872488E-001  0.8000000E+02  0.7546771E-02  0.1203772E+00
         11   -1    0    0    0    0  0.00000000000E+00  0.00000000000E+00  0.40000000000E+02  0.40000000000E+02  0.00000000000E+00 0. -1.
        -11   -1    0    0    0    0 -0.00000000000E+00 -0.00000000000E+00 -0.40000000000E+02  0.40000000000E+02  0.00000000000E+00 0.  1.
         23    2    1    2    0    0  0.00000000000E+00  0.00000000000E+00  0.00000000000E+00  0.80000000000E+02  0.80000000000E+02 0.  0.
          5    1    3    3  501    0 -0.21882300321E+02  0.29498305801E+02 -0.15130263961E+02  0.40000000000E+02  0.47000000000E+01 0. -1.
         -5    1    3    3    0  501  0.21882300321E+02 -0.29498305801E+02  0.15130263961E+02  0.40000000000E+02  0.47000000000E+01 0.  1.
</event>
<event>
 5    1  0.4872488E-001  0.8000000E+02  0.7546771E-02  0.1203772E+00
         11   -1    0    0    0    0  0.00000000000E+00  0.00000000000E+00  0.40000000000E+02  0.40000000000E+02  0.00000000000E+00 0.  1.
        -11   -1    0    0    0    0 -0.00000000000E+00 -0.00000000000E+00 -0.40000000000E+02  0.40000000000E+02  0.00000000000E+00 0. -1.
         23    2    1    2    0    0  0.00000000000E+00  0.00000000000E+00  0.00000000000E+00  0.80000000000E+02  0.80000000000E+02 0.  0.
          5    1    3    3  501    0 -0.19796961932E+02  0.17573319731E+02 -0.29617034489E+02  0.40000000000E+02  0.47000000000E+01 0. -1.
         -5    1    3    3    0  501  0.19796961932E+02 -0.17573319731E+02  0.29617034489E+02  0.40000000000E+02  0.47000000000E+01 0.  1.
</event>
<event>
 5    1  0.4872488E-001  0.8000000E+02  0.7546771E-02  0.1203772E+00
         11   -1    0    0    0    0  0.00000000000E+00  0.00000000000E+00  0.40000000000E+02  0.40000000000E+02  0.00000000000E+00 0.  1.
        -11   -1    0    0    0    0 -0.00000000000E+00 -0.00000000000E+00 -0.40000000000E+02  0.40000000000E+02  0.00000000000E+00 0. -1.
         23    2    1    2    0    0  0.00000000000E+00  0.00000000000E+00  0.00000000000E+00  0.80000000000E+02  0.80000000000E+02 0.  0.
          5    1    3    3  501    0  0.13649996579E+02 -0.30508507477E+02 -0.21466685001E+02  0.40000000000E+02  0.47000000000E+01 0. -1.
         -5    1    3    3    0  501 -0.13649996579E+02  0.30508507477E+02  0.21466685001E+02  0.40000000000E+02  0.47000000000E+01 0.  1.
</event>
<event>
 5    1  0.4872488E-001  0.8000000E+02  0.7546771E-02  0.1203772E+00
         11   -1    0    0    0    0  0.00000000000E+00  0.00000000000E+00  0.40000000000E+02  0.40000000000E+02  0.00000000000E+00 0. -1.
        -11   -1    0    0    0    0 -0.00000000000E+00 -0.00000000000E+00 -0.40000000000E+02  0.40000000000E+02  0.00000000000E+00 0.  1.
         23    2    1    2    0    0  0.00000000000E+00  0.00000000000E+00  0.00000000000E+00  0.80000000000E+02  0.80000000000E+02 0.  0.
          5    1    3    3  501    0  0.16978250356E+02  0.30421365994E+02  0.19083749785E+02  0.40000000000E+02  0.47000000000E+01 0. -1.
         -5    1    3    3    0  501 -0.16978250356E+02 -0.30421365994E+02 -0.19083749785E+02  0.40000000000E+02  0.47000000000E+01 0.  1.
</event>
<event>
 5    1  0.4872488E-001  0.8000000E+02  0.7546771E-02  0.1203772E+00
         11   -1    0    0    0    0  0.00000000000E+00  0.00000000000E+00  0.40000000000E+02  0.40000000000E+02  0.00000000000E+00 0. -1.
        -11   -1    0    0    0    0 -0.00000000000E+00 -0.00000000000E+00 -0.40000000000E+02  0.40000000000E+02  0.00000000000E+00 0.  1.
         23    2    1    2    0    0  0.00000000000E+00  0.00000000000E+00  0.00000000000E+00  0.80000000000E+02  0.80000000000E+02 0.  0.
          5    1    3    3  501    0 -0.16308127113E+02 -0.34223838101E+02 -0.11861024228E+02  0.40000000000E+02  0.47000000000E+01 0. -1.
         -5    1    3    3    0  501  0.16308127113E+02  0.34223838101E+02  0.11861024228E+02  0.40000000000E+02  0.47000000000E+01 0.  1.
</event>
<event>
 5    1  0.4872488E-001  0.8000000E+02  0.7546771E-02  0.1203772E+00
         11   -1    0    0    0    0  0.00000000000E+00  0.00000000000E+00  0.40000000000E+02  0.40000000000E+02  0.00000000000E+00 0.  1.
        -11   -1    0    0    0    0 -0.00000000000E+00 -0.00000000000E+00 -0.40000000000E+02  0.40000000000E+02  0.00000000000E+00 0. -1.
         23    2    1    2    0    0  0.00000000000E+00  0.00000000000E+00  0.00000000000E+00  0.80000000000E+02  0.80000000000E+02 0.  0.
          5    1    3    3  501    0  0.11795625197E+02 -0.81701528080E+00 -0.37922364276E+02  0.40000000000E+02  0.47000000000E+01 0. -1.
         -5    1    3    3    0  501 -0.11795625197E+02  0.81701528080E+00  0.37922364276E+02  0.40000000000E+02  0.47000000000E+01 0.  1.
</event>
<event>
 5    1  0.4872488E-001  0.8000000E+02  0.7546771E-02  0.1203772E+00
         11   -1    0    0    0    0  0.00000000000E+00  0.00000000000E+00  0.40000000000E+02  0.40000000000E+02  0.00000000000E+00 0. -1.
        -11   -1    0    0    0    0 -0.00000000000E+00 -0.00000000000E+00 -0.40000000000E+02  0.40000000000E+02  0.00000000000E+00 0.  1.
         23    2    1    2    0    0  0.00000000000E+00  0.00000000000E+00  0.00000000000E+00  0.80000000000E+02  0.80000000000E+02 0.  0.
          5    1    3    3  501    0 -0.47144028715E+01 -0.28810400510E+02  0.26937802954E+02  0.40000000000E+02  0.47000000000E+01 0. -1.
         -5    1    3    3    0  501  0.47144028715E+01  0.28810400510E+02 -0.26937802954E+02  0.40000000000E+02  0.47000000000E+01 0.  1.
</event>
<event>
 5    1  0.4872488E-001  0.8000000E+02  0.7546771E-02  0.1203772E+00
         11   -1    0    0    0    0  0.00000000000E+00  0.00000000000E+00  0.40000000000E+02  0.40000000000E+02  0.00000000000E+00 0.  1.
        -11   -1    0    0    0    0 -0.00000000000E+00 -0.00000000000E+00 -0.40000000000E+02  0.40000000000E+02  0.00000000000E+00 0. -1.
         23    2    1    2    0    0  0.00000000000E+00  0.00000000000E+00  0.00000000000E+00  0.80000000000E+02  0.80000000000E+02 0.  0.
          5    1    3    3  501    0 -0.27102640170E+02 -0.65098669861E+01 -0.28301564049E+02  0.40000000000E+02  0.47000000000E+01 0. -1.
         -5    1    3    3    0  501  0.27102640170E+02  0.65098669861E+01  0.28301564049E+02  0.40000000000E+02  0.47000000000E+01 0.  1.
</event>
<event>
 5    1  0.4872488E-001  0.8000000E+02  0.7546771E-02  0.1203772E+00
         11   -1    0    0    0    0  0.00000000000E+00  0.00000000000E+00  0.40000000000E+02  0.40000000000E+02  0.00000000000E+00 0. -1.
        -11   -1    0    0    0    0 -0.00000000000E+00 -0.00000000000E+00 -0.40000000000E+02  0.40000000000E+02  0.00000000000E+00 0.  1.
         23    2    1    2    0    0  0.00000000000E+00  0.00000000000E+00  0.00000000000E+00  0.80000000000E+02  0.80000000000E+02 0.  0.
          5    1    3    3  501    0  0.36673506270E+02 -0.90234557213E+01  0.12310206526E+02  0.40000000000E+02  0.47000000000E+01 0. -1.
         -5    1    3    3    0  501 -0.36673506270E+02  0.90234557213E+01 -0.12310206526E+02  0.40000000000E+02  0.47000000000E+01 0.  1.
</event>
<event>
 5    1  0.4872488E-001  0.8000000E+02  0.7546771E-02  0.1203772E+00
         11   -1    0    0    0    0  0.00000000000E+00  0.00000000000E+00  0.40000000000E+02  0.40000000000E+02  0.00000000000E+00 0.  1.
        -11   -1    0    0    0    0 -0.00000000000E+00 -0.00000000000E+00 -0.40000000000E+02  0.40000000000E+02  0.00000000000E+00 0. -1.
         23    2    1    2    0    0  0.00000000000E+00  0.00000000000E+00  0.00000000000E+00  0.80000000000E+02  0.80000000000E+02 0.  0.
          5    1    3    3  501    0 -0.11805127213E+00 -0.15786967484E+02 -0.36450894660E+02  0.40000000000E+02  0.47000000000E+01 0. -1.
         -5    1    3    3    0  501  0.11805127213E+00  0.15786967484E+02  0.36450894660E+02  0.40000000000E+02  0.47000000000E+01 0.  1.
</event>
<event>
 5    1  0.4872488E-001  0.8000000E+02  0.7546771E-02  0.1203772E+00
         11   -1    0    0    0    0  0.00000000000E+00  0.00000000000E+00  0.40000000000E+02  0.40000000000E+02  0.00000000000E+00 0. -1.
        -11   -1    0    0    0    0 -0.00000000000E+00 -0.00000000000E+00 -0.40000000000E+02  0.40000000000E+02  0.00000000000E+00 0.  1.
         23    2    1    2    0    0  0.00000000000E+00  0.00000000000E+00  0.00000000000E+00  0.80000000000E+02  0.80000000000E+02 0.  0.
          5    1    3    3  501    0  0.22036268553E+02  0.16138047858E+02  0.28842265507E+02  0.40000000000E+02  0.47000000000E+01 0. -1.
         -5    1    3    3    0  501 -0.22036268553E+02 -0.16138047858E+02 -0.28842265507E+02  0.40000000000E+02  0.47000000000E+01 0.  1.
</event>
<event>
 5    1  0.4872488E-001  0.8000000E+02  0.7546771E-02  0.1203772E+00
         11   -1    0    0    0    0  0.00000000000E+00  0.00000000000E+00  0.40000000000E+02  0.40000000000E+02  0.00000000000E+00 0. -1.
        -11   -1    0    0    0    0 -0.00000000000E+00 -0.00000000000E+00 -0.40000000000E+02  0.40000000000E+02  0.00000000000E+00 0.  1.
         23    2    1    2    0    0  0.00000000000E+00  0.00000000000E+00  0.00000000000E+00  0.80000000000E+02  0.80000000000E+02 0.  0.
          5    1    3    3  501    0 -0.26074998941E+02  0.29714473101E+02 -0.38800152769E+01  0.40000000000E+02  0.47000000000E+01 0. -1.
         -5    1    3    3    0  501  0.26074998941E+02 -0.29714473101E+02  0.38800152769E+01  0.40000000000E+02  0.47000000000E+01 0.  1.
</event>
<event>
 5    1  0.4872488E-001  0.8000000E+02  0.7546771E-02  0.1203772E+00
         11   -1    0    0    0    0  0.00000000000E+00  0.00000000000E+00  0.40000000000E+02  0.40000000000E+02  0.00000000000E+00 0. -1.
        -11   -1    0    0    0    0 -0.00000000000E+00 -0.00000000000E+00 -0.40000000000E+02  0.40000000000E+02  0.00000000000E+00 0.  1.
         23    2    1    2    0    0  0.00000000000E+00  0.00000000000E+00  0.00000000000E+00  0.80000000000E+02  0.80000000000E+02 0.  0.
          5    1    3    3  501    0 -0.52161357444E+01 -0.18045803174E+02  0.35000727360E+02  0.40000000000E+02  0.47000000000E+01 0. -1.
         -5    1    3    3    0  501  0.52161357444E+01  0.18045803174E+02 -0.35000727360E+02  0.40000000000E+02  0.47000000000E+01 0.  1.
</event>
<event>
 5    1  0.4872488E-001  0.8000000E+02  0.7546771E-02  0.1203772E+00
         11   -1    0    0    0    0  0.00000000000E+00  0.00000000000E+00  0.40000000000E+02  0.40000000000E+02  0.00000000000E+00 0.  1.
        -11   -1    0    0    0    0 -0.00000000000E+00 -0.00000000000E+00 -0.40000000000E+02  0.40000000000E+02  0.00000000000E+00 0. -1.
         23    2    1    2    0    0  0.00000000000E+00  0.00000000000E+00  0.00000000000E+00  0.80000000000E+02  0.80000000000E+02 0.  0.
          5    1    3    3  501    0 -0.14629655762E+02  0.21713221244E+02  0.29873386074E+02  0.40000000000E+02  0.47000000000E+01 0. -1.
         -5    1    3    3    0  501  0.14629655762E+02 -0.21713221244E+02 -0.29873386074E+02  0.40000000000E+02  0.47000000000E+01 0.  1.
</event>
<event>
 5    1  0.4872488E-001  0.8000000E+02  0.7546771E-02  0.1203772E+00
         11   -1    0    0    0    0  0.00000000000E+00  0.00000000000E+00  0.40000000000E+02  0.40000000000E+02  0.00000000000E+00 0. -1.
        -11   -1    0    0    0    0 -0.00000000000E+00 -0.00000000000E+00 -0.40000000000E+02  0.40000000000E+02  0.00000000000E+00 0.  1.
         23    2    1    2    0    0  0.00000000000E+00  0.00000000000E+00  0.00000000000E+00  0.80000000000E+02  0.80000000000E+02 0.  0.
          5    1    3    3  501    0 -0.24000203790E+02 -0.75994797175E+01  0.30726993443E+02  0.40000000000E+02  0.47000000000E+01 0. -1.
         -5    1    3    3    0  501  0.24000203790E+02  0.75994797175E+01 -0.30726993443E+02  0.40000000000E+02  0.47000000000E+01 0.  1.
</event>
<event>
 5    1  0.4872488E-001  0.8000000E+02  0.7546771E-02  0.1203772E+00
         11   -1    0    0    0    0  0.00000000000E+00  0.00000000000E+00  0.40000000000E+02  0.40000000000E+02  0.00000000000E+00 0. -1.
        -11   -1    0    0    0    0 -0.00000000000E+00 -0.00000000000E+00 -0.40000000000E+02  0.40000000000E+02  0.00000000000E+00 0.  1.
         23    2    1    2    0    0  0.00000000000E+00  0.00000000000E+00  0.00000000000E+00  0.80000000000E+02  0.80000000000E+02 0.  0.
          5    1    3    3  501    0  0.25555751187E+02  0.36287090173E+01  0.30193476980E+02  0.40000000000E+02  0.47000000000E+01 0. -1.
         -5    1    3    3    0  501 -0.25555751187E+02 -0.36287090173E+01 -0.30193476980E+02  0.40000000000E+02  0.47000000000E+01 0.  1.
</event>
<event>
 5    1  0.4872488E-001  0.8000000E+02  0.7546771E-02  0.1203772E+00
         11   -1    0    0    0    0  0.00000000000E+00  0.00000000000E+00  0.40000000000E+02  0.40000000000E+02  0.00000000000E+00 0.  1.
        -11   -1    0    0    0    0 -0.00000000000E+00 -0.00000000000E+00 -0.40000000000E+02  0.40000000000E+02  0.00000000000E+00 0. -1.
         23    2    1    2    0    0  0.00000000000E+00  0.00000000000E+00  0.00000000000E+00  0.80000000000E+02  0.80000000000E+02 0.  0.
          5    1    3    3  501    0 -0.56410528189E+01 -0.26811665310E+02 -0.28761486860E+02  0.40000000000E+02  0.47000000000E+01 0. -1.
         -5    1    3    3    0  501  0.56410528189E+01  0.26811665310E+02  0.28761486860E+02  0.40000000000E+02  0.47000000000E+01 0.  1.
</event>
<event>
 5    1  0.4872488E-001  0.8000000E+02  0.7546771E-02  0.1203772E+00
         11   -1    0    0    0    0  0.00000000000E+00  0.00000000000E+00  0.40000000000E+02  0.40000000000E+02  0.00000000000E+00 0.  1.
        -11   -1    0    0    0    0 -0.00000000000E+00 -0.00000000000E+00 -0.40000000000E+02  0.40000000000E+02  0.00000000000E+00 0. -1.
         23    2    1    2    0    0  0.00000000000E+00  0.00000000000E+00  0.00000000000E+00  0.80000000000E+02  0.80000000000E+02 0.  0.
          5    1    3    3  501    0 -0.42770039358E+01  0.10991507096E+02 -0.37931570085E+02  0.40000000000E+02  0.47000000000E+01 0. -1.
         -5    1    3    3    0  501  0.42770039358E+01 -0.10991507096E+02  0.37931570085E+02  0.40000000000E+02  0.47000000000E+01 0.  1.
</event>
<event>
 5    1  0.4872488E-001  0.8000000E+02  0.7546771E-02  0.1203772E+00
         11   -1    0    0    0    0  0.00000000000E+00  0.00000000000E+00  0.40000000000E+02  0.40000000000E+02  0.00000000000E+00 0. -1.
        -11   -1    0    0    0    0 -0.00000000000E+00 -0.00000000000E+00 -0.40000000000E+02  0.40000000000E+02  0.00000000000E+00 0.  1.
         23    2    1    2    0    0  0.00000000000E+00  0.00000000000E+00  0.00000000000E+00  0.80000000000E+02  0.80000000000E+02 0.  0.
          5    1    3    3  501    0  0.38221244802E+02 -0.98591268404E+01  0.44546676312E+01  0.40000000000E+02  0.47000000000E+01 0.  1.
         -5    1    3    3    0  501 -0.38221244802E+02  0.98591268404E+01 -0.44546676312E+01  0.40000000000E+02  0.47000000000E+01 0. -1.
</event>
<event>
 5    1  0.4872488E-001  0.8000000E+02  0.7546771E-02  0.1203772E+00
         11   -1    0    0    0    0  0.00000000000E+00  0.00000000000E+00  0.40000000000E+02  0.40000000000E+02  0.00000000000E+00 0.  1.
        -11   -1    0    0    0    0 -0.00000000000E+00 -0.00000000000E+00 -0.40000000000E+02  0.40000000000E+02  0.00000000000E+00 0. -1.
         23    2    1    2    0    0  0.00000000000E+00  0.00000000000E+00  0.00000000000E+00  0.80000000000E+02  0.80000000000E+02 0.  0.
          5    1    3    3  501    0 -0.25350184632E+02 -0.47045675199E+01 -0.30218292202E+02  0.40000000000E+02  0.47000000000E+01 0. -1.
         -5    1    3    3    0  501  0.25350184632E+02  0.47045675199E+01  0.30218292202E+02  0.40000000000E+02  0.47000000000E+01 0.  1.
</event>
<event>
 5    1  0.4872488E-001  0.8000000E+02  0.7546771E-02  0.1203772E+00
         11   -1    0    0    0    0  0.00000000000E+00  0.00000000000E+00  0.40000000000E+02  0.40000000000E+02  0.00000000000E+00 0. -1.
        -11   -1    0    0    0    0 -0.00000000000E+00 -0.00000000000E+00 -0.40000000000E+02  0.40000000000E+02  0.00000000000E+00 0.  1.
         23    2    1    2    0    0  0.00000000000E+00  0.00000000000E+00  0.00000000000E+00  0.80000000000E+02  0.80000000000E+02 0.  0.
          5    1    3    3  501    0 -0.93922617715E-01 -0.34386617734E+02  0.19886218831E+02  0.40000000000E+02  0.47000000000E+01 0. -1.
         -5    1    3    3    0  501  0.93922617715E-01  0.34386617734E+02 -0.19886218831E+02  0.40000000000E+02  0.47000000000E+01 0.  1.
</event>
<event>
 5    1  0.4872488E-001  0.8000000E+02  0.7546771E-02  0.1203772E+00
         11   -1    0    0    0    0  0.00000000000E+00  0.00000000000E+00  0.40000000000E+02  0.40000000000E+02  0.00000000000E+00 0.  1.
        -11   -1    0    0    0    0 -0.00000000000E+00 -0.00000000000E+00 -0.40000000000E+02  0.40000000000E+02  0.00000000000E+00 0. -1.
         23    2    1    2    0    0  0.00000000000E+00  0.00000000000E+00  0.00000000000E+00  0.80000000000E+02  0.80000000000E+02 0.  0.
          5    1    3    3  501    0 -0.28905228552E+01  0.28582424133E+02 -0.27433554424E+02  0.40000000000E+02  0.47000000000E+01 0. -1.
         -5    1    3    3    0  501  0.28905228552E+01 -0.28582424133E+02  0.27433554424E+02  0.40000000000E+02  0.47000000000E+01 0.  1.
</event>
<event>
 5    1  0.4872488E-001  0.8000000E+02  0.7546771E-02  0.1203772E+00
         11   -1    0    0    0    0  0.00000000000E+00  0.00000000000E+00  0.40000000000E+02  0.40000000000E+02  0.00000000000E+00 0. -1.
        -11   -1    0    0    0    0 -0.00000000000E+00 -0.00000000000E+00 -0.40000000000E+02  0.40000000000E+02  0.00000000000E+00 0.  1.
         23    2    1    2    0    0  0.00000000000E+00  0.00000000000E+00  0.00000000000E+00  0.80000000000E+02  0.80000000000E+02 0.  0.
          5    1    3    3  501    0  0.18659666687E+02 -0.26306030563E+01  0.34968654059E+02  0.40000000000E+02  0.47000000000E+01 0. -1.
         -5    1    3    3    0  501 -0.18659666687E+02  0.26306030563E+01 -0.34968654059E+02  0.40000000000E+02  0.47000000000E+01 0.  1.
</event>
<event>
 5    1  0.4872488E-001  0.8000000E+02  0.7546771E-02  0.1203772E+00
         11   -1    0    0    0    0  0.00000000000E+00  0.00000000000E+00  0.40000000000E+02  0.40000000000E+02  0.00000000000E+00 0. -1.
        -11   -1    0    0    0    0 -0.00000000000E+00 -0.00000000000E+00 -0.40000000000E+02  0.40000000000E+02  0.00000000000E+00 0.  1.
         23    2    1    2    0    0  0.00000000000E+00  0.00000000000E+00  0.00000000000E+00  0.80000000000E+02  0.80000000000E+02 0.  0.
          5    1    3    3  501    0  0.43214943184E+01 -0.88075841480E+01 -0.38492351816E+02  0.40000000000E+02  0.47000000000E+01 0.  1.
         -5    1    3    3    0  501 -0.43214943184E+01  0.88075841480E+01  0.38492351816E+02  0.40000000000E+02  0.47000000000E+01 0. -1.
</event>
<event>
 5    1  0.4872488E-001  0.8000000E+02  0.7546771E-02  0.1203772E+00
         11   -1    0    0    0    0  0.00000000000E+00  0.00000000000E+00  0.40000000000E+02  0.40000000000E+02  0.00000000000E+00 0. -1.
        -11   -1    0    0    0    0 -0.00000000000E+00 -0.00000000000E+00 -0.40000000000E+02  0.40000000000E+02  0.00000000000E+00 0.  1.
         23    2    1    2    0    0  0.00000000000E+00  0.00000000000E+00  0.00000000000E+00  0.80000000000E+02  0.80000000000E+02 0.  0.
          5    1    3    3  501    0 -0.11786668101E+02  0.18654304706E+02 -0.33030309884E+02  0.40000000000E+02  0.47000000000E+01 0.  1.
         -5    1    3    3    0  501  0.11786668101E+02 -0.18654304706E+02  0.33030309884E+02  0.40000000000E+02  0.47000000000E+01 0. -1.
</event>
<event>
 5    1  0.4872488E-001  0.8000000E+02  0.7546771E-02  0.1203772E+00
         11   -1    0    0    0    0  0.00000000000E+00  0.00000000000E+00  0.40000000000E+02  0.40000000000E+02  0.00000000000E+00 0.  1.
        -11   -1    0    0    0    0 -0.00000000000E+00 -0.00000000000E+00 -0.40000000000E+02  0.40000000000E+02  0.00000000000E+00 0. -1.
         23    2    1    2    0    0  0.00000000000E+00  0.00000000000E+00  0.00000000000E+00  0.80000000000E+02  0.80000000000E+02 0.  0.
          5    1    3    3  501    0 -0.10009518257E+02 -0.64041694653E+01 -0.37903906893E+02  0.40000000000E+02  0.47000000000E+01 0. -1.
         -5    1    3    3    0  501  0.10009518257E+02  0.64041694653E+01  0.37903906893E+02  0.40000000000E+02  0.47000000000E+01 0.  1.
</event>
<event>
 5    1  0.4872488E-001  0.8000000E+02  0.7546771E-02  0.1203772E+00
         11   -1    0    0    0    0  0.00000000000E+00  0.00000000000E+00  0.40000000000E+02  0.40000000000E+02  0.00000000000E+00 0.  1.
        -11   -1    0    0    0    0 -0.00000000000E+00 -0.00000000000E+00 -0.40000000000E+02  0.40000000000E+02  0.00000000000E+00 0. -1.
         23    2    1    2    0    0  0.00000000000E+00  0.00000000000E+00  0.00000000000E+00  0.80000000000E+02  0.80000000000E+02 0.  0.
          5    1    3    3  501    0  0.26713964979E+02 -0.24527139971E+02 -0.16207821567E+02  0.40000000000E+02  0.47000000000E+01 0. -1.
         -5    1    3    3    0  501 -0.26713964979E+02  0.24527139971E+02  0.16207821567E+02  0.40000000000E+02  0.47000000000E+01 0.  1.
</event>
<event>
 5    1  0.4872488E-001  0.8000000E+02  0.7546771E-02  0.1203772E+00
         11   -1    0    0    0    0  0.00000000000E+00  0.00000000000E+00  0.40000000000E+02  0.40000000000E+02  0.00000000000E+00 0.  1.
        -11   -1    0    0    0    0 -0.00000000000E+00 -0.00000000000E+00 -0.40000000000E+02  0.40000000000E+02  0.00000000000E+00 0. -1.
         23    2    1    2    0    0  0.00000000000E+00  0.00000000000E+00  0.00000000000E+00  0.80000000000E+02  0.80000000000E+02 0.  0.
          5    1    3    3  501    0 -0.35252769711E+02 -0.15935533712E+02  0.90117142117E+01  0.40000000000E+02  0.47000000000E+01 0. -1.
         -5    1    3    3    0  501  0.35252769711E+02  0.15935533712E+02 -0.90117142117E+01  0.40000000000E+02  0.47000000000E+01 0.  1.
</event>
<event>
 5    1  0.4872488E-001  0.8000000E+02  0.7546771E-02  0.1203772E+00
         11   -1    0    0    0    0  0.00000000000E+00  0.00000000000E+00  0.40000000000E+02  0.40000000000E+02  0.00000000000E+00 0. -1.
        -11   -1    0    0    0    0 -0.00000000000E+00 -0.00000000000E+00 -0.40000000000E+02  0.40000000000E+02  0.00000000000E+00 0.  1.
         23    2    1    2    0    0  0.00000000000E+00  0.00000000000E+00  0.00000000000E+00  0.80000000000E+02  0.80000000000E+02 0.  0.
          5    1    3    3  501    0  0.21839834874E+02  0.23349655680E+02  0.23573824303E+02  0.40000000000E+02  0.47000000000E+01 0. -1.
         -5    1    3    3    0  501 -0.21839834874E+02 -0.23349655680E+02 -0.23573824303E+02  0.40000000000E+02  0.47000000000E+01 0.  1.
</event>
<event>
 5    1  0.4872488E-001  0.8000000E+02  0.7546771E-02  0.1203772E+00
         11   -1    0    0    0    0  0.00000000000E+00  0.00000000000E+00  0.40000000000E+02  0.40000000000E+02  0.00000000000E+00 0. -1.
        -11   -1    0    0    0    0 -0.00000000000E+00 -0.00000000000E+00 -0.40000000000E+02  0.40000000000E+02  0.00000000000E+00 0.  1.
         23    2    1    2    0    0  0.00000000000E+00  0.00000000000E+00  0.00000000000E+00  0.80000000000E+02  0.80000000000E+02 0.  0.
          5    1    3    3  501    0  0.27081354057E+02 -0.70393956527E+01  0.28194984861E+02  0.40000000000E+02  0.47000000000E+01 0.  1.
         -5    1    3    3    0  501 -0.27081354057E+02  0.70393956527E+01 -0.28194984861E+02  0.40000000000E+02  0.47000000000E+01 0. -1.
</event>
<event>
 5    1  0.4872488E-001  0.8000000E+02  0.7546771E-02  0.1203772E+00
         11   -1    0    0    0    0  0.00000000000E+00  0.00000000000E+00  0.40000000000E+02  0.40000000000E+02  0.00000000000E+00 0. -1.
        -11   -1    0    0    0    0 -0.00000000000E+00 -0.00000000000E+00 -0.40000000000E+02  0.40000000000E+02  0.00000000000E+00 0.  1.
         23    2    1    2    0    0  0.00000000000E+00  0.00000000000E+00  0.00000000000E+00  0.80000000000E+02  0.80000000000E+02 0.  0.
          5    1    3    3  501    0  0.29002804854E+02 -0.57305830673E+01  0.26531259456E+02  0.40000000000E+02  0.47000000000E+01 0. -1.
         -5    1    3    3    0  501 -0.29002804854E+02  0.57305830673E+01 -0.26531259456E+02  0.40000000000E+02  0.47000000000E+01 0.  1.
</event>
<event>
 5    1  0.4872488E-001  0.8000000E+02  0.7546771E-02  0.1203772E+00
         11   -1    0    0    0    0  0.00000000000E+00  0.00000000000E+00  0.40000000000E+02  0.40000000000E+02  0.00000000000E+00 0.  1.
        -11   -1    0    0    0    0 -0.00000000000E+00 -0.00000000000E+00 -0.40000000000E+02  0.40000000000E+02  0.00000000000E+00 0. -1.
         23    2    1    2    0    0  0.00000000000E+00  0.00000000000E+00  0.00000000000E+00  0.80000000000E+02  0.80000000000E+02 0.  0.
          5    1    3    3  501    0  0.27276035889E+02  0.23745245166E+02 -0.16434451563E+02  0.40000000000E+02  0.47000000000E+01 0. -1.
         -5    1    3    3    0  501 -0.27276035889E+02 -0.23745245166E+02  0.16434451563E+02  0.40000000000E+02  0.47000000000E+01 0.  1.
</event>
<event>
 5    1  0.4872488E-001  0.8000000E+02  0.7546771E-02  0.1203772E+00
         11   -1    0    0    0    0  0.00000000000E+00  0.00000000000E+00  0.40000000000E+02  0.40000000000E+02  0.00000000000E+00 0.  1.
        -11   -1    0    0    0    0 -0.00000000000E+00 -0.00000000000E+00 -0.40000000000E+02  0.40000000000E+02  0.00000000000E+00 0. -1.
         23    2    1    2    0    0  0.00000000000E+00  0.00000000000E+00  0.00000000000E+00  0.80000000000E+02  0.80000000000E+02 0.  0.
          5    1    3    3  501    0 -0.45947162238E+01  0.33612843871E+02 -0.20663380889E+02  0.40000000000E+02  0.47000000000E+01 0. -1.
         -5    1    3    3    0  501  0.45947162238E+01 -0.33612843871E+02  0.20663380889E+02  0.40000000000E+02  0.47000000000E+01 0.  1.
</event>
<event>
 5    1  0.4872488E-001  0.8000000E+02  0.7546771E-02  0.1203772E+00
         11   -1    0    0    0    0  0.00000000000E+00  0.00000000000E+00  0.40000000000E+02  0.40000000000E+02  0.00000000000E+00 0.  1.
        -11   -1    0    0    0    0 -0.00000000000E+00 -0.00000000000E+00 -0.40000000000E+02  0.40000000000E+02  0.00000000000E+00 0. -1.
         23    2    1    2    0    0  0.00000000000E+00  0.00000000000E+00  0.00000000000E+00  0.80000000000E+02  0.80000000000E+02 0.  0.
          5    1    3    3  501    0 -0.41406485845E+01 -0.30074208166E+02 -0.25618490051E+02  0.40000000000E+02  0.47000000000E+01 0. -1.
         -5    1    3    3    0  501  0.41406485845E+01  0.30074208166E+02  0.25618490051E+02  0.40000000000E+02  0.47000000000E+01 0.  1.
</event>
<event>
 5    1  0.4872488E-001  0.8000000E+02  0.7546771E-02  0.1203772E+00
         11   -1    0    0    0    0  0.00000000000E+00  0.00000000000E+00  0.40000000000E+02  0.40000000000E+02  0.00000000000E+00 0.  1.
        -11   -1    0    0    0    0 -0.00000000000E+00 -0.00000000000E+00 -0.40000000000E+02  0.40000000000E+02  0.00000000000E+00 0. -1.
         23    2    1    2    0    0  0.00000000000E+00  0.00000000000E+00  0.00000000000E+00  0.80000000000E+02  0.80000000000E+02 0.  0.
          5    1    3    3  501    0 -0.27268656506E+02  0.34881731435E+00 -0.28882671255E+02  0.40000000000E+02  0.47000000000E+01 0. -1.
         -5    1    3    3    0  501  0.27268656506E+02 -0.34881731435E+00  0.28882671255E+02  0.40000000000E+02  0.47000000000E+01 0.  1.
</event>
<event>
 5    1  0.4872488E-001  0.8000000E+02  0.7546771E-02  0.1203772E+00
         11   -1    0    0    0    0  0.00000000000E+00  0.00000000000E+00  0.40000000000E+02  0.40000000000E+02  0.00000000000E+00 0.  1.
        -11   -1    0    0    0    0 -0.00000000000E+00 -0.00000000000E+00 -0.40000000000E+02  0.40000000000E+02  0.00000000000E+00 0. -1.
         23    2    1    2    0    0  0.00000000000E+00  0.00000000000E+00  0.00000000000E+00  0.80000000000E+02  0.80000000000E+02 0.  0.
          5    1    3    3  501    0 -0.99225187580E+00  0.29173812453E+02 -0.26940937310E+02  0.40000000000E+02  0.47000000000E+01 0. -1.
         -5    1    3    3    0  501  0.99225187580E+00 -0.29173812453E+02  0.26940937310E+02  0.40000000000E+02  0.47000000000E+01 0.  1.
</event>
<event>
 5    1  0.4872488E-001  0.8000000E+02  0.7546771E-02  0.1203772E+00
         11   -1    0    0    0    0  0.00000000000E+00  0.00000000000E+00  0.40000000000E+02  0.40000000000E+02  0.00000000000E+00 0. -1.
        -11   -1    0    0    0    0 -0.00000000000E+00 -0.00000000000E+00 -0.40000000000E+02  0.40000000000E+02  0.00000000000E+00 0.  1.
         23    2    1    2    0    0  0.00000000000E+00  0.00000000000E+00  0.00000000000E+00  0.80000000000E+02  0.80000000000E+02 0.  0.
          5    1    3    3  501    0 -0.18508075778E+02 -0.32282160616E+02  0.13900476142E+02  0.40000000000E+02  0.47000000000E+01 0. -1.
         -5    1    3    3    0  501  0.18508075778E+02  0.32282160616E+02 -0.13900476142E+02  0.40000000000E+02  0.47000000000E+01 0.  1.
</event>
<event>
 5    1  0.4872488E-001  0.8000000E+02  0.7546771E-02  0.1203772E+00
         11   -1    0    0    0    0  0.00000000000E+00  0.00000000000E+00  0.40000000000E+02  0.40000000000E+02  0.00000000000E+00 0. -1.
        -11   -1    0    0    0    0 -0.00000000000E+00 -0.00000000000E+00 -0.40000000000E+02  0.40000000000E+02  0.00000000000E+00 0.  1.
         23    2    1    2    0    0  0.00000000000E+00  0.00000000000E+00  0.00000000000E+00  0.80000000000E+02  0.80000000000E+02 0.  0.
          5    1    3    3  501    0 -0.12248501489E+02  0.23842398251E+02  0.29315938616E+02  0.40000000000E+02  0.47000000000E+01 0. -1.
         -5    1    3    3    0  501  0.12248501489E+02 -0.23842398251E+02 -0.29315938616E+02  0.40000000000E+02  0.47000000000E+01 0.  1.
</event>
<event>
 5    1  0.4872488E-001  0.8000000E+02  0.7546771E-02  0.1203772E+00
         11   -1    0    0    0    0  0.00000000000E+00  0.00000000000E+00  0.40000000000E+02  0.40000000000E+02  0.00000000000E+00 0.  1.
        -11   -1    0    0    0    0 -0.00000000000E+00 -0.00000000000E+00 -0.40000000000E+02  0.40000000000E+02  0.00000000000E+00 0. -1.
         23    2    1    2    0    0  0.00000000000E+00  0.00000000000E+00  0.00000000000E+00  0.80000000000E+02  0.80000000000E+02 0.  0.
          5    1    3    3  501    0  0.19034181430E+01  0.34880381542E+02 -0.18911530420E+02  0.40000000000E+02  0.47000000000E+01 0. -1.
         -5    1    3    3    0  501 -0.19034181430E+01 -0.34880381542E+02  0.18911530420E+02  0.40000000000E+02  0.47000000000E+01 0.  1.
</event>
<event>
 5    1  0.4872488E-001  0.8000000E+02  0.7546771E-02  0.1203772E+00
         11   -1    0    0    0    0  0.00000000000E+00  0.00000000000E+00  0.40000000000E+02  0.40000000000E+02  0.00000000000E+00 0.  1.
        -11   -1    0    0    0    0 -0.00000000000E+00 -0.00000000000E+00 -0.40000000000E+02  0.40000000000E+02  0.00000000000E+00 0. -1.
         23    2    1    2    0    0  0.00000000000E+00  0.00000000000E+00  0.00000000000E+00  0.80000000000E+02  0.80000000000E+02 0.  0.
          5    1    3    3  501    0  0.24191008541E+02 -0.66993431682E+01 -0.30786748885E+02  0.40000000000E+02  0.47000000000E+01 0. -1.
         -5    1    3    3    0  501 -0.24191008541E+02  0.66993431682E+01  0.30786748885E+02  0.40000000000E+02  0.47000000000E+01 0.  1.
</event>
<event>
 5    1  0.4872488E-001  0.8000000E+02  0.7546771E-02  0.1203772E+00
         11   -1    0    0    0    0  0.00000000000E+00  0.00000000000E+00  0.40000000000E+02  0.40000000000E+02  0.00000000000E+00 0. -1.
        -11   -1    0    0    0    0 -0.00000000000E+00 -0.00000000000E+00 -0.40000000000E+02  0.40000000000E+02  0.00000000000E+00 0.  1.
         23    2    1    2    0    0  0.00000000000E+00  0.00000000000E+00  0.00000000000E+00  0.80000000000E+02  0.80000000000E+02 0.  0.
          5    1    3    3  501    0  0.23302447211E+02 -0.30489490888E+02  0.10261427746E+02  0.40000000000E+02  0.47000000000E+01 0. -1.
         -5    1    3    3    0  501 -0.23302447211E+02  0.30489490888E+02 -0.10261427746E+02  0.40000000000E+02  0.47000000000E+01 0.  1.
</event>
<event>
 5    1  0.4872488E-001  0.8000000E+02  0.7546771E-02  0.1203772E+00
         11   -1    0    0    0    0  0.00000000000E+00  0.00000000000E+00  0.40000000000E+02  0.40000000000E+02  0.00000000000E+00 0. -1.
        -11   -1    0    0    0    0 -0.00000000000E+00 -0.00000000000E+00 -0.40000000000E+02  0.40000000000E+02  0.00000000000E+00 0.  1.
         23    2    1    2    0    0  0.00000000000E+00  0.00000000000E+00  0.00000000000E+00  0.80000000000E+02  0.80000000000E+02 0.  0.
          5    1    3    3  501    0 -0.22552536206E+02 -0.28548918387E+02  0.15945293023E+02  0.40000000000E+02  0.47000000000E+01 0. -1.
         -5    1    3    3    0  501  0.22552536206E+02  0.28548918387E+02 -0.15945293023E+02  0.40000000000E+02  0.47000000000E+01 0.  1.
</event>
<event>
 5    1  0.4872488E-001  0.8000000E+02  0.7546771E-02  0.1203772E+00
         11   -1    0    0    0    0  0.00000000000E+00  0.00000000000E+00  0.40000000000E+02  0.40000000000E+02  0.00000000000E+00 0.  1.
        -11   -1    0    0    0    0 -0.00000000000E+00 -0.00000000000E+00 -0.40000000000E+02  0.40000000000E+02  0.00000000000E+00 0. -1.
         23    2    1    2    0    0  0.00000000000E+00  0.00000000000E+00  0.00000000000E+00  0.80000000000E+02  0.80000000000E+02 0.  0.
          5    1    3    3  501    0 -0.39402372228E+01 -0.33612082670E+02 -0.20799337230E+02  0.40000000000E+02  0.47000000000E+01 0. -1.
         -5    1    3    3    0  501  0.39402372228E+01  0.33612082670E+02  0.20799337230E+02  0.40000000000E+02  0.47000000000E+01 0.  1.
</event>
<event>
 5    1  0.4872488E-001  0.8000000E+02  0.7546771E-02  0.1203772E+00
         11   -1    0    0    0    0  0.00000000000E+00  0.00000000000E+00  0.40000000000E+02  0.40000000000E+02  0.00000000000E+00 0.  1.
        -11   -1    0    0    0    0 -0.00000000000E+00 -0.00000000000E+00 -0.40000000000E+02  0.40000000000E+02  0.00000000000E+00 0. -1.
         23    2    1    2    0    0  0.00000000000E+00  0.00000000000E+00  0.00000000000E+00  0.80000000000E+02  0.80000000000E+02 0.  0.
          5    1    3    3  501    0  0.21269664498E+02  0.62544339321E+00 -0.33542811342E+02  0.40000000000E+02  0.47000000000E+01 0. -1.
         -5    1    3    3    0  501 -0.21269664498E+02 -0.62544339321E+00  0.33542811342E+02  0.40000000000E+02  0.47000000000E+01 0.  1.
</event>
<event>
 5    1  0.4872488E-001  0.8000000E+02  0.7546771E-02  0.1203772E+00
         11   -1    0    0    0    0  0.00000000000E+00  0.00000000000E+00  0.40000000000E+02  0.40000000000E+02  0.00000000000E+00 0.  1.
        -11   -1    0    0    0    0 -0.00000000000E+00 -0.00000000000E+00 -0.40000000000E+02  0.40000000000E+02  0.00000000000E+00 0. -1.
         23    2    1    2    0    0  0.00000000000E+00  0.00000000000E+00  0.00000000000E+00  0.80000000000E+02  0.80000000000E+02 0.  0.
          5    1    3    3  501    0  0.34751583116E+02  0.17741364772E+02  0.74485869087E+01  0.40000000000E+02  0.47000000000E+01 0. -1.
         -5    1    3    3    0  501 -0.34751583116E+02 -0.17741364772E+02 -0.74485869087E+01  0.40000000000E+02  0.47000000000E+01 0.  1.
</event>
<event>
 5    1  0.4872488E-001  0.8000000E+02  0.7546771E-02  0.1203772E+00
         11   -1    0    0    0    0  0.00000000000E+00  0.00000000000E+00  0.40000000000E+02  0.40000000000E+02  0.00000000000E+00 0. -1.
        -11   -1    0    0    0    0 -0.00000000000E+00 -0.00000000000E+00 -0.40000000000E+02  0.40000000000E+02  0.00000000000E+00 0.  1.
         23    2    1    2    0    0  0.00000000000E+00  0.00000000000E+00  0.00000000000E+00  0.80000000000E+02  0.80000000000E+02 0.  0.
          5    1    3    3  501    0  0.38264577870E+02 -0.10156867392E+02  0.32511728971E+01  0.40000000000E+02  0.47000000000E+01 0. -1.
         -5    1    3    3    0  501 -0.38264577870E+02  0.10156867392E+02 -0.32511728971E+01  0.40000000000E+02  0.47000000000E+01 0.  1.
</event>
<event>
 5    1  0.4872488E-001  0.8000000E+02  0.7546771E-02  0.1203772E+00
         11   -1    0    0    0    0  0.00000000000E+00  0.00000000000E+00  0.40000000000E+02  0.40000000000E+02  0.00000000000E+00 0.  1.
        -11   -1    0    0    0    0 -0.00000000000E+00 -0.00000000000E+00 -0.40000000000E+02  0.40000000000E+02  0.00000000000E+00 0. -1.
         23    2    1    2    0    0  0.00000000000E+00  0.00000000000E+00  0.00000000000E+00  0.80000000000E+02  0.80000000000E+02 0.  0.
          5    1    3    3  501    0  0.11355949875E+02 -0.29680465618E+02 -0.23833219739E+02  0.40000000000E+02  0.47000000000E+01 0. -1.
         -5    1    3    3    0  501 -0.11355949875E+02  0.29680465618E+02  0.23833219739E+02  0.40000000000E+02  0.47000000000E+01 0.  1.
</event>
<event>
 5    1  0.4872488E-001  0.8000000E+02  0.7546771E-02  0.1203772E+00
         11   -1    0    0    0    0  0.00000000000E+00  0.00000000000E+00  0.40000000000E+02  0.40000000000E+02  0.00000000000E+00 0.  1.
        -11   -1    0    0    0    0 -0.00000000000E+00 -0.00000000000E+00 -0.40000000000E+02  0.40000000000E+02  0.00000000000E+00 0. -1.
         23    2    1    2    0    0  0.00000000000E+00  0.00000000000E+00  0.00000000000E+00  0.80000000000E+02  0.80000000000E+02 0.  0.
          5    1    3    3  501    0  0.16228991166E+02  0.13275861519E+02 -0.33738425373E+02  0.40000000000E+02  0.47000000000E+01 0. -1.
         -5    1    3    3    0  501 -0.16228991166E+02 -0.13275861519E+02  0.33738425373E+02  0.40000000000E+02  0.47000000000E+01 0.  1.
</event>
<event>
 5    1  0.4872488E-001  0.8000000E+02  0.7546771E-02  0.1203772E+00
         11   -1    0    0    0    0  0.00000000000E+00  0.00000000000E+00  0.40000000000E+02  0.40000000000E+02  0.00000000000E+00 0. -1.
        -11   -1    0    0    0    0 -0.00000000000E+00 -0.00000000000E+00 -0.40000000000E+02  0.40000000000E+02  0.00000000000E+00 0.  1.
         23    2    1    2    0    0  0.00000000000E+00  0.00000000000E+00  0.00000000000E+00  0.80000000000E+02  0.80000000000E+02 0.  0.
          5    1    3    3  501    0 -0.15621005657E+02 -0.18826977291E+02  0.31295991889E+02  0.40000000000E+02  0.47000000000E+01 0. -1.
         -5    1    3    3    0  501  0.15621005657E+02  0.18826977291E+02 -0.31295991889E+02  0.40000000000E+02  0.47000000000E+01 0.  1.
</event>
<event>
 5    1  0.4872488E-001  0.8000000E+02  0.7546771E-02  0.1203772E+00
         11   -1    0    0    0    0  0.00000000000E+00  0.00000000000E+00  0.40000000000E+02  0.40000000000E+02  0.00000000000E+00 0. -1.
        -11   -1    0    0    0    0 -0.00000000000E+00 -0.00000000000E+00 -0.40000000000E+02  0.40000000000E+02  0.00000000000E+00 0.  1.
         23    2    1    2    0    0  0.00000000000E+00  0.00000000000E+00  0.00000000000E+00  0.80000000000E+02  0.80000000000E+02 0.  0.
          5    1    3    3  501    0  0.12790387267E+02 -0.35618756941E+02  0.12067317329E+02  0.40000000000E+02  0.47000000000E+01 0. -1.
         -5    1    3    3    0  501 -0.12790387267E+02  0.35618756941E+02 -0.12067317329E+02  0.40000000000E+02  0.47000000000E+01 0.  1.
</event>
<event>
 5    1  0.4872488E-001  0.8000000E+02  0.7546771E-02  0.1203772E+00
         11   -1    0    0    0    0  0.00000000000E+00  0.00000000000E+00  0.40000000000E+02  0.40000000000E+02  0.00000000000E+00 0.  1.
        -11   -1    0    0    0    0 -0.00000000000E+00 -0.00000000000E+00 -0.40000000000E+02  0.40000000000E+02  0.00000000000E+00 0. -1.
         23    2    1    2    0    0  0.00000000000E+00  0.00000000000E+00  0.00000000000E+00  0.80000000000E+02  0.80000000000E+02 0.  0.
          5    1    3    3  501    0  0.10857714251E+02 -0.27234507233E+02 -0.26801150293E+02  0.40000000000E+02  0.47000000000E+01 0. -1.
         -5    1    3    3    0  501 -0.10857714251E+02  0.27234507233E+02  0.26801150293E+02  0.40000000000E+02  0.47000000000E+01 0.  1.
</event>
<event>
 5    1  0.4872488E-001  0.8000000E+02  0.7546771E-02  0.1203772E+00
         11   -1    0    0    0    0  0.00000000000E+00  0.00000000000E+00  0.40000000000E+02  0.40000000000E+02  0.00000000000E+00 0.  1.
        -11   -1    0    0    0    0 -0.00000000000E+00 -0.00000000000E+00 -0.40000000000E+02  0.40000000000E+02  0.00000000000E+00 0. -1.
         23    2    1    2    0    0  0.00000000000E+00  0.00000000000E+00  0.00000000000E+00  0.80000000000E+02  0.80000000000E+02 0.  0.
          5    1    3    3  501    0 -0.28654493289E+01 -0.37971661323E+02  0.11307171908E+02  0.40000000000E+02  0.47000000000E+01 0. -1.
         -5    1    3    3    0  501  0.28654493289E+01  0.37971661323E+02 -0.11307171908E+02  0.40000000000E+02  0.47000000000E+01 0.  1.
</event>
<event>
 5    1  0.4872488E-001  0.8000000E+02  0.7546771E-02  0.1203772E+00
         11   -1    0    0    0    0  0.00000000000E+00  0.00000000000E+00  0.40000000000E+02  0.40000000000E+02  0.00000000000E+00 0.  1.
        -11   -1    0    0    0    0 -0.00000000000E+00 -0.00000000000E+00 -0.40000000000E+02  0.40000000000E+02  0.00000000000E+00 0. -1.
         23    2    1    2    0    0  0.00000000000E+00  0.00000000000E+00  0.00000000000E+00  0.80000000000E+02  0.80000000000E+02 0.  0.
          5    1    3    3  501    0 -0.11257452042E+02  0.19754776667E+02 -0.32571898507E+02  0.40000000000E+02  0.47000000000E+01 0. -1.
         -5    1    3    3    0  501  0.11257452042E+02 -0.19754776667E+02  0.32571898507E+02  0.40000000000E+02  0.47000000000E+01 0.  1.
</event>
<event>
 5    1  0.4872488E-001  0.8000000E+02  0.7546771E-02  0.1203772E+00
         11   -1    0    0    0    0  0.00000000000E+00  0.00000000000E+00  0.40000000000E+02  0.40000000000E+02  0.00000000000E+00 0.  1.
        -11   -1    0    0    0    0 -0.00000000000E+00 -0.00000000000E+00 -0.40000000000E+02  0.40000000000E+02  0.00000000000E+00 0. -1.
         23    2    1    2    0    0  0.00000000000E+00  0.00000000000E+00  0.00000000000E+00  0.80000000000E+02  0.80000000000E+02 0.  0.
          5    1    3    3  501    0  0.36047425308E+02 -0.99952660316E+01 -0.13363674107E+02  0.40000000000E+02  0.47000000000E+01 0. -1.
         -5    1    3    3    0  501 -0.36047425308E+02  0.99952660316E+01  0.13363674107E+02  0.40000000000E+02  0.47000000000E+01 0.  1.
</event>
<event>
 5    1  0.4872488E-001  0.8000000E+02  0.7546771E-02  0.1203772E+00
         11   -1    0    0    0    0  0.00000000000E+00  0.00000000000E+00  0.40000000000E+02  0.40000000000E+02  0.00000000000E+00 0.  1.
        -11   -1    0    0    0    0 -0.00000000000E+00 -0.00000000000E+00 -0.40000000000E+02  0.40000000000E+02  0.00000000000E+00 0. -1.
         23    2    1    2    0    0  0.00000000000E+00  0.00000000000E+00  0.00000000000E+00  0.80000000000E+02  0.80000000000E+02 0.  0.
          5    1    3    3  501    0 -0.32512500073E+02 -0.93753192269E+00 -0.22802815021E+02  0.40000000000E+02  0.47000000000E+01 0. -1.
         -5    1    3    3    0  501  0.32512500073E+02  0.93753192269E+00  0.22802815021E+02  0.40000000000E+02  0.47000000000E+01 0.  1.
</event>
<event>
 5    1  0.4872488E-001  0.8000000E+02  0.7546771E-02  0.1203772E+00
         11   -1    0    0    0    0  0.00000000000E+00  0.00000000000E+00  0.40000000000E+02  0.40000000000E+02  0.00000000000E+00 0. -1.
        -11   -1    0    0    0    0 -0.00000000000E+00 -0.00000000000E+00 -0.40000000000E+02  0.40000000000E+02  0.00000000000E+00 0.  1.
         23    2    1    2    0    0  0.00000000000E+00  0.00000000000E+00  0.00000000000E+00  0.80000000000E+02  0.80000000000E+02 0.  0.
          5    1    3    3  501    0 -0.28630360645E+02  0.23814613762E+02 -0.13823046722E+02  0.40000000000E+02  0.47000000000E+01 0. -1.
         -5    1    3    3    0  501  0.28630360645E+02 -0.23814613762E+02  0.13823046722E+02  0.40000000000E+02  0.47000000000E+01 0.  1.
</event>
<event>
 5    1  0.4872488E-001  0.8000000E+02  0.7546771E-02  0.1203772E+00
         11   -1    0    0    0    0  0.00000000000E+00  0.00000000000E+00  0.40000000000E+02  0.40000000000E+02  0.00000000000E+00 0.  1.
        -11   -1    0    0    0    0 -0.00000000000E+00 -0.00000000000E+00 -0.40000000000E+02  0.40000000000E+02  0.00000000000E+00 0. -1.
         23    2    1    2    0    0  0.00000000000E+00  0.00000000000E+00  0.00000000000E+00  0.80000000000E+02  0.80000000000E+02 0.  0.
          5    1    3    3  501    0  0.17804449064E+02  0.19335625503E+02 -0.29783303711E+02  0.40000000000E+02  0.47000000000E+01 0. -1.
         -5    1    3    3    0  501 -0.17804449064E+02 -0.19335625503E+02  0.29783303711E+02  0.40000000000E+02  0.47000000000E+01 0.  1.
</event>
<event>
 5    1  0.4872488E-001  0.8000000E+02  0.7546771E-02  0.1203772E+00
         11   -1    0    0    0    0  0.00000000000E+00  0.00000000000E+00  0.40000000000E+02  0.40000000000E+02  0.00000000000E+00 0. -1.
        -11   -1    0    0    0    0 -0.00000000000E+00 -0.00000000000E+00 -0.40000000000E+02  0.40000000000E+02  0.00000000000E+00 0.  1.
         23    2    1    2    0    0  0.00000000000E+00  0.00000000000E+00  0.00000000000E+00  0.80000000000E+02  0.80000000000E+02 0.  0.
          5    1    3    3  501    0  0.39360013300E+02  0.53433493426E+01  0.38466972565E+00  0.40000000000E+02  0.47000000000E+01 0. -1.
         -5    1    3    3    0  501 -0.39360013300E+02 -0.53433493426E+01 -0.38466972565E+00  0.40000000000E+02  0.47000000000E+01 0.  1.
</event>
<event>
 5    1  0.4872488E-001  0.8000000E+02  0.7546771E-02  0.1203772E+00
         11   -1    0    0    0    0  0.00000000000E+00  0.00000000000E+00  0.40000000000E+02  0.40000000000E+02  0.00000000000E+00 0.  1.
        -11   -1    0    0    0    0 -0.00000000000E+00 -0.00000000000E+00 -0.40000000000E+02  0.40000000000E+02  0.00000000000E+00 0. -1.
         23    2    1    2    0    0  0.00000000000E+00  0.00000000000E+00  0.00000000000E+00  0.80000000000E+02  0.80000000000E+02 0.  0.
          5    1    3    3  501    0 -0.77264170208E+01 -0.33039298141E+01 -0.38823916956E+02  0.40000000000E+02  0.47000000000E+01 0. -1.
         -5    1    3    3    0  501  0.77264170208E+01  0.33039298141E+01  0.38823916956E+02  0.40000000000E+02  0.47000000000E+01 0.  1.
</event>
<event>
 5    1  0.4872488E-001  0.8000000E+02  0.7546771E-02  0.1203772E+00
         11   -1    0    0    0    0  0.00000000000E+00  0.00000000000E+00  0.40000000000E+02  0.40000000000E+02  0.00000000000E+00 0.  1.
        -11   -1    0    0    0    0 -0.00000000000E+00 -0.00000000000E+00 -0.40000000000E+02  0.40000000000E+02  0.00000000000E+00 0. -1.
         23    2    1    2    0    0  0.00000000000E+00  0.00000000000E+00  0.00000000000E+00  0.80000000000E+02  0.80000000000E+02 0.  0.
          5    1    3    3  501    0 -0.48734427925E+01 -0.39539536129E+00 -0.39420847503E+02  0.40000000000E+02  0.47000000000E+01 0. -1.
         -5    1    3    3    0  501  0.48734427925E+01  0.39539536129E+00  0.39420847503E+02  0.40000000000E+02  0.47000000000E+01 0.  1.
</event>
<event>
 5    1  0.4872488E-001  0.8000000E+02  0.7546771E-02  0.1203772E+00
         11   -1    0    0    0    0  0.00000000000E+00  0.00000000000E+00  0.40000000000E+02  0.40000000000E+02  0.00000000000E+00 0.  1.
        -11   -1    0    0    0    0 -0.00000000000E+00 -0.00000000000E+00 -0.40000000000E+02  0.40000000000E+02  0.00000000000E+00 0. -1.
         23    2    1    2    0    0  0.00000000000E+00  0.00000000000E+00  0.00000000000E+00  0.80000000000E+02  0.80000000000E+02 0.  0.
          5    1    3    3  501    0 -0.60597170138E+01 -0.23713140413E+01 -0.39186307550E+02  0.40000000000E+02  0.47000000000E+01 0. -1.
         -5    1    3    3    0  501  0.60597170138E+01  0.23713140413E+01  0.39186307550E+02  0.40000000000E+02  0.47000000000E+01 0.  1.
</event>
<event>
 5    1  0.4872488E-001  0.8000000E+02  0.7546771E-02  0.1203772E+00
         11   -1    0    0    0    0  0.00000000000E+00  0.00000000000E+00  0.40000000000E+02  0.40000000000E+02  0.00000000000E+00 0. -1.
        -11   -1    0    0    0    0 -0.00000000000E+00 -0.00000000000E+00 -0.40000000000E+02  0.40000000000E+02  0.00000000000E+00 0.  1.
         23    2    1    2    0    0  0.00000000000E+00  0.00000000000E+00  0.00000000000E+00  0.80000000000E+02  0.80000000000E+02 0.  0.
          5    1    3    3  501    0 -0.99857534819E+01  0.18270067420E+02  0.33828972255E+02  0.40000000000E+02  0.47000000000E+01 0. -1.
         -5    1    3    3    0  501  0.99857534819E+01 -0.18270067420E+02 -0.33828972255E+02  0.40000000000E+02  0.47000000000E+01 0.  1.
</event>
<event>
 5    1  0.4872488E-001  0.8000000E+02  0.7546771E-02  0.1203772E+00
         11   -1    0    0    0    0  0.00000000000E+00  0.00000000000E+00  0.40000000000E+02  0.40000000000E+02  0.00000000000E+00 0.  1.
        -11   -1    0    0    0    0 -0.00000000000E+00 -0.00000000000E+00 -0.40000000000E+02  0.40000000000E+02  0.00000000000E+00 0. -1.
         23    2    1    2    0    0  0.00000000000E+00  0.00000000000E+00  0.00000000000E+00  0.80000000000E+02  0.80000000000E+02 0.  0.
          5    1    3    3  501    0  0.69046631673E+01 -0.18034972009E+01 -0.39076630157E+02  0.40000000000E+02  0.47000000000E+01 0. -1.
         -5    1    3    3    0  501 -0.69046631673E+01  0.18034972009E+01  0.39076630157E+02  0.40000000000E+02  0.47000000000E+01 0.  1.
</event>
<event>
 5    1  0.4872488E-001  0.8000000E+02  0.7546771E-02  0.1203772E+00
         11   -1    0    0    0    0  0.00000000000E+00  0.00000000000E+00  0.40000000000E+02  0.40000000000E+02  0.00000000000E+00 0. -1.
        -11   -1    0    0    0    0 -0.00000000000E+00 -0.00000000000E+00 -0.40000000000E+02  0.40000000000E+02  0.00000000000E+00 0.  1.
         23    2    1    2    0    0  0.00000000000E+00  0.00000000000E+00  0.00000000000E+00  0.80000000000E+02  0.80000000000E+02 0.  0.
          5    1    3    3  501    0  0.13713871331E+01 -0.25775049483E+02  0.30193974920E+02  0.40000000000E+02  0.47000000000E+01 0. -1.
         -5    1    3    3    0  501 -0.13713871331E+01  0.25775049483E+02 -0.30193974920E+02  0.40000000000E+02  0.47000000000E+01 0.  1.
</event>
<event>
 5    1  0.4872488E-001  0.8000000E+02  0.7546771E-02  0.1203772E+00
         11   -1    0    0    0    0  0.00000000000E+00  0.00000000000E+00  0.40000000000E+02  0.40000000000E+02  0.00000000000E+00 0.  1.
        -11   -1    0    0    0    0 -0.00000000000E+00 -0.00000000000E+00 -0.40000000000E+02  0.40000000000E+02  0.00000000000E+00 0. -1.
         23    2    1    2    0    0  0.00000000000E+00  0.00000000000E+00  0.00000000000E+00  0.80000000000E+02  0.80000000000E+02 0.  0.
          5    1    3    3  501    0 -0.16062973502E+02  0.31816196270E+02  0.17539114493E+02  0.40000000000E+02  0.47000000000E+01 0. -1.
         -5    1    3    3    0  501  0.16062973502E+02 -0.31816196270E+02 -0.17539114493E+02  0.40000000000E+02  0.47000000000E+01 0.  1.
</event>
<event>
 5    1  0.4872488E-001  0.8000000E+02  0.7546771E-02  0.1203772E+00
         11   -1    0    0    0    0  0.00000000000E+00  0.00000000000E+00  0.40000000000E+02  0.40000000000E+02  0.00000000000E+00 0.  1.
        -11   -1    0    0    0    0 -0.00000000000E+00 -0.00000000000E+00 -0.40000000000E+02  0.40000000000E+02  0.00000000000E+00 0. -1.
         23    2    1    2    0    0  0.00000000000E+00  0.00000000000E+00  0.00000000000E+00  0.80000000000E+02  0.80000000000E+02 0.  0.
          5    1    3    3  501    0  0.38561770558E+02 -0.24357903395E+00 -0.95310293611E+01  0.40000000000E+02  0.47000000000E+01 0. -1.
         -5    1    3    3    0  501 -0.38561770558E+02  0.24357903395E+00  0.95310293611E+01  0.40000000000E+02  0.47000000000E+01 0.  1.
</event>
<event>
 5    1  0.4872488E-001  0.8000000E+02  0.7546771E-02  0.1203772E+00
         11   -1    0    0    0    0  0.00000000000E+00  0.00000000000E+00  0.40000000000E+02  0.40000000000E+02  0.00000000000E+00 0.  1.
        -11   -1    0    0    0    0 -0.00000000000E+00 -0.00000000000E+00 -0.40000000000E+02  0.40000000000E+02  0.00000000000E+00 0. -1.
         23    2    1    2    0    0  0.00000000000E+00  0.00000000000E+00  0.00000000000E+00  0.80000000000E+02  0.80000000000E+02 0.  0.
          5    1    3    3  501    0  0.24252451176E+02 -0.26868782827E+02 -0.16364507977E+02  0.40000000000E+02  0.47000000000E+01 0. -1.
         -5    1    3    3    0  501 -0.24252451176E+02  0.26868782827E+02  0.16364507977E+02  0.40000000000E+02  0.47000000000E+01 0.  1.
</event>
<event>
 5    1  0.4872488E-001  0.8000000E+02  0.7546771E-02  0.1203772E+00
         11   -1    0    0    0    0  0.00000000000E+00  0.00000000000E+00  0.40000000000E+02  0.40000000000E+02  0.00000000000E+00 0. -1.
        -11   -1    0    0    0    0 -0.00000000000E+00 -0.00000000000E+00 -0.40000000000E+02  0.40000000000E+02  0.00000000000E+00 0.  1.
         23    2    1    2    0    0  0.00000000000E+00  0.00000000000E+00  0.00000000000E+00  0.80000000000E+02  0.80000000000E+02 0.  0.
          5    1    3    3  501    0  0.64758355497E+01 -0.23325145434E+02  0.31494620881E+02  0.40000000000E+02  0.47000000000E+01 0. -1.
         -5    1    3    3    0  501 -0.64758355497E+01  0.23325145434E+02 -0.31494620881E+02  0.40000000000E+02  0.47000000000E+01 0.  1.
</event>
<event>
 5    1  0.4872488E-001  0.8000000E+02  0.7546771E-02  0.1203772E+00
         11   -1    0    0    0    0  0.00000000000E+00  0.00000000000E+00  0.40000000000E+02  0.40000000000E+02  0.00000000000E+00 0.  1.
        -11   -1    0    0    0    0 -0.00000000000E+00 -0.00000000000E+00 -0.40000000000E+02  0.40000000000E+02  0.00000000000E+00 0. -1.
         23    2    1    2    0    0  0.00000000000E+00  0.00000000000E+00  0.00000000000E+00  0.80000000000E+02  0.80000000000E+02 0.  0.
          5    1    3    3  501    0 -0.52260978828E+01  0.37625896879E+01 -0.39197459353E+02  0.40000000000E+02  0.47000000000E+01 0. -1.
         -5    1    3    3    0  501  0.52260978828E+01 -0.37625896879E+01  0.39197459353E+02  0.40000000000E+02  0.47000000000E+01 0.  1.
</event>
<event>
 5    1  0.4872488E-001  0.8000000E+02  0.7546771E-02  0.1203772E+00
         11   -1    0    0    0    0  0.00000000000E+00  0.00000000000E+00  0.40000000000E+02  0.40000000000E+02  0.00000000000E+00 0.  1.
        -11   -1    0    0    0    0 -0.00000000000E+00 -0.00000000000E+00 -0.40000000000E+02  0.40000000000E+02  0.00000000000E+00 0. -1.
         23    2    1    2    0    0  0.00000000000E+00  0.00000000000E+00  0.00000000000E+00  0.80000000000E+02  0.80000000000E+02 0.  0.
          5    1    3    3  501    0  0.12801073036E+02 -0.64712066161E+01 -0.37042759266E+02  0.40000000000E+02  0.47000000000E+01 0. -1.
         -5    1    3    3    0  501 -0.12801073036E+02  0.64712066161E+01  0.37042759266E+02  0.40000000000E+02  0.47000000000E+01 0.  1.
</event>
<event>
 5    1  0.4872488E-001  0.8000000E+02  0.7546771E-02  0.1203772E+00
         11   -1    0    0    0    0  0.00000000000E+00  0.00000000000E+00  0.40000000000E+02  0.40000000000E+02  0.00000000000E+00 0. -1.
        -11   -1    0    0    0    0 -0.00000000000E+00 -0.00000000000E+00 -0.40000000000E+02  0.40000000000E+02  0.00000000000E+00 0.  1.
         23    2    1    2    0    0  0.00000000000E+00  0.00000000000E+00  0.00000000000E+00  0.80000000000E+02  0.80000000000E+02 0.  0.
          5    1    3    3  501    0 -0.62426331453E+01 -0.36210258591E+02  0.15091610391E+02  0.40000000000E+02  0.47000000000E+01 0. -1.
         -5    1    3    3    0  501  0.62426331453E+01  0.36210258591E+02 -0.15091610391E+02  0.40000000000E+02  0.47000000000E+01 0.  1.
</event>
<event>
 5    1  0.4872488E-001  0.8000000E+02  0.7546771E-02  0.1203772E+00
         11   -1    0    0    0    0  0.00000000000E+00  0.00000000000E+00  0.40000000000E+02  0.40000000000E+02  0.00000000000E+00 0. -1.
        -11   -1    0    0    0    0 -0.00000000000E+00 -0.00000000000E+00 -0.40000000000E+02  0.40000000000E+02  0.00000000000E+00 0.  1.
         23    2    1    2    0    0  0.00000000000E+00  0.00000000000E+00  0.00000000000E+00  0.80000000000E+02  0.80000000000E+02 0.  0.
          5    1    3    3  501    0 -0.23945865651E+02 -0.19910566079E+02  0.24659174290E+02  0.40000000000E+02  0.47000000000E+01 0. -1.
         -5    1    3    3    0  501  0.23945865651E+02  0.19910566079E+02 -0.24659174290E+02  0.40000000000E+02  0.47000000000E+01 0.  1.
</event>
<event>
 5    1  0.4872488E-001  0.8000000E+02  0.7546771E-02  0.1203772E+00
         11   -1    0    0    0    0  0.00000000000E+00  0.00000000000E+00  0.40000000000E+02  0.40000000000E+02  0.00000000000E+00 0. -1.
        -11   -1    0    0    0    0 -0.00000000000E+00 -0.00000000000E+00 -0.40000000000E+02  0.40000000000E+02  0.00000000000E+00 0.  1.
         23    2    1    2    0    0  0.00000000000E+00  0.00000000000E+00  0.00000000000E+00  0.80000000000E+02  0.80000000000E+02 0.  0.
          5    1    3    3  501    0  0.32353372606E+02 -0.16453972844E+01  0.22988300259E+02  0.40000000000E+02  0.47000000000E+01 0. -1.
         -5    1    3    3    0  501 -0.32353372606E+02  0.16453972844E+01 -0.22988300259E+02  0.40000000000E+02  0.47000000000E+01 0.  1.
</event>
<event>
 5    1  0.4872488E-001  0.8000000E+02  0.7546771E-02  0.1203772E+00
         11   -1    0    0    0    0  0.00000000000E+00  0.00000000000E+00  0.40000000000E+02  0.40000000000E+02  0.00000000000E+00 0.  1.
        -11   -1    0    0    0    0 -0.00000000000E+00 -0.00000000000E+00 -0.40000000000E+02  0.40000000000E+02  0.00000000000E+00 0. -1.
         23    2    1    2    0    0  0.00000000000E+00  0.00000000000E+00  0.00000000000E+00  0.80000000000E+02  0.80000000000E+02 0.  0.
          5    1    3    3  501    0  0.31559434856E+01  0.15356474468E+02 -0.36498338491E+02  0.40000000000E+02  0.47000000000E+01 0. -1.
         -5    1    3    3    0  501 -0.31559434856E+01 -0.15356474468E+02  0.36498338491E+02  0.40000000000E+02  0.47000000000E+01 0.  1.
</event>
<event>
 5    1  0.4872488E-001  0.8000000E+02  0.7546771E-02  0.1203772E+00
         11   -1    0    0    0    0  0.00000000000E+00  0.00000000000E+00  0.40000000000E+02  0.40000000000E+02  0.00000000000E+00 0. -1.
        -11   -1    0    0    0    0 -0.00000000000E+00 -0.00000000000E+00 -0.40000000000E+02  0.40000000000E+02  0.00000000000E+00 0.  1.
         23    2    1    2    0    0  0.00000000000E+00  0.00000000000E+00  0.00000000000E+00  0.80000000000E+02  0.80000000000E+02 0.  0.
          5    1    3    3  501    0 -0.14874343515E+02 -0.36775423929E+02 -0.20572068059E+01  0.40000000000E+02  0.47000000000E+01 0. -1.
         -5    1    3    3    0  501  0.14874343515E+02  0.36775423929E+02  0.20572068059E+01  0.40000000000E+02  0.47000000000E+01 0.  1.
</event>
<event>
 5    1  0.4872488E-001  0.8000000E+02  0.7546771E-02  0.1203772E+00
         11   -1    0    0    0    0  0.00000000000E+00  0.00000000000E+00  0.40000000000E+02  0.40000000000E+02  0.00000000000E+00 0. -1.
        -11   -1    0    0    0    0 -0.00000000000E+00 -0.00000000000E+00 -0.40000000000E+02  0.40000000000E+02  0.00000000000E+00 0.  1.
         23    2    1    2    0    0  0.00000000000E+00  0.00000000000E+00  0.00000000000E+00  0.80000000000E+02  0.80000000000E+02 0.  0.
          5    1    3    3  501    0  0.13896106263E+02  0.11444693083E+02  0.35409422912E+02  0.40000000000E+02  0.47000000000E+01 0. -1.
         -5    1    3    3    0  501 -0.13896106263E+02 -0.11444693083E+02 -0.35409422912E+02  0.40000000000E+02  0.47000000000E+01 0.  1.
</event>
<event>
 5    1  0.4872488E-001  0.8000000E+02  0.7546771E-02  0.1203772E+00
         11   -1    0    0    0    0  0.00000000000E+00  0.00000000000E+00  0.40000000000E+02  0.40000000000E+02  0.00000000000E+00 0. -1.
        -11   -1    0    0    0    0 -0.00000000000E+00 -0.00000000000E+00 -0.40000000000E+02  0.40000000000E+02  0.00000000000E+00 0.  1.
         23    2    1    2    0    0  0.00000000000E+00  0.00000000000E+00  0.00000000000E+00  0.80000000000E+02  0.80000000000E+02 0.  0.
          5    1    3    3  501    0  0.36957212983E+02 -0.64167381726E+01  0.13072868075E+02  0.40000000000E+02  0.47000000000E+01 0. -1.
         -5    1    3    3    0  501 -0.36957212983E+02  0.64167381726E+01 -0.13072868075E+02  0.40000000000E+02  0.47000000000E+01 0.  1.
</event>
<event>
 5    1  0.4872488E-001  0.8000000E+02  0.7546771E-02  0.1203772E+00
         11   -1    0    0    0    0  0.00000000000E+00  0.00000000000E+00  0.40000000000E+02  0.40000000000E+02  0.00000000000E+00 0.  1.
        -11   -1    0    0    0    0 -0.00000000000E+00 -0.00000000000E+00 -0.40000000000E+02  0.40000000000E+02  0.00000000000E+00 0. -1.
         23    2    1    2    0    0  0.00000000000E+00  0.00000000000E+00  0.00000000000E+00  0.80000000000E+02  0.80000000000E+02 0.  0.
          5    1    3    3  501    0  0.17404857654E+02 -0.11286598536E+02 -0.33876151251E+02  0.40000000000E+02  0.47000000000E+01 0. -1.
         -5    1    3    3    0  501 -0.17404857654E+02  0.11286598536E+02  0.33876151251E+02  0.40000000000E+02  0.47000000000E+01 0.  1.
</event>
<event>
 5    1  0.4872488E-001  0.8000000E+02  0.7546771E-02  0.1203772E+00
         11   -1    0    0    0    0  0.00000000000E+00  0.00000000000E+00  0.40000000000E+02  0.40000000000E+02  0.00000000000E+00 0. -1.
        -11   -1    0    0    0    0 -0.00000000000E+00 -0.00000000000E+00 -0.40000000000E+02  0.40000000000E+02  0.00000000000E+00 0.  1.
         23    2    1    2    0    0  0.00000000000E+00  0.00000000000E+00  0.00000000000E+00  0.80000000000E+02  0.80000000000E+02 0.  0.
          5    1    3    3  501    0 -0.19697825600E+02 -0.96627772684E+01  0.33113991033E+02  0.40000000000E+02  0.47000000000E+01 0. -1.
         -5    1    3    3    0  501  0.19697825600E+02  0.96627772684E+01 -0.33113991033E+02  0.40000000000E+02  0.47000000000E+01 0.  1.
</event>
<event>
 5    1  0.4872488E-001  0.8000000E+02  0.7546771E-02  0.1203772E+00
         11   -1    0    0    0    0  0.00000000000E+00  0.00000000000E+00  0.40000000000E+02  0.40000000000E+02  0.00000000000E+00 0.  1.
        -11   -1    0    0    0    0 -0.00000000000E+00 -0.00000000000E+00 -0.40000000000E+02  0.40000000000E+02  0.00000000000E+00 0. -1.
         23    2    1    2    0    0  0.00000000000E+00  0.00000000000E+00  0.00000000000E+00  0.80000000000E+02  0.80000000000E+02 0.  0.
          5    1    3    3  501    0 -0.23882011845E+02  0.25212102591E+02 -0.19284952506E+02  0.40000000000E+02  0.47000000000E+01 0. -1.
         -5    1    3    3    0  501  0.23882011845E+02 -0.25212102591E+02  0.19284952506E+02  0.40000000000E+02  0.47000000000E+01 0.  1.
</event>
<event>
 5    1  0.4872488E-001  0.8000000E+02  0.7546771E-02  0.1203772E+00
         11   -1    0    0    0    0  0.00000000000E+00  0.00000000000E+00  0.40000000000E+02  0.40000000000E+02  0.00000000000E+00 0.  1.
        -11   -1    0    0    0    0 -0.00000000000E+00 -0.00000000000E+00 -0.40000000000E+02  0.40000000000E+02  0.00000000000E+00 0. -1.
         23    2    1    2    0    0  0.00000000000E+00  0.00000000000E+00  0.00000000000E+00  0.80000000000E+02  0.80000000000E+02 0.  0.
          5    1    3    3  501    0 -0.97045742615E+01 -0.24573461072E+02 -0.29662708058E+02  0.40000000000E+02  0.47000000000E+01 0. -1.
         -5    1    3    3    0  501  0.97045742615E+01  0.24573461072E+02  0.29662708058E+02  0.40000000000E+02  0.47000000000E+01 0.  1.
</event>
<event>
 5    1  0.4872488E-001  0.8000000E+02  0.7546771E-02  0.1203772E+00
         11   -1    0    0    0    0  0.00000000000E+00  0.00000000000E+00  0.40000000000E+02  0.40000000000E+02  0.00000000000E+00 0.  1.
        -11   -1    0    0    0    0 -0.00000000000E+00 -0.00000000000E+00 -0.40000000000E+02  0.40000000000E+02  0.00000000000E+00 0. -1.
         23    2    1    2    0    0  0.00000000000E+00  0.00000000000E+00  0.00000000000E+00  0.80000000000E+02  0.80000000000E+02 0.  0.
          5    1    3    3  501    0 -0.95305699262E+00  0.33064370111E+02 -0.21994297250E+02  0.40000000000E+02  0.47000000000E+01 0. -1.
         -5    1    3    3    0  501  0.95305699262E+00 -0.33064370111E+02  0.21994297250E+02  0.40000000000E+02  0.47000000000E+01 0.  1.
</event>
<event>
 5    1  0.4872488E-001  0.8000000E+02  0.7546771E-02  0.1203772E+00
         11   -1    0    0    0    0  0.00000000000E+00  0.00000000000E+00  0.40000000000E+02  0.40000000000E+02  0.00000000000E+00 0.  1.
        -11   -1    0    0    0    0 -0.00000000000E+00 -0.00000000000E+00 -0.40000000000E+02  0.40000000000E+02  0.00000000000E+00 0. -1.
         23    2    1    2    0    0  0.00000000000E+00  0.00000000000E+00  0.00000000000E+00  0.80000000000E+02  0.80000000000E+02 0.  0.
          5    1    3    3  501    0  0.72015525697E+01  0.15571369911E+02 -0.35827085838E+02  0.40000000000E+02  0.47000000000E+01 0. -1.
         -5    1    3    3    0  501 -0.72015525697E+01 -0.15571369911E+02  0.35827085838E+02  0.40000000000E+02  0.47000000000E+01 0.  1.
</event>
<event>
 5    1  0.4872488E-001  0.8000000E+02  0.7546771E-02  0.1203772E+00
         11   -1    0    0    0    0  0.00000000000E+00  0.00000000000E+00  0.40000000000E+02  0.40000000000E+02  0.00000000000E+00 0. -1.
        -11   -1    0    0    0    0 -0.00000000000E+00 -0.00000000000E+00 -0.40000000000E+02  0.40000000000E+02  0.00000000000E+00 0.  1.
         23    2    1    2    0    0  0.00000000000E+00  0.00000000000E+00  0.00000000000E+00  0.80000000000E+02  0.80000000000E+02 0.  0.
          5    1    3    3  501    0  0.23282460362E+02 -0.87869103742E+01  0.30961706115E+02  0.40000000000E+02  0.47000000000E+01 0. -1.
         -5    1    3    3    0  501 -0.23282460362E+02  0.87869103742E+01 -0.30961706115E+02  0.40000000000E+02  0.47000000000E+01 0.  1.
</event>
<event>
 5    1  0.4872488E-001  0.8000000E+02  0.7546771E-02  0.1203772E+00
         11   -1    0    0    0    0  0.00000000000E+00  0.00000000000E+00  0.40000000000E+02  0.40000000000E+02  0.00000000000E+00 0. -1.
        -11   -1    0    0    0    0 -0.00000000000E+00 -0.00000000000E+00 -0.40000000000E+02  0.40000000000E+02  0.00000000000E+00 0.  1.
         23    2    1    2    0    0  0.00000000000E+00  0.00000000000E+00  0.00000000000E+00  0.80000000000E+02  0.80000000000E+02 0.  0.
          5    1    3    3  501    0 -0.32374799157E+02 -0.18693672140E+02  0.13428663429E+02  0.40000000000E+02  0.47000000000E+01 0. -1.
         -5    1    3    3    0  501  0.32374799157E+02  0.18693672140E+02 -0.13428663429E+02  0.40000000000E+02  0.47000000000E+01 0.  1.
</event>
<event>
 5    1  0.4872488E-001  0.8000000E+02  0.7546771E-02  0.1203772E+00
         11   -1    0    0    0    0  0.00000000000E+00  0.00000000000E+00  0.40000000000E+02  0.40000000000E+02  0.00000000000E+00 0. -1.
        -11   -1    0    0    0    0 -0.00000000000E+00 -0.00000000000E+00 -0.40000000000E+02  0.40000000000E+02  0.00000000000E+00 0.  1.
         23    2    1    2    0    0  0.00000000000E+00  0.00000000000E+00  0.00000000000E+00  0.80000000000E+02  0.80000000000E+02 0.  0.
          5    1    3    3  501    0 -0.12885939376E+02  0.34644500057E+02  0.14547205306E+02  0.40000000000E+02  0.47000000000E+01 0. -1.
         -5    1    3    3    0  501  0.12885939376E+02 -0.34644500057E+02 -0.14547205306E+02  0.40000000000E+02  0.47000000000E+01 0.  1.
</event>
<event>
 5    1  0.4872488E-001  0.8000000E+02  0.7546771E-02  0.1203772E+00
         11   -1    0    0    0    0  0.00000000000E+00  0.00000000000E+00  0.40000000000E+02  0.40000000000E+02  0.00000000000E+00 0. -1.
        -11   -1    0    0    0    0 -0.00000000000E+00 -0.00000000000E+00 -0.40000000000E+02  0.40000000000E+02  0.00000000000E+00 0.  1.
         23    2    1    2    0    0  0.00000000000E+00  0.00000000000E+00  0.00000000000E+00  0.80000000000E+02  0.80000000000E+02 0.  0.
          5    1    3    3  501    0  0.25831883416E+02 -0.29908931838E+02  0.40099370944E+01  0.40000000000E+02  0.47000000000E+01 0. -1.
         -5    1    3    3    0  501 -0.25831883416E+02  0.29908931838E+02 -0.40099370944E+01  0.40000000000E+02  0.47000000000E+01 0.  1.
</event>
<event>
 5    1  0.4872488E-001  0.8000000E+02  0.7546771E-02  0.1203772E+00
         11   -1    0    0    0    0  0.00000000000E+00  0.00000000000E+00  0.40000000000E+02  0.40000000000E+02  0.00000000000E+00 0.  1.
        -11   -1    0    0    0    0 -0.00000000000E+00 -0.00000000000E+00 -0.40000000000E+02  0.40000000000E+02  0.00000000000E+00 0. -1.
         23    2    1    2    0    0  0.00000000000E+00  0.00000000000E+00  0.00000000000E+00  0.80000000000E+02  0.80000000000E+02 0.  0.
          5    1    3    3  501    0  0.33610810300E+02  0.80564901813E+01 -0.19578467687E+02  0.40000000000E+02  0.47000000000E+01 0. -1.
         -5    1    3    3    0  501 -0.33610810300E+02 -0.80564901813E+01  0.19578467687E+02  0.40000000000E+02  0.47000000000E+01 0.  1.
</event>
<event>
 5    1  0.4872488E-001  0.8000000E+02  0.7546771E-02  0.1203772E+00
         11   -1    0    0    0    0  0.00000000000E+00  0.00000000000E+00  0.40000000000E+02  0.40000000000E+02  0.00000000000E+00 0.  1.
        -11   -1    0    0    0    0 -0.00000000000E+00 -0.00000000000E+00 -0.40000000000E+02  0.40000000000E+02  0.00000000000E+00 0. -1.
         23    2    1    2    0    0  0.00000000000E+00  0.00000000000E+00  0.00000000000E+00  0.80000000000E+02  0.80000000000E+02 0.  0.
          5    1    3    3  501    0 -0.33276404176E+02  0.10851657400E+02 -0.18783834987E+02  0.40000000000E+02  0.47000000000E+01 0. -1.
         -5    1    3    3    0  501  0.33276404176E+02 -0.10851657400E+02  0.18783834987E+02  0.40000000000E+02  0.47000000000E+01 0.  1.
</event>
<event>
 5    1  0.4872488E-001  0.8000000E+02  0.7546771E-02  0.1203772E+00
         11   -1    0    0    0    0  0.00000000000E+00  0.00000000000E+00  0.40000000000E+02  0.40000000000E+02  0.00000000000E+00 0. -1.
        -11   -1    0    0    0    0 -0.00000000000E+00 -0.00000000000E+00 -0.40000000000E+02  0.40000000000E+02  0.00000000000E+00 0.  1.
         23    2    1    2    0    0  0.00000000000E+00  0.00000000000E+00  0.00000000000E+00  0.80000000000E+02  0.80000000000E+02 0.  0.
          5    1    3    3  501    0 -0.35414874955E+02 -0.16961401381E+02 -0.60006245616E+01  0.40000000000E+02  0.47000000000E+01 0. -1.
         -5    1    3    3    0  501  0.35414874955E+02  0.16961401381E+02  0.60006245616E+01  0.40000000000E+02  0.47000000000E+01 0.  1.
</event>
<event>
 5    1  0.4872488E-001  0.8000000E+02  0.7546771E-02  0.1203772E+00
         11   -1    0    0    0    0  0.00000000000E+00  0.00000000000E+00  0.40000000000E+02  0.40000000000E+02  0.00000000000E+00 0.  1.
        -11   -1    0    0    0    0 -0.00000000000E+00 -0.00000000000E+00 -0.40000000000E+02  0.40000000000E+02  0.00000000000E+00 0. -1.
         23    2    1    2    0    0  0.00000000000E+00  0.00000000000E+00  0.00000000000E+00  0.80000000000E+02  0.80000000000E+02 0.  0.
          5    1    3    3  501    0  0.36808963279E+02 -0.14897632423E+02 -0.10347804292E+01  0.40000000000E+02  0.47000000000E+01 0. -1.
         -5    1    3    3    0  501 -0.36808963279E+02  0.14897632423E+02  0.10347804292E+01  0.40000000000E+02  0.47000000000E+01 0.  1.
</event>
<event>
 5    1  0.4872488E-001  0.8000000E+02  0.7546771E-02  0.1203772E+00
         11   -1    0    0    0    0  0.00000000000E+00  0.00000000000E+00  0.40000000000E+02  0.40000000000E+02  0.00000000000E+00 0.  1.
        -11   -1    0    0    0    0 -0.00000000000E+00 -0.00000000000E+00 -0.40000000000E+02  0.40000000000E+02  0.00000000000E+00 0. -1.
         23    2    1    2    0    0  0.00000000000E+00  0.00000000000E+00  0.00000000000E+00  0.80000000000E+02  0.80000000000E+02 0.  0.
          5    1    3    3  501    0 -0.12958076655E+02 -0.24433659425E+02 -0.28513059052E+02  0.40000000000E+02  0.47000000000E+01 0. -1.
         -5    1    3    3    0  501  0.12958076655E+02  0.24433659425E+02  0.28513059052E+02  0.40000000000E+02  0.47000000000E+01 0.  1.
</event>
<event>
 5    1  0.4872488E-001  0.8000000E+02  0.7546771E-02  0.1203772E+00
         11   -1    0    0    0    0  0.00000000000E+00  0.00000000000E+00  0.40000000000E+02  0.40000000000E+02  0.00000000000E+00 0.  1.
        -11   -1    0    0    0    0 -0.00000000000E+00 -0.00000000000E+00 -0.40000000000E+02  0.40000000000E+02  0.00000000000E+00 0. -1.
         23    2    1    2    0    0  0.00000000000E+00  0.00000000000E+00  0.00000000000E+00  0.80000000000E+02  0.80000000000E+02 0.  0.
          5    1    3    3  501    0 -0.26886564532E+02 -0.82964815512E+01 -0.28039098444E+02  0.40000000000E+02  0.47000000000E+01 0. -1.
         -5    1    3    3    0  501  0.26886564532E+02  0.82964815512E+01  0.28039098444E+02  0.40000000000E+02  0.47000000000E+01 0.  1.
</event>
<event>
 5    1  0.4872488E-001  0.8000000E+02  0.7546771E-02  0.1203772E+00
         11   -1    0    0    0    0  0.00000000000E+00  0.00000000000E+00  0.40000000000E+02  0.40000000000E+02  0.00000000000E+00 0.  1.
        -11   -1    0    0    0    0 -0.00000000000E+00 -0.00000000000E+00 -0.40000000000E+02  0.40000000000E+02  0.00000000000E+00 0. -1.
         23    2    1    2    0    0  0.00000000000E+00  0.00000000000E+00  0.00000000000E+00  0.80000000000E+02  0.80000000000E+02 0.  0.
          5    1    3    3  501    0  0.97024936012E+01  0.11577287327E+02 -0.36738781091E+02  0.40000000000E+02  0.47000000000E+01 0. -1.
         -5    1    3    3    0  501 -0.97024936012E+01 -0.11577287327E+02  0.36738781091E+02  0.40000000000E+02  0.47000000000E+01 0.  1.
</event>
<event>
 5    1  0.4872488E-001  0.8000000E+02  0.7546771E-02  0.1203772E+00
         11   -1    0    0    0    0  0.00000000000E+00  0.00000000000E+00  0.40000000000E+02  0.40000000000E+02  0.00000000000E+00 0. -1.
        -11   -1    0    0    0    0 -0.00000000000E+00 -0.00000000000E+00 -0.40000000000E+02  0.40000000000E+02  0.00000000000E+00 0.  1.
         23    2    1    2    0    0  0.00000000000E+00  0.00000000000E+00  0.00000000000E+00  0.80000000000E+02  0.80000000000E+02 0.  0.
          5    1    3    3  501    0 -0.14292680974E+02 -0.37048928672E+02  0.10030727010E+01  0.40000000000E+02  0.47000000000E+01 0. -1.
         -5    1    3    3    0  501  0.14292680974E+02  0.37048928672E+02 -0.10030727010E+01  0.40000000000E+02  0.47000000000E+01 0.  1.
</event>
<event>
 5    1  0.4872488E-001  0.8000000E+02  0.7546771E-02  0.1203772E+00
         11   -1    0    0    0    0  0.00000000000E+00  0.00000000000E+00  0.40000000000E+02  0.40000000000E+02  0.00000000000E+00 0.  1.
        -11   -1    0    0    0    0 -0.00000000000E+00 -0.00000000000E+00 -0.40000000000E+02  0.40000000000E+02  0.00000000000E+00 0. -1.
         23    2    1    2    0    0  0.00000000000E+00  0.00000000000E+00  0.00000000000E+00  0.80000000000E+02  0.80000000000E+02 0.  0.
          5    1    3    3  501    0 -0.27283821511E+02 -0.27893811322E+02 -0.74456949789E+01  0.40000000000E+02  0.47000000000E+01 0. -1.
         -5    1    3    3    0  501  0.27283821511E+02  0.27893811322E+02  0.74456949789E+01  0.40000000000E+02  0.47000000000E+01 0. -1.
</event>
<event>
 5    1  0.4872488E-001  0.8000000E+02  0.7546771E-02  0.1203772E+00
         11   -1    0    0    0    0  0.00000000000E+00  0.00000000000E+00  0.40000000000E+02  0.40000000000E+02  0.00000000000E+00 0.  1.
        -11   -1    0    0    0    0 -0.00000000000E+00 -0.00000000000E+00 -0.40000000000E+02  0.40000000000E+02  0.00000000000E+00 0. -1.
         23    2    1    2    0    0  0.00000000000E+00  0.00000000000E+00  0.00000000000E+00  0.80000000000E+02  0.80000000000E+02 0.  0.
          5    1    3    3  501    0  0.24901038947E+02 -0.12862526016E+02 -0.28149665786E+02  0.40000000000E+02  0.47000000000E+01 0. -1.
         -5    1    3    3    0  501 -0.24901038947E+02  0.12862526016E+02  0.28149665786E+02  0.40000000000E+02  0.47000000000E+01 0.  1.
</event>
<event>
 5    1  0.4872488E-001  0.8000000E+02  0.7546771E-02  0.1203772E+00
         11   -1    0    0    0    0  0.00000000000E+00  0.00000000000E+00  0.40000000000E+02  0.40000000000E+02  0.00000000000E+00 0.  1.
        -11   -1    0    0    0    0 -0.00000000000E+00 -0.00000000000E+00 -0.40000000000E+02  0.40000000000E+02  0.00000000000E+00 0. -1.
         23    2    1    2    0    0  0.00000000000E+00  0.00000000000E+00  0.00000000000E+00  0.80000000000E+02  0.80000000000E+02 0.  0.
          5    1    3    3  501    0 -0.28274668993E+02  0.11078921137E+00 -0.27900552308E+02  0.40000000000E+02  0.47000000000E+01 0. -1.
         -5    1    3    3    0  501  0.28274668993E+02 -0.11078921137E+00  0.27900552308E+02  0.40000000000E+02  0.47000000000E+01 0.  1.
</event>
<event>
 5    1  0.4872488E-001  0.8000000E+02  0.7546771E-02  0.1203772E+00
         11   -1    0    0    0    0  0.00000000000E+00  0.00000000000E+00  0.40000000000E+02  0.40000000000E+02  0.00000000000E+00 0. -1.
        -11   -1    0    0    0    0 -0.00000000000E+00 -0.00000000000E+00 -0.40000000000E+02  0.40000000000E+02  0.00000000000E+00 0.  1.
         23    2    1    2    0    0  0.00000000000E+00  0.00000000000E+00  0.00000000000E+00  0.80000000000E+02  0.80000000000E+02 0.  0.
          5    1    3    3  501    0 -0.35744711550E+01  0.69277806625E+01  0.38950468689E+02  0.40000000000E+02  0.47000000000E+01 0. -1.
         -5    1    3    3    0  501  0.35744711550E+01 -0.69277806625E+01 -0.38950468689E+02  0.40000000000E+02  0.47000000000E+01 0.  1.
</event>
<event>
 5    1  0.4872488E-001  0.8000000E+02  0.7546771E-02  0.1203772E+00
         11   -1    0    0    0    0  0.00000000000E+00  0.00000000000E+00  0.40000000000E+02  0.40000000000E+02  0.00000000000E+00 0. -1.
        -11   -1    0    0    0    0 -0.00000000000E+00 -0.00000000000E+00 -0.40000000000E+02  0.40000000000E+02  0.00000000000E+00 0.  1.
         23    2    1    2    0    0  0.00000000000E+00  0.00000000000E+00  0.00000000000E+00  0.80000000000E+02  0.80000000000E+02 0.  0.
          5    1    3    3  501    0  0.22844526101E+02 -0.10017562363E+02  0.30914172664E+02  0.40000000000E+02  0.47000000000E+01 0. -1.
         -5    1    3    3    0  501 -0.22844526101E+02  0.10017562363E+02 -0.30914172664E+02  0.40000000000E+02  0.47000000000E+01 0.  1.
</event>
<event>
 5    1  0.4872488E-001  0.8000000E+02  0.7546771E-02  0.1203772E+00
         11   -1    0    0    0    0  0.00000000000E+00  0.00000000000E+00  0.40000000000E+02  0.40000000000E+02  0.00000000000E+00 0. -1.
        -11   -1    0    0    0    0 -0.00000000000E+00 -0.00000000000E+00 -0.40000000000E+02  0.40000000000E+02  0.00000000000E+00 0.  1.
         23    2    1    2    0    0  0.00000000000E+00  0.00000000000E+00  0.00000000000E+00  0.80000000000E+02  0.80000000000E+02 0.  0.
          5    1    3    3  501    0  0.29985398902E+02 -0.18477257551E+02  0.18367819852E+02  0.40000000000E+02  0.47000000000E+01 0. -1.
         -5    1    3    3    0  501 -0.29985398902E+02  0.18477257551E+02 -0.18367819852E+02  0.40000000000E+02  0.47000000000E+01 0.  1.
</event>
<event>
 5    1  0.4872488E-001  0.8000000E+02  0.7546771E-02  0.1203772E+00
         11   -1    0    0    0    0  0.00000000000E+00  0.00000000000E+00  0.40000000000E+02  0.40000000000E+02  0.00000000000E+00 0. -1.
        -11   -1    0    0    0    0 -0.00000000000E+00 -0.00000000000E+00 -0.40000000000E+02  0.40000000000E+02  0.00000000000E+00 0.  1.
         23    2    1    2    0    0  0.00000000000E+00  0.00000000000E+00  0.00000000000E+00  0.80000000000E+02  0.80000000000E+02 0.  0.
          5    1    3    3  501    0 -0.35011005697E+01  0.39448539052E+02  0.30765340055E+01  0.40000000000E+02  0.47000000000E+01 0. -1.
         -5    1    3    3    0  501  0.35011005697E+01 -0.39448539052E+02 -0.30765340055E+01  0.40000000000E+02  0.47000000000E+01 0.  1.
</event>
<event>
 5    1  0.4872488E-001  0.8000000E+02  0.7546771E-02  0.1203772E+00
         11   -1    0    0    0    0  0.00000000000E+00  0.00000000000E+00  0.40000000000E+02  0.40000000000E+02  0.00000000000E+00 0. -1.
        -11   -1    0    0    0    0 -0.00000000000E+00 -0.00000000000E+00 -0.40000000000E+02  0.40000000000E+02  0.00000000000E+00 0.  1.
         23    2    1    2    0    0  0.00000000000E+00  0.00000000000E+00  0.00000000000E+00  0.80000000000E+02  0.80000000000E+02 0.  0.
          5    1    3    3  501    0 -0.32894632870E+02 -0.20225830227E+01  0.22175713884E+02  0.40000000000E+02  0.47000000000E+01 0. -1.
         -5    1    3    3    0  501  0.32894632870E+02  0.20225830227E+01 -0.22175713884E+02  0.40000000000E+02  0.47000000000E+01 0.  1.
</event>
<event>
 5    1  0.4872488E-001  0.8000000E+02  0.7546771E-02  0.1203772E+00
         11   -1    0    0    0    0  0.00000000000E+00  0.00000000000E+00  0.40000000000E+02  0.40000000000E+02  0.00000000000E+00 0. -1.
        -11   -1    0    0    0    0 -0.00000000000E+00 -0.00000000000E+00 -0.40000000000E+02  0.40000000000E+02  0.00000000000E+00 0.  1.
         23    2    1    2    0    0  0.00000000000E+00  0.00000000000E+00  0.00000000000E+00  0.80000000000E+02  0.80000000000E+02 0.  0.
          5    1    3    3  501    0 -0.18260990744E+02 -0.32077805864E+02  0.14678575817E+02  0.40000000000E+02  0.47000000000E+01 0. -1.
         -5    1    3    3    0  501  0.18260990744E+02  0.32077805864E+02 -0.14678575817E+02  0.40000000000E+02  0.47000000000E+01 0.  1.
</event>
<event>
 5    1  0.4872488E-001  0.8000000E+02  0.7546771E-02  0.1203772E+00
         11   -1    0    0    0    0  0.00000000000E+00  0.00000000000E+00  0.40000000000E+02  0.40000000000E+02  0.00000000000E+00 0. -1.
        -11   -1    0    0    0    0 -0.00000000000E+00 -0.00000000000E+00 -0.40000000000E+02  0.40000000000E+02  0.00000000000E+00 0.  1.
         23    2    1    2    0    0  0.00000000000E+00  0.00000000000E+00  0.00000000000E+00  0.80000000000E+02  0.80000000000E+02 0.  0.
          5    1    3    3  501    0  0.35830090740E+02  0.16812992691E+02  0.33819926580E+01  0.40000000000E+02  0.47000000000E+01 0. -1.
         -5    1    3    3    0  501 -0.35830090740E+02 -0.16812992691E+02 -0.33819926580E+01  0.40000000000E+02  0.47000000000E+01 0.  1.
</event>
<event>
 5    1  0.4872488E-001  0.8000000E+02  0.7546771E-02  0.1203772E+00
         11   -1    0    0    0    0  0.00000000000E+00  0.00000000000E+00  0.40000000000E+02  0.40000000000E+02  0.00000000000E+00 0.  1.
        -11   -1    0    0    0    0 -0.00000000000E+00 -0.00000000000E+00 -0.40000000000E+02  0.40000000000E+02  0.00000000000E+00 0. -1.
         23    2    1    2    0    0  0.00000000000E+00  0.00000000000E+00  0.00000000000E+00  0.80000000000E+02  0.80000000000E+02 0.  0.
          5    1    3    3  501    0  0.13673078313E+02 -0.71136290340E+01 -0.36610834618E+02  0.40000000000E+02  0.47000000000E+01 0. -1.
         -5    1    3    3    0  501 -0.13673078313E+02  0.71136290340E+01  0.36610834618E+02  0.40000000000E+02  0.47000000000E+01 0.  1.
</event>
<event>
 5    1  0.4872488E-001  0.8000000E+02  0.7546771E-02  0.1203772E+00
         11   -1    0    0    0    0  0.00000000000E+00  0.00000000000E+00  0.40000000000E+02  0.40000000000E+02  0.00000000000E+00 0. -1.
        -11   -1    0    0    0    0 -0.00000000000E+00 -0.00000000000E+00 -0.40000000000E+02  0.40000000000E+02  0.00000000000E+00 0.  1.
         23    2    1    2    0    0  0.00000000000E+00  0.00000000000E+00  0.00000000000E+00  0.80000000000E+02  0.80000000000E+02 0.  0.
          5    1    3    3  501    0  0.17307065127E+02 -0.13186022762E+02  0.33234083415E+02  0.40000000000E+02  0.47000000000E+01 0. -1.
         -5    1    3    3    0  501 -0.17307065127E+02  0.13186022762E+02 -0.33234083415E+02  0.40000000000E+02  0.47000000000E+01 0.  1.
</event>
<event>
 5    1  0.4872488E-001  0.8000000E+02  0.7546771E-02  0.1203772E+00
         11   -1    0    0    0    0  0.00000000000E+00  0.00000000000E+00  0.40000000000E+02  0.40000000000E+02  0.00000000000E+00 0.  1.
        -11   -1    0    0    0    0 -0.00000000000E+00 -0.00000000000E+00 -0.40000000000E+02  0.40000000000E+02  0.00000000000E+00 0. -1.
         23    2    1    2    0    0  0.00000000000E+00  0.00000000000E+00  0.00000000000E+00  0.80000000000E+02  0.80000000000E+02 0.  0.
          5    1    3    3  501    0  0.38893519615E+01  0.39519523632E+02  0.99508452005E+00  0.40000000000E+02  0.47000000000E+01 0. -1.
         -5    1    3    3    0  501 -0.38893519615E+01 -0.39519523632E+02 -0.99508452005E+00  0.40000000000E+02  0.47000000000E+01 0.  1.
</event>
<event>
 5    1  0.4872488E-001  0.8000000E+02  0.7546771E-02  0.1203772E+00
         11   -1    0    0    0    0  0.00000000000E+00  0.00000000000E+00  0.40000000000E+02  0.40000000000E+02  0.00000000000E+00 0. -1.
        -11   -1    0    0    0    0 -0.00000000000E+00 -0.00000000000E+00 -0.40000000000E+02  0.40000000000E+02  0.00000000000E+00 0.  1.
         23    2    1    2    0    0  0.00000000000E+00  0.00000000000E+00  0.00000000000E+00  0.80000000000E+02  0.80000000000E+02 0.  0.
          5    1    3    3  501    0  0.26499820932E+01  0.27492247213E+02 -0.28549324652E+02  0.40000000000E+02  0.47000000000E+01 0.  1.
         -5    1    3    3    0  501 -0.26499820932E+01 -0.27492247213E+02  0.28549324652E+02  0.40000000000E+02  0.47000000000E+01 0. -1.
</event>
<event>
 5    1  0.4872488E-001  0.8000000E+02  0.7546771E-02  0.1203772E+00
         11   -1    0    0    0    0  0.00000000000E+00  0.00000000000E+00  0.40000000000E+02  0.40000000000E+02  0.00000000000E+00 0. -1.
        -11   -1    0    0    0    0 -0.00000000000E+00 -0.00000000000E+00 -0.40000000000E+02  0.40000000000E+02  0.00000000000E+00 0.  1.
         23    2    1    2    0    0  0.00000000000E+00  0.00000000000E+00  0.00000000000E+00  0.80000000000E+02  0.80000000000E+02 0.  0.
          5    1    3    3  501    0  0.18565613685E+02  0.31160314824E+01  0.34978826972E+02  0.40000000000E+02  0.47000000000E+01 0. -1.
         -5    1    3    3    0  501 -0.18565613685E+02 -0.31160314824E+01 -0.34978826972E+02  0.40000000000E+02  0.47000000000E+01 0.  1.
</event>
<event>
 5    1  0.4872488E-001  0.8000000E+02  0.7546771E-02  0.1203772E+00
         11   -1    0    0    0    0  0.00000000000E+00  0.00000000000E+00  0.40000000000E+02  0.40000000000E+02  0.00000000000E+00 0. -1.
        -11   -1    0    0    0    0 -0.00000000000E+00 -0.00000000000E+00 -0.40000000000E+02  0.40000000000E+02  0.00000000000E+00 0.  1.
         23    2    1    2    0    0  0.00000000000E+00  0.00000000000E+00  0.00000000000E+00  0.80000000000E+02  0.80000000000E+02 0.  0.
          5    1    3    3  501    0  0.12035945928E+02  0.37758260857E+02  0.27128845675E+01  0.40000000000E+02  0.47000000000E+01 0. -1.
         -5    1    3    3    0  501 -0.12035945928E+02 -0.37758260857E+02 -0.27128845675E+01  0.40000000000E+02  0.47000000000E+01 0.  1.
</event>
<event>
 5    1  0.4872488E-001  0.8000000E+02  0.7546771E-02  0.1203772E+00
         11   -1    0    0    0    0  0.00000000000E+00  0.00000000000E+00  0.40000000000E+02  0.40000000000E+02  0.00000000000E+00 0. -1.
        -11   -1    0    0    0    0 -0.00000000000E+00 -0.00000000000E+00 -0.40000000000E+02  0.40000000000E+02  0.00000000000E+00 0.  1.
         23    2    1    2    0    0  0.00000000000E+00  0.00000000000E+00  0.00000000000E+00  0.80000000000E+02  0.80000000000E+02 0.  0.
          5    1    3    3  501    0 -0.86891879034E+01  0.16295101490E+02  0.35169271830E+02  0.40000000000E+02  0.47000000000E+01 0. -1.
         -5    1    3    3    0  501  0.86891879034E+01 -0.16295101490E+02 -0.35169271830E+02  0.40000000000E+02  0.47000000000E+01 0.  1.
</event>
<event>
 5    1  0.4872488E-001  0.8000000E+02  0.7546771E-02  0.1203772E+00
         11   -1    0    0    0    0  0.00000000000E+00  0.00000000000E+00  0.40000000000E+02  0.40000000000E+02  0.00000000000E+00 0. -1.
        -11   -1    0    0    0    0 -0.00000000000E+00 -0.00000000000E+00 -0.40000000000E+02  0.40000000000E+02  0.00000000000E+00 0.  1.
         23    2    1    2    0    0  0.00000000000E+00  0.00000000000E+00  0.00000000000E+00  0.80000000000E+02  0.80000000000E+02 0.  0.
          5    1    3    3  501    0 -0.38641494116E+02  0.49442821690E+00  0.91924138962E+01  0.40000000000E+02  0.47000000000E+01 0. -1.
         -5    1    3    3    0  501  0.38641494116E+02 -0.49442821690E+00 -0.91924138962E+01  0.40000000000E+02  0.47000000000E+01 0.  1.
</event>
<event>
 5    1  0.4872488E-001  0.8000000E+02  0.7546771E-02  0.1203772E+00
         11   -1    0    0    0    0  0.00000000000E+00  0.00000000000E+00  0.40000000000E+02  0.40000000000E+02  0.00000000000E+00 0.  1.
        -11   -1    0    0    0    0 -0.00000000000E+00 -0.00000000000E+00 -0.40000000000E+02  0.40000000000E+02  0.00000000000E+00 0. -1.
         23    2    1    2    0    0  0.00000000000E+00  0.00000000000E+00  0.00000000000E+00  0.80000000000E+02  0.80000000000E+02 0.  0.
          5    1    3    3  501    0 -0.16480917186E+02  0.34610553298E+02 -0.10411482560E+02  0.40000000000E+02  0.47000000000E+01 0. -1.
         -5    1    3    3    0  501  0.16480917186E+02 -0.34610553298E+02  0.10411482560E+02  0.40000000000E+02  0.47000000000E+01 0.  1.
</event>
<event>
 5    1  0.4872488E-001  0.8000000E+02  0.7546771E-02  0.1203772E+00
         11   -1    0    0    0    0  0.00000000000E+00  0.00000000000E+00  0.40000000000E+02  0.40000000000E+02  0.00000000000E+00 0. -1.
        -11   -1    0    0    0    0 -0.00000000000E+00 -0.00000000000E+00 -0.40000000000E+02  0.40000000000E+02  0.00000000000E+00 0.  1.
         23    2    1    2    0    0  0.00000000000E+00  0.00000000000E+00  0.00000000000E+00  0.80000000000E+02  0.80000000000E+02 0.  0.
          5    1    3    3  501    0  0.20644466889E+02  0.23370089071E+01  0.33856378664E+02  0.40000000000E+02  0.47000000000E+01 0. -1.
         -5    1    3    3    0  501 -0.20644466889E+02 -0.23370089071E+01 -0.33856378664E+02  0.40000000000E+02  0.47000000000E+01 0.  1.
</event>
<event>
 5    1  0.4872488E-001  0.8000000E+02  0.7546771E-02  0.1203772E+00
         11   -1    0    0    0    0  0.00000000000E+00  0.00000000000E+00  0.40000000000E+02  0.40000000000E+02  0.00000000000E+00 0. -1.
        -11   -1    0    0    0    0 -0.00000000000E+00 -0.00000000000E+00 -0.40000000000E+02  0.40000000000E+02  0.00000000000E+00 0.  1.
         23    2    1    2    0    0  0.00000000000E+00  0.00000000000E+00  0.00000000000E+00  0.80000000000E+02  0.80000000000E+02 0.  0.
          5    1    3    3  501    0 -0.17026214547E+02  0.52465857734E+00  0.35885132737E+02  0.40000000000E+02  0.47000000000E+01 0. -1.
         -5    1    3    3    0  501  0.17026214547E+02 -0.52465857734E+00 -0.35885132737E+02  0.40000000000E+02  0.47000000000E+01 0.  1.
</event>
<event>
 5    1  0.4872488E-001  0.8000000E+02  0.7546771E-02  0.1203772E+00
         11   -1    0    0    0    0  0.00000000000E+00  0.00000000000E+00  0.40000000000E+02  0.40000000000E+02  0.00000000000E+00 0.  1.
        -11   -1    0    0    0    0 -0.00000000000E+00 -0.00000000000E+00 -0.40000000000E+02  0.40000000000E+02  0.00000000000E+00 0. -1.
         23    2    1    2    0    0  0.00000000000E+00  0.00000000000E+00  0.00000000000E+00  0.80000000000E+02  0.80000000000E+02 0.  0.
          5    1    3    3  501    0  0.33182868670E+02  0.71918870335E+01 -0.20617565029E+02  0.40000000000E+02  0.47000000000E+01 0. -1.
         -5    1    3    3    0  501 -0.33182868670E+02 -0.71918870335E+01  0.20617565029E+02  0.40000000000E+02  0.47000000000E+01 0.  1.
</event>
<event>
 5    1  0.4872488E-001  0.8000000E+02  0.7546771E-02  0.1203772E+00
         11   -1    0    0    0    0  0.00000000000E+00  0.00000000000E+00  0.40000000000E+02  0.40000000000E+02  0.00000000000E+00 0. -1.
        -11   -1    0    0    0    0 -0.00000000000E+00 -0.00000000000E+00 -0.40000000000E+02  0.40000000000E+02  0.00000000000E+00 0.  1.
         23    2    1    2    0    0  0.00000000000E+00  0.00000000000E+00  0.00000000000E+00  0.80000000000E+02  0.80000000000E+02 0.  0.
          5    1    3    3  501    0 -0.26559090037E+02 -0.27142040338E+02  0.11654800844E+02  0.40000000000E+02  0.47000000000E+01 0. -1.
         -5    1    3    3    0  501  0.26559090037E+02  0.27142040338E+02 -0.11654800844E+02  0.40000000000E+02  0.47000000000E+01 0.  1.
</event>
<event>
 5    1  0.4872488E-001  0.8000000E+02  0.7546771E-02  0.1203772E+00
         11   -1    0    0    0    0  0.00000000000E+00  0.00000000000E+00  0.40000000000E+02  0.40000000000E+02  0.00000000000E+00 0. -1.
        -11   -1    0    0    0    0 -0.00000000000E+00 -0.00000000000E+00 -0.40000000000E+02  0.40000000000E+02  0.00000000000E+00 0.  1.
         23    2    1    2    0    0  0.00000000000E+00  0.00000000000E+00  0.00000000000E+00  0.80000000000E+02  0.80000000000E+02 0.  0.
          5    1    3    3  501    0  0.23912320441E+02 -0.21318867427E+02  0.23486524280E+02  0.40000000000E+02  0.47000000000E+01 0. -1.
         -5    1    3    3    0  501 -0.23912320441E+02  0.21318867427E+02 -0.23486524280E+02  0.40000000000E+02  0.47000000000E+01 0.  1.
</event>
<event>
 5    1  0.4872488E-001  0.8000000E+02  0.7546771E-02  0.1203772E+00
         11   -1    0    0    0    0  0.00000000000E+00  0.00000000000E+00  0.40000000000E+02  0.40000000000E+02  0.00000000000E+00 0. -1.
        -11   -1    0    0    0    0 -0.00000000000E+00 -0.00000000000E+00 -0.40000000000E+02  0.40000000000E+02  0.00000000000E+00 0.  1.
         23    2    1    2    0    0  0.00000000000E+00  0.00000000000E+00  0.00000000000E+00  0.80000000000E+02  0.80000000000E+02 0.  0.
          5    1    3    3  501    0 -0.45733540200E+01 -0.36829766437E+02 -0.14162017414E+02  0.40000000000E+02  0.47000000000E+01 0. -1.
         -5    1    3    3    0  501  0.45733540200E+01  0.36829766437E+02  0.14162017414E+02  0.40000000000E+02  0.47000000000E+01 0.  1.
</event>
<event>
 5    1  0.4872488E-001  0.8000000E+02  0.7546771E-02  0.1203772E+00
         11   -1    0    0    0    0  0.00000000000E+00  0.00000000000E+00  0.40000000000E+02  0.40000000000E+02  0.00000000000E+00 0. -1.
        -11   -1    0    0    0    0 -0.00000000000E+00 -0.00000000000E+00 -0.40000000000E+02  0.40000000000E+02  0.00000000000E+00 0.  1.
         23    2    1    2    0    0  0.00000000000E+00  0.00000000000E+00  0.00000000000E+00  0.80000000000E+02  0.80000000000E+02 0.  0.
          5    1    3    3  501    0 -0.15344151944E+02  0.31171747853E+02 -0.19255885773E+02  0.40000000000E+02  0.47000000000E+01 0.  1.
         -5    1    3    3    0  501  0.15344151944E+02 -0.31171747853E+02  0.19255885773E+02  0.40000000000E+02  0.47000000000E+01 0. -1.
</event>
<event>
 5    1  0.4872488E-001  0.8000000E+02  0.7546771E-02  0.1203772E+00
         11   -1    0    0    0    0  0.00000000000E+00  0.00000000000E+00  0.40000000000E+02  0.40000000000E+02  0.00000000000E+00 0.  1.
        -11   -1    0    0    0    0 -0.00000000000E+00 -0.00000000000E+00 -0.40000000000E+02  0.40000000000E+02  0.00000000000E+00 0. -1.
         23    2    1    2    0    0  0.00000000000E+00  0.00000000000E+00  0.00000000000E+00  0.80000000000E+02  0.80000000000E+02 0.  0.
          5    1    3    3  501    0  0.13107239830E+02  0.28287578263E+02 -0.24615506902E+02  0.40000000000E+02  0.47000000000E+01 0. -1.
         -5    1    3    3    0  501 -0.13107239830E+02 -0.28287578263E+02  0.24615506902E+02  0.40000000000E+02  0.47000000000E+01 0.  1.
</event>
<event>
 5    1  0.4872488E-001  0.8000000E+02  0.7546771E-02  0.1203772E+00
         11   -1    0    0    0    0  0.00000000000E+00  0.00000000000E+00  0.40000000000E+02  0.40000000000E+02  0.00000000000E+00 0.  1.
        -11   -1    0    0    0    0 -0.00000000000E+00 -0.00000000000E+00 -0.40000000000E+02  0.40000000000E+02  0.00000000000E+00 0. -1.
         23    2    1    2    0    0  0.00000000000E+00  0.00000000000E+00  0.00000000000E+00  0.80000000000E+02  0.80000000000E+02 0.  0.
          5    1    3    3  501    0 -0.30744417552E+02  0.25124827983E+02 -0.11974173249E+01  0.40000000000E+02  0.47000000000E+01 0. -1.
         -5    1    3    3    0  501  0.30744417552E+02 -0.25124827983E+02  0.11974173249E+01  0.40000000000E+02  0.47000000000E+01 0.  1.
</event>
<event>
 5    1  0.4872488E-001  0.8000000E+02  0.7546771E-02  0.1203772E+00
         11   -1    0    0    0    0  0.00000000000E+00  0.00000000000E+00  0.40000000000E+02  0.40000000000E+02  0.00000000000E+00 0.  1.
        -11   -1    0    0    0    0 -0.00000000000E+00 -0.00000000000E+00 -0.40000000000E+02  0.40000000000E+02  0.00000000000E+00 0. -1.
         23    2    1    2    0    0  0.00000000000E+00  0.00000000000E+00  0.00000000000E+00  0.80000000000E+02  0.80000000000E+02 0.  0.
          5    1    3    3  501    0 -0.17047286467E+02 -0.16198288827E+01 -0.35842379643E+02  0.40000000000E+02  0.47000000000E+01 0. -1.
         -5    1    3    3    0  501  0.17047286467E+02  0.16198288827E+01  0.35842379643E+02  0.40000000000E+02  0.47000000000E+01 0.  1.
</event>
<event>
 5    1  0.4872488E-001  0.8000000E+02  0.7546771E-02  0.1203772E+00
         11   -1    0    0    0    0  0.00000000000E+00  0.00000000000E+00  0.40000000000E+02  0.40000000000E+02  0.00000000000E+00 0. -1.
        -11   -1    0    0    0    0 -0.00000000000E+00 -0.00000000000E+00 -0.40000000000E+02  0.40000000000E+02  0.00000000000E+00 0.  1.
         23    2    1    2    0    0  0.00000000000E+00  0.00000000000E+00  0.00000000000E+00  0.80000000000E+02  0.80000000000E+02 0.  0.
          5    1    3    3  501    0 -0.26410992389E+01 -0.10854641664E+02  0.38119697653E+02  0.40000000000E+02  0.47000000000E+01 0. -1.
         -5    1    3    3    0  501  0.26410992389E+01  0.10854641664E+02 -0.38119697653E+02  0.40000000000E+02  0.47000000000E+01 0.  1.
</event>
<event>
 5    1  0.4872488E-001  0.8000000E+02  0.7546771E-02  0.1203772E+00
         11   -1    0    0    0    0  0.00000000000E+00  0.00000000000E+00  0.40000000000E+02  0.40000000000E+02  0.00000000000E+00 0.  1.
        -11   -1    0    0    0    0 -0.00000000000E+00 -0.00000000000E+00 -0.40000000000E+02  0.40000000000E+02  0.00000000000E+00 0. -1.
         23    2    1    2    0    0  0.00000000000E+00  0.00000000000E+00  0.00000000000E+00  0.80000000000E+02  0.80000000000E+02 0.  0.
          5    1    3    3  501    0 -0.20215774647E+00  0.28276345065E+02 -0.27898341205E+02  0.40000000000E+02  0.47000000000E+01 0. -1.
         -5    1    3    3    0  501  0.20215774647E+00 -0.28276345065E+02  0.27898341205E+02  0.40000000000E+02  0.47000000000E+01 0.  1.
</event>
<event>
 5    1  0.4872488E-001  0.8000000E+02  0.7546771E-02  0.1203772E+00
         11   -1    0    0    0    0  0.00000000000E+00  0.00000000000E+00  0.40000000000E+02  0.40000000000E+02  0.00000000000E+00 0.  1.
        -11   -1    0    0    0    0 -0.00000000000E+00 -0.00000000000E+00 -0.40000000000E+02  0.40000000000E+02  0.00000000000E+00 0. -1.
         23    2    1    2    0    0  0.00000000000E+00  0.00000000000E+00  0.00000000000E+00  0.80000000000E+02  0.80000000000E+02 0.  0.
          5    1    3    3  501    0 -0.59279573812E+00 -0.38262147395E+02 -0.10656766392E+02  0.40000000000E+02  0.47000000000E+01 0. -1.
         -5    1    3    3    0  501  0.59279573812E+00  0.38262147395E+02  0.10656766392E+02  0.40000000000E+02  0.47000000000E+01 0.  1.
</event>
<event>
 5    1  0.4872488E-001  0.8000000E+02  0.7546771E-02  0.1203772E+00
         11   -1    0    0    0    0  0.00000000000E+00  0.00000000000E+00  0.40000000000E+02  0.40000000000E+02  0.00000000000E+00 0.  1.
        -11   -1    0    0    0    0 -0.00000000000E+00 -0.00000000000E+00 -0.40000000000E+02  0.40000000000E+02  0.00000000000E+00 0. -1.
         23    2    1    2    0    0  0.00000000000E+00  0.00000000000E+00  0.00000000000E+00  0.80000000000E+02  0.80000000000E+02 0.  0.
          5    1    3    3  501    0  0.15832862120E+02  0.90305540005E+01 -0.35294186087E+02  0.40000000000E+02  0.47000000000E+01 0. -1.
         -5    1    3    3    0  501 -0.15832862120E+02 -0.90305540005E+01  0.35294186087E+02  0.40000000000E+02  0.47000000000E+01 0.  1.
</event>
<event>
 5    1  0.4872488E-001  0.8000000E+02  0.7546771E-02  0.1203772E+00
         11   -1    0    0    0    0  0.00000000000E+00  0.00000000000E+00  0.40000000000E+02  0.40000000000E+02  0.00000000000E+00 0.  1.
        -11   -1    0    0    0    0 -0.00000000000E+00 -0.00000000000E+00 -0.40000000000E+02  0.40000000000E+02  0.00000000000E+00 0. -1.
         23    2    1    2    0    0  0.00000000000E+00  0.00000000000E+00  0.00000000000E+00  0.80000000000E+02  0.80000000000E+02 0.  0.
          5    1    3    3  501    0 -0.28392558301E+02  0.88618242247E+01 -0.26329464570E+02  0.40000000000E+02  0.47000000000E+01 0. -1.
         -5    1    3    3    0  501  0.28392558301E+02 -0.88618242247E+01  0.26329464570E+02  0.40000000000E+02  0.47000000000E+01 0.  1.
</event>
<event>
 5    1  0.4872488E-001  0.8000000E+02  0.7546771E-02  0.1203772E+00
         11   -1    0    0    0    0  0.00000000000E+00  0.00000000000E+00  0.40000000000E+02  0.40000000000E+02  0.00000000000E+00 0. -1.
        -11   -1    0    0    0    0 -0.00000000000E+00 -0.00000000000E+00 -0.40000000000E+02  0.40000000000E+02  0.00000000000E+00 0.  1.
         23    2    1    2    0    0  0.00000000000E+00  0.00000000000E+00  0.00000000000E+00  0.80000000000E+02  0.80000000000E+02 0.  0.
          5    1    3    3  501    0 -0.27594818218E+01  0.23017422884E+02  0.32256681538E+02  0.40000000000E+02  0.47000000000E+01 0. -1.
         -5    1    3    3    0  501  0.27594818218E+01 -0.23017422884E+02 -0.32256681538E+02  0.40000000000E+02  0.47000000000E+01 0.  1.
</event>
<event>
 5    1  0.4872488E-001  0.8000000E+02  0.7546771E-02  0.1203772E+00
         11   -1    0    0    0    0  0.00000000000E+00  0.00000000000E+00  0.40000000000E+02  0.40000000000E+02  0.00000000000E+00 0.  1.
        -11   -1    0    0    0    0 -0.00000000000E+00 -0.00000000000E+00 -0.40000000000E+02  0.40000000000E+02  0.00000000000E+00 0. -1.
         23    2    1    2    0    0  0.00000000000E+00  0.00000000000E+00  0.00000000000E+00  0.80000000000E+02  0.80000000000E+02 0.  0.
          5    1    3    3  501    0 -0.54904451700E+00 -0.20140125766E+02 -0.34234250163E+02  0.40000000000E+02  0.47000000000E+01 0. -1.
         -5    1    3    3    0  501  0.54904451700E+00  0.20140125766E+02  0.34234250163E+02  0.40000000000E+02  0.47000000000E+01 0.  1.
</event>
<event>
 5    1  0.4872488E-001  0.8000000E+02  0.7546771E-02  0.1203772E+00
         11   -1    0    0    0    0  0.00000000000E+00  0.00000000000E+00  0.40000000000E+02  0.40000000000E+02  0.00000000000E+00 0. -1.
        -11   -1    0    0    0    0 -0.00000000000E+00 -0.00000000000E+00 -0.40000000000E+02  0.40000000000E+02  0.00000000000E+00 0.  1.
         23    2    1    2    0    0  0.00000000000E+00  0.00000000000E+00  0.00000000000E+00  0.80000000000E+02  0.80000000000E+02 0.  0.
          5    1    3    3  501    0  0.19643387044E+02  0.22897515328E+02  0.25840881124E+02  0.40000000000E+02  0.47000000000E+01 0. -1.
         -5    1    3    3    0  501 -0.19643387044E+02 -0.22897515328E+02 -0.25840881124E+02  0.40000000000E+02  0.47000000000E+01 0.  1.
</event>
<event>
 5    1  0.4872488E-001  0.8000000E+02  0.7546771E-02  0.1203772E+00
         11   -1    0    0    0    0  0.00000000000E+00  0.00000000000E+00  0.40000000000E+02  0.40000000000E+02  0.00000000000E+00 0.  1.
        -11   -1    0    0    0    0 -0.00000000000E+00 -0.00000000000E+00 -0.40000000000E+02  0.40000000000E+02  0.00000000000E+00 0. -1.
         23    2    1    2    0    0  0.00000000000E+00  0.00000000000E+00  0.00000000000E+00  0.80000000000E+02  0.80000000000E+02 0.  0.
          5    1    3    3  501    0 -0.28073422884E+02 -0.20748825815E+02 -0.18954660506E+02  0.40000000000E+02  0.47000000000E+01 0. -1.
         -5    1    3    3    0  501  0.28073422884E+02  0.20748825815E+02  0.18954660506E+02  0.40000000000E+02  0.47000000000E+01 0.  1.
</event>
<event>
 5    1  0.4872488E-001  0.8000000E+02  0.7546771E-02  0.1203772E+00
         11   -1    0    0    0    0  0.00000000000E+00  0.00000000000E+00  0.40000000000E+02  0.40000000000E+02  0.00000000000E+00 0.  1.
        -11   -1    0    0    0    0 -0.00000000000E+00 -0.00000000000E+00 -0.40000000000E+02  0.40000000000E+02  0.00000000000E+00 0. -1.
         23    2    1    2    0    0  0.00000000000E+00  0.00000000000E+00  0.00000000000E+00  0.80000000000E+02  0.80000000000E+02 0.  0.
          5    1    3    3  501    0 -0.72963530191E+01 -0.23922474502E+02 -0.30860791408E+02  0.40000000000E+02  0.47000000000E+01 0. -1.
         -5    1    3    3    0  501  0.72963530191E+01  0.23922474502E+02  0.30860791408E+02  0.40000000000E+02  0.47000000000E+01 0.  1.
</event>
<event>
 5    1  0.4872488E-001  0.8000000E+02  0.7546771E-02  0.1203772E+00
         11   -1    0    0    0    0  0.00000000000E+00  0.00000000000E+00  0.40000000000E+02  0.40000000000E+02  0.00000000000E+00 0.  1.
        -11   -1    0    0    0    0 -0.00000000000E+00 -0.00000000000E+00 -0.40000000000E+02  0.40000000000E+02  0.00000000000E+00 0. -1.
         23    2    1    2    0    0  0.00000000000E+00  0.00000000000E+00  0.00000000000E+00  0.80000000000E+02  0.80000000000E+02 0.  0.
          5    1    3    3  501    0  0.10820578146E+02 -0.17435102037E+02 -0.34012384590E+02  0.40000000000E+02  0.47000000000E+01 0. -1.
         -5    1    3    3    0  501 -0.10820578146E+02  0.17435102037E+02  0.34012384590E+02  0.40000000000E+02  0.47000000000E+01 0.  1.
</event>
<event>
 5    1  0.4872488E-001  0.8000000E+02  0.7546771E-02  0.1203772E+00
         11   -1    0    0    0    0  0.00000000000E+00  0.00000000000E+00  0.40000000000E+02  0.40000000000E+02  0.00000000000E+00 0. -1.
        -11   -1    0    0    0    0 -0.00000000000E+00 -0.00000000000E+00 -0.40000000000E+02  0.40000000000E+02  0.00000000000E+00 0.  1.
         23    2    1    2    0    0  0.00000000000E+00  0.00000000000E+00  0.00000000000E+00  0.80000000000E+02  0.80000000000E+02 0.  0.
          5    1    3    3  501    0 -0.13903366484E+02  0.12757202830E+02  0.34955116598E+02  0.40000000000E+02  0.47000000000E+01 0. -1.
         -5    1    3    3    0  501  0.13903366484E+02 -0.12757202830E+02 -0.34955116598E+02  0.40000000000E+02  0.47000000000E+01 0.  1.
</event>
<event>
 5    1  0.4872488E-001  0.8000000E+02  0.7546771E-02  0.1203772E+00
         11   -1    0    0    0    0  0.00000000000E+00  0.00000000000E+00  0.40000000000E+02  0.40000000000E+02  0.00000000000E+00 0. -1.
        -11   -1    0    0    0    0 -0.00000000000E+00 -0.00000000000E+00 -0.40000000000E+02  0.40000000000E+02  0.00000000000E+00 0.  1.
         23    2    1    2    0    0  0.00000000000E+00  0.00000000000E+00  0.00000000000E+00  0.80000000000E+02  0.80000000000E+02 0.  0.
          5    1    3    3  501    0  0.11645244846E+00  0.12765811175E+02  0.37615561991E+02  0.40000000000E+02  0.47000000000E+01 0. -1.
         -5    1    3    3    0  501 -0.11645244846E+00 -0.12765811175E+02 -0.37615561991E+02  0.40000000000E+02  0.47000000000E+01 0.  1.
</event>
<event>
 5    1  0.4872488E-001  0.8000000E+02  0.7546771E-02  0.1203772E+00
         11   -1    0    0    0    0  0.00000000000E+00  0.00000000000E+00  0.40000000000E+02  0.40000000000E+02  0.00000000000E+00 0.  1.
        -11   -1    0    0    0    0 -0.00000000000E+00 -0.00000000000E+00 -0.40000000000E+02  0.40000000000E+02  0.00000000000E+00 0. -1.
         23    2    1    2    0    0  0.00000000000E+00  0.00000000000E+00  0.00000000000E+00  0.80000000000E+02  0.80000000000E+02 0.  0.
          5    1    3    3  501    0 -0.21762072843E+02 -0.87467054745E+01 -0.32059590280E+02  0.40000000000E+02  0.47000000000E+01 0. -1.
         -5    1    3    3    0  501  0.21762072843E+02  0.87467054745E+01  0.32059590280E+02  0.40000000000E+02  0.47000000000E+01 0.  1.
</event>
<event>
 5    1  0.4872488E-001  0.8000000E+02  0.7546771E-02  0.1203772E+00
         11   -1    0    0    0    0  0.00000000000E+00  0.00000000000E+00  0.40000000000E+02  0.40000000000E+02  0.00000000000E+00 0.  1.
        -11   -1    0    0    0    0 -0.00000000000E+00 -0.00000000000E+00 -0.40000000000E+02  0.40000000000E+02  0.00000000000E+00 0. -1.
         23    2    1    2    0    0  0.00000000000E+00  0.00000000000E+00  0.00000000000E+00  0.80000000000E+02  0.80000000000E+02 0.  0.
          5    1    3    3  501    0 -0.10831541716E+02  0.31797343653E+02 -0.21201807486E+02  0.40000000000E+02  0.47000000000E+01 0. -1.
         -5    1    3    3    0  501  0.10831541716E+02 -0.31797343653E+02  0.21201807486E+02  0.40000000000E+02  0.47000000000E+01 0.  1.
</event>
<event>
 5    1  0.4872488E-001  0.8000000E+02  0.7546771E-02  0.1203772E+00
         11   -1    0    0    0    0  0.00000000000E+00  0.00000000000E+00  0.40000000000E+02  0.40000000000E+02  0.00000000000E+00 0. -1.
        -11   -1    0    0    0    0 -0.00000000000E+00 -0.00000000000E+00 -0.40000000000E+02  0.40000000000E+02  0.00000000000E+00 0.  1.
         23    2    1    2    0    0  0.00000000000E+00  0.00000000000E+00  0.00000000000E+00  0.80000000000E+02  0.80000000000E+02 0.  0.
          5    1    3    3  501    0 -0.22785865150E+02 -0.28554100134E+02  0.15600567775E+02  0.40000000000E+02  0.47000000000E+01 0. -1.
         -5    1    3    3    0  501  0.22785865150E+02  0.28554100134E+02 -0.15600567775E+02  0.40000000000E+02  0.47000000000E+01 0.  1.
</event>
<event>
 5    1  0.4872488E-001  0.8000000E+02  0.7546771E-02  0.1203772E+00
         11   -1    0    0    0    0  0.00000000000E+00  0.00000000000E+00  0.40000000000E+02  0.40000000000E+02  0.00000000000E+00 0. -1.
        -11   -1    0    0    0    0 -0.00000000000E+00 -0.00000000000E+00 -0.40000000000E+02  0.40000000000E+02  0.00000000000E+00 0.  1.
         23    2    1    2    0    0  0.00000000000E+00  0.00000000000E+00  0.00000000000E+00  0.80000000000E+02  0.80000000000E+02 0.  0.
          5    1    3    3  501    0  0.87887736488E+01  0.38602685650E+02  0.32403886115E+01  0.40000000000E+02  0.47000000000E+01 0. -1.
         -5    1    3    3    0  501 -0.87887736488E+01 -0.38602685650E+02 -0.32403886115E+01  0.40000000000E+02  0.47000000000E+01 0.  1.
</event>
<event>
 5    1  0.4872488E-001  0.8000000E+02  0.7546771E-02  0.1203772E+00
         11   -1    0    0    0    0  0.00000000000E+00  0.00000000000E+00  0.40000000000E+02  0.40000000000E+02  0.00000000000E+00 0.  1.
        -11   -1    0    0    0    0 -0.00000000000E+00 -0.00000000000E+00 -0.40000000000E+02  0.40000000000E+02  0.00000000000E+00 0. -1.
         23    2    1    2    0    0  0.00000000000E+00  0.00000000000E+00  0.00000000000E+00  0.80000000000E+02  0.80000000000E+02 0.  0.
          5    1    3    3  501    0 -0.19791230344E+02 -0.17706569384E+02 -0.29541404877E+02  0.40000000000E+02  0.47000000000E+01 0. -1.
         -5    1    3    3    0  501  0.19791230344E+02  0.17706569384E+02  0.29541404877E+02  0.40000000000E+02  0.47000000000E+01 0.  1.
</event>
<event>
 5    1  0.4872488E-001  0.8000000E+02  0.7546771E-02  0.1203772E+00
         11   -1    0    0    0    0  0.00000000000E+00  0.00000000000E+00  0.40000000000E+02  0.40000000000E+02  0.00000000000E+00 0. -1.
        -11   -1    0    0    0    0 -0.00000000000E+00 -0.00000000000E+00 -0.40000000000E+02  0.40000000000E+02  0.00000000000E+00 0.  1.
         23    2    1    2    0    0  0.00000000000E+00  0.00000000000E+00  0.00000000000E+00  0.80000000000E+02  0.80000000000E+02 0.  0.
          5    1    3    3  501    0 -0.36843292406E+02  0.13345780798E+02 -0.65093732064E+01  0.40000000000E+02  0.47000000000E+01 0. -1.
         -5    1    3    3    0  501  0.36843292406E+02 -0.13345780798E+02  0.65093732064E+01  0.40000000000E+02  0.47000000000E+01 0.  1.
</event>
<event>
 5    1  0.4872488E-001  0.8000000E+02  0.7546771E-02  0.1203772E+00
         11   -1    0    0    0    0  0.00000000000E+00  0.00000000000E+00  0.40000000000E+02  0.40000000000E+02  0.00000000000E+00 0. -1.
        -11   -1    0    0    0    0 -0.00000000000E+00 -0.00000000000E+00 -0.40000000000E+02  0.40000000000E+02  0.00000000000E+00 0.  1.
         23    2    1    2    0    0  0.00000000000E+00  0.00000000000E+00  0.00000000000E+00  0.80000000000E+02  0.80000000000E+02 0.  0.
          5    1    3    3  501    0 -0.19734061443E+02  0.25710160449E+01  0.34378288140E+02  0.40000000000E+02  0.47000000000E+01 0. -1.
         -5    1    3    3    0  501  0.19734061443E+02 -0.25710160449E+01 -0.34378288140E+02  0.40000000000E+02  0.47000000000E+01 0.  1.
</event>
<event>
 5    1  0.4872488E-001  0.8000000E+02  0.7546771E-02  0.1203772E+00
         11   -1    0    0    0    0  0.00000000000E+00  0.00000000000E+00  0.40000000000E+02  0.40000000000E+02  0.00000000000E+00 0. -1.
        -11   -1    0    0    0    0 -0.00000000000E+00 -0.00000000000E+00 -0.40000000000E+02  0.40000000000E+02  0.00000000000E+00 0.  1.
         23    2    1    2    0    0  0.00000000000E+00  0.00000000000E+00  0.00000000000E+00  0.80000000000E+02  0.80000000000E+02 0.  0.
          5    1    3    3  501    0 -0.20929637911E+01 -0.28410480970E+02  0.27683462096E+02  0.40000000000E+02  0.47000000000E+01 0. -1.
         -5    1    3    3    0  501  0.20929637911E+01  0.28410480970E+02 -0.27683462096E+02  0.40000000000E+02  0.47000000000E+01 0.  1.
</event>
<event>
 5    1  0.4872488E-001  0.8000000E+02  0.7546771E-02  0.1203772E+00
         11   -1    0    0    0    0  0.00000000000E+00  0.00000000000E+00  0.40000000000E+02  0.40000000000E+02  0.00000000000E+00 0. -1.
        -11   -1    0    0    0    0 -0.00000000000E+00 -0.00000000000E+00 -0.40000000000E+02  0.40000000000E+02  0.00000000000E+00 0.  1.
         23    2    1    2    0    0  0.00000000000E+00  0.00000000000E+00  0.00000000000E+00  0.80000000000E+02  0.80000000000E+02 0.  0.
          5    1    3    3  501    0 -0.22886287975E+02  0.38980649041E+01  0.32232482261E+02  0.40000000000E+02  0.47000000000E+01 0. -1.
         -5    1    3    3    0  501  0.22886287975E+02 -0.38980649041E+01 -0.32232482261E+02  0.40000000000E+02  0.47000000000E+01 0.  1.
</event>
<event>
 5    1  0.4872488E-001  0.8000000E+02  0.7546771E-02  0.1203772E+00
         11   -1    0    0    0    0  0.00000000000E+00  0.00000000000E+00  0.40000000000E+02  0.40000000000E+02  0.00000000000E+00 0.  1.
        -11   -1    0    0    0    0 -0.00000000000E+00 -0.00000000000E+00 -0.40000000000E+02  0.40000000000E+02  0.00000000000E+00 0. -1.
         23    2    1    2    0    0  0.00000000000E+00  0.00000000000E+00  0.00000000000E+00  0.80000000000E+02  0.80000000000E+02 0.  0.
          5    1    3    3  501    0 -0.38672145896E+02  0.85148643834E+01 -0.31420083243E+01  0.40000000000E+02  0.47000000000E+01 0. -1.
         -5    1    3    3    0  501  0.38672145896E+02 -0.85148643834E+01  0.31420083243E+01  0.40000000000E+02  0.47000000000E+01 0.  1.
</event>
<event>
 5    1  0.4872488E-001  0.8000000E+02  0.7546771E-02  0.1203772E+00
         11   -1    0    0    0    0  0.00000000000E+00  0.00000000000E+00  0.40000000000E+02  0.40000000000E+02  0.00000000000E+00 0.  1.
        -11   -1    0    0    0    0 -0.00000000000E+00 -0.00000000000E+00 -0.40000000000E+02  0.40000000000E+02  0.00000000000E+00 0. -1.
         23    2    1    2    0    0  0.00000000000E+00  0.00000000000E+00  0.00000000000E+00  0.80000000000E+02  0.80000000000E+02 0.  0.
          5    1    3    3  501    0 -0.33566598124E+02  0.17716625343E+02  0.11718134529E+02  0.40000000000E+02  0.47000000000E+01 0. -1.
         -5    1    3    3    0  501  0.33566598124E+02 -0.17716625343E+02 -0.11718134529E+02  0.40000000000E+02  0.47000000000E+01 0.  1.
</event>
<event>
 5    1  0.4872488E-001  0.8000000E+02  0.7546771E-02  0.1203772E+00
         11   -1    0    0    0    0  0.00000000000E+00  0.00000000000E+00  0.40000000000E+02  0.40000000000E+02  0.00000000000E+00 0. -1.
        -11   -1    0    0    0    0 -0.00000000000E+00 -0.00000000000E+00 -0.40000000000E+02  0.40000000000E+02  0.00000000000E+00 0.  1.
         23    2    1    2    0    0  0.00000000000E+00  0.00000000000E+00  0.00000000000E+00  0.80000000000E+02  0.80000000000E+02 0.  0.
          5    1    3    3  501    0  0.94423527910E+01  0.34164082275E+02  0.17932302030E+02  0.40000000000E+02  0.47000000000E+01 0. -1.
         -5    1    3    3    0  501 -0.94423527910E+01 -0.34164082275E+02 -0.17932302030E+02  0.40000000000E+02  0.47000000000E+01 0.  1.
</event>
<event>
 5    1  0.4872488E-001  0.8000000E+02  0.7546771E-02  0.1203772E+00
         11   -1    0    0    0    0  0.00000000000E+00  0.00000000000E+00  0.40000000000E+02  0.40000000000E+02  0.00000000000E+00 0. -1.
        -11   -1    0    0    0    0 -0.00000000000E+00 -0.00000000000E+00 -0.40000000000E+02  0.40000000000E+02  0.00000000000E+00 0.  1.
         23    2    1    2    0    0  0.00000000000E+00  0.00000000000E+00  0.00000000000E+00  0.80000000000E+02  0.80000000000E+02 0.  0.
          5    1    3    3  501    0  0.13483918530E+02  0.34581358575E+02  0.14150038170E+02  0.40000000000E+02  0.47000000000E+01 0. -1.
         -5    1    3    3    0  501 -0.13483918530E+02 -0.34581358575E+02 -0.14150038170E+02  0.40000000000E+02  0.47000000000E+01 0.  1.
</event>
<event>
 5    1  0.4872488E-001  0.8000000E+02  0.7546771E-02  0.1203772E+00
         11   -1    0    0    0    0  0.00000000000E+00  0.00000000000E+00  0.40000000000E+02  0.40000000000E+02  0.00000000000E+00 0. -1.
        -11   -1    0    0    0    0 -0.00000000000E+00 -0.00000000000E+00 -0.40000000000E+02  0.40000000000E+02  0.00000000000E+00 0.  1.
         23    2    1    2    0    0  0.00000000000E+00  0.00000000000E+00  0.00000000000E+00  0.80000000000E+02  0.80000000000E+02 0.  0.
          5    1    3    3  501    0 -0.22295554825E+02 -0.10498841434E+02  0.31154334588E+02  0.40000000000E+02  0.47000000000E+01 0. -1.
         -5    1    3    3    0  501  0.22295554825E+02  0.10498841434E+02 -0.31154334588E+02  0.40000000000E+02  0.47000000000E+01 0.  1.
</event>
<event>
 5    1  0.4872488E-001  0.8000000E+02  0.7546771E-02  0.1203772E+00
         11   -1    0    0    0    0  0.00000000000E+00  0.00000000000E+00  0.40000000000E+02  0.40000000000E+02  0.00000000000E+00 0.  1.
        -11   -1    0    0    0    0 -0.00000000000E+00 -0.00000000000E+00 -0.40000000000E+02  0.40000000000E+02  0.00000000000E+00 0. -1.
         23    2    1    2    0    0  0.00000000000E+00  0.00000000000E+00  0.00000000000E+00  0.80000000000E+02  0.80000000000E+02 0.  0.
          5    1    3    3  501    0 -0.33823484490E+02 -0.20478137059E+02 -0.38115350660E+01  0.40000000000E+02  0.47000000000E+01 0. -1.
         -5    1    3    3    0  501  0.33823484490E+02  0.20478137059E+02  0.38115350660E+01  0.40000000000E+02  0.47000000000E+01 0.  1.
</event>
<event>
 5    1  0.4872488E-001  0.8000000E+02  0.7546771E-02  0.1203772E+00
         11   -1    0    0    0    0  0.00000000000E+00  0.00000000000E+00  0.40000000000E+02  0.40000000000E+02  0.00000000000E+00 0.  1.
        -11   -1    0    0    0    0 -0.00000000000E+00 -0.00000000000E+00 -0.40000000000E+02  0.40000000000E+02  0.00000000000E+00 0. -1.
         23    2    1    2    0    0  0.00000000000E+00  0.00000000000E+00  0.00000000000E+00  0.80000000000E+02  0.80000000000E+02 0.  0.
          5    1    3    3  501    0  0.18187418389E+02  0.27540645444E+02 -0.22105217956E+02  0.40000000000E+02  0.47000000000E+01 0. -1.
         -5    1    3    3    0  501 -0.18187418389E+02 -0.27540645444E+02  0.22105217956E+02  0.40000000000E+02  0.47000000000E+01 0.  1.
</event>
<event>
 5    1  0.4872488E-001  0.8000000E+02  0.7546771E-02  0.1203772E+00
         11   -1    0    0    0    0  0.00000000000E+00  0.00000000000E+00  0.40000000000E+02  0.40000000000E+02  0.00000000000E+00 0. -1.
        -11   -1    0    0    0    0 -0.00000000000E+00 -0.00000000000E+00 -0.40000000000E+02  0.40000000000E+02  0.00000000000E+00 0.  1.
         23    2    1    2    0    0  0.00000000000E+00  0.00000000000E+00  0.00000000000E+00  0.80000000000E+02  0.80000000000E+02 0.  0.
          5    1    3    3  501    0 -0.28886983075E+02  0.53372999610E+00  0.27261095743E+02  0.40000000000E+02  0.47000000000E+01 0. -1.
         -5    1    3    3    0  501  0.28886983075E+02 -0.53372999610E+00 -0.27261095743E+02  0.40000000000E+02  0.47000000000E+01 0.  1.
</event>
<event>
 5    1  0.4872488E-001  0.8000000E+02  0.7546771E-02  0.1203772E+00
         11   -1    0    0    0    0  0.00000000000E+00  0.00000000000E+00  0.40000000000E+02  0.40000000000E+02  0.00000000000E+00 0.  1.
        -11   -1    0    0    0    0 -0.00000000000E+00 -0.00000000000E+00 -0.40000000000E+02  0.40000000000E+02  0.00000000000E+00 0. -1.
         23    2    1    2    0    0  0.00000000000E+00  0.00000000000E+00  0.00000000000E+00  0.80000000000E+02  0.80000000000E+02 0.  0.
          5    1    3    3  501    0 -0.33415561462E+02 -0.18206632298E+02 -0.11394243832E+02  0.40000000000E+02  0.47000000000E+01 0. -1.
         -5    1    3    3    0  501  0.33415561462E+02  0.18206632298E+02  0.11394243832E+02  0.40000000000E+02  0.47000000000E+01 0.  1.
</event>
<event>
 5    1  0.4872488E-001  0.8000000E+02  0.7546771E-02  0.1203772E+00
         11   -1    0    0    0    0  0.00000000000E+00  0.00000000000E+00  0.40000000000E+02  0.40000000000E+02  0.00000000000E+00 0.  1.
        -11   -1    0    0    0    0 -0.00000000000E+00 -0.00000000000E+00 -0.40000000000E+02  0.40000000000E+02  0.00000000000E+00 0. -1.
         23    2    1    2    0    0  0.00000000000E+00  0.00000000000E+00  0.00000000000E+00  0.80000000000E+02  0.80000000000E+02 0.  0.
          5    1    3    3  501    0 -0.33227427647E+02  0.25964753588E+01  0.21612643699E+02  0.40000000000E+02  0.47000000000E+01 0. -1.
         -5    1    3    3    0  501  0.33227427647E+02 -0.25964753588E+01 -0.21612643699E+02  0.40000000000E+02  0.47000000000E+01 0.  1.
</event>
<event>
 5    1  0.4872488E-001  0.8000000E+02  0.7546771E-02  0.1203772E+00
         11   -1    0    0    0    0  0.00000000000E+00  0.00000000000E+00  0.40000000000E+02  0.40000000000E+02  0.00000000000E+00 0.  1.
        -11   -1    0    0    0    0 -0.00000000000E+00 -0.00000000000E+00 -0.40000000000E+02  0.40000000000E+02  0.00000000000E+00 0. -1.
         23    2    1    2    0    0  0.00000000000E+00  0.00000000000E+00  0.00000000000E+00  0.80000000000E+02  0.80000000000E+02 0.  0.
          5    1    3    3  501    0 -0.70704113979E+01 -0.31691203954E+02 -0.22882020772E+02  0.40000000000E+02  0.47000000000E+01 0. -1.
         -5    1    3    3    0  501  0.70704113979E+01  0.31691203954E+02  0.22882020772E+02  0.40000000000E+02  0.47000000000E+01 0.  1.
</event>
<event>
 5    1  0.4872488E-001  0.8000000E+02  0.7546771E-02  0.1203772E+00
         11   -1    0    0    0    0  0.00000000000E+00  0.00000000000E+00  0.40000000000E+02  0.40000000000E+02  0.00000000000E+00 0.  1.
        -11   -1    0    0    0    0 -0.00000000000E+00 -0.00000000000E+00 -0.40000000000E+02  0.40000000000E+02  0.00000000000E+00 0. -1.
         23    2    1    2    0    0  0.00000000000E+00  0.00000000000E+00  0.00000000000E+00  0.80000000000E+02  0.80000000000E+02 0.  0.
          5    1    3    3  501    0 -0.58658476290E+01  0.23285816355E+02 -0.31642891592E+02  0.40000000000E+02  0.47000000000E+01 0. -1.
         -5    1    3    3    0  501  0.58658476290E+01 -0.23285816355E+02  0.31642891592E+02  0.40000000000E+02  0.47000000000E+01 0.  1.
</event>
<event>
 5    1  0.4872488E-001  0.8000000E+02  0.7546771E-02  0.1203772E+00
         11   -1    0    0    0    0  0.00000000000E+00  0.00000000000E+00  0.40000000000E+02  0.40000000000E+02  0.00000000000E+00 0. -1.
        -11   -1    0    0    0    0 -0.00000000000E+00 -0.00000000000E+00 -0.40000000000E+02  0.40000000000E+02  0.00000000000E+00 0.  1.
         23    2    1    2    0    0  0.00000000000E+00  0.00000000000E+00  0.00000000000E+00  0.80000000000E+02  0.80000000000E+02 0.  0.
          5    1    3    3  501    0 -0.58452456973E+01 -0.17843503927E+01  0.39249957916E+02  0.40000000000E+02  0.47000000000E+01 0. -1.
         -5    1    3    3    0  501  0.58452456973E+01  0.17843503927E+01 -0.39249957916E+02  0.40000000000E+02  0.47000000000E+01 0.  1.
</event>
<event>
 5    1  0.4872488E-001  0.8000000E+02  0.7546771E-02  0.1203772E+00
         11   -1    0    0    0    0  0.00000000000E+00  0.00000000000E+00  0.40000000000E+02  0.40000000000E+02  0.00000000000E+00 0.  1.
        -11   -1    0    0    0    0 -0.00000000000E+00 -0.00000000000E+00 -0.40000000000E+02  0.40000000000E+02  0.00000000000E+00 0. -1.
         23    2    1    2    0    0  0.00000000000E+00  0.00000000000E+00  0.00000000000E+00  0.80000000000E+02  0.80000000000E+02 0.  0.
          5    1    3    3  501    0  0.23217427257E+02 -0.18325041861E+02 -0.26515163819E+02  0.40000000000E+02  0.47000000000E+01 0. -1.
         -5    1    3    3    0  501 -0.23217427257E+02  0.18325041861E+02  0.26515163819E+02  0.40000000000E+02  0.47000000000E+01 0.  1.
</event>
<event>
 5    1  0.4872488E-001  0.8000000E+02  0.7546771E-02  0.1203772E+00
         11   -1    0    0    0    0  0.00000000000E+00  0.00000000000E+00  0.40000000000E+02  0.40000000000E+02  0.00000000000E+00 0. -1.
        -11   -1    0    0    0    0 -0.00000000000E+00 -0.00000000000E+00 -0.40000000000E+02  0.40000000000E+02  0.00000000000E+00 0.  1.
         23    2    1    2    0    0  0.00000000000E+00  0.00000000000E+00  0.00000000000E+00  0.80000000000E+02  0.80000000000E+02 0.  0.
          5    1    3    3  501    0 -0.10085813186E+02  0.27681395763E+02  0.26644449722E+02  0.40000000000E+02  0.47000000000E+01 0. -1.
         -5    1    3    3    0  501  0.10085813186E+02 -0.27681395763E+02 -0.26644449722E+02  0.40000000000E+02  0.47000000000E+01 0.  1.
</event>
<event>
 5    1  0.4872488E-001  0.8000000E+02  0.7546771E-02  0.1203772E+00
         11   -1    0    0    0    0  0.00000000000E+00  0.00000000000E+00  0.40000000000E+02  0.40000000000E+02  0.00000000000E+00 0.  1.
        -11   -1    0    0    0    0 -0.00000000000E+00 -0.00000000000E+00 -0.40000000000E+02  0.40000000000E+02  0.00000000000E+00 0. -1.
         23    2    1    2    0    0  0.00000000000E+00  0.00000000000E+00  0.00000000000E+00  0.80000000000E+02  0.80000000000E+02 0.  0.
          5    1    3    3  501    0  0.30386528259E+02  0.25584521690E+02  0.33915475069E-01  0.40000000000E+02  0.47000000000E+01 0. -1.
         -5    1    3    3    0  501 -0.30386528259E+02 -0.25584521690E+02 -0.33915475069E-01  0.40000000000E+02  0.47000000000E+01 0.  1.
</event>
<event>
 5    1  0.4872488E-001  0.8000000E+02  0.7546771E-02  0.1203772E+00
         11   -1    0    0    0    0  0.00000000000E+00  0.00000000000E+00  0.40000000000E+02  0.40000000000E+02  0.00000000000E+00 0.  1.
        -11   -1    0    0    0    0 -0.00000000000E+00 -0.00000000000E+00 -0.40000000000E+02  0.40000000000E+02  0.00000000000E+00 0. -1.
         23    2    1    2    0    0  0.00000000000E+00  0.00000000000E+00  0.00000000000E+00  0.80000000000E+02  0.80000000000E+02 0.  0.
          5    1    3    3  501    0 -0.20230036326E+02  0.34178596156E+02 -0.69223919248E+00  0.40000000000E+02  0.47000000000E+01 0. -1.
         -5    1    3    3    0  501  0.20230036326E+02 -0.34178596156E+02  0.69223919248E+00  0.40000000000E+02  0.47000000000E+01 0.  1.
</event>
<event>
 5    1  0.4872488E-001  0.8000000E+02  0.7546771E-02  0.1203772E+00
         11   -1    0    0    0    0  0.00000000000E+00  0.00000000000E+00  0.40000000000E+02  0.40000000000E+02  0.00000000000E+00 0.  1.
        -11   -1    0    0    0    0 -0.00000000000E+00 -0.00000000000E+00 -0.40000000000E+02  0.40000000000E+02  0.00000000000E+00 0. -1.
         23    2    1    2    0    0  0.00000000000E+00  0.00000000000E+00  0.00000000000E+00  0.80000000000E+02  0.80000000000E+02 0.  0.
          5    1    3    3  501    0  0.29185125102E+02 -0.21990911703E+02 -0.15573640398E+02  0.40000000000E+02  0.47000000000E+01 0. -1.
         -5    1    3    3    0  501 -0.29185125102E+02  0.21990911703E+02  0.15573640398E+02  0.40000000000E+02  0.47000000000E+01 0.  1.
</event>
<event>
 5    1  0.4872488E-001  0.8000000E+02  0.7546771E-02  0.1203772E+00
         11   -1    0    0    0    0  0.00000000000E+00  0.00000000000E+00  0.40000000000E+02  0.40000000000E+02  0.00000000000E+00 0. -1.
        -11   -1    0    0    0    0 -0.00000000000E+00 -0.00000000000E+00 -0.40000000000E+02  0.40000000000E+02  0.00000000000E+00 0.  1.
         23    2    1    2    0    0  0.00000000000E+00  0.00000000000E+00  0.00000000000E+00  0.80000000000E+02  0.80000000000E+02 0.  0.
          5    1    3    3  501    0 -0.34395258870E+01  0.23093997698E+02  0.32136380195E+02  0.40000000000E+02  0.47000000000E+01 0. -1.
         -5    1    3    3    0  501  0.34395258870E+01 -0.23093997698E+02 -0.32136380195E+02  0.40000000000E+02  0.47000000000E+01 0.  1.
</event>
<event>
 5    1  0.4872488E-001  0.8000000E+02  0.7546771E-02  0.1203772E+00
         11   -1    0    0    0    0  0.00000000000E+00  0.00000000000E+00  0.40000000000E+02  0.40000000000E+02  0.00000000000E+00 0. -1.
        -11   -1    0    0    0    0 -0.00000000000E+00 -0.00000000000E+00 -0.40000000000E+02  0.40000000000E+02  0.00000000000E+00 0.  1.
         23    2    1    2    0    0  0.00000000000E+00  0.00000000000E+00  0.00000000000E+00  0.80000000000E+02  0.80000000000E+02 0.  0.
          5    1    3    3  501    0  0.51071440002E+01  0.34497582067E+02  0.19019566548E+02  0.40000000000E+02  0.47000000000E+01 0. -1.
         -5    1    3    3    0  501 -0.51071440002E+01 -0.34497582067E+02 -0.19019566548E+02  0.40000000000E+02  0.47000000000E+01 0.  1.
</event>
<event>
 5    1  0.4872488E-001  0.8000000E+02  0.7546771E-02  0.1203772E+00
         11   -1    0    0    0    0  0.00000000000E+00  0.00000000000E+00  0.40000000000E+02  0.40000000000E+02  0.00000000000E+00 0.  1.
        -11   -1    0    0    0    0 -0.00000000000E+00 -0.00000000000E+00 -0.40000000000E+02  0.40000000000E+02  0.00000000000E+00 0. -1.
         23    2    1    2    0    0  0.00000000000E+00  0.00000000000E+00  0.00000000000E+00  0.80000000000E+02  0.80000000000E+02 0.  0.
          5    1    3    3  501    0 -0.11838911958E+01  0.34210628631E+02 -0.20152947436E+02  0.40000000000E+02  0.47000000000E+01 0. -1.
         -5    1    3    3    0  501  0.11838911958E+01 -0.34210628631E+02  0.20152947436E+02  0.40000000000E+02  0.47000000000E+01 0.  1.
</event>
<event>
 5    1  0.4872488E-001  0.8000000E+02  0.7546771E-02  0.1203772E+00
         11   -1    0    0    0    0  0.00000000000E+00  0.00000000000E+00  0.40000000000E+02  0.40000000000E+02  0.00000000000E+00 0.  1.
        -11   -1    0    0    0    0 -0.00000000000E+00 -0.00000000000E+00 -0.40000000000E+02  0.40000000000E+02  0.00000000000E+00 0. -1.
         23    2    1    2    0    0  0.00000000000E+00  0.00000000000E+00  0.00000000000E+00  0.80000000000E+02  0.80000000000E+02 0.  0.
          5    1    3    3  501    0  0.30972446143E+02  0.22359122470E+02 -0.10894366541E+02  0.40000000000E+02  0.47000000000E+01 0. -1.
         -5    1    3    3    0  501 -0.30972446143E+02 -0.22359122470E+02  0.10894366541E+02  0.40000000000E+02  0.47000000000E+01 0.  1.
</event>
<event>
 5    1  0.4872488E-001  0.8000000E+02  0.7546771E-02  0.1203772E+00
         11   -1    0    0    0    0  0.00000000000E+00  0.00000000000E+00  0.40000000000E+02  0.40000000000E+02  0.00000000000E+00 0. -1.
        -11   -1    0    0    0    0 -0.00000000000E+00 -0.00000000000E+00 -0.40000000000E+02  0.40000000000E+02  0.00000000000E+00 0.  1.
         23    2    1    2    0    0  0.00000000000E+00  0.00000000000E+00  0.00000000000E+00  0.80000000000E+02  0.80000000000E+02 0.  0.
          5    1    3    3  501    0  0.33779772386E+02  0.20877653488E+02 -0.98008285432E+00  0.40000000000E+02  0.47000000000E+01 0. -1.
         -5    1    3    3    0  501 -0.33779772386E+02 -0.20877653488E+02  0.98008285432E+00  0.40000000000E+02  0.47000000000E+01 0.  1.
</event>
<event>
 5    1  0.4872488E-001  0.8000000E+02  0.7546771E-02  0.1203772E+00
         11   -1    0    0    0    0  0.00000000000E+00  0.00000000000E+00  0.40000000000E+02  0.40000000000E+02  0.00000000000E+00 0.  1.
        -11   -1    0    0    0    0 -0.00000000000E+00 -0.00000000000E+00 -0.40000000000E+02  0.40000000000E+02  0.00000000000E+00 0. -1.
         23    2    1    2    0    0  0.00000000000E+00  0.00000000000E+00  0.00000000000E+00  0.80000000000E+02  0.80000000000E+02 0.  0.
          5    1    3    3  501    0 -0.27213111034E+02  0.57236695416E+00 -0.28931453194E+02  0.40000000000E+02  0.47000000000E+01 0. -1.
         -5    1    3    3    0  501  0.27213111034E+02 -0.57236695416E+00  0.28931453194E+02  0.40000000000E+02  0.47000000000E+01 0.  1.
</event>
<event>
 5    1  0.4872488E-001  0.8000000E+02  0.7546771E-02  0.1203772E+00
         11   -1    0    0    0    0  0.00000000000E+00  0.00000000000E+00  0.40000000000E+02  0.40000000000E+02  0.00000000000E+00 0.  1.
        -11   -1    0    0    0    0 -0.00000000000E+00 -0.00000000000E+00 -0.40000000000E+02  0.40000000000E+02  0.00000000000E+00 0. -1.
         23    2    1    2    0    0  0.00000000000E+00  0.00000000000E+00  0.00000000000E+00  0.80000000000E+02  0.80000000000E+02 0.  0.
          5    1    3    3  501    0  0.24663281987E+02  0.28846245037E+02 -0.11727176511E+02  0.40000000000E+02  0.47000000000E+01 0. -1.
         -5    1    3    3    0  501 -0.24663281987E+02 -0.28846245037E+02  0.11727176511E+02  0.40000000000E+02  0.47000000000E+01 0.  1.
</event>
<event>
 5    1  0.4872488E-001  0.8000000E+02  0.7546771E-02  0.1203772E+00
         11   -1    0    0    0    0  0.00000000000E+00  0.00000000000E+00  0.40000000000E+02  0.40000000000E+02  0.00000000000E+00 0. -1.
        -11   -1    0    0    0    0 -0.00000000000E+00 -0.00000000000E+00 -0.40000000000E+02  0.40000000000E+02  0.00000000000E+00 0.  1.
         23    2    1    2    0    0  0.00000000000E+00  0.00000000000E+00  0.00000000000E+00  0.80000000000E+02  0.80000000000E+02 0.  0.
          5    1    3    3  501    0 -0.22514606552E+02 -0.35994149198E+01  0.32527629856E+02  0.40000000000E+02  0.47000000000E+01 0. -1.
         -5    1    3    3    0  501  0.22514606552E+02  0.35994149198E+01 -0.32527629856E+02  0.40000000000E+02  0.47000000000E+01 0.  1.
</event>
<event>
 5    1  0.4872488E-001  0.8000000E+02  0.7546771E-02  0.1203772E+00
         11   -1    0    0    0    0  0.00000000000E+00  0.00000000000E+00  0.40000000000E+02  0.40000000000E+02  0.00000000000E+00 0.  1.
        -11   -1    0    0    0    0 -0.00000000000E+00 -0.00000000000E+00 -0.40000000000E+02  0.40000000000E+02  0.00000000000E+00 0. -1.
         23    2    1    2    0    0  0.00000000000E+00  0.00000000000E+00  0.00000000000E+00  0.80000000000E+02  0.80000000000E+02 0.  0.
          5    1    3    3  501    0 -0.34508071760E+02  0.15992449942E+02 -0.11460564045E+02  0.40000000000E+02  0.47000000000E+01 0. -1.
         -5    1    3    3    0  501  0.34508071760E+02 -0.15992449942E+02  0.11460564045E+02  0.40000000000E+02  0.47000000000E+01 0.  1.
</event>
<event>
 5    1  0.4872488E-001  0.8000000E+02  0.7546771E-02  0.1203772E+00
         11   -1    0    0    0    0  0.00000000000E+00  0.00000000000E+00  0.40000000000E+02  0.40000000000E+02  0.00000000000E+00 0. -1.
        -11   -1    0    0    0    0 -0.00000000000E+00 -0.00000000000E+00 -0.40000000000E+02  0.40000000000E+02  0.00000000000E+00 0.  1.
         23    2    1    2    0    0  0.00000000000E+00  0.00000000000E+00  0.00000000000E+00  0.80000000000E+02  0.80000000000E+02 0.  0.
          5    1    3    3  501    0 -0.44019525513E+01  0.12822664366E+02  0.37337810492E+02  0.40000000000E+02  0.47000000000E+01 0. -1.
         -5    1    3    3    0  501  0.44019525513E+01 -0.12822664366E+02 -0.37337810492E+02  0.40000000000E+02  0.47000000000E+01 0.  1.
</event>
<event>
 5    1  0.4872488E-001  0.8000000E+02  0.7546771E-02  0.1203772E+00
         11   -1    0    0    0    0  0.00000000000E+00  0.00000000000E+00  0.40000000000E+02  0.40000000000E+02  0.00000000000E+00 0. -1.
        -11   -1    0    0    0    0 -0.00000000000E+00 -0.00000000000E+00 -0.40000000000E+02  0.40000000000E+02  0.00000000000E+00 0.  1.
         23    2    1    2    0    0  0.00000000000E+00  0.00000000000E+00  0.00000000000E+00  0.80000000000E+02  0.80000000000E+02 0.  0.
          5    1    3    3  501    0  0.45964597602E+01  0.30503478024E+02  0.25026393790E+02  0.40000000000E+02  0.47000000000E+01 0. -1.
         -5    1    3    3    0  501 -0.45964597602E+01 -0.30503478024E+02 -0.25026393790E+02  0.40000000000E+02  0.47000000000E+01 0.  1.
</event>
<event>
 5    1  0.4872488E-001  0.8000000E+02  0.7546771E-02  0.1203772E+00
         11   -1    0    0    0    0  0.00000000000E+00  0.00000000000E+00  0.40000000000E+02  0.40000000000E+02  0.00000000000E+00 0. -1.
        -11   -1    0    0    0    0 -0.00000000000E+00 -0.00000000000E+00 -0.40000000000E+02  0.40000000000E+02  0.00000000000E+00 0.  1.
         23    2    1    2    0    0  0.00000000000E+00  0.00000000000E+00  0.00000000000E+00  0.80000000000E+02  0.80000000000E+02 0.  0.
          5    1    3    3  501    0  0.28998685937E+02  0.13273443370E+01  0.27115021131E+02  0.40000000000E+02  0.47000000000E+01 0. -1.
         -5    1    3    3    0  501 -0.28998685937E+02 -0.13273443370E+01 -0.27115021131E+02  0.40000000000E+02  0.47000000000E+01 0.  1.
</event>
<event>
 5    1  0.4872488E-001  0.8000000E+02  0.7546771E-02  0.1203772E+00
         11   -1    0    0    0    0  0.00000000000E+00  0.00000000000E+00  0.40000000000E+02  0.40000000000E+02  0.00000000000E+00 0. -1.
        -11   -1    0    0    0    0 -0.00000000000E+00 -0.00000000000E+00 -0.40000000000E+02  0.40000000000E+02  0.00000000000E+00 0.  1.
         23    2    1    2    0    0  0.00000000000E+00  0.00000000000E+00  0.00000000000E+00  0.80000000000E+02  0.80000000000E+02 0.  0.
          5    1    3    3  501    0 -0.11103925064E+02 -0.10199818319E+01  0.38125745701E+02  0.40000000000E+02  0.47000000000E+01 0. -1.
         -5    1    3    3    0  501  0.11103925064E+02  0.10199818319E+01 -0.38125745701E+02  0.40000000000E+02  0.47000000000E+01 0.  1.
</event>
<event>
 5    1  0.4872488E-001  0.8000000E+02  0.7546771E-02  0.1203772E+00
         11   -1    0    0    0    0  0.00000000000E+00  0.00000000000E+00  0.40000000000E+02  0.40000000000E+02  0.00000000000E+00 0.  1.
        -11   -1    0    0    0    0 -0.00000000000E+00 -0.00000000000E+00 -0.40000000000E+02  0.40000000000E+02  0.00000000000E+00 0. -1.
         23    2    1    2    0    0  0.00000000000E+00  0.00000000000E+00  0.00000000000E+00  0.80000000000E+02  0.80000000000E+02 0.  0.
          5    1    3    3  501    0 -0.36207386392E+02 -0.74967534208E+01 -0.14516675197E+02  0.40000000000E+02  0.47000000000E+01 0. -1.
         -5    1    3    3    0  501  0.36207386392E+02  0.74967534208E+01  0.14516675197E+02  0.40000000000E+02  0.47000000000E+01 0.  1.
</event>
<event>
 5    1  0.4872488E-001  0.8000000E+02  0.7546771E-02  0.1203772E+00
         11   -1    0    0    0    0  0.00000000000E+00  0.00000000000E+00  0.40000000000E+02  0.40000000000E+02  0.00000000000E+00 0. -1.
        -11   -1    0    0    0    0 -0.00000000000E+00 -0.00000000000E+00 -0.40000000000E+02  0.40000000000E+02  0.00000000000E+00 0.  1.
         23    2    1    2    0    0  0.00000000000E+00  0.00000000000E+00  0.00000000000E+00  0.80000000000E+02  0.80000000000E+02 0.  0.
          5    1    3    3  501    0  0.39042872266E+02 -0.52032645405E+01 -0.51468595645E+01  0.40000000000E+02  0.47000000000E+01 0. -1.
         -5    1    3    3    0  501 -0.39042872266E+02  0.52032645405E+01  0.51468595645E+01  0.40000000000E+02  0.47000000000E+01 0.  1.
</event>
<event>
 5    1  0.4872488E-001  0.8000000E+02  0.7546771E-02  0.1203772E+00
         11   -1    0    0    0    0  0.00000000000E+00  0.00000000000E+00  0.40000000000E+02  0.40000000000E+02  0.00000000000E+00 0.  1.
        -11   -1    0    0    0    0 -0.00000000000E+00 -0.00000000000E+00 -0.40000000000E+02  0.40000000000E+02  0.00000000000E+00 0. -1.
         23    2    1    2    0    0  0.00000000000E+00  0.00000000000E+00  0.00000000000E+00  0.80000000000E+02  0.80000000000E+02 0.  0.
          5    1    3    3  501    0  0.27922906457E+02  0.13828527231E+02 -0.24637230559E+02  0.40000000000E+02  0.47000000000E+01 0. -1.
         -5    1    3    3    0  501 -0.27922906457E+02 -0.13828527231E+02  0.24637230559E+02  0.40000000000E+02  0.47000000000E+01 0.  1.
</event>
<event>
 5    1  0.4872488E-001  0.8000000E+02  0.7546771E-02  0.1203772E+00
         11   -1    0    0    0    0  0.00000000000E+00  0.00000000000E+00  0.40000000000E+02  0.40000000000E+02  0.00000000000E+00 0. -1.
        -11   -1    0    0    0    0 -0.00000000000E+00 -0.00000000000E+00 -0.40000000000E+02  0.40000000000E+02  0.00000000000E+00 0.  1.
         23    2    1    2    0    0  0.00000000000E+00  0.00000000000E+00  0.00000000000E+00  0.80000000000E+02  0.80000000000E+02 0.  0.
          5    1    3    3  501    0  0.12422134760E+02  0.11637709309E+02  0.35891005698E+02  0.40000000000E+02  0.47000000000E+01 0. -1.
         -5    1    3    3    0  501 -0.12422134760E+02 -0.11637709309E+02 -0.35891005698E+02  0.40000000000E+02  0.47000000000E+01 0.  1.
</event>
<event>
 5    1  0.4872488E-001  0.8000000E+02  0.7546771E-02  0.1203772E+00
         11   -1    0    0    0    0  0.00000000000E+00  0.00000000000E+00  0.40000000000E+02  0.40000000000E+02  0.00000000000E+00 0. -1.
        -11   -1    0    0    0    0 -0.00000000000E+00 -0.00000000000E+00 -0.40000000000E+02  0.40000000000E+02  0.00000000000E+00 0.  1.
         23    2    1    2    0    0  0.00000000000E+00  0.00000000000E+00  0.00000000000E+00  0.80000000000E+02  0.80000000000E+02 0.  0.
          5    1    3    3  501    0  0.84938707239E+01 -0.38801386710E+02 -0.46534879176E+00  0.40000000000E+02  0.47000000000E+01 0. -1.
         -5    1    3    3    0  501 -0.84938707239E+01  0.38801386710E+02  0.46534879176E+00  0.40000000000E+02  0.47000000000E+01 0.  1.
</event>
<event>
 5    1  0.4872488E-001  0.8000000E+02  0.7546771E-02  0.1203772E+00
         11   -1    0    0    0    0  0.00000000000E+00  0.00000000000E+00  0.40000000000E+02  0.40000000000E+02  0.00000000000E+00 0.  1.
        -11   -1    0    0    0    0 -0.00000000000E+00 -0.00000000000E+00 -0.40000000000E+02  0.40000000000E+02  0.00000000000E+00 0. -1.
         23    2    1    2    0    0  0.00000000000E+00  0.00000000000E+00  0.00000000000E+00  0.80000000000E+02  0.80000000000E+02 0.  0.
          5    1    3    3  501    0  0.18672308210E+02  0.34290085520E+02 -0.73106047051E+01  0.40000000000E+02  0.47000000000E+01 0. -1.
         -5    1    3    3    0  501 -0.18672308210E+02 -0.34290085520E+02  0.73106047051E+01  0.40000000000E+02  0.47000000000E+01 0.  1.
</event>
<event>
 5    1  0.4872488E-001  0.8000000E+02  0.7546771E-02  0.1203772E+00
         11   -1    0    0    0    0  0.00000000000E+00  0.00000000000E+00  0.40000000000E+02  0.40000000000E+02  0.00000000000E+00 0. -1.
        -11   -1    0    0    0    0 -0.00000000000E+00 -0.00000000000E+00 -0.40000000000E+02  0.40000000000E+02  0.00000000000E+00 0.  1.
         23    2    1    2    0    0  0.00000000000E+00  0.00000000000E+00  0.00000000000E+00  0.80000000000E+02  0.80000000000E+02 0.  0.
          5    1    3    3  501    0  0.13981915790E+02 -0.34848576666E+02  0.12961201146E+02  0.40000000000E+02  0.47000000000E+01 0. -1.
         -5    1    3    3    0  501 -0.13981915790E+02  0.34848576666E+02 -0.12961201146E+02  0.40000000000E+02  0.47000000000E+01 0.  1.
</event>
<event>
 5    1  0.4872488E-001  0.8000000E+02  0.7546771E-02  0.1203772E+00
         11   -1    0    0    0    0  0.00000000000E+00  0.00000000000E+00  0.40000000000E+02  0.40000000000E+02  0.00000000000E+00 0. -1.
        -11   -1    0    0    0    0 -0.00000000000E+00 -0.00000000000E+00 -0.40000000000E+02  0.40000000000E+02  0.00000000000E+00 0.  1.
         23    2    1    2    0    0  0.00000000000E+00  0.00000000000E+00  0.00000000000E+00  0.80000000000E+02  0.80000000000E+02 0.  0.
          5    1    3    3  501    0  0.16011685084E+02 -0.58955885878E+01  0.35871687665E+02  0.40000000000E+02  0.47000000000E+01 0. -1.
         -5    1    3    3    0  501 -0.16011685084E+02  0.58955885878E+01 -0.35871687665E+02  0.40000000000E+02  0.47000000000E+01 0.  1.
</event>
<event>
 5    1  0.4872488E-001  0.8000000E+02  0.7546771E-02  0.1203772E+00
         11   -1    0    0    0    0  0.00000000000E+00  0.00000000000E+00  0.40000000000E+02  0.40000000000E+02  0.00000000000E+00 0.  1.
        -11   -1    0    0    0    0 -0.00000000000E+00 -0.00000000000E+00 -0.40000000000E+02  0.40000000000E+02  0.00000000000E+00 0. -1.
         23    2    1    2    0    0  0.00000000000E+00  0.00000000000E+00  0.00000000000E+00  0.80000000000E+02  0.80000000000E+02 0.  0.
          5    1    3    3  501    0  0.19102828258E+02 -0.21341976651E+02 -0.27522935621E+02  0.40000000000E+02  0.47000000000E+01 0. -1.
         -5    1    3    3    0  501 -0.19102828258E+02  0.21341976651E+02  0.27522935621E+02  0.40000000000E+02  0.47000000000E+01 0.  1.
</event>
<event>
 5    1  0.4872488E-001  0.8000000E+02  0.7546771E-02  0.1203772E+00
         11   -1    0    0    0    0  0.00000000000E+00  0.00000000000E+00  0.40000000000E+02  0.40000000000E+02  0.00000000000E+00 0. -1.
        -11   -1    0    0    0    0 -0.00000000000E+00 -0.00000000000E+00 -0.40000000000E+02  0.40000000000E+02  0.00000000000E+00 0.  1.
         23    2    1    2    0    0  0.00000000000E+00  0.00000000000E+00  0.00000000000E+00  0.80000000000E+02  0.80000000000E+02 0.  0.
          5    1    3    3  501    0  0.35003328878E+02 -0.55352958200E+01  0.17945402409E+02  0.40000000000E+02  0.47000000000E+01 0. -1.
         -5    1    3    3    0  501 -0.35003328878E+02  0.55352958200E+01 -0.17945402409E+02  0.40000000000E+02  0.47000000000E+01 0.  1.
</event>
<event>
 5    1  0.4872488E-001  0.8000000E+02  0.7546771E-02  0.1203772E+00
         11   -1    0    0    0    0  0.00000000000E+00  0.00000000000E+00  0.40000000000E+02  0.40000000000E+02  0.00000000000E+00 0. -1.
        -11   -1    0    0    0    0 -0.00000000000E+00 -0.00000000000E+00 -0.40000000000E+02  0.40000000000E+02  0.00000000000E+00 0.  1.
         23    2    1    2    0    0  0.00000000000E+00  0.00000000000E+00  0.00000000000E+00  0.80000000000E+02  0.80000000000E+02 0.  0.
          5    1    3    3  501    0 -0.27574285129E+02  0.10033590148E+02 -0.26774911174E+02  0.40000000000E+02  0.47000000000E+01 0. -1.
         -5    1    3    3    0  501  0.27574285129E+02 -0.10033590148E+02  0.26774911174E+02  0.40000000000E+02  0.47000000000E+01 0.  1.
</event>
<event>
 5    1  0.4872488E-001  0.8000000E+02  0.7546771E-02  0.1203772E+00
         11   -1    0    0    0    0  0.00000000000E+00  0.00000000000E+00  0.40000000000E+02  0.40000000000E+02  0.00000000000E+00 0.  1.
        -11   -1    0    0    0    0 -0.00000000000E+00 -0.00000000000E+00 -0.40000000000E+02  0.40000000000E+02  0.00000000000E+00 0. -1.
         23    2    1    2    0    0  0.00000000000E+00  0.00000000000E+00  0.00000000000E+00  0.80000000000E+02  0.80000000000E+02 0.  0.
          5    1    3    3  501    0  0.23092960026E+02  0.32208266590E+02 -0.26930949682E+01  0.40000000000E+02  0.47000000000E+01 0. -1.
         -5    1    3    3    0  501 -0.23092960026E+02 -0.32208266590E+02  0.26930949682E+01  0.40000000000E+02  0.47000000000E+01 0.  1.
</event>
<event>
 5    1  0.4872488E-001  0.8000000E+02  0.7546771E-02  0.1203772E+00
         11   -1    0    0    0    0  0.00000000000E+00  0.00000000000E+00  0.40000000000E+02  0.40000000000E+02  0.00000000000E+00 0.  1.
        -11   -1    0    0    0    0 -0.00000000000E+00 -0.00000000000E+00 -0.40000000000E+02  0.40000000000E+02  0.00000000000E+00 0. -1.
         23    2    1    2    0    0  0.00000000000E+00  0.00000000000E+00  0.00000000000E+00  0.80000000000E+02  0.80000000000E+02 0.  0.
          5    1    3    3  501    0 -0.25887671068E+02 -0.13782387664E+02 -0.26791496356E+02  0.40000000000E+02  0.47000000000E+01 0. -1.
         -5    1    3    3    0  501  0.25887671068E+02  0.13782387664E+02  0.26791496356E+02  0.40000000000E+02  0.47000000000E+01 0.  1.
</event>
<event>
 5    1  0.4872488E-001  0.8000000E+02  0.7546771E-02  0.1203772E+00
         11   -1    0    0    0    0  0.00000000000E+00  0.00000000000E+00  0.40000000000E+02  0.40000000000E+02  0.00000000000E+00 0. -1.
        -11   -1    0    0    0    0 -0.00000000000E+00 -0.00000000000E+00 -0.40000000000E+02  0.40000000000E+02  0.00000000000E+00 0.  1.
         23    2    1    2    0    0  0.00000000000E+00  0.00000000000E+00  0.00000000000E+00  0.80000000000E+02  0.80000000000E+02 0.  0.
          5    1    3    3  501    0  0.11845549391E+02 -0.29283305301E+02  0.24084870568E+02  0.40000000000E+02  0.47000000000E+01 0. -1.
         -5    1    3    3    0  501 -0.11845549391E+02  0.29283305301E+02 -0.24084870568E+02  0.40000000000E+02  0.47000000000E+01 0.  1.
</event>
<event>
 5    1  0.4872488E-001  0.8000000E+02  0.7546771E-02  0.1203772E+00
         11   -1    0    0    0    0  0.00000000000E+00  0.00000000000E+00  0.40000000000E+02  0.40000000000E+02  0.00000000000E+00 0. -1.
        -11   -1    0    0    0    0 -0.00000000000E+00 -0.00000000000E+00 -0.40000000000E+02  0.40000000000E+02  0.00000000000E+00 0.  1.
         23    2    1    2    0    0  0.00000000000E+00  0.00000000000E+00  0.00000000000E+00  0.80000000000E+02  0.80000000000E+02 0.  0.
          5    1    3    3  501    0  0.31779712864E+00  0.10861923404E+02  0.38207690652E+02  0.40000000000E+02  0.47000000000E+01 0. -1.
         -5    1    3    3    0  501 -0.31779712864E+00 -0.10861923404E+02 -0.38207690652E+02  0.40000000000E+02  0.47000000000E+01 0.  1.
</event>
<event>
 5    1  0.4872488E-001  0.8000000E+02  0.7546771E-02  0.1203772E+00
         11   -1    0    0    0    0  0.00000000000E+00  0.00000000000E+00  0.40000000000E+02  0.40000000000E+02  0.00000000000E+00 0.  1.
        -11   -1    0    0    0    0 -0.00000000000E+00 -0.00000000000E+00 -0.40000000000E+02  0.40000000000E+02  0.00000000000E+00 0. -1.
         23    2    1    2    0    0  0.00000000000E+00  0.00000000000E+00  0.00000000000E+00  0.80000000000E+02  0.80000000000E+02 0.  0.
          5    1    3    3  501    0  0.25505340810E+02  0.11870414667E+02 -0.28044265827E+02  0.40000000000E+02  0.47000000000E+01 0. -1.
         -5    1    3    3    0  501 -0.25505340810E+02 -0.11870414667E+02  0.28044265827E+02  0.40000000000E+02  0.47000000000E+01 0.  1.
</event>
<event>
 5    1  0.4872488E-001  0.8000000E+02  0.7546771E-02  0.1203772E+00
         11   -1    0    0    0    0  0.00000000000E+00  0.00000000000E+00  0.40000000000E+02  0.40000000000E+02  0.00000000000E+00 0. -1.
        -11   -1    0    0    0    0 -0.00000000000E+00 -0.00000000000E+00 -0.40000000000E+02  0.40000000000E+02  0.00000000000E+00 0.  1.
         23    2    1    2    0    0  0.00000000000E+00  0.00000000000E+00  0.00000000000E+00  0.80000000000E+02  0.80000000000E+02 0.  0.
          5    1    3    3  501    0  0.38990907209E+01  0.37652660893E+02  0.12040939301E+02  0.40000000000E+02  0.47000000000E+01 0. -1.
         -5    1    3    3    0  501 -0.38990907209E+01 -0.37652660893E+02 -0.12040939301E+02  0.40000000000E+02  0.47000000000E+01 0.  1.
</event>
<event>
 5    1  0.4872488E-001  0.8000000E+02  0.7546771E-02  0.1203772E+00
         11   -1    0    0    0    0  0.00000000000E+00  0.00000000000E+00  0.40000000000E+02  0.40000000000E+02  0.00000000000E+00 0.  1.
        -11   -1    0    0    0    0 -0.00000000000E+00 -0.00000000000E+00 -0.40000000000E+02  0.40000000000E+02  0.00000000000E+00 0. -1.
         23    2    1    2    0    0  0.00000000000E+00  0.00000000000E+00  0.00000000000E+00  0.80000000000E+02  0.80000000000E+02 0.  0.
          5    1    3    3  501    0 -0.36230223694E+02  0.35780698432E+01 -0.15889565989E+02  0.40000000000E+02  0.47000000000E+01 0. -1.
         -5    1    3    3    0  501  0.36230223694E+02 -0.35780698432E+01  0.15889565989E+02  0.40000000000E+02  0.47000000000E+01 0.  1.
</event>
<event>
 5    1  0.4872488E-001  0.8000000E+02  0.7546771E-02  0.1203772E+00
         11   -1    0    0    0    0  0.00000000000E+00  0.00000000000E+00  0.40000000000E+02  0.40000000000E+02  0.00000000000E+00 0. -1.
        -11   -1    0    0    0    0 -0.00000000000E+00 -0.00000000000E+00 -0.40000000000E+02  0.40000000000E+02  0.00000000000E+00 0.  1.
         23    2    1    2    0    0  0.00000000000E+00  0.00000000000E+00  0.00000000000E+00  0.80000000000E+02  0.80000000000E+02 0.  0.
          5    1    3    3  501    0 -0.15418863555E+02  0.24865363747E+02  0.26867868029E+02  0.40000000000E+02  0.47000000000E+01 0. -1.
         -5    1    3    3    0  501  0.15418863555E+02 -0.24865363747E+02 -0.26867868029E+02  0.40000000000E+02  0.47000000000E+01 0.  1.
</event>
<event>
 5    1  0.4872488E-001  0.8000000E+02  0.7546771E-02  0.1203772E+00
         11   -1    0    0    0    0  0.00000000000E+00  0.00000000000E+00  0.40000000000E+02  0.40000000000E+02  0.00000000000E+00 0.  1.
        -11   -1    0    0    0    0 -0.00000000000E+00 -0.00000000000E+00 -0.40000000000E+02  0.40000000000E+02  0.00000000000E+00 0. -1.
         23    2    1    2    0    0  0.00000000000E+00  0.00000000000E+00  0.00000000000E+00  0.80000000000E+02  0.80000000000E+02 0.  0.
          5    1    3    3  501    0 -0.18909282499E+02 -0.18564651804E+02 -0.29592274985E+02  0.40000000000E+02  0.47000000000E+01 0. -1.
         -5    1    3    3    0  501  0.18909282499E+02  0.18564651804E+02  0.29592274985E+02  0.40000000000E+02  0.47000000000E+01 0.  1.
</event>
<event>
 5    1  0.4872488E-001  0.8000000E+02  0.7546771E-02  0.1203772E+00
         11   -1    0    0    0    0  0.00000000000E+00  0.00000000000E+00  0.40000000000E+02  0.40000000000E+02  0.00000000000E+00 0.  1.
        -11   -1    0    0    0    0 -0.00000000000E+00 -0.00000000000E+00 -0.40000000000E+02  0.40000000000E+02  0.00000000000E+00 0. -1.
         23    2    1    2    0    0  0.00000000000E+00  0.00000000000E+00  0.00000000000E+00  0.80000000000E+02  0.80000000000E+02 0.  0.
          5    1    3    3  501    0  0.13400637160E+02  0.18553767918E+02 -0.32466761769E+02  0.40000000000E+02  0.47000000000E+01 0. -1.
         -5    1    3    3    0  501 -0.13400637160E+02 -0.18553767918E+02  0.32466761769E+02  0.40000000000E+02  0.47000000000E+01 0.  1.
</event>
<event>
 5    1  0.4872488E-001  0.8000000E+02  0.7546771E-02  0.1203772E+00
         11   -1    0    0    0    0  0.00000000000E+00  0.00000000000E+00  0.40000000000E+02  0.40000000000E+02  0.00000000000E+00 0. -1.
        -11   -1    0    0    0    0 -0.00000000000E+00 -0.00000000000E+00 -0.40000000000E+02  0.40000000000E+02  0.00000000000E+00 0.  1.
         23    2    1    2    0    0  0.00000000000E+00  0.00000000000E+00  0.00000000000E+00  0.80000000000E+02  0.80000000000E+02 0.  0.
          5    1    3    3  501    0  0.34115892908E+02 -0.89131773087E+01 -0.18291285394E+02  0.40000000000E+02  0.47000000000E+01 0. -1.
         -5    1    3    3    0  501 -0.34115892908E+02  0.89131773087E+01  0.18291285394E+02  0.40000000000E+02  0.47000000000E+01 0.  1.
</event>
<event>
 5    1  0.4872488E-001  0.8000000E+02  0.7546771E-02  0.1203772E+00
         11   -1    0    0    0    0  0.00000000000E+00  0.00000000000E+00  0.40000000000E+02  0.40000000000E+02  0.00000000000E+00 0.  1.
        -11   -1    0    0    0    0 -0.00000000000E+00 -0.00000000000E+00 -0.40000000000E+02  0.40000000000E+02  0.00000000000E+00 0. -1.
         23    2    1    2    0    0  0.00000000000E+00  0.00000000000E+00  0.00000000000E+00  0.80000000000E+02  0.80000000000E+02 0.  0.
          5    1    3    3  501    0 -0.34483325459E+02  0.15969272879E+02 -0.11566874644E+02  0.40000000000E+02  0.47000000000E+01 0. -1.
         -5    1    3    3    0  501  0.34483325459E+02 -0.15969272879E+02  0.11566874644E+02  0.40000000000E+02  0.47000000000E+01 0.  1.
</event>
<event>
 5    1  0.4872488E-001  0.8000000E+02  0.7546771E-02  0.1203772E+00
         11   -1    0    0    0    0  0.00000000000E+00  0.00000000000E+00  0.40000000000E+02  0.40000000000E+02  0.00000000000E+00 0.  1.
        -11   -1    0    0    0    0 -0.00000000000E+00 -0.00000000000E+00 -0.40000000000E+02  0.40000000000E+02  0.00000000000E+00 0. -1.
         23    2    1    2    0    0  0.00000000000E+00  0.00000000000E+00  0.00000000000E+00  0.80000000000E+02  0.80000000000E+02 0.  0.
          5    1    3    3  501    0 -0.67523672781E+01 -0.13248407006E+02 -0.36834701681E+02  0.40000000000E+02  0.47000000000E+01 0. -1.
         -5    1    3    3    0  501  0.67523672781E+01  0.13248407006E+02  0.36834701681E+02  0.40000000000E+02  0.47000000000E+01 0.  1.
</event>
<event>
 5    1  0.4872488E-001  0.8000000E+02  0.7546771E-02  0.1203772E+00
         11   -1    0    0    0    0  0.00000000000E+00  0.00000000000E+00  0.40000000000E+02  0.40000000000E+02  0.00000000000E+00 0. -1.
        -11   -1    0    0    0    0 -0.00000000000E+00 -0.00000000000E+00 -0.40000000000E+02  0.40000000000E+02  0.00000000000E+00 0.  1.
         23    2    1    2    0    0  0.00000000000E+00  0.00000000000E+00  0.00000000000E+00  0.80000000000E+02  0.80000000000E+02 0.  0.
          5    1    3    3  501    0  0.60449287084E+01 -0.17181178009E+02  0.35301217531E+02  0.40000000000E+02  0.47000000000E+01 0. -1.
         -5    1    3    3    0  501 -0.60449287084E+01  0.17181178009E+02 -0.35301217531E+02  0.40000000000E+02  0.47000000000E+01 0.  1.
</event>
<event>
 5    1  0.4872488E-001  0.8000000E+02  0.7546771E-02  0.1203772E+00
         11   -1    0    0    0    0  0.00000000000E+00  0.00000000000E+00  0.40000000000E+02  0.40000000000E+02  0.00000000000E+00 0.  1.
        -11   -1    0    0    0    0 -0.00000000000E+00 -0.00000000000E+00 -0.40000000000E+02  0.40000000000E+02  0.00000000000E+00 0. -1.
         23    2    1    2    0    0  0.00000000000E+00  0.00000000000E+00  0.00000000000E+00  0.80000000000E+02  0.80000000000E+02 0.  0.
          5    1    3    3  501    0 -0.18456105704E+02 -0.68693069077E+01 -0.34497750432E+02  0.40000000000E+02  0.47000000000E+01 0. -1.
         -5    1    3    3    0  501  0.18456105704E+02  0.68693069077E+01  0.34497750432E+02  0.40000000000E+02  0.47000000000E+01 0.  1.
</event>
<event>
 5    1  0.4872488E-001  0.8000000E+02  0.7546771E-02  0.1203772E+00
         11   -1    0    0    0    0  0.00000000000E+00  0.00000000000E+00  0.40000000000E+02  0.40000000000E+02  0.00000000000E+00 0.  1.
        -11   -1    0    0    0    0 -0.00000000000E+00 -0.00000000000E+00 -0.40000000000E+02  0.40000000000E+02  0.00000000000E+00 0. -1.
         23    2    1    2    0    0  0.00000000000E+00  0.00000000000E+00  0.00000000000E+00  0.80000000000E+02  0.80000000000E+02 0.  0.
          5    1    3    3  501    0 -0.28878617262E+02  0.22149989808E+02 -0.15915822836E+02  0.40000000000E+02  0.47000000000E+01 0. -1.
         -5    1    3    3    0  501  0.28878617262E+02 -0.22149989808E+02  0.15915822836E+02  0.40000000000E+02  0.47000000000E+01 0.  1.
</event>
<event>
 5    1  0.4872488E-001  0.8000000E+02  0.7546771E-02  0.1203772E+00
         11   -1    0    0    0    0  0.00000000000E+00  0.00000000000E+00  0.40000000000E+02  0.40000000000E+02  0.00000000000E+00 0. -1.
        -11   -1    0    0    0    0 -0.00000000000E+00 -0.00000000000E+00 -0.40000000000E+02  0.40000000000E+02  0.00000000000E+00 0.  1.
         23    2    1    2    0    0  0.00000000000E+00  0.00000000000E+00  0.00000000000E+00  0.80000000000E+02  0.80000000000E+02 0.  0.
          5    1    3    3  501    0  0.12330620230E+02  0.14269261538E+02  0.34960749133E+02  0.40000000000E+02  0.47000000000E+01 0. -1.
         -5    1    3    3    0  501 -0.12330620230E+02 -0.14269261538E+02 -0.34960749133E+02  0.40000000000E+02  0.47000000000E+01 0.  1.
</event>
<event>
 5    1  0.4872488E-001  0.8000000E+02  0.7546771E-02  0.1203772E+00
         11   -1    0    0    0    0  0.00000000000E+00  0.00000000000E+00  0.40000000000E+02  0.40000000000E+02  0.00000000000E+00 0.  1.
        -11   -1    0    0    0    0 -0.00000000000E+00 -0.00000000000E+00 -0.40000000000E+02  0.40000000000E+02  0.00000000000E+00 0. -1.
         23    2    1    2    0    0  0.00000000000E+00  0.00000000000E+00  0.00000000000E+00  0.80000000000E+02  0.80000000000E+02 0.  0.
          5    1    3    3  501    0 -0.37460748825E+02 -0.51509831131E+01  0.12168388161E+02  0.40000000000E+02  0.47000000000E+01 0. -1.
         -5    1    3    3    0  501  0.37460748825E+02  0.51509831131E+01 -0.12168388161E+02  0.40000000000E+02  0.47000000000E+01 0.  1.
</event>
<event>
 5    1  0.4872488E-001  0.8000000E+02  0.7546771E-02  0.1203772E+00
         11   -1    0    0    0    0  0.00000000000E+00  0.00000000000E+00  0.40000000000E+02  0.40000000000E+02  0.00000000000E+00 0. -1.
        -11   -1    0    0    0    0 -0.00000000000E+00 -0.00000000000E+00 -0.40000000000E+02  0.40000000000E+02  0.00000000000E+00 0.  1.
         23    2    1    2    0    0  0.00000000000E+00  0.00000000000E+00  0.00000000000E+00  0.80000000000E+02  0.80000000000E+02 0.  0.
          5    1    3    3  501    0 -0.96346502073E+01 -0.66187175569E+01  0.37964142204E+02  0.40000000000E+02  0.47000000000E+01 0. -1.
         -5    1    3    3    0  501  0.96346502073E+01  0.66187175569E+01 -0.37964142204E+02  0.40000000000E+02  0.47000000000E+01 0.  1.
</event>
<event>
 5    1  0.4872488E-001  0.8000000E+02  0.7546771E-02  0.1203772E+00
         11   -1    0    0    0    0  0.00000000000E+00  0.00000000000E+00  0.40000000000E+02  0.40000000000E+02  0.00000000000E+00 0. -1.
        -11   -1    0    0    0    0 -0.00000000000E+00 -0.00000000000E+00 -0.40000000000E+02  0.40000000000E+02  0.00000000000E+00 0.  1.
         23    2    1    2    0    0  0.00000000000E+00  0.00000000000E+00  0.00000000000E+00  0.80000000000E+02  0.80000000000E+02 0.  0.
          5    1    3    3  501    0  0.28382845437E+02 -0.27391894444E+02  0.46912901957E+01  0.40000000000E+02  0.47000000000E+01 0. -1.
         -5    1    3    3    0  501 -0.28382845437E+02  0.27391894444E+02 -0.46912901957E+01  0.40000000000E+02  0.47000000000E+01 0.  1.
</event>
<event>
 5    1  0.4872488E-001  0.8000000E+02  0.7546771E-02  0.1203772E+00
         11   -1    0    0    0    0  0.00000000000E+00  0.00000000000E+00  0.40000000000E+02  0.40000000000E+02  0.00000000000E+00 0.  1.
        -11   -1    0    0    0    0 -0.00000000000E+00 -0.00000000000E+00 -0.40000000000E+02  0.40000000000E+02  0.00000000000E+00 0. -1.
         23    2    1    2    0    0  0.00000000000E+00  0.00000000000E+00  0.00000000000E+00  0.80000000000E+02  0.80000000000E+02 0.  0.
          5    1    3    3  501    0 -0.53589516292E+01 -0.29914735026E+02 -0.25579293691E+02  0.40000000000E+02  0.47000000000E+01 0. -1.
         -5    1    3    3    0  501  0.53589516292E+01  0.29914735026E+02  0.25579293691E+02  0.40000000000E+02  0.47000000000E+01 0.  1.
</event>
<event>
 5    1  0.4872488E-001  0.8000000E+02  0.7546771E-02  0.1203772E+00
         11   -1    0    0    0    0  0.00000000000E+00  0.00000000000E+00  0.40000000000E+02  0.40000000000E+02  0.00000000000E+00 0. -1.
        -11   -1    0    0    0    0 -0.00000000000E+00 -0.00000000000E+00 -0.40000000000E+02  0.40000000000E+02  0.00000000000E+00 0.  1.
         23    2    1    2    0    0  0.00000000000E+00  0.00000000000E+00  0.00000000000E+00  0.80000000000E+02  0.80000000000E+02 0.  0.
          5    1    3    3  501    0  0.19389097859E+02 -0.46219074501E+00  0.34666399639E+02  0.40000000000E+02  0.47000000000E+01 0. -1.
         -5    1    3    3    0  501 -0.19389097859E+02  0.46219074501E+00 -0.34666399639E+02  0.40000000000E+02  0.47000000000E+01 0.  1.
</event>
<event>
 5    1  0.4872488E-001  0.8000000E+02  0.7546771E-02  0.1203772E+00
         11   -1    0    0    0    0  0.00000000000E+00  0.00000000000E+00  0.40000000000E+02  0.40000000000E+02  0.00000000000E+00 0. -1.
        -11   -1    0    0    0    0 -0.00000000000E+00 -0.00000000000E+00 -0.40000000000E+02  0.40000000000E+02  0.00000000000E+00 0.  1.
         23    2    1    2    0    0  0.00000000000E+00  0.00000000000E+00  0.00000000000E+00  0.80000000000E+02  0.80000000000E+02 0.  0.
          5    1    3    3  501    0  0.71612771210E+01  0.38338975172E+02 -0.75331993712E+01  0.40000000000E+02  0.47000000000E+01 0. -1.
         -5    1    3    3    0  501 -0.71612771210E+01 -0.38338975172E+02  0.75331993712E+01  0.40000000000E+02  0.47000000000E+01 0.  1.
</event>
<event>
 5    1  0.4872488E-001  0.8000000E+02  0.7546771E-02  0.1203772E+00
         11   -1    0    0    0    0  0.00000000000E+00  0.00000000000E+00  0.40000000000E+02  0.40000000000E+02  0.00000000000E+00 0.  1.
        -11   -1    0    0    0    0 -0.00000000000E+00 -0.00000000000E+00 -0.40000000000E+02  0.40000000000E+02  0.00000000000E+00 0. -1.
         23    2    1    2    0    0  0.00000000000E+00  0.00000000000E+00  0.00000000000E+00  0.80000000000E+02  0.80000000000E+02 0.  0.
          5    1    3    3  501    0 -0.33751058861E+02 -0.29250025043E+01 -0.20741754654E+02  0.40000000000E+02  0.47000000000E+01 0. -1.
         -5    1    3    3    0  501  0.33751058861E+02  0.29250025043E+01  0.20741754654E+02  0.40000000000E+02  0.47000000000E+01 0.  1.
</event>
<event>
 5    1  0.4872488E-001  0.8000000E+02  0.7546771E-02  0.1203772E+00
         11   -1    0    0    0    0  0.00000000000E+00  0.00000000000E+00  0.40000000000E+02  0.40000000000E+02  0.00000000000E+00 0.  1.
        -11   -1    0    0    0    0 -0.00000000000E+00 -0.00000000000E+00 -0.40000000000E+02  0.40000000000E+02  0.00000000000E+00 0. -1.
         23    2    1    2    0    0  0.00000000000E+00  0.00000000000E+00  0.00000000000E+00  0.80000000000E+02  0.80000000000E+02 0.  0.
          5    1    3    3  501    0  0.34825533295E+02  0.17153727479E+02 -0.84167609118E+01  0.40000000000E+02  0.47000000000E+01 0. -1.
         -5    1    3    3    0  501 -0.34825533295E+02 -0.17153727479E+02  0.84167609118E+01  0.40000000000E+02  0.47000000000E+01 0.  1.
</event>
<event>
 5    1  0.4872488E-001  0.8000000E+02  0.7546771E-02  0.1203772E+00
         11   -1    0    0    0    0  0.00000000000E+00  0.00000000000E+00  0.40000000000E+02  0.40000000000E+02  0.00000000000E+00 0.  1.
        -11   -1    0    0    0    0 -0.00000000000E+00 -0.00000000000E+00 -0.40000000000E+02  0.40000000000E+02  0.00000000000E+00 0. -1.
         23    2    1    2    0    0  0.00000000000E+00  0.00000000000E+00  0.00000000000E+00  0.80000000000E+02  0.80000000000E+02 0.  0.
          5    1    3    3  501    0  0.57906407533E+01 -0.26974852829E+02 -0.28578589792E+02  0.40000000000E+02  0.47000000000E+01 0. -1.
         -5    1    3    3    0  501 -0.57906407533E+01  0.26974852829E+02  0.28578589792E+02  0.40000000000E+02  0.47000000000E+01 0.  1.
</event>
<event>
 5    1  0.4872488E-001  0.8000000E+02  0.7546771E-02  0.1203772E+00
         11   -1    0    0    0    0  0.00000000000E+00  0.00000000000E+00  0.40000000000E+02  0.40000000000E+02  0.00000000000E+00 0. -1.
        -11   -1    0    0    0    0 -0.00000000000E+00 -0.00000000000E+00 -0.40000000000E+02  0.40000000000E+02  0.00000000000E+00 0.  1.
         23    2    1    2    0    0  0.00000000000E+00  0.00000000000E+00  0.00000000000E+00  0.80000000000E+02  0.80000000000E+02 0.  0.
          5    1    3    3  501    0 -0.20156154139E+02  0.28171184504E+02  0.19442834514E+02  0.40000000000E+02  0.47000000000E+01 0. -1.
         -5    1    3    3    0  501  0.20156154139E+02 -0.28171184504E+02 -0.19442834514E+02  0.40000000000E+02  0.47000000000E+01 0.  1.
</event>
<event>
 5    1  0.4872488E-001  0.8000000E+02  0.7546771E-02  0.1203772E+00
         11   -1    0    0    0    0  0.00000000000E+00  0.00000000000E+00  0.40000000000E+02  0.40000000000E+02  0.00000000000E+00 0. -1.
        -11   -1    0    0    0    0 -0.00000000000E+00 -0.00000000000E+00 -0.40000000000E+02  0.40000000000E+02  0.00000000000E+00 0.  1.
         23    2    1    2    0    0  0.00000000000E+00  0.00000000000E+00  0.00000000000E+00  0.80000000000E+02  0.80000000000E+02 0.  0.
          5    1    3    3  501    0 -0.13774791003E+02  0.10697619412E+02  0.35689299121E+02  0.40000000000E+02  0.47000000000E+01 0. -1.
         -5    1    3    3    0  501  0.13774791003E+02 -0.10697619412E+02 -0.35689299121E+02  0.40000000000E+02  0.47000000000E+01 0.  1.
</event>
<event>
 5    1  0.4872488E-001  0.8000000E+02  0.7546771E-02  0.1203772E+00
         11   -1    0    0    0    0  0.00000000000E+00  0.00000000000E+00  0.40000000000E+02  0.40000000000E+02  0.00000000000E+00 0. -1.
        -11   -1    0    0    0    0 -0.00000000000E+00 -0.00000000000E+00 -0.40000000000E+02  0.40000000000E+02  0.00000000000E+00 0.  1.
         23    2    1    2    0    0  0.00000000000E+00  0.00000000000E+00  0.00000000000E+00  0.80000000000E+02  0.80000000000E+02 0.  0.
          5    1    3    3  501    0  0.23876185703E+02  0.20221394562E+02  0.24473106836E+02  0.40000000000E+02  0.47000000000E+01 0. -1.
         -5    1    3    3    0  501 -0.23876185703E+02 -0.20221394562E+02 -0.24473106836E+02  0.40000000000E+02  0.47000000000E+01 0.  1.
</event>
<event>
 5    1  0.4872488E-001  0.8000000E+02  0.7546771E-02  0.1203772E+00
         11   -1    0    0    0    0  0.00000000000E+00  0.00000000000E+00  0.40000000000E+02  0.40000000000E+02  0.00000000000E+00 0.  1.
        -11   -1    0    0    0    0 -0.00000000000E+00 -0.00000000000E+00 -0.40000000000E+02  0.40000000000E+02  0.00000000000E+00 0. -1.
         23    2    1    2    0    0  0.00000000000E+00  0.00000000000E+00  0.00000000000E+00  0.80000000000E+02  0.80000000000E+02 0.  0.
          5    1    3    3  501    0  0.67696748859E+01  0.81573253793E+01 -0.38282365974E+02  0.40000000000E+02  0.47000000000E+01 0. -1.
         -5    1    3    3    0  501 -0.67696748859E+01 -0.81573253793E+01  0.38282365974E+02  0.40000000000E+02  0.47000000000E+01 0.  1.
</event>
<event>
 5    1  0.4872488E-001  0.8000000E+02  0.7546771E-02  0.1203772E+00
         11   -1    0    0    0    0  0.00000000000E+00  0.00000000000E+00  0.40000000000E+02  0.40000000000E+02  0.00000000000E+00 0. -1.
        -11   -1    0    0    0    0 -0.00000000000E+00 -0.00000000000E+00 -0.40000000000E+02  0.40000000000E+02  0.00000000000E+00 0.  1.
         23    2    1    2    0    0  0.00000000000E+00  0.00000000000E+00  0.00000000000E+00  0.80000000000E+02  0.80000000000E+02 0.  0.
          5    1    3    3  501    0 -0.14967118403E+02 -0.34057745871E+01  0.36637358886E+02  0.40000000000E+02  0.47000000000E+01 0. -1.
         -5    1    3    3    0  501  0.14967118403E+02  0.34057745871E+01 -0.36637358886E+02  0.40000000000E+02  0.47000000000E+01 0.  1.
</event>
<event>
 5    1  0.4872488E-001  0.8000000E+02  0.7546771E-02  0.1203772E+00
         11   -1    0    0    0    0  0.00000000000E+00  0.00000000000E+00  0.40000000000E+02  0.40000000000E+02  0.00000000000E+00 0. -1.
        -11   -1    0    0    0    0 -0.00000000000E+00 -0.00000000000E+00 -0.40000000000E+02  0.40000000000E+02  0.00000000000E+00 0.  1.
         23    2    1    2    0    0  0.00000000000E+00  0.00000000000E+00  0.00000000000E+00  0.80000000000E+02  0.80000000000E+02 0.  0.
          5    1    3    3  501    0 -0.16806916693E+02  0.32468363017E+02  0.15531997756E+02  0.40000000000E+02  0.47000000000E+01 0. -1.
         -5    1    3    3    0  501  0.16806916693E+02 -0.32468363017E+02 -0.15531997756E+02  0.40000000000E+02  0.47000000000E+01 0.  1.
</event>
<event>
 5    1  0.4872488E-001  0.8000000E+02  0.7546771E-02  0.1203772E+00
         11   -1    0    0    0    0  0.00000000000E+00  0.00000000000E+00  0.40000000000E+02  0.40000000000E+02  0.00000000000E+00 0.  1.
        -11   -1    0    0    0    0 -0.00000000000E+00 -0.00000000000E+00 -0.40000000000E+02  0.40000000000E+02  0.00000000000E+00 0. -1.
         23    2    1    2    0    0  0.00000000000E+00  0.00000000000E+00  0.00000000000E+00  0.80000000000E+02  0.80000000000E+02 0.  0.
          5    1    3    3  501    0  0.26062704792E+01 -0.33165565971E+02  0.21706279921E+02  0.40000000000E+02  0.47000000000E+01 0. -1.
         -5    1    3    3    0  501 -0.26062704792E+01  0.33165565971E+02 -0.21706279921E+02  0.40000000000E+02  0.47000000000E+01 0.  1.
</event>
<event>
 5    1  0.4872488E-001  0.8000000E+02  0.7546771E-02  0.1203772E+00
         11   -1    0    0    0    0  0.00000000000E+00  0.00000000000E+00  0.40000000000E+02  0.40000000000E+02  0.00000000000E+00 0. -1.
        -11   -1    0    0    0    0 -0.00000000000E+00 -0.00000000000E+00 -0.40000000000E+02  0.40000000000E+02  0.00000000000E+00 0.  1.
         23    2    1    2    0    0  0.00000000000E+00  0.00000000000E+00  0.00000000000E+00  0.80000000000E+02  0.80000000000E+02 0.  0.
          5    1    3    3  501    0  0.23853022398E+02 -0.21929243135E+02  0.22979373751E+02  0.40000000000E+02  0.47000000000E+01 0. -1.
         -5    1    3    3    0  501 -0.23853022398E+02  0.21929243135E+02 -0.22979373751E+02  0.40000000000E+02  0.47000000000E+01 0.  1.
</event>
<event>
 5    1  0.4872488E-001  0.8000000E+02  0.7546771E-02  0.1203772E+00
         11   -1    0    0    0    0  0.00000000000E+00  0.00000000000E+00  0.40000000000E+02  0.40000000000E+02  0.00000000000E+00 0.  1.
        -11   -1    0    0    0    0 -0.00000000000E+00 -0.00000000000E+00 -0.40000000000E+02  0.40000000000E+02  0.00000000000E+00 0. -1.
         23    2    1    2    0    0  0.00000000000E+00  0.00000000000E+00  0.00000000000E+00  0.80000000000E+02  0.80000000000E+02 0.  0.
          5    1    3    3  501    0 -0.20241711744E+02  0.12420703532E+02 -0.31841941358E+02  0.40000000000E+02  0.47000000000E+01 0. -1.
         -5    1    3    3    0  501  0.20241711744E+02 -0.12420703532E+02  0.31841941358E+02  0.40000000000E+02  0.47000000000E+01 0.  1.
</event>
<event>
 5    1  0.4872488E-001  0.8000000E+02  0.7546771E-02  0.1203772E+00
         11   -1    0    0    0    0  0.00000000000E+00  0.00000000000E+00  0.40000000000E+02  0.40000000000E+02  0.00000000000E+00 0. -1.
        -11   -1    0    0    0    0 -0.00000000000E+00 -0.00000000000E+00 -0.40000000000E+02  0.40000000000E+02  0.00000000000E+00 0.  1.
         23    2    1    2    0    0  0.00000000000E+00  0.00000000000E+00  0.00000000000E+00  0.80000000000E+02  0.80000000000E+02 0.  0.
          5    1    3    3  501    0  0.98269512267E+00  0.37729246837E+02  0.12387422793E+02  0.40000000000E+02  0.47000000000E+01 0. -1.
         -5    1    3    3    0  501 -0.98269512267E+00 -0.37729246837E+02 -0.12387422793E+02  0.40000000000E+02  0.47000000000E+01 0.  1.
</event>
<event>
 5    1  0.4872488E-001  0.8000000E+02  0.7546771E-02  0.1203772E+00
         11   -1    0    0    0    0  0.00000000000E+00  0.00000000000E+00  0.40000000000E+02  0.40000000000E+02  0.00000000000E+00 0.  1.
        -11   -1    0    0    0    0 -0.00000000000E+00 -0.00000000000E+00 -0.40000000000E+02  0.40000000000E+02  0.00000000000E+00 0. -1.
         23    2    1    2    0    0  0.00000000000E+00  0.00000000000E+00  0.00000000000E+00  0.80000000000E+02  0.80000000000E+02 0.  0.
          5    1    3    3  501    0  0.27596264368E+02 -0.27160817068E+02 -0.88682697923E+01  0.40000000000E+02  0.47000000000E+01 0. -1.
         -5    1    3    3    0  501 -0.27596264368E+02  0.27160817068E+02  0.88682697923E+01  0.40000000000E+02  0.47000000000E+01 0.  1.
</event>
<event>
 5    1  0.4872488E-001  0.8000000E+02  0.7546771E-02  0.1203772E+00
         11   -1    0    0    0    0  0.00000000000E+00  0.00000000000E+00  0.40000000000E+02  0.40000000000E+02  0.00000000000E+00 0.  1.
        -11   -1    0    0    0    0 -0.00000000000E+00 -0.00000000000E+00 -0.40000000000E+02  0.40000000000E+02  0.00000000000E+00 0. -1.
         23    2    1    2    0    0  0.00000000000E+00  0.00000000000E+00  0.00000000000E+00  0.80000000000E+02  0.80000000000E+02 0.  0.
          5    1    3    3  501    0 -0.28079482412E+02 -0.11241199416E+02 -0.25750497144E+02  0.40000000000E+02  0.47000000000E+01 0. -1.
         -5    1    3    3    0  501  0.28079482412E+02  0.11241199416E+02  0.25750497144E+02  0.40000000000E+02  0.47000000000E+01 0.  1.
</event>
<event>
 5    1  0.4872488E-001  0.8000000E+02  0.7546771E-02  0.1203772E+00
         11   -1    0    0    0    0  0.00000000000E+00  0.00000000000E+00  0.40000000000E+02  0.40000000000E+02  0.00000000000E+00 0.  1.
        -11   -1    0    0    0    0 -0.00000000000E+00 -0.00000000000E+00 -0.40000000000E+02  0.40000000000E+02  0.00000000000E+00 0. -1.
         23    2    1    2    0    0  0.00000000000E+00  0.00000000000E+00  0.00000000000E+00  0.80000000000E+02  0.80000000000E+02 0.  0.
          5    1    3    3  501    0  0.75793637635E+01  0.33021197331E+02 -0.20737978970E+02  0.40000000000E+02  0.47000000000E+01 0. -1.
         -5    1    3    3    0  501 -0.75793637635E+01 -0.33021197331E+02  0.20737978970E+02  0.40000000000E+02  0.47000000000E+01 0.  1.
</event>
<event>
 5    1  0.4872488E-001  0.8000000E+02  0.7546771E-02  0.1203772E+00
         11   -1    0    0    0    0  0.00000000000E+00  0.00000000000E+00  0.40000000000E+02  0.40000000000E+02  0.00000000000E+00 0. -1.
        -11   -1    0    0    0    0 -0.00000000000E+00 -0.00000000000E+00 -0.40000000000E+02  0.40000000000E+02  0.00000000000E+00 0.  1.
         23    2    1    2    0    0  0.00000000000E+00  0.00000000000E+00  0.00000000000E+00  0.80000000000E+02  0.80000000000E+02 0.  0.
          5    1    3    3  501    0 -0.54260713145E+01  0.95875084534E+01  0.38164740688E+02  0.40000000000E+02  0.47000000000E+01 0. -1.
         -5    1    3    3    0  501  0.54260713145E+01 -0.95875084534E+01 -0.38164740688E+02  0.40000000000E+02  0.47000000000E+01 0.  1.
</event>
<event>
 5    1  0.4872488E-001  0.8000000E+02  0.7546771E-02  0.1203772E+00
         11   -1    0    0    0    0  0.00000000000E+00  0.00000000000E+00  0.40000000000E+02  0.40000000000E+02  0.00000000000E+00 0.  1.
        -11   -1    0    0    0    0 -0.00000000000E+00 -0.00000000000E+00 -0.40000000000E+02  0.40000000000E+02  0.00000000000E+00 0. -1.
         23    2    1    2    0    0  0.00000000000E+00  0.00000000000E+00  0.00000000000E+00  0.80000000000E+02  0.80000000000E+02 0.  0.
          5    1    3    3  501    0  0.11749055344E+02 -0.16814149951E+02 -0.34016967236E+02  0.40000000000E+02  0.47000000000E+01 0. -1.
         -5    1    3    3    0  501 -0.11749055344E+02  0.16814149951E+02  0.34016967236E+02  0.40000000000E+02  0.47000000000E+01 0.  1.
</event>
<event>
 5    1  0.4872488E-001  0.8000000E+02  0.7546771E-02  0.1203772E+00
         11   -1    0    0    0    0  0.00000000000E+00  0.00000000000E+00  0.40000000000E+02  0.40000000000E+02  0.00000000000E+00 0.  1.
        -11   -1    0    0    0    0 -0.00000000000E+00 -0.00000000000E+00 -0.40000000000E+02  0.40000000000E+02  0.00000000000E+00 0. -1.
         23    2    1    2    0    0  0.00000000000E+00  0.00000000000E+00  0.00000000000E+00  0.80000000000E+02  0.80000000000E+02 0.  0.
          5    1    3    3  501    0 -0.13674422763E+02 -0.30508482737E+02 -0.21451168808E+02  0.40000000000E+02  0.47000000000E+01 0. -1.
         -5    1    3    3    0  501  0.13674422763E+02  0.30508482737E+02  0.21451168808E+02  0.40000000000E+02  0.47000000000E+01 0.  1.
</event>
<event>
 5    1  0.4872488E-001  0.8000000E+02  0.7546771E-02  0.1203772E+00
         11   -1    0    0    0    0  0.00000000000E+00  0.00000000000E+00  0.40000000000E+02  0.40000000000E+02  0.00000000000E+00 0. -1.
        -11   -1    0    0    0    0 -0.00000000000E+00 -0.00000000000E+00 -0.40000000000E+02  0.40000000000E+02  0.00000000000E+00 0.  1.
         23    2    1    2    0    0  0.00000000000E+00  0.00000000000E+00  0.00000000000E+00  0.80000000000E+02  0.80000000000E+02 0.  0.
          5    1    3    3  501    0 -0.30981661568E+02  0.32597279088E+01  0.24645908798E+02  0.40000000000E+02  0.47000000000E+01 0. -1.
         -5    1    3    3    0  501  0.30981661568E+02 -0.32597279088E+01 -0.24645908798E+02  0.40000000000E+02  0.47000000000E+01 0.  1.
</event>
<event>
 5    1  0.4872488E-001  0.8000000E+02  0.7546771E-02  0.1203772E+00
         11   -1    0    0    0    0  0.00000000000E+00  0.00000000000E+00  0.40000000000E+02  0.40000000000E+02  0.00000000000E+00 0.  1.
        -11   -1    0    0    0    0 -0.00000000000E+00 -0.00000000000E+00 -0.40000000000E+02  0.40000000000E+02  0.00000000000E+00 0. -1.
         23    2    1    2    0    0  0.00000000000E+00  0.00000000000E+00  0.00000000000E+00  0.80000000000E+02  0.80000000000E+02 0.  0.
          5    1    3    3  501    0  0.23456538062E+01  0.22647369630E+02 -0.32550031599E+02  0.40000000000E+02  0.47000000000E+01 0. -1.
         -5    1    3    3    0  501 -0.23456538062E+01 -0.22647369630E+02  0.32550031599E+02  0.40000000000E+02  0.47000000000E+01 0.  1.
</event>
<event>
 5    1  0.4872488E-001  0.8000000E+02  0.7546771E-02  0.1203772E+00
         11   -1    0    0    0    0  0.00000000000E+00  0.00000000000E+00  0.40000000000E+02  0.40000000000E+02  0.00000000000E+00 0.  1.
        -11   -1    0    0    0    0 -0.00000000000E+00 -0.00000000000E+00 -0.40000000000E+02  0.40000000000E+02  0.00000000000E+00 0. -1.
         23    2    1    2    0    0  0.00000000000E+00  0.00000000000E+00  0.00000000000E+00  0.80000000000E+02  0.80000000000E+02 0.  0.
          5    1    3    3  501    0 -0.36831941266E+02  0.36951280350E+01 -0.14410556247E+02  0.40000000000E+02  0.47000000000E+01 0. -1.
         -5    1    3    3    0  501  0.36831941266E+02 -0.36951280350E+01  0.14410556247E+02  0.40000000000E+02  0.47000000000E+01 0.  1.
</event>
<event>
 5    1  0.4872488E-001  0.8000000E+02  0.7546771E-02  0.1203772E+00
         11   -1    0    0    0    0  0.00000000000E+00  0.00000000000E+00  0.40000000000E+02  0.40000000000E+02  0.00000000000E+00 0.  1.
        -11   -1    0    0    0    0 -0.00000000000E+00 -0.00000000000E+00 -0.40000000000E+02  0.40000000000E+02  0.00000000000E+00 0. -1.
         23    2    1    2    0    0  0.00000000000E+00  0.00000000000E+00  0.00000000000E+00  0.80000000000E+02  0.80000000000E+02 0.  0.
          5    1    3    3  501    0  0.77656933038E+01  0.38024926708E+02 -0.84681140962E+01  0.40000000000E+02  0.47000000000E+01 0. -1.
         -5    1    3    3    0  501 -0.77656933038E+01 -0.38024926708E+02  0.84681140962E+01  0.40000000000E+02  0.47000000000E+01 0.  1.
</event>
<event>
 5    1  0.4872488E-001  0.8000000E+02  0.7546771E-02  0.1203772E+00
         11   -1    0    0    0    0  0.00000000000E+00  0.00000000000E+00  0.40000000000E+02  0.40000000000E+02  0.00000000000E+00 0.  1.
        -11   -1    0    0    0    0 -0.00000000000E+00 -0.00000000000E+00 -0.40000000000E+02  0.40000000000E+02  0.00000000000E+00 0. -1.
         23    2    1    2    0    0  0.00000000000E+00  0.00000000000E+00  0.00000000000E+00  0.80000000000E+02  0.80000000000E+02 0.  0.
          5    1    3    3  501    0 -0.26624873527E+02  0.16166470409E+02 -0.24650990734E+02  0.40000000000E+02  0.47000000000E+01 0. -1.
         -5    1    3    3    0  501  0.26624873527E+02 -0.16166470409E+02  0.24650990734E+02  0.40000000000E+02  0.47000000000E+01 0.  1.
</event>
<event>
 5    1  0.4872488E-001  0.8000000E+02  0.7546771E-02  0.1203772E+00
         11   -1    0    0    0    0  0.00000000000E+00  0.00000000000E+00  0.40000000000E+02  0.40000000000E+02  0.00000000000E+00 0. -1.
        -11   -1    0    0    0    0 -0.00000000000E+00 -0.00000000000E+00 -0.40000000000E+02  0.40000000000E+02  0.00000000000E+00 0.  1.
         23    2    1    2    0    0  0.00000000000E+00  0.00000000000E+00  0.00000000000E+00  0.80000000000E+02  0.80000000000E+02 0.  0.
          5    1    3    3  501    0  0.31272477786E+02  0.23472855653E+02 -0.69976553662E+01  0.40000000000E+02  0.47000000000E+01 0. -1.
         -5    1    3    3    0  501 -0.31272477786E+02 -0.23472855653E+02  0.69976553662E+01  0.40000000000E+02  0.47000000000E+01 0.  1.
</event>
<event>
 5    1  0.4872488E-001  0.8000000E+02  0.7546771E-02  0.1203772E+00
         11   -1    0    0    0    0  0.00000000000E+00  0.00000000000E+00  0.40000000000E+02  0.40000000000E+02  0.00000000000E+00 0.  1.
        -11   -1    0    0    0    0 -0.00000000000E+00 -0.00000000000E+00 -0.40000000000E+02  0.40000000000E+02  0.00000000000E+00 0. -1.
         23    2    1    2    0    0  0.00000000000E+00  0.00000000000E+00  0.00000000000E+00  0.80000000000E+02  0.80000000000E+02 0.  0.
          5    1    3    3  501    0 -0.33210555155E+02  0.96736997763E+01  0.19529171998E+02  0.40000000000E+02  0.47000000000E+01 0. -1.
         -5    1    3    3    0  501  0.33210555155E+02 -0.96736997763E+01 -0.19529171998E+02  0.40000000000E+02  0.47000000000E+01 0.  1.
</event>
<event>
 5    1  0.4872488E-001  0.8000000E+02  0.7546771E-02  0.1203772E+00
         11   -1    0    0    0    0  0.00000000000E+00  0.00000000000E+00  0.40000000000E+02  0.40000000000E+02  0.00000000000E+00 0.  1.
        -11   -1    0    0    0    0 -0.00000000000E+00 -0.00000000000E+00 -0.40000000000E+02  0.40000000000E+02  0.00000000000E+00 0. -1.
         23    2    1    2    0    0  0.00000000000E+00  0.00000000000E+00  0.00000000000E+00  0.80000000000E+02  0.80000000000E+02 0.  0.
          5    1    3    3  501    0  0.19095330528E+02  0.77163323679E+01 -0.33966697908E+02  0.40000000000E+02  0.47000000000E+01 0. -1.
         -5    1    3    3    0  501 -0.19095330528E+02 -0.77163323679E+01  0.33966697908E+02  0.40000000000E+02  0.47000000000E+01 0.  1.
</event>
<event>
 5    1  0.4872488E-001  0.8000000E+02  0.7546771E-02  0.1203772E+00
         11   -1    0    0    0    0  0.00000000000E+00  0.00000000000E+00  0.40000000000E+02  0.40000000000E+02  0.00000000000E+00 0.  1.
        -11   -1    0    0    0    0 -0.00000000000E+00 -0.00000000000E+00 -0.40000000000E+02  0.40000000000E+02  0.00000000000E+00 0. -1.
         23    2    1    2    0    0  0.00000000000E+00  0.00000000000E+00  0.00000000000E+00  0.80000000000E+02  0.80000000000E+02 0.  0.
          5    1    3    3  501    0  0.30925928795E+01  0.17608177255E+02 -0.35472495867E+02  0.40000000000E+02  0.47000000000E+01 0. -1.
         -5    1    3    3    0  501 -0.30925928795E+01 -0.17608177255E+02  0.35472495867E+02  0.40000000000E+02  0.47000000000E+01 0.  1.
</event>
<event>
 5    1  0.4872488E-001  0.8000000E+02  0.7546771E-02  0.1203772E+00
         11   -1    0    0    0    0  0.00000000000E+00  0.00000000000E+00  0.40000000000E+02  0.40000000000E+02  0.00000000000E+00 0. -1.
        -11   -1    0    0    0    0 -0.00000000000E+00 -0.00000000000E+00 -0.40000000000E+02  0.40000000000E+02  0.00000000000E+00 0.  1.
         23    2    1    2    0    0  0.00000000000E+00  0.00000000000E+00  0.00000000000E+00  0.80000000000E+02  0.80000000000E+02 0.  0.
          5    1    3    3  501    0  0.29806969207E+02  0.18114692064E+02  0.19008222381E+02  0.40000000000E+02  0.47000000000E+01 0. -1.
         -5    1    3    3    0  501 -0.29806969207E+02 -0.18114692064E+02 -0.19008222381E+02  0.40000000000E+02  0.47000000000E+01 0.  1.
</event>
<event>
 5    1  0.4872488E-001  0.8000000E+02  0.7546771E-02  0.1203772E+00
         11   -1    0    0    0    0  0.00000000000E+00  0.00000000000E+00  0.40000000000E+02  0.40000000000E+02  0.00000000000E+00 0.  1.
        -11   -1    0    0    0    0 -0.00000000000E+00 -0.00000000000E+00 -0.40000000000E+02  0.40000000000E+02  0.00000000000E+00 0. -1.
         23    2    1    2    0    0  0.00000000000E+00  0.00000000000E+00  0.00000000000E+00  0.80000000000E+02  0.80000000000E+02 0.  0.
          5    1    3    3  501    0 -0.22314488837E+02 -0.10014204787E+02 -0.31299988665E+02  0.40000000000E+02  0.47000000000E+01 0. -1.
         -5    1    3    3    0  501  0.22314488837E+02  0.10014204787E+02  0.31299988665E+02  0.40000000000E+02  0.47000000000E+01 0.  1.
</event>
<event>
 5    1  0.4872488E-001  0.8000000E+02  0.7546771E-02  0.1203772E+00
         11   -1    0    0    0    0  0.00000000000E+00  0.00000000000E+00  0.40000000000E+02  0.40000000000E+02  0.00000000000E+00 0.  1.
        -11   -1    0    0    0    0 -0.00000000000E+00 -0.00000000000E+00 -0.40000000000E+02  0.40000000000E+02  0.00000000000E+00 0. -1.
         23    2    1    2    0    0  0.00000000000E+00  0.00000000000E+00  0.00000000000E+00  0.80000000000E+02  0.80000000000E+02 0.  0.
          5    1    3    3  501    0 -0.21016516031E+02 -0.16995260494E+02 -0.29109743638E+02  0.40000000000E+02  0.47000000000E+01 0. -1.
         -5    1    3    3    0  501  0.21016516031E+02  0.16995260494E+02  0.29109743638E+02  0.40000000000E+02  0.47000000000E+01 0.  1.
</event>
<event>
 5    1  0.4872488E-001  0.8000000E+02  0.7546771E-02  0.1203772E+00
         11   -1    0    0    0    0  0.00000000000E+00  0.00000000000E+00  0.40000000000E+02  0.40000000000E+02  0.00000000000E+00 0.  1.
        -11   -1    0    0    0    0 -0.00000000000E+00 -0.00000000000E+00 -0.40000000000E+02  0.40000000000E+02  0.00000000000E+00 0. -1.
         23    2    1    2    0    0  0.00000000000E+00  0.00000000000E+00  0.00000000000E+00  0.80000000000E+02  0.80000000000E+02 0.  0.
          5    1    3    3  501    0  0.34584697871E+01  0.35083234645E+02 -0.18306163813E+02  0.40000000000E+02  0.47000000000E+01 0. -1.
         -5    1    3    3    0  501 -0.34584697871E+01 -0.35083234645E+02  0.18306163813E+02  0.40000000000E+02  0.47000000000E+01 0.  1.
</event>
<event>
 5    1  0.4872488E-001  0.8000000E+02  0.7546771E-02  0.1203772E+00
         11   -1    0    0    0    0  0.00000000000E+00  0.00000000000E+00  0.40000000000E+02  0.40000000000E+02  0.00000000000E+00 0.  1.
        -11   -1    0    0    0    0 -0.00000000000E+00 -0.00000000000E+00 -0.40000000000E+02  0.40000000000E+02  0.00000000000E+00 0. -1.
         23    2    1    2    0    0  0.00000000000E+00  0.00000000000E+00  0.00000000000E+00  0.80000000000E+02  0.80000000000E+02 0.  0.
          5    1    3    3  501    0 -0.37528427922E+02 -0.77039537032E+01 -0.10496484890E+02  0.40000000000E+02  0.47000000000E+01 0. -1.
         -5    1    3    3    0  501  0.37528427922E+02  0.77039537032E+01  0.10496484890E+02  0.40000000000E+02  0.47000000000E+01 0.  1.
</event>
<event>
 5    1  0.4872488E-001  0.8000000E+02  0.7546771E-02  0.1203772E+00
         11   -1    0    0    0    0  0.00000000000E+00  0.00000000000E+00  0.40000000000E+02  0.40000000000E+02  0.00000000000E+00 0.  1.
        -11   -1    0    0    0    0 -0.00000000000E+00 -0.00000000000E+00 -0.40000000000E+02  0.40000000000E+02  0.00000000000E+00 0. -1.
         23    2    1    2    0    0  0.00000000000E+00  0.00000000000E+00  0.00000000000E+00  0.80000000000E+02  0.80000000000E+02 0.  0.
          5    1    3    3  501    0  0.21614832611E+02  0.32739508260E+02 -0.62316619031E+01  0.40000000000E+02  0.47000000000E+01 0. -1.
         -5    1    3    3    0  501 -0.21614832611E+02 -0.32739508260E+02  0.62316619031E+01  0.40000000000E+02  0.47000000000E+01 0.  1.
</event>
<event>
 5    1  0.4872488E-001  0.8000000E+02  0.7546771E-02  0.1203772E+00
         11   -1    0    0    0    0  0.00000000000E+00  0.00000000000E+00  0.40000000000E+02  0.40000000000E+02  0.00000000000E+00 0.  1.
        -11   -1    0    0    0    0 -0.00000000000E+00 -0.00000000000E+00 -0.40000000000E+02  0.40000000000E+02  0.00000000000E+00 0. -1.
         23    2    1    2    0    0  0.00000000000E+00  0.00000000000E+00  0.00000000000E+00  0.80000000000E+02  0.80000000000E+02 0.  0.
          5    1    3    3  501    0  0.25014078074E+02  0.15866861900E+02 -0.26465989336E+02  0.40000000000E+02  0.47000000000E+01 0. -1.
         -5    1    3    3    0  501 -0.25014078074E+02 -0.15866861900E+02  0.26465989336E+02  0.40000000000E+02  0.47000000000E+01 0.  1.
</event>
<event>
 5    1  0.4872488E-001  0.8000000E+02  0.7546771E-02  0.1203772E+00
         11   -1    0    0    0    0  0.00000000000E+00  0.00000000000E+00  0.40000000000E+02  0.40000000000E+02  0.00000000000E+00 0. -1.
        -11   -1    0    0    0    0 -0.00000000000E+00 -0.00000000000E+00 -0.40000000000E+02  0.40000000000E+02  0.00000000000E+00 0.  1.
         23    2    1    2    0    0  0.00000000000E+00  0.00000000000E+00  0.00000000000E+00  0.80000000000E+02  0.80000000000E+02 0.  0.
          5    1    3    3  501    0  0.68866580989E+01  0.14223080312E+02  0.36444312679E+02  0.40000000000E+02  0.47000000000E+01 0. -1.
         -5    1    3    3    0  501 -0.68866580989E+01 -0.14223080312E+02 -0.36444312679E+02  0.40000000000E+02  0.47000000000E+01 0.  1.
</event>
<event>
 5    1  0.4872488E-001  0.8000000E+02  0.7546771E-02  0.1203772E+00
         11   -1    0    0    0    0  0.00000000000E+00  0.00000000000E+00  0.40000000000E+02  0.40000000000E+02  0.00000000000E+00 0.  1.
        -11   -1    0    0    0    0 -0.00000000000E+00 -0.00000000000E+00 -0.40000000000E+02  0.40000000000E+02  0.00000000000E+00 0. -1.
         23    2    1    2    0    0  0.00000000000E+00  0.00000000000E+00  0.00000000000E+00  0.80000000000E+02  0.80000000000E+02 0.  0.
          5    1    3    3  501    0  0.11874434539E+02  0.28377827818E+02 -0.25131786500E+02  0.40000000000E+02  0.47000000000E+01 0. -1.
         -5    1    3    3    0  501 -0.11874434539E+02 -0.28377827818E+02  0.25131786500E+02  0.40000000000E+02  0.47000000000E+01 0.  1.
</event>
<event>
 5    1  0.4872488E-001  0.8000000E+02  0.7546771E-02  0.1203772E+00
         11   -1    0    0    0    0  0.00000000000E+00  0.00000000000E+00  0.40000000000E+02  0.40000000000E+02  0.00000000000E+00 0. -1.
        -11   -1    0    0    0    0 -0.00000000000E+00 -0.00000000000E+00 -0.40000000000E+02  0.40000000000E+02  0.00000000000E+00 0.  1.
         23    2    1    2    0    0  0.00000000000E+00  0.00000000000E+00  0.00000000000E+00  0.80000000000E+02  0.80000000000E+02 0.  0.
          5    1    3    3  501    0  0.12936154762E+02 -0.21897813263E+02  0.30513139371E+02  0.40000000000E+02  0.47000000000E+01 0. -1.
         -5    1    3    3    0  501 -0.12936154762E+02  0.21897813263E+02 -0.30513139371E+02  0.40000000000E+02  0.47000000000E+01 0.  1.
</event>
<event>
 5    1  0.4872488E-001  0.8000000E+02  0.7546771E-02  0.1203772E+00
         11   -1    0    0    0    0  0.00000000000E+00  0.00000000000E+00  0.40000000000E+02  0.40000000000E+02  0.00000000000E+00 0.  1.
        -11   -1    0    0    0    0 -0.00000000000E+00 -0.00000000000E+00 -0.40000000000E+02  0.40000000000E+02  0.00000000000E+00 0. -1.
         23    2    1    2    0    0  0.00000000000E+00  0.00000000000E+00  0.00000000000E+00  0.80000000000E+02  0.80000000000E+02 0.  0.
          5    1    3    3  501    0 -0.26878712638E+02 -0.98025268607E+01 -0.27556401690E+02  0.40000000000E+02  0.47000000000E+01 0. -1.
         -5    1    3    3    0  501  0.26878712638E+02  0.98025268607E+01  0.27556401690E+02  0.40000000000E+02  0.47000000000E+01 0.  1.
</event>
<event>
 5    1  0.4872488E-001  0.8000000E+02  0.7546771E-02  0.1203772E+00
         11   -1    0    0    0    0  0.00000000000E+00  0.00000000000E+00  0.40000000000E+02  0.40000000000E+02  0.00000000000E+00 0.  1.
        -11   -1    0    0    0    0 -0.00000000000E+00 -0.00000000000E+00 -0.40000000000E+02  0.40000000000E+02  0.00000000000E+00 0. -1.
         23    2    1    2    0    0  0.00000000000E+00  0.00000000000E+00  0.00000000000E+00  0.80000000000E+02  0.80000000000E+02 0.  0.
          5    1    3    3  501    0 -0.11899318918E+02  0.37344940286E+02 -0.64553578009E+01  0.40000000000E+02  0.47000000000E+01 0. -1.
         -5    1    3    3    0  501  0.11899318918E+02 -0.37344940286E+02  0.64553578009E+01  0.40000000000E+02  0.47000000000E+01 0.  1.
</event>
<event>
 5    1  0.4872488E-001  0.8000000E+02  0.7546771E-02  0.1203772E+00
         11   -1    0    0    0    0  0.00000000000E+00  0.00000000000E+00  0.40000000000E+02  0.40000000000E+02  0.00000000000E+00 0. -1.
        -11   -1    0    0    0    0 -0.00000000000E+00 -0.00000000000E+00 -0.40000000000E+02  0.40000000000E+02  0.00000000000E+00 0.  1.
         23    2    1    2    0    0  0.00000000000E+00  0.00000000000E+00  0.00000000000E+00  0.80000000000E+02  0.80000000000E+02 0.  0.
          5    1    3    3  501    0  0.20896672369E+02  0.14606925231E+01  0.33750636457E+02  0.40000000000E+02  0.47000000000E+01 0. -1.
         -5    1    3    3    0  501 -0.20896672369E+02 -0.14606925231E+01 -0.33750636457E+02  0.40000000000E+02  0.47000000000E+01 0.  1.
</event>
<event>
 5    1  0.4872488E-001  0.8000000E+02  0.7546771E-02  0.1203772E+00
         11   -1    0    0    0    0  0.00000000000E+00  0.00000000000E+00  0.40000000000E+02  0.40000000000E+02  0.00000000000E+00 0. -1.
        -11   -1    0    0    0    0 -0.00000000000E+00 -0.00000000000E+00 -0.40000000000E+02  0.40000000000E+02  0.00000000000E+00 0.  1.
         23    2    1    2    0    0  0.00000000000E+00  0.00000000000E+00  0.00000000000E+00  0.80000000000E+02  0.80000000000E+02 0.  0.
          5    1    3    3  501    0 -0.21951287031E+02  0.25184281758E+02  0.21489600974E+02  0.40000000000E+02  0.47000000000E+01 0. -1.
         -5    1    3    3    0  501  0.21951287031E+02 -0.25184281758E+02 -0.21489600974E+02  0.40000000000E+02  0.47000000000E+01 0.  1.
</event>
<event>
 5    1  0.4872488E-001  0.8000000E+02  0.7546771E-02  0.1203772E+00
         11   -1    0    0    0    0  0.00000000000E+00  0.00000000000E+00  0.40000000000E+02  0.40000000000E+02  0.00000000000E+00 0.  1.
        -11   -1    0    0    0    0 -0.00000000000E+00 -0.00000000000E+00 -0.40000000000E+02  0.40000000000E+02  0.00000000000E+00 0. -1.
         23    2    1    2    0    0  0.00000000000E+00  0.00000000000E+00  0.00000000000E+00  0.80000000000E+02  0.80000000000E+02 0.  0.
          5    1    3    3  501    0  0.33448330723E+02 -0.21422273215E+02  0.45319110397E+00  0.40000000000E+02  0.47000000000E+01 0. -1.
         -5    1    3    3    0  501 -0.33448330723E+02  0.21422273215E+02 -0.45319110397E+00  0.40000000000E+02  0.47000000000E+01 0.  1.
</event>
<event>
 5    1  0.4872488E-001  0.8000000E+02  0.7546771E-02  0.1203772E+00
         11   -1    0    0    0    0  0.00000000000E+00  0.00000000000E+00  0.40000000000E+02  0.40000000000E+02  0.00000000000E+00 0.  1.
        -11   -1    0    0    0    0 -0.00000000000E+00 -0.00000000000E+00 -0.40000000000E+02  0.40000000000E+02  0.00000000000E+00 0. -1.
         23    2    1    2    0    0  0.00000000000E+00  0.00000000000E+00  0.00000000000E+00  0.80000000000E+02  0.80000000000E+02 0.  0.
          5    1    3    3  501    0  0.16798724681E+02  0.81815609803E+01 -0.35053885791E+02  0.40000000000E+02  0.47000000000E+01 0. -1.
         -5    1    3    3    0  501 -0.16798724681E+02 -0.81815609803E+01  0.35053885791E+02  0.40000000000E+02  0.47000000000E+01 0.  1.
</event>
<event>
 5    1  0.4872488E-001  0.8000000E+02  0.7546771E-02  0.1203772E+00
         11   -1    0    0    0    0  0.00000000000E+00  0.00000000000E+00  0.40000000000E+02  0.40000000000E+02  0.00000000000E+00 0.  1.
        -11   -1    0    0    0    0 -0.00000000000E+00 -0.00000000000E+00 -0.40000000000E+02  0.40000000000E+02  0.00000000000E+00 0. -1.
         23    2    1    2    0    0  0.00000000000E+00  0.00000000000E+00  0.00000000000E+00  0.80000000000E+02  0.80000000000E+02 0.  0.
          5    1    3    3  501    0 -0.16939717885E+02 -0.16470942339E+02 -0.31932178385E+02  0.40000000000E+02  0.47000000000E+01 0. -1.
         -5    1    3    3    0  501  0.16939717885E+02  0.16470942339E+02  0.31932178385E+02  0.40000000000E+02  0.47000000000E+01 0.  1.
</event>
<event>
 5    1  0.4872488E-001  0.8000000E+02  0.7546771E-02  0.1203772E+00
         11   -1    0    0    0    0  0.00000000000E+00  0.00000000000E+00  0.40000000000E+02  0.40000000000E+02  0.00000000000E+00 0. -1.
        -11   -1    0    0    0    0 -0.00000000000E+00 -0.00000000000E+00 -0.40000000000E+02  0.40000000000E+02  0.00000000000E+00 0.  1.
         23    2    1    2    0    0  0.00000000000E+00  0.00000000000E+00  0.00000000000E+00  0.80000000000E+02  0.80000000000E+02 0.  0.
          5    1    3    3  501    0  0.28813718116E+02  0.14568169343E+02  0.23139751303E+02  0.40000000000E+02  0.47000000000E+01 0. -1.
         -5    1    3    3    0  501 -0.28813718116E+02 -0.14568169343E+02 -0.23139751303E+02  0.40000000000E+02  0.47000000000E+01 0.  1.
</event>
<event>
 5    1  0.4872488E-001  0.8000000E+02  0.7546771E-02  0.1203772E+00
         11   -1    0    0    0    0  0.00000000000E+00  0.00000000000E+00  0.40000000000E+02  0.40000000000E+02  0.00000000000E+00 0. -1.
        -11   -1    0    0    0    0 -0.00000000000E+00 -0.00000000000E+00 -0.40000000000E+02  0.40000000000E+02  0.00000000000E+00 0.  1.
         23    2    1    2    0    0  0.00000000000E+00  0.00000000000E+00  0.00000000000E+00  0.80000000000E+02  0.80000000000E+02 0.  0.
          5    1    3    3  501    0 -0.27835982390E+02  0.24258324024E+02 -0.14649293496E+02  0.40000000000E+02  0.47000000000E+01 0. -1.
         -5    1    3    3    0  501  0.27835982390E+02 -0.24258324024E+02  0.14649293496E+02  0.40000000000E+02  0.47000000000E+01 0.  1.
</event>
<event>
 5    1  0.4872488E-001  0.8000000E+02  0.7546771E-02  0.1203772E+00
         11   -1    0    0    0    0  0.00000000000E+00  0.00000000000E+00  0.40000000000E+02  0.40000000000E+02  0.00000000000E+00 0. -1.
        -11   -1    0    0    0    0 -0.00000000000E+00 -0.00000000000E+00 -0.40000000000E+02  0.40000000000E+02  0.00000000000E+00 0.  1.
         23    2    1    2    0    0  0.00000000000E+00  0.00000000000E+00  0.00000000000E+00  0.80000000000E+02  0.80000000000E+02 0.  0.
          5    1    3    3  501    0 -0.18268808427E+02 -0.27999930425E+02  0.21451445985E+02  0.40000000000E+02  0.47000000000E+01 0. -1.
         -5    1    3    3    0  501  0.18268808427E+02  0.27999930425E+02 -0.21451445985E+02  0.40000000000E+02  0.47000000000E+01 0.  1.
</event>
<event>
 5    1  0.4872488E-001  0.8000000E+02  0.7546771E-02  0.1203772E+00
         11   -1    0    0    0    0  0.00000000000E+00  0.00000000000E+00  0.40000000000E+02  0.40000000000E+02  0.00000000000E+00 0.  1.
        -11   -1    0    0    0    0 -0.00000000000E+00 -0.00000000000E+00 -0.40000000000E+02  0.40000000000E+02  0.00000000000E+00 0. -1.
         23    2    1    2    0    0  0.00000000000E+00  0.00000000000E+00  0.00000000000E+00  0.80000000000E+02  0.80000000000E+02 0.  0.
          5    1    3    3  501    0  0.36920013072E+02 -0.28522072624E+01  0.14376632028E+02  0.40000000000E+02  0.47000000000E+01 0. -1.
         -5    1    3    3    0  501 -0.36920013072E+02  0.28522072624E+01 -0.14376632028E+02  0.40000000000E+02  0.47000000000E+01 0.  1.
</event>
<event>
 5    1  0.4872488E-001  0.8000000E+02  0.7546771E-02  0.1203772E+00
         11   -1    0    0    0    0  0.00000000000E+00  0.00000000000E+00  0.40000000000E+02  0.40000000000E+02  0.00000000000E+00 0. -1.
        -11   -1    0    0    0    0 -0.00000000000E+00 -0.00000000000E+00 -0.40000000000E+02  0.40000000000E+02  0.00000000000E+00 0.  1.
         23    2    1    2    0    0  0.00000000000E+00  0.00000000000E+00  0.00000000000E+00  0.80000000000E+02  0.80000000000E+02 0.  0.
          5    1    3    3  501    0  0.20824839248E+02  0.20518722530E+02  0.26892714553E+02  0.40000000000E+02  0.47000000000E+01 0. -1.
         -5    1    3    3    0  501 -0.20824839248E+02 -0.20518722530E+02 -0.26892714553E+02  0.40000000000E+02  0.47000000000E+01 0.  1.
</event>
<event>
 5    1  0.4872488E-001  0.8000000E+02  0.7546771E-02  0.1203772E+00
         11   -1    0    0    0    0  0.00000000000E+00  0.00000000000E+00  0.40000000000E+02  0.40000000000E+02  0.00000000000E+00 0. -1.
        -11   -1    0    0    0    0 -0.00000000000E+00 -0.00000000000E+00 -0.40000000000E+02  0.40000000000E+02  0.00000000000E+00 0.  1.
         23    2    1    2    0    0  0.00000000000E+00  0.00000000000E+00  0.00000000000E+00  0.80000000000E+02  0.80000000000E+02 0.  0.
          5    1    3    3  501    0 -0.25835497422E+02  0.47723095993E+01  0.29793659293E+02  0.40000000000E+02  0.47000000000E+01 0. -1.
         -5    1    3    3    0  501  0.25835497422E+02 -0.47723095993E+01 -0.29793659293E+02  0.40000000000E+02  0.47000000000E+01 0.  1.
</event>
<event>
 5    1  0.4872488E-001  0.8000000E+02  0.7546771E-02  0.1203772E+00
         11   -1    0    0    0    0  0.00000000000E+00  0.00000000000E+00  0.40000000000E+02  0.40000000000E+02  0.00000000000E+00 0.  1.
        -11   -1    0    0    0    0 -0.00000000000E+00 -0.00000000000E+00 -0.40000000000E+02  0.40000000000E+02  0.00000000000E+00 0. -1.
         23    2    1    2    0    0  0.00000000000E+00  0.00000000000E+00  0.00000000000E+00  0.80000000000E+02  0.80000000000E+02 0.  0.
          5    1    3    3  501    0 -0.21410210759E+02  0.31288821564E+02 -0.11854219517E+02  0.40000000000E+02  0.47000000000E+01 0. -1.
         -5    1    3    3    0  501  0.21410210759E+02 -0.31288821564E+02  0.11854219517E+02  0.40000000000E+02  0.47000000000E+01 0.  1.
</event>
<event>
 5    1  0.4872488E-001  0.8000000E+02  0.7546771E-02  0.1203772E+00
         11   -1    0    0    0    0  0.00000000000E+00  0.00000000000E+00  0.40000000000E+02  0.40000000000E+02  0.00000000000E+00 0. -1.
        -11   -1    0    0    0    0 -0.00000000000E+00 -0.00000000000E+00 -0.40000000000E+02  0.40000000000E+02  0.00000000000E+00 0.  1.
         23    2    1    2    0    0  0.00000000000E+00  0.00000000000E+00  0.00000000000E+00  0.80000000000E+02  0.80000000000E+02 0.  0.
          5    1    3    3  501    0 -0.18941327490E+02 -0.30616071877E+02  0.16786668989E+02  0.40000000000E+02  0.47000000000E+01 0. -1.
         -5    1    3    3    0  501  0.18941327490E+02  0.30616071877E+02 -0.16786668989E+02  0.40000000000E+02  0.47000000000E+01 0.  1.
</event>
<event>
 5    1  0.4872488E-001  0.8000000E+02  0.7546771E-02  0.1203772E+00
         11   -1    0    0    0    0  0.00000000000E+00  0.00000000000E+00  0.40000000000E+02  0.40000000000E+02  0.00000000000E+00 0. -1.
        -11   -1    0    0    0    0 -0.00000000000E+00 -0.00000000000E+00 -0.40000000000E+02  0.40000000000E+02  0.00000000000E+00 0.  1.
         23    2    1    2    0    0  0.00000000000E+00  0.00000000000E+00  0.00000000000E+00  0.80000000000E+02  0.80000000000E+02 0.  0.
          5    1    3    3  501    0 -0.37436333145E+02 -0.23521295203E+01  0.13072813291E+02  0.40000000000E+02  0.47000000000E+01 0. -1.
         -5    1    3    3    0  501  0.37436333145E+02  0.23521295203E+01 -0.13072813291E+02  0.40000000000E+02  0.47000000000E+01 0.  1.
</event>
<event>
 5    1  0.4872488E-001  0.8000000E+02  0.7546771E-02  0.1203772E+00
         11   -1    0    0    0    0  0.00000000000E+00  0.00000000000E+00  0.40000000000E+02  0.40000000000E+02  0.00000000000E+00 0.  1.
        -11   -1    0    0    0    0 -0.00000000000E+00 -0.00000000000E+00 -0.40000000000E+02  0.40000000000E+02  0.00000000000E+00 0. -1.
         23    2    1    2    0    0  0.00000000000E+00  0.00000000000E+00  0.00000000000E+00  0.80000000000E+02  0.80000000000E+02 0.  0.
          5    1    3    3  501    0  0.22534002338E+02  0.13920438060E+02 -0.29603211698E+02  0.40000000000E+02  0.47000000000E+01 0. -1.
         -5    1    3    3    0  501 -0.22534002338E+02 -0.13920438060E+02  0.29603211698E+02  0.40000000000E+02  0.47000000000E+01 0.  1.
</event>
<event>
 5    1  0.4872488E-001  0.8000000E+02  0.7546771E-02  0.1203772E+00
         11   -1    0    0    0    0  0.00000000000E+00  0.00000000000E+00  0.40000000000E+02  0.40000000000E+02  0.00000000000E+00 0. -1.
        -11   -1    0    0    0    0 -0.00000000000E+00 -0.00000000000E+00 -0.40000000000E+02  0.40000000000E+02  0.00000000000E+00 0.  1.
         23    2    1    2    0    0  0.00000000000E+00  0.00000000000E+00  0.00000000000E+00  0.80000000000E+02  0.80000000000E+02 0.  0.
          5    1    3    3  501    0  0.87131417536E+01 -0.32593454445E+02 -0.20968020606E+02  0.40000000000E+02  0.47000000000E+01 0.  1.
         -5    1    3    3    0  501 -0.87131417536E+01  0.32593454445E+02  0.20968020606E+02  0.40000000000E+02  0.47000000000E+01 0. -1.
</event>
<event>
 5    1  0.4872488E-001  0.8000000E+02  0.7546771E-02  0.1203772E+00
         11   -1    0    0    0    0  0.00000000000E+00  0.00000000000E+00  0.40000000000E+02  0.40000000000E+02  0.00000000000E+00 0. -1.
        -11   -1    0    0    0    0 -0.00000000000E+00 -0.00000000000E+00 -0.40000000000E+02  0.40000000000E+02  0.00000000000E+00 0.  1.
         23    2    1    2    0    0  0.00000000000E+00  0.00000000000E+00  0.00000000000E+00  0.80000000000E+02  0.80000000000E+02 0.  0.
          5    1    3    3  501    0 -0.25614663327E+02  0.30299817506E+02  0.19287513493E+01  0.40000000000E+02  0.47000000000E+01 0. -1.
         -5    1    3    3    0  501  0.25614663327E+02 -0.30299817506E+02 -0.19287513493E+01  0.40000000000E+02  0.47000000000E+01 0.  1.
</event>
<event>
 5    1  0.4872488E-001  0.8000000E+02  0.7546771E-02  0.1203772E+00
         11   -1    0    0    0    0  0.00000000000E+00  0.00000000000E+00  0.40000000000E+02  0.40000000000E+02  0.00000000000E+00 0. -1.
        -11   -1    0    0    0    0 -0.00000000000E+00 -0.00000000000E+00 -0.40000000000E+02  0.40000000000E+02  0.00000000000E+00 0.  1.
         23    2    1    2    0    0  0.00000000000E+00  0.00000000000E+00  0.00000000000E+00  0.80000000000E+02  0.80000000000E+02 0.  0.
          5    1    3    3  501    0 -0.31027398091E+02  0.24043333024E+02 -0.60933328155E+01  0.40000000000E+02  0.47000000000E+01 0. -1.
         -5    1    3    3    0  501  0.31027398091E+02 -0.24043333024E+02  0.60933328155E+01  0.40000000000E+02  0.47000000000E+01 0.  1.
</event>
<event>
 5    1  0.4872488E-001  0.8000000E+02  0.7546771E-02  0.1203772E+00
         11   -1    0    0    0    0  0.00000000000E+00  0.00000000000E+00  0.40000000000E+02  0.40000000000E+02  0.00000000000E+00 0. -1.
        -11   -1    0    0    0    0 -0.00000000000E+00 -0.00000000000E+00 -0.40000000000E+02  0.40000000000E+02  0.00000000000E+00 0.  1.
         23    2    1    2    0    0  0.00000000000E+00  0.00000000000E+00  0.00000000000E+00  0.80000000000E+02  0.80000000000E+02 0.  0.
          5    1    3    3  501    0  0.25476268116E+02  0.14651083057E+02  0.26724811096E+02  0.40000000000E+02  0.47000000000E+01 0. -1.
         -5    1    3    3    0  501 -0.25476268116E+02 -0.14651083057E+02 -0.26724811096E+02  0.40000000000E+02  0.47000000000E+01 0.  1.
</event>
<event>
 5    1  0.4872488E-001  0.8000000E+02  0.7546771E-02  0.1203772E+00
         11   -1    0    0    0    0  0.00000000000E+00  0.00000000000E+00  0.40000000000E+02  0.40000000000E+02  0.00000000000E+00 0.  1.
        -11   -1    0    0    0    0 -0.00000000000E+00 -0.00000000000E+00 -0.40000000000E+02  0.40000000000E+02  0.00000000000E+00 0. -1.
         23    2    1    2    0    0  0.00000000000E+00  0.00000000000E+00  0.00000000000E+00  0.80000000000E+02  0.80000000000E+02 0.  0.
          5    1    3    3  501    0  0.36592018938E+02 -0.15281389734E+02 -0.23266451960E+01  0.40000000000E+02  0.47000000000E+01 0. -1.
         -5    1    3    3    0  501 -0.36592018938E+02  0.15281389734E+02  0.23266451960E+01  0.40000000000E+02  0.47000000000E+01 0.  1.
</event>
<event>
 5    1  0.4872488E-001  0.8000000E+02  0.7546771E-02  0.1203772E+00
         11   -1    0    0    0    0  0.00000000000E+00  0.00000000000E+00  0.40000000000E+02  0.40000000000E+02  0.00000000000E+00 0.  1.
        -11   -1    0    0    0    0 -0.00000000000E+00 -0.00000000000E+00 -0.40000000000E+02  0.40000000000E+02  0.00000000000E+00 0. -1.
         23    2    1    2    0    0  0.00000000000E+00  0.00000000000E+00  0.00000000000E+00  0.80000000000E+02  0.80000000000E+02 0.  0.
          5    1    3    3  501    0 -0.11018292414E+02 -0.36741549268E+02 -0.10323070747E+02  0.40000000000E+02  0.47000000000E+01 0. -1.
         -5    1    3    3    0  501  0.11018292414E+02  0.36741549268E+02  0.10323070747E+02  0.40000000000E+02  0.47000000000E+01 0.  1.
</event>
<event>
 5    1  0.4872488E-001  0.8000000E+02  0.7546771E-02  0.1203772E+00
         11   -1    0    0    0    0  0.00000000000E+00  0.00000000000E+00  0.40000000000E+02  0.40000000000E+02  0.00000000000E+00 0. -1.
        -11   -1    0    0    0    0 -0.00000000000E+00 -0.00000000000E+00 -0.40000000000E+02  0.40000000000E+02  0.00000000000E+00 0.  1.
         23    2    1    2    0    0  0.00000000000E+00  0.00000000000E+00  0.00000000000E+00  0.80000000000E+02  0.80000000000E+02 0.  0.
          5    1    3    3  501    0  0.79221748692E+01 -0.37826565081E+02  0.91815096528E+01  0.40000000000E+02  0.47000000000E+01 0. -1.
         -5    1    3    3    0  501 -0.79221748692E+01  0.37826565081E+02 -0.91815096528E+01  0.40000000000E+02  0.47000000000E+01 0.  1.
</event>
<event>
 5    1  0.4872488E-001  0.8000000E+02  0.7546771E-02  0.1203772E+00
         11   -1    0    0    0    0  0.00000000000E+00  0.00000000000E+00  0.40000000000E+02  0.40000000000E+02  0.00000000000E+00 0.  1.
        -11   -1    0    0    0    0 -0.00000000000E+00 -0.00000000000E+00 -0.40000000000E+02  0.40000000000E+02  0.00000000000E+00 0. -1.
         23    2    1    2    0    0  0.00000000000E+00  0.00000000000E+00  0.00000000000E+00  0.80000000000E+02  0.80000000000E+02 0.  0.
          5    1    3    3  501    0  0.34454122642E+02 -0.13983096190E+02 -0.13974850766E+02  0.40000000000E+02  0.47000000000E+01 0. -1.
         -5    1    3    3    0  501 -0.34454122642E+02  0.13983096190E+02  0.13974850766E+02  0.40000000000E+02  0.47000000000E+01 0.  1.
</event>
<event>
 5    1  0.4872488E-001  0.8000000E+02  0.7546771E-02  0.1203772E+00
         11   -1    0    0    0    0  0.00000000000E+00  0.00000000000E+00  0.40000000000E+02  0.40000000000E+02  0.00000000000E+00 0.  1.
        -11   -1    0    0    0    0 -0.00000000000E+00 -0.00000000000E+00 -0.40000000000E+02  0.40000000000E+02  0.00000000000E+00 0. -1.
         23    2    1    2    0    0  0.00000000000E+00  0.00000000000E+00  0.00000000000E+00  0.80000000000E+02  0.80000000000E+02 0.  0.
          5    1    3    3  501    0  0.38239659471E+02 -0.84522407722E+01 -0.66481628633E+01  0.40000000000E+02  0.47000000000E+01 0. -1.
         -5    1    3    3    0  501 -0.38239659471E+02  0.84522407722E+01  0.66481628633E+01  0.40000000000E+02  0.47000000000E+01 0.  1.
</event>
<event>
 5    1  0.4872488E-001  0.8000000E+02  0.7546771E-02  0.1203772E+00
         11   -1    0    0    0    0  0.00000000000E+00  0.00000000000E+00  0.40000000000E+02  0.40000000000E+02  0.00000000000E+00 0.  1.
        -11   -1    0    0    0    0 -0.00000000000E+00 -0.00000000000E+00 -0.40000000000E+02  0.40000000000E+02  0.00000000000E+00 0. -1.
         23    2    1    2    0    0  0.00000000000E+00  0.00000000000E+00  0.00000000000E+00  0.80000000000E+02  0.80000000000E+02 0.  0.
          5    1    3    3  501    0 -0.37278106458E+02 -0.10860129040E+02  0.83851282732E+01  0.40000000000E+02  0.47000000000E+01 0. -1.
         -5    1    3    3    0  501  0.37278106458E+02  0.10860129040E+02 -0.83851282732E+01  0.40000000000E+02  0.47000000000E+01 0.  1.
</event>
<event>
 5    1  0.4872488E-001  0.8000000E+02  0.7546771E-02  0.1203772E+00
         11   -1    0    0    0    0  0.00000000000E+00  0.00000000000E+00  0.40000000000E+02  0.40000000000E+02  0.00000000000E+00 0.  1.
        -11   -1    0    0    0    0 -0.00000000000E+00 -0.00000000000E+00 -0.40000000000E+02  0.40000000000E+02  0.00000000000E+00 0. -1.
         23    2    1    2    0    0  0.00000000000E+00  0.00000000000E+00  0.00000000000E+00  0.80000000000E+02  0.80000000000E+02 0.  0.
          5    1    3    3  501    0 -0.22978771507E-01 -0.23663189633E+02 -0.31905531313E+02  0.40000000000E+02  0.47000000000E+01 0. -1.
         -5    1    3    3    0  501  0.22978771507E-01  0.23663189633E+02  0.31905531313E+02  0.40000000000E+02  0.47000000000E+01 0.  1.
</event>
<event>
 5    1  0.4872488E-001  0.8000000E+02  0.7546771E-02  0.1203772E+00
         11   -1    0    0    0    0  0.00000000000E+00  0.00000000000E+00  0.40000000000E+02  0.40000000000E+02  0.00000000000E+00 0.  1.
        -11   -1    0    0    0    0 -0.00000000000E+00 -0.00000000000E+00 -0.40000000000E+02  0.40000000000E+02  0.00000000000E+00 0. -1.
         23    2    1    2    0    0  0.00000000000E+00  0.00000000000E+00  0.00000000000E+00  0.80000000000E+02  0.80000000000E+02 0.  0.
          5    1    3    3  501    0 -0.24005971605E+02  0.41775190186E+00 -0.31645676018E+02  0.40000000000E+02  0.47000000000E+01 0. -1.
         -5    1    3    3    0  501  0.24005971605E+02 -0.41775190186E+00  0.31645676018E+02  0.40000000000E+02  0.47000000000E+01 0.  1.
</event>
<event>
 5    1  0.4872488E-001  0.8000000E+02  0.7546771E-02  0.1203772E+00
         11   -1    0    0    0    0  0.00000000000E+00  0.00000000000E+00  0.40000000000E+02  0.40000000000E+02  0.00000000000E+00 0.  1.
        -11   -1    0    0    0    0 -0.00000000000E+00 -0.00000000000E+00 -0.40000000000E+02  0.40000000000E+02  0.00000000000E+00 0. -1.
         23    2    1    2    0    0  0.00000000000E+00  0.00000000000E+00  0.00000000000E+00  0.80000000000E+02  0.80000000000E+02 0.  0.
          5    1    3    3  501    0  0.40529953178E+01 -0.36603060213E+02 -0.14889567220E+02  0.40000000000E+02  0.47000000000E+01 0. -1.
         -5    1    3    3    0  501 -0.40529953178E+01  0.36603060213E+02  0.14889567220E+02  0.40000000000E+02  0.47000000000E+01 0.  1.
</event>
<event>
 5    1  0.4872488E-001  0.8000000E+02  0.7546771E-02  0.1203772E+00
         11   -1    0    0    0    0  0.00000000000E+00  0.00000000000E+00  0.40000000000E+02  0.40000000000E+02  0.00000000000E+00 0. -1.
        -11   -1    0    0    0    0 -0.00000000000E+00 -0.00000000000E+00 -0.40000000000E+02  0.40000000000E+02  0.00000000000E+00 0.  1.
         23    2    1    2    0    0  0.00000000000E+00  0.00000000000E+00  0.00000000000E+00  0.80000000000E+02  0.80000000000E+02 0.  0.
          5    1    3    3  501    0 -0.14411570559E+02  0.18482474803E+02  0.32072024557E+02  0.40000000000E+02  0.47000000000E+01 0. -1.
         -5    1    3    3    0  501  0.14411570559E+02 -0.18482474803E+02 -0.32072024557E+02  0.40000000000E+02  0.47000000000E+01 0.  1.
</event>
<event>
 5    1  0.4872488E-001  0.8000000E+02  0.7546771E-02  0.1203772E+00
         11   -1    0    0    0    0  0.00000000000E+00  0.00000000000E+00  0.40000000000E+02  0.40000000000E+02  0.00000000000E+00 0. -1.
        -11   -1    0    0    0    0 -0.00000000000E+00 -0.00000000000E+00 -0.40000000000E+02  0.40000000000E+02  0.00000000000E+00 0.  1.
         23    2    1    2    0    0  0.00000000000E+00  0.00000000000E+00  0.00000000000E+00  0.80000000000E+02  0.80000000000E+02 0.  0.
          5    1    3    3  501    0  0.70400356935E+01  0.37545143086E+02  0.10895417756E+02  0.40000000000E+02  0.47000000000E+01 0. -1.
         -5    1    3    3    0  501 -0.70400356935E+01 -0.37545143086E+02 -0.10895417756E+02  0.40000000000E+02  0.47000000000E+01 0.  1.
</event>
<event>
 5    1  0.4872488E-001  0.8000000E+02  0.7546771E-02  0.1203772E+00
         11   -1    0    0    0    0  0.00000000000E+00  0.00000000000E+00  0.40000000000E+02  0.40000000000E+02  0.00000000000E+00 0.  1.
        -11   -1    0    0    0    0 -0.00000000000E+00 -0.00000000000E+00 -0.40000000000E+02  0.40000000000E+02  0.00000000000E+00 0. -1.
         23    2    1    2    0    0  0.00000000000E+00  0.00000000000E+00  0.00000000000E+00  0.80000000000E+02  0.80000000000E+02 0.  0.
          5    1    3    3  501    0 -0.27964097518E+02  0.87521092557E+01 -0.26820138583E+02  0.40000000000E+02  0.47000000000E+01 0. -1.
         -5    1    3    3    0  501  0.27964097518E+02 -0.87521092557E+01  0.26820138583E+02  0.40000000000E+02  0.47000000000E+01 0.  1.
</event>
<event>
 5    1  0.4872488E-001  0.8000000E+02  0.7546771E-02  0.1203772E+00
         11   -1    0    0    0    0  0.00000000000E+00  0.00000000000E+00  0.40000000000E+02  0.40000000000E+02  0.00000000000E+00 0.  1.
        -11   -1    0    0    0    0 -0.00000000000E+00 -0.00000000000E+00 -0.40000000000E+02  0.40000000000E+02  0.00000000000E+00 0. -1.
         23    2    1    2    0    0  0.00000000000E+00  0.00000000000E+00  0.00000000000E+00  0.80000000000E+02  0.80000000000E+02 0.  0.
          5    1    3    3  501    0 -0.17090971920E+02  0.38341480961E+01 -0.35652601409E+02  0.40000000000E+02  0.47000000000E+01 0. -1.
         -5    1    3    3    0  501  0.17090971920E+02 -0.38341480961E+01  0.35652601409E+02  0.40000000000E+02  0.47000000000E+01 0.  1.
</event>
<event>
 5    1  0.4872488E-001  0.8000000E+02  0.7546771E-02  0.1203772E+00
         11   -1    0    0    0    0  0.00000000000E+00  0.00000000000E+00  0.40000000000E+02  0.40000000000E+02  0.00000000000E+00 0.  1.
        -11   -1    0    0    0    0 -0.00000000000E+00 -0.00000000000E+00 -0.40000000000E+02  0.40000000000E+02  0.00000000000E+00 0. -1.
         23    2    1    2    0    0  0.00000000000E+00  0.00000000000E+00  0.00000000000E+00  0.80000000000E+02  0.80000000000E+02 0.  0.
          5    1    3    3  501    0 -0.24890371847E+02  0.25154749909E+02 -0.18044886986E+02  0.40000000000E+02  0.47000000000E+01 0. -1.
         -5    1    3    3    0  501  0.24890371847E+02 -0.25154749909E+02  0.18044886986E+02  0.40000000000E+02  0.47000000000E+01 0.  1.
</event>
<event>
 5    1  0.4872488E-001  0.8000000E+02  0.7546771E-02  0.1203772E+00
         11   -1    0    0    0    0  0.00000000000E+00  0.00000000000E+00  0.40000000000E+02  0.40000000000E+02  0.00000000000E+00 0. -1.
        -11   -1    0    0    0    0 -0.00000000000E+00 -0.00000000000E+00 -0.40000000000E+02  0.40000000000E+02  0.00000000000E+00 0.  1.
         23    2    1    2    0    0  0.00000000000E+00  0.00000000000E+00  0.00000000000E+00  0.80000000000E+02  0.80000000000E+02 0.  0.
          5    1    3    3  501    0  0.11682969003E+02 -0.36680959782E+02  0.97941525784E+01  0.40000000000E+02  0.47000000000E+01 0. -1.
         -5    1    3    3    0  501 -0.11682969003E+02  0.36680959782E+02 -0.97941525784E+01  0.40000000000E+02  0.47000000000E+01 0.  1.
</event>
<event>
 5    1  0.4872488E-001  0.8000000E+02  0.7546771E-02  0.1203772E+00
         11   -1    0    0    0    0  0.00000000000E+00  0.00000000000E+00  0.40000000000E+02  0.40000000000E+02  0.00000000000E+00 0. -1.
        -11   -1    0    0    0    0 -0.00000000000E+00 -0.00000000000E+00 -0.40000000000E+02  0.40000000000E+02  0.00000000000E+00 0.  1.
         23    2    1    2    0    0  0.00000000000E+00  0.00000000000E+00  0.00000000000E+00  0.80000000000E+02  0.80000000000E+02 0.  0.
          5    1    3    3  501    0 -0.32543784358E+02  0.49832575802E+01  0.22225643827E+02  0.40000000000E+02  0.47000000000E+01 0. -1.
         -5    1    3    3    0  501  0.32543784358E+02 -0.49832575802E+01 -0.22225643827E+02  0.40000000000E+02  0.47000000000E+01 0.  1.
</event>
<event>
 5    1  0.4872488E-001  0.8000000E+02  0.7546771E-02  0.1203772E+00
         11   -1    0    0    0    0  0.00000000000E+00  0.00000000000E+00  0.40000000000E+02  0.40000000000E+02  0.00000000000E+00 0.  1.
        -11   -1    0    0    0    0 -0.00000000000E+00 -0.00000000000E+00 -0.40000000000E+02  0.40000000000E+02  0.00000000000E+00 0. -1.
         23    2    1    2    0    0  0.00000000000E+00  0.00000000000E+00  0.00000000000E+00  0.80000000000E+02  0.80000000000E+02 0.  0.
          5    1    3    3  501    0  0.64870628244E+01  0.27812085571E+02 -0.27610069035E+02  0.40000000000E+02  0.47000000000E+01 0. -1.
         -5    1    3    3    0  501 -0.64870628244E+01 -0.27812085571E+02  0.27610069035E+02  0.40000000000E+02  0.47000000000E+01 0.  1.
</event>
<event>
 5    1  0.4872488E-001  0.8000000E+02  0.7546771E-02  0.1203772E+00
         11   -1    0    0    0    0  0.00000000000E+00  0.00000000000E+00  0.40000000000E+02  0.40000000000E+02  0.00000000000E+00 0.  1.
        -11   -1    0    0    0    0 -0.00000000000E+00 -0.00000000000E+00 -0.40000000000E+02  0.40000000000E+02  0.00000000000E+00 0. -1.
         23    2    1    2    0    0  0.00000000000E+00  0.00000000000E+00  0.00000000000E+00  0.80000000000E+02  0.80000000000E+02 0.  0.
          5    1    3    3  501    0 -0.77395702809E+01 -0.33870290118E+02 -0.19256492391E+02  0.40000000000E+02  0.47000000000E+01 0. -1.
         -5    1    3    3    0  501  0.77395702809E+01  0.33870290118E+02  0.19256492391E+02  0.40000000000E+02  0.47000000000E+01 0.  1.
</event>
<event>
 5    1  0.4872488E-001  0.8000000E+02  0.7546771E-02  0.1203772E+00
         11   -1    0    0    0    0  0.00000000000E+00  0.00000000000E+00  0.40000000000E+02  0.40000000000E+02  0.00000000000E+00 0.  1.
        -11   -1    0    0    0    0 -0.00000000000E+00 -0.00000000000E+00 -0.40000000000E+02  0.40000000000E+02  0.00000000000E+00 0. -1.
         23    2    1    2    0    0  0.00000000000E+00  0.00000000000E+00  0.00000000000E+00  0.80000000000E+02  0.80000000000E+02 0.  0.
          5    1    3    3  501    0 -0.35716161984E+02 -0.14076325006E+02 -0.10204060340E+02  0.40000000000E+02  0.47000000000E+01 0. -1.
         -5    1    3    3    0  501  0.35716161984E+02  0.14076325006E+02  0.10204060340E+02  0.40000000000E+02  0.47000000000E+01 0.  1.
</event>
<event>
 5    1  0.4872488E-001  0.8000000E+02  0.7546771E-02  0.1203772E+00
         11   -1    0    0    0    0  0.00000000000E+00  0.00000000000E+00  0.40000000000E+02  0.40000000000E+02  0.00000000000E+00 0.  1.
        -11   -1    0    0    0    0 -0.00000000000E+00 -0.00000000000E+00 -0.40000000000E+02  0.40000000000E+02  0.00000000000E+00 0. -1.
         23    2    1    2    0    0  0.00000000000E+00  0.00000000000E+00  0.00000000000E+00  0.80000000000E+02  0.80000000000E+02 0.  0.
          5    1    3    3  501    0 -0.38302094629E+02 -0.10336862635E+02  0.20022032588E+01  0.40000000000E+02  0.47000000000E+01 0. -1.
         -5    1    3    3    0  501  0.38302094629E+02  0.10336862635E+02 -0.20022032588E+01  0.40000000000E+02  0.47000000000E+01 0.  1.
</event>
<event>
 5    1  0.4872488E-001  0.8000000E+02  0.7546771E-02  0.1203772E+00
         11   -1    0    0    0    0  0.00000000000E+00  0.00000000000E+00  0.40000000000E+02  0.40000000000E+02  0.00000000000E+00 0. -1.
        -11   -1    0    0    0    0 -0.00000000000E+00 -0.00000000000E+00 -0.40000000000E+02  0.40000000000E+02  0.00000000000E+00 0.  1.
         23    2    1    2    0    0  0.00000000000E+00  0.00000000000E+00  0.00000000000E+00  0.80000000000E+02  0.80000000000E+02 0.  0.
          5    1    3    3  501    0 -0.30484163862E+02  0.17698050284E+02  0.18314059347E+02  0.40000000000E+02  0.47000000000E+01 0. -1.
         -5    1    3    3    0  501  0.30484163862E+02 -0.17698050284E+02 -0.18314059347E+02  0.40000000000E+02  0.47000000000E+01 0.  1.
</event>
<event>
 5    1  0.4872488E-001  0.8000000E+02  0.7546771E-02  0.1203772E+00
         11   -1    0    0    0    0  0.00000000000E+00  0.00000000000E+00  0.40000000000E+02  0.40000000000E+02  0.00000000000E+00 0.  1.
        -11   -1    0    0    0    0 -0.00000000000E+00 -0.00000000000E+00 -0.40000000000E+02  0.40000000000E+02  0.00000000000E+00 0. -1.
         23    2    1    2    0    0  0.00000000000E+00  0.00000000000E+00  0.00000000000E+00  0.80000000000E+02  0.80000000000E+02 0.  0.
          5    1    3    3  501    0 -0.34811936761E+02  0.32151198818E+01  0.18860065299E+02  0.40000000000E+02  0.47000000000E+01 0. -1.
         -5    1    3    3    0  501  0.34811936761E+02 -0.32151198818E+01 -0.18860065299E+02  0.40000000000E+02  0.47000000000E+01 0.  1.
</event>
<event>
 5    1  0.4872488E-001  0.8000000E+02  0.7546771E-02  0.1203772E+00
         11   -1    0    0    0    0  0.00000000000E+00  0.00000000000E+00  0.40000000000E+02  0.40000000000E+02  0.00000000000E+00 0. -1.
        -11   -1    0    0    0    0 -0.00000000000E+00 -0.00000000000E+00 -0.40000000000E+02  0.40000000000E+02  0.00000000000E+00 0.  1.
         23    2    1    2    0    0  0.00000000000E+00  0.00000000000E+00  0.00000000000E+00  0.80000000000E+02  0.80000000000E+02 0.  0.
          5    1    3    3  501    0 -0.23793756983E+02  0.10444434045E+01  0.31791135032E+02  0.40000000000E+02  0.47000000000E+01 0. -1.
         -5    1    3    3    0  501  0.23793756983E+02 -0.10444434045E+01 -0.31791135032E+02  0.40000000000E+02  0.47000000000E+01 0.  1.
</event>
<event>
 5    1  0.4872488E-001  0.8000000E+02  0.7546771E-02  0.1203772E+00
         11   -1    0    0    0    0  0.00000000000E+00  0.00000000000E+00  0.40000000000E+02  0.40000000000E+02  0.00000000000E+00 0. -1.
        -11   -1    0    0    0    0 -0.00000000000E+00 -0.00000000000E+00 -0.40000000000E+02  0.40000000000E+02  0.00000000000E+00 0.  1.
         23    2    1    2    0    0  0.00000000000E+00  0.00000000000E+00  0.00000000000E+00  0.80000000000E+02  0.80000000000E+02 0.  0.
          5    1    3    3  501    0  0.58490990663E+01  0.30167843508E+02  0.25171397621E+02  0.40000000000E+02  0.47000000000E+01 0. -1.
         -5    1    3    3    0  501 -0.58490990663E+01 -0.30167843508E+02 -0.25171397621E+02  0.40000000000E+02  0.47000000000E+01 0.  1.
</event>
<event>
 5    1  0.4872488E-001  0.8000000E+02  0.7546771E-02  0.1203772E+00
         11   -1    0    0    0    0  0.00000000000E+00  0.00000000000E+00  0.40000000000E+02  0.40000000000E+02  0.00000000000E+00 0.  1.
        -11   -1    0    0    0    0 -0.00000000000E+00 -0.00000000000E+00 -0.40000000000E+02  0.40000000000E+02  0.00000000000E+00 0. -1.
         23    2    1    2    0    0  0.00000000000E+00  0.00000000000E+00  0.00000000000E+00  0.80000000000E+02  0.80000000000E+02 0.  0.
          5    1    3    3  501    0  0.39305502447E+02 -0.54039877554E+01 -0.19453518215E+01  0.40000000000E+02  0.47000000000E+01 0. -1.
         -5    1    3    3    0  501 -0.39305502447E+02  0.54039877554E+01  0.19453518215E+01  0.40000000000E+02  0.47000000000E+01 0.  1.
</event>
<event>
 5    1  0.4872488E-001  0.8000000E+02  0.7546771E-02  0.1203772E+00
         11   -1    0    0    0    0  0.00000000000E+00  0.00000000000E+00  0.40000000000E+02  0.40000000000E+02  0.00000000000E+00 0. -1.
        -11   -1    0    0    0    0 -0.00000000000E+00 -0.00000000000E+00 -0.40000000000E+02  0.40000000000E+02  0.00000000000E+00 0.  1.
         23    2    1    2    0    0  0.00000000000E+00  0.00000000000E+00  0.00000000000E+00  0.80000000000E+02  0.80000000000E+02 0.  0.
          5    1    3    3  501    0 -0.30444189119E+01  0.38290282497E+02  0.10124019941E+02  0.40000000000E+02  0.47000000000E+01 0. -1.
         -5    1    3    3    0  501  0.30444189119E+01 -0.38290282497E+02 -0.10124019941E+02  0.40000000000E+02  0.47000000000E+01 0.  1.
</event>
<event>
 5    1  0.4872488E-001  0.8000000E+02  0.7546771E-02  0.1203772E+00
         11   -1    0    0    0    0  0.00000000000E+00  0.00000000000E+00  0.40000000000E+02  0.40000000000E+02  0.00000000000E+00 0. -1.
        -11   -1    0    0    0    0 -0.00000000000E+00 -0.00000000000E+00 -0.40000000000E+02  0.40000000000E+02  0.00000000000E+00 0.  1.
         23    2    1    2    0    0  0.00000000000E+00  0.00000000000E+00  0.00000000000E+00  0.80000000000E+02  0.80000000000E+02 0.  0.
          5    1    3    3  501    0  0.72485374564E+01  0.39048624470E+02 -0.75738480324E+00  0.40000000000E+02  0.47000000000E+01 0. -1.
         -5    1    3    3    0  501 -0.72485374564E+01 -0.39048624470E+02  0.75738480324E+00  0.40000000000E+02  0.47000000000E+01 0.  1.
</event>
<event>
 5    1  0.4872488E-001  0.8000000E+02  0.7546771E-02  0.1203772E+00
         11   -1    0    0    0    0  0.00000000000E+00  0.00000000000E+00  0.40000000000E+02  0.40000000000E+02  0.00000000000E+00 0. -1.
        -11   -1    0    0    0    0 -0.00000000000E+00 -0.00000000000E+00 -0.40000000000E+02  0.40000000000E+02  0.00000000000E+00 0.  1.
         23    2    1    2    0    0  0.00000000000E+00  0.00000000000E+00  0.00000000000E+00  0.80000000000E+02  0.80000000000E+02 0.  0.
          5    1    3    3  501    0  0.27894562510E+02 -0.77436794022E+01  0.27199978156E+02  0.40000000000E+02  0.47000000000E+01 0. -1.
         -5    1    3    3    0  501 -0.27894562510E+02  0.77436794022E+01 -0.27199978156E+02  0.40000000000E+02  0.47000000000E+01 0.  1.
</event>
<event>
 5    1  0.4872488E-001  0.8000000E+02  0.7546771E-02  0.1203772E+00
         11   -1    0    0    0    0  0.00000000000E+00  0.00000000000E+00  0.40000000000E+02  0.40000000000E+02  0.00000000000E+00 0. -1.
        -11   -1    0    0    0    0 -0.00000000000E+00 -0.00000000000E+00 -0.40000000000E+02  0.40000000000E+02  0.00000000000E+00 0.  1.
         23    2    1    2    0    0  0.00000000000E+00  0.00000000000E+00  0.00000000000E+00  0.80000000000E+02  0.80000000000E+02 0.  0.
          5    1    3    3  501    0  0.24354686141E+01 -0.25173268606E+02  0.30631438757E+02  0.40000000000E+02  0.47000000000E+01 0. -1.
         -5    1    3    3    0  501 -0.24354686141E+01  0.25173268606E+02 -0.30631438757E+02  0.40000000000E+02  0.47000000000E+01 0.  1.
</event>
<event>
 5    1  0.4872488E-001  0.8000000E+02  0.7546771E-02  0.1203772E+00
         11   -1    0    0    0    0  0.00000000000E+00  0.00000000000E+00  0.40000000000E+02  0.40000000000E+02  0.00000000000E+00 0.  1.
        -11   -1    0    0    0    0 -0.00000000000E+00 -0.00000000000E+00 -0.40000000000E+02  0.40000000000E+02  0.00000000000E+00 0. -1.
         23    2    1    2    0    0  0.00000000000E+00  0.00000000000E+00  0.00000000000E+00  0.80000000000E+02  0.80000000000E+02 0.  0.
          5    1    3    3  501    0  0.23721122630E+02 -0.31545545503E+02 -0.44829566238E+01  0.40000000000E+02  0.47000000000E+01 0. -1.
         -5    1    3    3    0  501 -0.23721122630E+02  0.31545545503E+02  0.44829566238E+01  0.40000000000E+02  0.47000000000E+01 0.  1.
</event>
<event>
 5    1  0.4872488E-001  0.8000000E+02  0.7546771E-02  0.1203772E+00
         11   -1    0    0    0    0  0.00000000000E+00  0.00000000000E+00  0.40000000000E+02  0.40000000000E+02  0.00000000000E+00 0. -1.
        -11   -1    0    0    0    0 -0.00000000000E+00 -0.00000000000E+00 -0.40000000000E+02  0.40000000000E+02  0.00000000000E+00 0.  1.
         23    2    1    2    0    0  0.00000000000E+00  0.00000000000E+00  0.00000000000E+00  0.80000000000E+02  0.80000000000E+02 0.  0.
          5    1    3    3  501    0 -0.10831512967E+02 -0.31017620729E+02  0.22327013485E+02  0.40000000000E+02  0.47000000000E+01 0. -1.
         -5    1    3    3    0  501  0.10831512967E+02  0.31017620729E+02 -0.22327013485E+02  0.40000000000E+02  0.47000000000E+01 0.  1.
</event>
<event>
 5    1  0.4872488E-001  0.8000000E+02  0.7546771E-02  0.1203772E+00
         11   -1    0    0    0    0  0.00000000000E+00  0.00000000000E+00  0.40000000000E+02  0.40000000000E+02  0.00000000000E+00 0. -1.
        -11   -1    0    0    0    0 -0.00000000000E+00 -0.00000000000E+00 -0.40000000000E+02  0.40000000000E+02  0.00000000000E+00 0.  1.
         23    2    1    2    0    0  0.00000000000E+00  0.00000000000E+00  0.00000000000E+00  0.80000000000E+02  0.80000000000E+02 0.  0.
          5    1    3    3  501    0  0.19580768852E+02  0.11174045956E+02  0.32705415272E+02  0.40000000000E+02  0.47000000000E+01 0. -1.
         -5    1    3    3    0  501 -0.19580768852E+02 -0.11174045956E+02 -0.32705415272E+02  0.40000000000E+02  0.47000000000E+01 0.  1.
</event>
<event>
 5    1  0.4872488E-001  0.8000000E+02  0.7546771E-02  0.1203772E+00
         11   -1    0    0    0    0  0.00000000000E+00  0.00000000000E+00  0.40000000000E+02  0.40000000000E+02  0.00000000000E+00 0. -1.
        -11   -1    0    0    0    0 -0.00000000000E+00 -0.00000000000E+00 -0.40000000000E+02  0.40000000000E+02  0.00000000000E+00 0.  1.
         23    2    1    2    0    0  0.00000000000E+00  0.00000000000E+00  0.00000000000E+00  0.80000000000E+02  0.80000000000E+02 0.  0.
          5    1    3    3  501    0  0.14071098052E+02  0.30795130160E+02  0.20774363000E+02  0.40000000000E+02  0.47000000000E+01 0. -1.
         -5    1    3    3    0  501 -0.14071098052E+02 -0.30795130160E+02 -0.20774363000E+02  0.40000000000E+02  0.47000000000E+01 0.  1.
</event>
<event>
 5    1  0.4872488E-001  0.8000000E+02  0.7546771E-02  0.1203772E+00
         11   -1    0    0    0    0  0.00000000000E+00  0.00000000000E+00  0.40000000000E+02  0.40000000000E+02  0.00000000000E+00 0.  1.
        -11   -1    0    0    0    0 -0.00000000000E+00 -0.00000000000E+00 -0.40000000000E+02  0.40000000000E+02  0.00000000000E+00 0. -1.
         23    2    1    2    0    0  0.00000000000E+00  0.00000000000E+00  0.00000000000E+00  0.80000000000E+02  0.80000000000E+02 0.  0.
          5    1    3    3  501    0  0.28704184513E+02  0.24034422208E+02 -0.13278792890E+02  0.40000000000E+02  0.47000000000E+01 0. -1.
         -5    1    3    3    0  501 -0.28704184513E+02 -0.24034422208E+02  0.13278792890E+02  0.40000000000E+02  0.47000000000E+01 0.  1.
</event>
<event>
 5    1  0.4872488E-001  0.8000000E+02  0.7546771E-02  0.1203772E+00
         11   -1    0    0    0    0  0.00000000000E+00  0.00000000000E+00  0.40000000000E+02  0.40000000000E+02  0.00000000000E+00 0. -1.
        -11   -1    0    0    0    0 -0.00000000000E+00 -0.00000000000E+00 -0.40000000000E+02  0.40000000000E+02  0.00000000000E+00 0.  1.
         23    2    1    2    0    0  0.00000000000E+00  0.00000000000E+00  0.00000000000E+00  0.80000000000E+02  0.80000000000E+02 0.  0.
          5    1    3    3  501    0  0.68169961295E+00 -0.36912371360E+02  0.14660222584E+02  0.40000000000E+02  0.47000000000E+01 0. -1.
         -5    1    3    3    0  501 -0.68169961295E+00  0.36912371360E+02 -0.14660222584E+02  0.40000000000E+02  0.47000000000E+01 0.  1.
</event>
<event>
 5    1  0.4872488E-001  0.8000000E+02  0.7546771E-02  0.1203772E+00
         11   -1    0    0    0    0  0.00000000000E+00  0.00000000000E+00  0.40000000000E+02  0.40000000000E+02  0.00000000000E+00 0.  1.
        -11   -1    0    0    0    0 -0.00000000000E+00 -0.00000000000E+00 -0.40000000000E+02  0.40000000000E+02  0.00000000000E+00 0. -1.
         23    2    1    2    0    0  0.00000000000E+00  0.00000000000E+00  0.00000000000E+00  0.80000000000E+02  0.80000000000E+02 0.  0.
          5    1    3    3  501    0  0.16811589613E+01  0.12394128416E+02 -0.37702377715E+02  0.40000000000E+02  0.47000000000E+01 0. -1.
         -5    1    3    3    0  501 -0.16811589613E+01 -0.12394128416E+02  0.37702377715E+02  0.40000000000E+02  0.47000000000E+01 0.  1.
</event>
<event>
 5    1  0.4872488E-001  0.8000000E+02  0.7546771E-02  0.1203772E+00
         11   -1    0    0    0    0  0.00000000000E+00  0.00000000000E+00  0.40000000000E+02  0.40000000000E+02  0.00000000000E+00 0. -1.
        -11   -1    0    0    0    0 -0.00000000000E+00 -0.00000000000E+00 -0.40000000000E+02  0.40000000000E+02  0.00000000000E+00 0.  1.
         23    2    1    2    0    0  0.00000000000E+00  0.00000000000E+00  0.00000000000E+00  0.80000000000E+02  0.80000000000E+02 0.  0.
          5    1    3    3  501    0  0.31172636756E+02  0.24589761194E+02  0.12330296309E+01  0.40000000000E+02  0.47000000000E+01 0. -1.
         -5    1    3    3    0  501 -0.31172636756E+02 -0.24589761194E+02 -0.12330296309E+01  0.40000000000E+02  0.47000000000E+01 0.  1.
</event>
<event>
 5    1  0.4872488E-001  0.8000000E+02  0.7546771E-02  0.1203772E+00
         11   -1    0    0    0    0  0.00000000000E+00  0.00000000000E+00  0.40000000000E+02  0.40000000000E+02  0.00000000000E+00 0. -1.
        -11   -1    0    0    0    0 -0.00000000000E+00 -0.00000000000E+00 -0.40000000000E+02  0.40000000000E+02  0.00000000000E+00 0.  1.
         23    2    1    2    0    0  0.00000000000E+00  0.00000000000E+00  0.00000000000E+00  0.80000000000E+02  0.80000000000E+02 0.  0.
          5    1    3    3  501    0  0.26666257049E+02 -0.27357778255E+02 -0.10879922056E+02  0.40000000000E+02  0.47000000000E+01 0. -1.
         -5    1    3    3    0  501 -0.26666257049E+02  0.27357778255E+02  0.10879922056E+02  0.40000000000E+02  0.47000000000E+01 0.  1.
</event>
<event>
 5    1  0.4872488E-001  0.8000000E+02  0.7546771E-02  0.1203772E+00
         11   -1    0    0    0    0  0.00000000000E+00  0.00000000000E+00  0.40000000000E+02  0.40000000000E+02  0.00000000000E+00 0.  1.
        -11   -1    0    0    0    0 -0.00000000000E+00 -0.00000000000E+00 -0.40000000000E+02  0.40000000000E+02  0.00000000000E+00 0. -1.
         23    2    1    2    0    0  0.00000000000E+00  0.00000000000E+00  0.00000000000E+00  0.80000000000E+02  0.80000000000E+02 0.  0.
          5    1    3    3  501    0 -0.32936428859E+02  0.39742763942E+01 -0.21847351811E+02  0.40000000000E+02  0.47000000000E+01 0. -1.
         -5    1    3    3    0  501  0.32936428859E+02 -0.39742763942E+01  0.21847351811E+02  0.40000000000E+02  0.47000000000E+01 0.  1.
</event>
<event>
 5    1  0.4872488E-001  0.8000000E+02  0.7546771E-02  0.1203772E+00
         11   -1    0    0    0    0  0.00000000000E+00  0.00000000000E+00  0.40000000000E+02  0.40000000000E+02  0.00000000000E+00 0.  1.
        -11   -1    0    0    0    0 -0.00000000000E+00 -0.00000000000E+00 -0.40000000000E+02  0.40000000000E+02  0.00000000000E+00 0. -1.
         23    2    1    2    0    0  0.00000000000E+00  0.00000000000E+00  0.00000000000E+00  0.80000000000E+02  0.80000000000E+02 0.  0.
          5    1    3    3  501    0 -0.31365377045E+02  0.18797725188E+02 -0.15516721644E+02  0.40000000000E+02  0.47000000000E+01 0. -1.
         -5    1    3    3    0  501  0.31365377045E+02 -0.18797725188E+02  0.15516721644E+02  0.40000000000E+02  0.47000000000E+01 0.  1.
</event>
<event>
 5    1  0.4872488E-001  0.8000000E+02  0.7546771E-02  0.1203772E+00
         11   -1    0    0    0    0  0.00000000000E+00  0.00000000000E+00  0.40000000000E+02  0.40000000000E+02  0.00000000000E+00 0. -1.
        -11   -1    0    0    0    0 -0.00000000000E+00 -0.00000000000E+00 -0.40000000000E+02  0.40000000000E+02  0.00000000000E+00 0.  1.
         23    2    1    2    0    0  0.00000000000E+00  0.00000000000E+00  0.00000000000E+00  0.80000000000E+02  0.80000000000E+02 0.  0.
          5    1    3    3  501    0  0.30571867436E+02  0.93361182196E+01  0.23581938387E+02  0.40000000000E+02  0.47000000000E+01 0. -1.
         -5    1    3    3    0  501 -0.30571867436E+02 -0.93361182196E+01 -0.23581938387E+02  0.40000000000E+02  0.47000000000E+01 0.  1.
</event>
<event>
 5    1  0.4872488E-001  0.8000000E+02  0.7546771E-02  0.1203772E+00
         11   -1    0    0    0    0  0.00000000000E+00  0.00000000000E+00  0.40000000000E+02  0.40000000000E+02  0.00000000000E+00 0.  1.
        -11   -1    0    0    0    0 -0.00000000000E+00 -0.00000000000E+00 -0.40000000000E+02  0.40000000000E+02  0.00000000000E+00 0. -1.
         23    2    1    2    0    0  0.00000000000E+00  0.00000000000E+00  0.00000000000E+00  0.80000000000E+02  0.80000000000E+02 0.  0.
          5    1    3    3  501    0 -0.31764463238E+02 -0.17553669479E+01 -0.23787550569E+02  0.40000000000E+02  0.47000000000E+01 0. -1.
         -5    1    3    3    0  501  0.31764463238E+02  0.17553669479E+01  0.23787550569E+02  0.40000000000E+02  0.47000000000E+01 0.  1.
</event>
<event>
 5    1  0.4872488E-001  0.8000000E+02  0.7546771E-02  0.1203772E+00
         11   -1    0    0    0    0  0.00000000000E+00  0.00000000000E+00  0.40000000000E+02  0.40000000000E+02  0.00000000000E+00 0.  1.
        -11   -1    0    0    0    0 -0.00000000000E+00 -0.00000000000E+00 -0.40000000000E+02  0.40000000000E+02  0.00000000000E+00 0. -1.
         23    2    1    2    0    0  0.00000000000E+00  0.00000000000E+00  0.00000000000E+00  0.80000000000E+02  0.80000000000E+02 0.  0.
          5    1    3    3  501    0 -0.18708080195E+02 -0.33890024330E+02 -0.89097691525E+01  0.40000000000E+02  0.47000000000E+01 0. -1.
         -5    1    3    3    0  501  0.18708080195E+02  0.33890024330E+02  0.89097691525E+01  0.40000000000E+02  0.47000000000E+01 0.  1.
</event>
<event>
 5    1  0.4872488E-001  0.8000000E+02  0.7546771E-02  0.1203772E+00
         11   -1    0    0    0    0  0.00000000000E+00  0.00000000000E+00  0.40000000000E+02  0.40000000000E+02  0.00000000000E+00 0.  1.
        -11   -1    0    0    0    0 -0.00000000000E+00 -0.00000000000E+00 -0.40000000000E+02  0.40000000000E+02  0.00000000000E+00 0. -1.
         23    2    1    2    0    0  0.00000000000E+00  0.00000000000E+00  0.00000000000E+00  0.80000000000E+02  0.80000000000E+02 0.  0.
          5    1    3    3  501    0  0.24221882020E+02  0.16411645653E+02 -0.26867607232E+02  0.40000000000E+02  0.47000000000E+01 0. -1.
         -5    1    3    3    0  501 -0.24221882020E+02 -0.16411645653E+02  0.26867607232E+02  0.40000000000E+02  0.47000000000E+01 0.  1.
</event>
<event>
 5    1  0.4872488E-001  0.8000000E+02  0.7546771E-02  0.1203772E+00
         11   -1    0    0    0    0  0.00000000000E+00  0.00000000000E+00  0.40000000000E+02  0.40000000000E+02  0.00000000000E+00 0.  1.
        -11   -1    0    0    0    0 -0.00000000000E+00 -0.00000000000E+00 -0.40000000000E+02  0.40000000000E+02  0.00000000000E+00 0. -1.
         23    2    1    2    0    0  0.00000000000E+00  0.00000000000E+00  0.00000000000E+00  0.80000000000E+02  0.80000000000E+02 0.  0.
          5    1    3    3  501    0  0.22982258008E+02  0.11427317653E+02 -0.30317358528E+02  0.40000000000E+02  0.47000000000E+01 0. -1.
         -5    1    3    3    0  501 -0.22982258008E+02 -0.11427317653E+02  0.30317358528E+02  0.40000000000E+02  0.47000000000E+01 0.  1.
</event>
<event>
 5    1  0.4872488E-001  0.8000000E+02  0.7546771E-02  0.1203772E+00
         11   -1    0    0    0    0  0.00000000000E+00  0.00000000000E+00  0.40000000000E+02  0.40000000000E+02  0.00000000000E+00 0.  1.
        -11   -1    0    0    0    0 -0.00000000000E+00 -0.00000000000E+00 -0.40000000000E+02  0.40000000000E+02  0.00000000000E+00 0. -1.
         23    2    1    2    0    0  0.00000000000E+00  0.00000000000E+00  0.00000000000E+00  0.80000000000E+02  0.80000000000E+02 0.  0.
          5    1    3    3  501    0 -0.38573817581E+02 -0.79382567680E+01  0.51917893524E+01  0.40000000000E+02  0.47000000000E+01 0. -1.
         -5    1    3    3    0  501  0.38573817581E+02  0.79382567680E+01 -0.51917893524E+01  0.40000000000E+02  0.47000000000E+01 0.  1.
</event>
<event>
 5    1  0.4872488E-001  0.8000000E+02  0.7546771E-02  0.1203772E+00
         11   -1    0    0    0    0  0.00000000000E+00  0.00000000000E+00  0.40000000000E+02  0.40000000000E+02  0.00000000000E+00 0. -1.
        -11   -1    0    0    0    0 -0.00000000000E+00 -0.00000000000E+00 -0.40000000000E+02  0.40000000000E+02  0.00000000000E+00 0.  1.
         23    2    1    2    0    0  0.00000000000E+00  0.00000000000E+00  0.00000000000E+00  0.80000000000E+02  0.80000000000E+02 0.  0.
          5    1    3    3  501    0  0.37496388229E+00 -0.20731848335E+02  0.33881556439E+02  0.40000000000E+02  0.47000000000E+01 0. -1.
         -5    1    3    3    0  501 -0.37496388229E+00  0.20731848335E+02 -0.33881556439E+02  0.40000000000E+02  0.47000000000E+01 0.  1.
</event>
<event>
 5    1  0.4872488E-001  0.8000000E+02  0.7546771E-02  0.1203772E+00
         11   -1    0    0    0    0  0.00000000000E+00  0.00000000000E+00  0.40000000000E+02  0.40000000000E+02  0.00000000000E+00 0. -1.
        -11   -1    0    0    0    0 -0.00000000000E+00 -0.00000000000E+00 -0.40000000000E+02  0.40000000000E+02  0.00000000000E+00 0.  1.
         23    2    1    2    0    0  0.00000000000E+00  0.00000000000E+00  0.00000000000E+00  0.80000000000E+02  0.80000000000E+02 0.  0.
          5    1    3    3  501    0 -0.39408098299E+02 -0.49727863229E+01 -0.42800075783E+00  0.40000000000E+02  0.47000000000E+01 0. -1.
         -5    1    3    3    0  501  0.39408098299E+02  0.49727863229E+01  0.42800075783E+00  0.40000000000E+02  0.47000000000E+01 0.  1.
</event>
<event>
 5    1  0.4872488E-001  0.8000000E+02  0.7546771E-02  0.1203772E+00
         11   -1    0    0    0    0  0.00000000000E+00  0.00000000000E+00  0.40000000000E+02  0.40000000000E+02  0.00000000000E+00 0. -1.
        -11   -1    0    0    0    0 -0.00000000000E+00 -0.00000000000E+00 -0.40000000000E+02  0.40000000000E+02  0.00000000000E+00 0.  1.
         23    2    1    2    0    0  0.00000000000E+00  0.00000000000E+00  0.00000000000E+00  0.80000000000E+02  0.80000000000E+02 0.  0.
          5    1    3    3  501    0  0.14123974730E+02 -0.25994742614E+02  0.26508426854E+02  0.40000000000E+02  0.47000000000E+01 0. -1.
         -5    1    3    3    0  501 -0.14123974730E+02  0.25994742614E+02 -0.26508426854E+02  0.40000000000E+02  0.47000000000E+01 0.  1.
</event>
<event>
 5    1  0.4872488E-001  0.8000000E+02  0.7546771E-02  0.1203772E+00
         11   -1    0    0    0    0  0.00000000000E+00  0.00000000000E+00  0.40000000000E+02  0.40000000000E+02  0.00000000000E+00 0.  1.
        -11   -1    0    0    0    0 -0.00000000000E+00 -0.00000000000E+00 -0.40000000000E+02  0.40000000000E+02  0.00000000000E+00 0. -1.
         23    2    1    2    0    0  0.00000000000E+00  0.00000000000E+00  0.00000000000E+00  0.80000000000E+02  0.80000000000E+02 0.  0.
          5    1    3    3  501    0 -0.19895078322E+02  0.31144196694E+02 -0.14564850526E+02  0.40000000000E+02  0.47000000000E+01 0. -1.
         -5    1    3    3    0  501  0.19895078322E+02 -0.31144196694E+02  0.14564850526E+02  0.40000000000E+02  0.47000000000E+01 0.  1.
</event>
<event>
 5    1  0.4872488E-001  0.8000000E+02  0.7546771E-02  0.1203772E+00
         11   -1    0    0    0    0  0.00000000000E+00  0.00000000000E+00  0.40000000000E+02  0.40000000000E+02  0.00000000000E+00 0.  1.
        -11   -1    0    0    0    0 -0.00000000000E+00 -0.00000000000E+00 -0.40000000000E+02  0.40000000000E+02  0.00000000000E+00 0. -1.
         23    2    1    2    0    0  0.00000000000E+00  0.00000000000E+00  0.00000000000E+00  0.80000000000E+02  0.80000000000E+02 0.  0.
          5    1    3    3  501    0 -0.26102799375E+02 -0.19821528231E+01 -0.29876829399E+02  0.40000000000E+02  0.47000000000E+01 0. -1.
         -5    1    3    3    0  501  0.26102799375E+02  0.19821528231E+01  0.29876829399E+02  0.40000000000E+02  0.47000000000E+01 0.  1.
</event>
<event>
 5    1  0.4872488E-001  0.8000000E+02  0.7546771E-02  0.1203772E+00
         11   -1    0    0    0    0  0.00000000000E+00  0.00000000000E+00  0.40000000000E+02  0.40000000000E+02  0.00000000000E+00 0.  1.
        -11   -1    0    0    0    0 -0.00000000000E+00 -0.00000000000E+00 -0.40000000000E+02  0.40000000000E+02  0.00000000000E+00 0. -1.
         23    2    1    2    0    0  0.00000000000E+00  0.00000000000E+00  0.00000000000E+00  0.80000000000E+02  0.80000000000E+02 0.  0.
          5    1    3    3  501    0  0.28090360327E+02 -0.15417632369E+02 -0.23476334229E+02  0.40000000000E+02  0.47000000000E+01 0. -1.
         -5    1    3    3    0  501 -0.28090360327E+02  0.15417632369E+02  0.23476334229E+02  0.40000000000E+02  0.47000000000E+01 0.  1.
</event>
<event>
 5    1  0.4872488E-001  0.8000000E+02  0.7546771E-02  0.1203772E+00
         11   -1    0    0    0    0  0.00000000000E+00  0.00000000000E+00  0.40000000000E+02  0.40000000000E+02  0.00000000000E+00 0.  1.
        -11   -1    0    0    0    0 -0.00000000000E+00 -0.00000000000E+00 -0.40000000000E+02  0.40000000000E+02  0.00000000000E+00 0. -1.
         23    2    1    2    0    0  0.00000000000E+00  0.00000000000E+00  0.00000000000E+00  0.80000000000E+02  0.80000000000E+02 0.  0.
          5    1    3    3  501    0 -0.36148870632E+02  0.32515160972E+01  0.16143010720E+02  0.40000000000E+02  0.47000000000E+01 0. -1.
         -5    1    3    3    0  501  0.36148870632E+02 -0.32515160972E+01 -0.16143010720E+02  0.40000000000E+02  0.47000000000E+01 0.  1.
</event>
<event>
 5    1  0.4872488E-001  0.8000000E+02  0.7546771E-02  0.1203772E+00
         11   -1    0    0    0    0  0.00000000000E+00  0.00000000000E+00  0.40000000000E+02  0.40000000000E+02  0.00000000000E+00 0.  1.
        -11   -1    0    0    0    0 -0.00000000000E+00 -0.00000000000E+00 -0.40000000000E+02  0.40000000000E+02  0.00000000000E+00 0. -1.
         23    2    1    2    0    0  0.00000000000E+00  0.00000000000E+00  0.00000000000E+00  0.80000000000E+02  0.80000000000E+02 0.  0.
          5    1    3    3  501    0  0.14633741217E+02 -0.27914197910E+02 -0.24177699912E+02  0.40000000000E+02  0.47000000000E+01 0. -1.
         -5    1    3    3    0  501 -0.14633741217E+02  0.27914197910E+02  0.24177699912E+02  0.40000000000E+02  0.47000000000E+01 0.  1.
</event>
<event>
 5    1  0.4872488E-001  0.8000000E+02  0.7546771E-02  0.1203772E+00
         11   -1    0    0    0    0  0.00000000000E+00  0.00000000000E+00  0.40000000000E+02  0.40000000000E+02  0.00000000000E+00 0. -1.
        -11   -1    0    0    0    0 -0.00000000000E+00 -0.00000000000E+00 -0.40000000000E+02  0.40000000000E+02  0.00000000000E+00 0.  1.
         23    2    1    2    0    0  0.00000000000E+00  0.00000000000E+00  0.00000000000E+00  0.80000000000E+02  0.80000000000E+02 0.  0.
          5    1    3    3  501    0  0.37160429601E+02 -0.11257563091E+02 -0.83833015654E+01  0.40000000000E+02  0.47000000000E+01 0. -1.
         -5    1    3    3    0  501 -0.37160429601E+02  0.11257563091E+02  0.83833015654E+01  0.40000000000E+02  0.47000000000E+01 0.  1.
</event>
<event>
 5    1  0.4872488E-001  0.8000000E+02  0.7546771E-02  0.1203772E+00
         11   -1    0    0    0    0  0.00000000000E+00  0.00000000000E+00  0.40000000000E+02  0.40000000000E+02  0.00000000000E+00 0.  1.
        -11   -1    0    0    0    0 -0.00000000000E+00 -0.00000000000E+00 -0.40000000000E+02  0.40000000000E+02  0.00000000000E+00 0. -1.
         23    2    1    2    0    0  0.00000000000E+00  0.00000000000E+00  0.00000000000E+00  0.80000000000E+02  0.80000000000E+02 0.  0.
          5    1    3    3  501    0  0.12873961092E+02 -0.29116672033E+02 -0.23756905008E+02  0.40000000000E+02  0.47000000000E+01 0. -1.
         -5    1    3    3    0  501 -0.12873961092E+02  0.29116672033E+02  0.23756905008E+02  0.40000000000E+02  0.47000000000E+01 0.  1.
</event>
<event>
 5    1  0.4872488E-001  0.8000000E+02  0.7546771E-02  0.1203772E+00
         11   -1    0    0    0    0  0.00000000000E+00  0.00000000000E+00  0.40000000000E+02  0.40000000000E+02  0.00000000000E+00 0. -1.
        -11   -1    0    0    0    0 -0.00000000000E+00 -0.00000000000E+00 -0.40000000000E+02  0.40000000000E+02  0.00000000000E+00 0.  1.
         23    2    1    2    0    0  0.00000000000E+00  0.00000000000E+00  0.00000000000E+00  0.80000000000E+02  0.80000000000E+02 0.  0.
          5    1    3    3  501    0 -0.11749338225E+02  0.22094267973E+02  0.30849738638E+02  0.40000000000E+02  0.47000000000E+01 0. -1.
         -5    1    3    3    0  501  0.11749338225E+02 -0.22094267973E+02 -0.30849738638E+02  0.40000000000E+02  0.47000000000E+01 0.  1.
</event>
<event>
 5    1  0.4872488E-001  0.8000000E+02  0.7546771E-02  0.1203772E+00
         11   -1    0    0    0    0  0.00000000000E+00  0.00000000000E+00  0.40000000000E+02  0.40000000000E+02  0.00000000000E+00 0. -1.
        -11   -1    0    0    0    0 -0.00000000000E+00 -0.00000000000E+00 -0.40000000000E+02  0.40000000000E+02  0.00000000000E+00 0.  1.
         23    2    1    2    0    0  0.00000000000E+00  0.00000000000E+00  0.00000000000E+00  0.80000000000E+02  0.80000000000E+02 0.  0.
          5    1    3    3  501    0  0.11907515879E+01 -0.15636582824E+02  0.36496429802E+02  0.40000000000E+02  0.47000000000E+01 0. -1.
         -5    1    3    3    0  501 -0.11907515879E+01  0.15636582824E+02 -0.36496429802E+02  0.40000000000E+02  0.47000000000E+01 0.  1.
</event>
<event>
 5    1  0.4872488E-001  0.8000000E+02  0.7546771E-02  0.1203772E+00
         11   -1    0    0    0    0  0.00000000000E+00  0.00000000000E+00  0.40000000000E+02  0.40000000000E+02  0.00000000000E+00 0.  1.
        -11   -1    0    0    0    0 -0.00000000000E+00 -0.00000000000E+00 -0.40000000000E+02  0.40000000000E+02  0.00000000000E+00 0. -1.
         23    2    1    2    0    0  0.00000000000E+00  0.00000000000E+00  0.00000000000E+00  0.80000000000E+02  0.80000000000E+02 0.  0.
          5    1    3    3  501    0  0.17185870918E+02  0.28738736727E+02 -0.21369156560E+02  0.40000000000E+02  0.47000000000E+01 0. -1.
         -5    1    3    3    0  501 -0.17185870918E+02 -0.28738736727E+02  0.21369156560E+02  0.40000000000E+02  0.47000000000E+01 0.  1.
</event>
<event>
 5    1  0.4872488E-001  0.8000000E+02  0.7546771E-02  0.1203772E+00
         11   -1    0    0    0    0  0.00000000000E+00  0.00000000000E+00  0.40000000000E+02  0.40000000000E+02  0.00000000000E+00 0.  1.
        -11   -1    0    0    0    0 -0.00000000000E+00 -0.00000000000E+00 -0.40000000000E+02  0.40000000000E+02  0.00000000000E+00 0. -1.
         23    2    1    2    0    0  0.00000000000E+00  0.00000000000E+00  0.00000000000E+00  0.80000000000E+02  0.80000000000E+02 0.  0.
          5    1    3    3  501    0  0.33996247381E+02  0.18951712048E+02 -0.79371137384E+01  0.40000000000E+02  0.47000000000E+01 0. -1.
         -5    1    3    3    0  501 -0.33996247381E+02 -0.18951712048E+02  0.79371137384E+01  0.40000000000E+02  0.47000000000E+01 0.  1.
</event>
<event>
 5    1  0.4872488E-001  0.8000000E+02  0.7546771E-02  0.1203772E+00
         11   -1    0    0    0    0  0.00000000000E+00  0.00000000000E+00  0.40000000000E+02  0.40000000000E+02  0.00000000000E+00 0. -1.
        -11   -1    0    0    0    0 -0.00000000000E+00 -0.00000000000E+00 -0.40000000000E+02  0.40000000000E+02  0.00000000000E+00 0.  1.
         23    2    1    2    0    0  0.00000000000E+00  0.00000000000E+00  0.00000000000E+00  0.80000000000E+02  0.80000000000E+02 0.  0.
          5    1    3    3  501    0  0.89206807910E+01  0.37461737168E+02  0.97442138017E+01  0.40000000000E+02  0.47000000000E+01 0. -1.
         -5    1    3    3    0  501 -0.89206807910E+01 -0.37461737168E+02 -0.97442138017E+01  0.40000000000E+02  0.47000000000E+01 0.  1.
</event>
<event>
 5    1  0.4872488E-001  0.8000000E+02  0.7546771E-02  0.1203772E+00
         11   -1    0    0    0    0  0.00000000000E+00  0.00000000000E+00  0.40000000000E+02  0.40000000000E+02  0.00000000000E+00 0. -1.
        -11   -1    0    0    0    0 -0.00000000000E+00 -0.00000000000E+00 -0.40000000000E+02  0.40000000000E+02  0.00000000000E+00 0.  1.
         23    2    1    2    0    0  0.00000000000E+00  0.00000000000E+00  0.00000000000E+00  0.80000000000E+02  0.80000000000E+02 0.  0.
          5    1    3    3  501    0  0.10038995568E+02  0.29877706615E+02 -0.24175425858E+02  0.40000000000E+02  0.47000000000E+01 0. -1.
         -5    1    3    3    0  501 -0.10038995568E+02 -0.29877706615E+02  0.24175425858E+02  0.40000000000E+02  0.47000000000E+01 0.  1.
</event>
<event>
 5    1  0.4872488E-001  0.8000000E+02  0.7546771E-02  0.1203772E+00
         11   -1    0    0    0    0  0.00000000000E+00  0.00000000000E+00  0.40000000000E+02  0.40000000000E+02  0.00000000000E+00 0. -1.
        -11   -1    0    0    0    0 -0.00000000000E+00 -0.00000000000E+00 -0.40000000000E+02  0.40000000000E+02  0.00000000000E+00 0.  1.
         23    2    1    2    0    0  0.00000000000E+00  0.00000000000E+00  0.00000000000E+00  0.80000000000E+02  0.80000000000E+02 0.  0.
          5    1    3    3  501    0  0.30836902837E+02 -0.15831183850E+02  0.19400233022E+02  0.40000000000E+02  0.47000000000E+01 0. -1.
         -5    1    3    3    0  501 -0.30836902837E+02  0.15831183850E+02 -0.19400233022E+02  0.40000000000E+02  0.47000000000E+01 0.  1.
</event>
<event>
 5    1  0.4872488E-001  0.8000000E+02  0.7546771E-02  0.1203772E+00
         11   -1    0    0    0    0  0.00000000000E+00  0.00000000000E+00  0.40000000000E+02  0.40000000000E+02  0.00000000000E+00 0.  1.
        -11   -1    0    0    0    0 -0.00000000000E+00 -0.00000000000E+00 -0.40000000000E+02  0.40000000000E+02  0.00000000000E+00 0. -1.
         23    2    1    2    0    0  0.00000000000E+00  0.00000000000E+00  0.00000000000E+00  0.80000000000E+02  0.80000000000E+02 0.  0.
          5    1    3    3  501    0 -0.37149245466E+02 -0.58306438475E+01 -0.12800279435E+02  0.40000000000E+02  0.47000000000E+01 0. -1.
         -5    1    3    3    0  501  0.37149245466E+02  0.58306438475E+01  0.12800279435E+02  0.40000000000E+02  0.47000000000E+01 0.  1.
</event>
<event>
 5    1  0.4872488E-001  0.8000000E+02  0.7546771E-02  0.1203772E+00
         11   -1    0    0    0    0  0.00000000000E+00  0.00000000000E+00  0.40000000000E+02  0.40000000000E+02  0.00000000000E+00 0. -1.
        -11   -1    0    0    0    0 -0.00000000000E+00 -0.00000000000E+00 -0.40000000000E+02  0.40000000000E+02  0.00000000000E+00 0.  1.
         23    2    1    2    0    0  0.00000000000E+00  0.00000000000E+00  0.00000000000E+00  0.80000000000E+02  0.80000000000E+02 0.  0.
          5    1    3    3  501    0  0.16293995150E+02 -0.33751734651E+01  0.36069709261E+02  0.40000000000E+02  0.47000000000E+01 0. -1.
         -5    1    3    3    0  501 -0.16293995150E+02  0.33751734651E+01 -0.36069709261E+02  0.40000000000E+02  0.47000000000E+01 0.  1.
</event>
<event>
 5    1  0.4872488E-001  0.8000000E+02  0.7546771E-02  0.1203772E+00
         11   -1    0    0    0    0  0.00000000000E+00  0.00000000000E+00  0.40000000000E+02  0.40000000000E+02  0.00000000000E+00 0. -1.
        -11   -1    0    0    0    0 -0.00000000000E+00 -0.00000000000E+00 -0.40000000000E+02  0.40000000000E+02  0.00000000000E+00 0.  1.
         23    2    1    2    0    0  0.00000000000E+00  0.00000000000E+00  0.00000000000E+00  0.80000000000E+02  0.80000000000E+02 0.  0.
          5    1    3    3  501    0  0.31749485273E+02 -0.15958536997E+02  0.17754021567E+02  0.40000000000E+02  0.47000000000E+01 0. -1.
         -5    1    3    3    0  501 -0.31749485273E+02  0.15958536997E+02 -0.17754021567E+02  0.40000000000E+02  0.47000000000E+01 0.  1.
</event>
<event>
 5    1  0.4872488E-001  0.8000000E+02  0.7546771E-02  0.1203772E+00
         11   -1    0    0    0    0  0.00000000000E+00  0.00000000000E+00  0.40000000000E+02  0.40000000000E+02  0.00000000000E+00 0. -1.
        -11   -1    0    0    0    0 -0.00000000000E+00 -0.00000000000E+00 -0.40000000000E+02  0.40000000000E+02  0.00000000000E+00 0.  1.
         23    2    1    2    0    0  0.00000000000E+00  0.00000000000E+00  0.00000000000E+00  0.80000000000E+02  0.80000000000E+02 0.  0.
          5    1    3    3  501    0  0.14735014726E+02 -0.27686986649E+01  0.36784829057E+02  0.40000000000E+02  0.47000000000E+01 0. -1.
         -5    1    3    3    0  501 -0.14735014726E+02  0.27686986649E+01 -0.36784829057E+02  0.40000000000E+02  0.47000000000E+01 0.  1.
</event>
<event>
 5    1  0.4872488E-001  0.8000000E+02  0.7546771E-02  0.1203772E+00
         11   -1    0    0    0    0  0.00000000000E+00  0.00000000000E+00  0.40000000000E+02  0.40000000000E+02  0.00000000000E+00 0.  1.
        -11   -1    0    0    0    0 -0.00000000000E+00 -0.00000000000E+00 -0.40000000000E+02  0.40000000000E+02  0.00000000000E+00 0. -1.
         23    2    1    2    0    0  0.00000000000E+00  0.00000000000E+00  0.00000000000E+00  0.80000000000E+02  0.80000000000E+02 0.  0.
          5    1    3    3  501    0  0.30758095354E+02 -0.23099171149E+02 -0.99135191743E+01  0.40000000000E+02  0.47000000000E+01 0. -1.
         -5    1    3    3    0  501 -0.30758095354E+02  0.23099171149E+02  0.99135191743E+01  0.40000000000E+02  0.47000000000E+01 0.  1.
</event>
<event>
 5    1  0.4872488E-001  0.8000000E+02  0.7546771E-02  0.1203772E+00
         11   -1    0    0    0    0  0.00000000000E+00  0.00000000000E+00  0.40000000000E+02  0.40000000000E+02  0.00000000000E+00 0.  1.
        -11   -1    0    0    0    0 -0.00000000000E+00 -0.00000000000E+00 -0.40000000000E+02  0.40000000000E+02  0.00000000000E+00 0. -1.
         23    2    1    2    0    0  0.00000000000E+00  0.00000000000E+00  0.00000000000E+00  0.80000000000E+02  0.80000000000E+02 0.  0.
          5    1    3    3  501    0 -0.13223220192E+02  0.34065188158E+02  0.15576244846E+02  0.40000000000E+02  0.47000000000E+01 0. -1.
         -5    1    3    3    0  501  0.13223220192E+02 -0.34065188158E+02 -0.15576244846E+02  0.40000000000E+02  0.47000000000E+01 0.  1.
</event>
<event>
 5    1  0.4872488E-001  0.8000000E+02  0.7546771E-02  0.1203772E+00
         11   -1    0    0    0    0  0.00000000000E+00  0.00000000000E+00  0.40000000000E+02  0.40000000000E+02  0.00000000000E+00 0.  1.
        -11   -1    0    0    0    0 -0.00000000000E+00 -0.00000000000E+00 -0.40000000000E+02  0.40000000000E+02  0.00000000000E+00 0. -1.
         23    2    1    2    0    0  0.00000000000E+00  0.00000000000E+00  0.00000000000E+00  0.80000000000E+02  0.80000000000E+02 0.  0.
          5    1    3    3  501    0  0.31254346867E+02 -0.23492234313E+02 -0.70136102636E+01  0.40000000000E+02  0.47000000000E+01 0. -1.
         -5    1    3    3    0  501 -0.31254346867E+02  0.23492234313E+02  0.70136102636E+01  0.40000000000E+02  0.47000000000E+01 0.  1.
</event>
<event>
 5    1  0.4872488E-001  0.8000000E+02  0.7546771E-02  0.1203772E+00
         11   -1    0    0    0    0  0.00000000000E+00  0.00000000000E+00  0.40000000000E+02  0.40000000000E+02  0.00000000000E+00 0. -1.
        -11   -1    0    0    0    0 -0.00000000000E+00 -0.00000000000E+00 -0.40000000000E+02  0.40000000000E+02  0.00000000000E+00 0.  1.
         23    2    1    2    0    0  0.00000000000E+00  0.00000000000E+00  0.00000000000E+00  0.80000000000E+02  0.80000000000E+02 0.  0.
          5    1    3    3  501    0 -0.44971455020E+01  0.37970287554E+02  0.10767680596E+02  0.40000000000E+02  0.47000000000E+01 0. -1.
         -5    1    3    3    0  501  0.44971455020E+01 -0.37970287554E+02 -0.10767680596E+02  0.40000000000E+02  0.47000000000E+01 0.  1.
</event>
<event>
 5    1  0.4872488E-001  0.8000000E+02  0.7546771E-02  0.1203772E+00
         11   -1    0    0    0    0  0.00000000000E+00  0.00000000000E+00  0.40000000000E+02  0.40000000000E+02  0.00000000000E+00 0.  1.
        -11   -1    0    0    0    0 -0.00000000000E+00 -0.00000000000E+00 -0.40000000000E+02  0.40000000000E+02  0.00000000000E+00 0. -1.
         23    2    1    2    0    0  0.00000000000E+00  0.00000000000E+00  0.00000000000E+00  0.80000000000E+02  0.80000000000E+02 0.  0.
          5    1    3    3  501    0  0.84932999637E+01  0.34132298230E+02 -0.18459687788E+02  0.40000000000E+02  0.47000000000E+01 0. -1.
         -5    1    3    3    0  501 -0.84932999637E+01 -0.34132298230E+02  0.18459687788E+02  0.40000000000E+02  0.47000000000E+01 0.  1.
</event>
<event>
 5    1  0.4872488E-001  0.8000000E+02  0.7546771E-02  0.1203772E+00
         11   -1    0    0    0    0  0.00000000000E+00  0.00000000000E+00  0.40000000000E+02  0.40000000000E+02  0.00000000000E+00 0. -1.
        -11   -1    0    0    0    0 -0.00000000000E+00 -0.00000000000E+00 -0.40000000000E+02  0.40000000000E+02  0.00000000000E+00 0.  1.
         23    2    1    2    0    0  0.00000000000E+00  0.00000000000E+00  0.00000000000E+00  0.80000000000E+02  0.80000000000E+02 0.  0.
          5    1    3    3  501    0 -0.31603025382E+02 -0.79731599767E+01 -0.22706552066E+02  0.40000000000E+02  0.47000000000E+01 0.  1.
         -5    1    3    3    0  501  0.31603025382E+02  0.79731599767E+01  0.22706552066E+02  0.40000000000E+02  0.47000000000E+01 0. -1.
</event>
<event>
 5    1  0.4872488E-001  0.8000000E+02  0.7546771E-02  0.1203772E+00
         11   -1    0    0    0    0  0.00000000000E+00  0.00000000000E+00  0.40000000000E+02  0.40000000000E+02  0.00000000000E+00 0.  1.
        -11   -1    0    0    0    0 -0.00000000000E+00 -0.00000000000E+00 -0.40000000000E+02  0.40000000000E+02  0.00000000000E+00 0. -1.
         23    2    1    2    0    0  0.00000000000E+00  0.00000000000E+00  0.00000000000E+00  0.80000000000E+02  0.80000000000E+02 0.  0.
          5    1    3    3  501    0 -0.23022839425E+02 -0.53483379255E+01 -0.31925759917E+02  0.40000000000E+02  0.47000000000E+01 0. -1.
         -5    1    3    3    0  501  0.23022839425E+02  0.53483379255E+01  0.31925759917E+02  0.40000000000E+02  0.47000000000E+01 0.  1.
</event>
<event>
 5    1  0.4872488E-001  0.8000000E+02  0.7546771E-02  0.1203772E+00
         11   -1    0    0    0    0  0.00000000000E+00  0.00000000000E+00  0.40000000000E+02  0.40000000000E+02  0.00000000000E+00 0.  1.
        -11   -1    0    0    0    0 -0.00000000000E+00 -0.00000000000E+00 -0.40000000000E+02  0.40000000000E+02  0.00000000000E+00 0. -1.
         23    2    1    2    0    0  0.00000000000E+00  0.00000000000E+00  0.00000000000E+00  0.80000000000E+02  0.80000000000E+02 0.  0.
          5    1    3    3  501    0 -0.27388780415E+02 -0.15802813015E+02 -0.24042375261E+02  0.40000000000E+02  0.47000000000E+01 0. -1.
         -5    1    3    3    0  501  0.27388780415E+02  0.15802813015E+02  0.24042375261E+02  0.40000000000E+02  0.47000000000E+01 0.  1.
</event>
<event>
 5    1  0.4872488E-001  0.8000000E+02  0.7546771E-02  0.1203772E+00
         11   -1    0    0    0    0  0.00000000000E+00  0.00000000000E+00  0.40000000000E+02  0.40000000000E+02  0.00000000000E+00 0.  1.
        -11   -1    0    0    0    0 -0.00000000000E+00 -0.00000000000E+00 -0.40000000000E+02  0.40000000000E+02  0.00000000000E+00 0. -1.
         23    2    1    2    0    0  0.00000000000E+00  0.00000000000E+00  0.00000000000E+00  0.80000000000E+02  0.80000000000E+02 0.  0.
          5    1    3    3  501    0 -0.33704222223E+02  0.20753594057E+02 -0.33501847791E+01  0.40000000000E+02  0.47000000000E+01 0. -1.
         -5    1    3    3    0  501  0.33704222223E+02 -0.20753594057E+02  0.33501847791E+01  0.40000000000E+02  0.47000000000E+01 0.  1.
</event>
<event>
 5    1  0.4872488E-001  0.8000000E+02  0.7546771E-02  0.1203772E+00
         11   -1    0    0    0    0  0.00000000000E+00  0.00000000000E+00  0.40000000000E+02  0.40000000000E+02  0.00000000000E+00 0. -1.
        -11   -1    0    0    0    0 -0.00000000000E+00 -0.00000000000E+00 -0.40000000000E+02  0.40000000000E+02  0.00000000000E+00 0.  1.
         23    2    1    2    0    0  0.00000000000E+00  0.00000000000E+00  0.00000000000E+00  0.80000000000E+02  0.80000000000E+02 0.  0.
          5    1    3    3  501    0 -0.37853114594E+02  0.10287372485E+02 -0.62627216852E+01  0.40000000000E+02  0.47000000000E+01 0.  1.
         -5    1    3    3    0  501  0.37853114594E+02 -0.10287372485E+02  0.62627216852E+01  0.40000000000E+02  0.47000000000E+01 0. -1.
</event>
<event>
 5    1  0.4872488E-001  0.8000000E+02  0.7546771E-02  0.1203772E+00
         11   -1    0    0    0    0  0.00000000000E+00  0.00000000000E+00  0.40000000000E+02  0.40000000000E+02  0.00000000000E+00 0.  1.
        -11   -1    0    0    0    0 -0.00000000000E+00 -0.00000000000E+00 -0.40000000000E+02  0.40000000000E+02  0.00000000000E+00 0. -1.
         23    2    1    2    0    0  0.00000000000E+00  0.00000000000E+00  0.00000000000E+00  0.80000000000E+02  0.80000000000E+02 0.  0.
          5    1    3    3  501    0 -0.15809516329E+02  0.48858764218E+01 -0.36112288837E+02  0.40000000000E+02  0.47000000000E+01 0. -1.
         -5    1    3    3    0  501  0.15809516329E+02 -0.48858764218E+01  0.36112288837E+02  0.40000000000E+02  0.47000000000E+01 0.  1.
</event>
<event>
 5    1  0.4872488E-001  0.8000000E+02  0.7546771E-02  0.1203772E+00
         11   -1    0    0    0    0  0.00000000000E+00  0.00000000000E+00  0.40000000000E+02  0.40000000000E+02  0.00000000000E+00 0.  1.
        -11   -1    0    0    0    0 -0.00000000000E+00 -0.00000000000E+00 -0.40000000000E+02  0.40000000000E+02  0.00000000000E+00 0. -1.
         23    2    1    2    0    0  0.00000000000E+00  0.00000000000E+00  0.00000000000E+00  0.80000000000E+02  0.80000000000E+02 0.  0.
          5    1    3    3  501    0 -0.61342908298E+01  0.69932860886E+01 -0.38618317230E+02  0.40000000000E+02  0.47000000000E+01 0. -1.
         -5    1    3    3    0  501  0.61342908298E+01 -0.69932860886E+01  0.38618317230E+02  0.40000000000E+02  0.47000000000E+01 0.  1.
</event>
<event>
 5    1  0.4872488E-001  0.8000000E+02  0.7546771E-02  0.1203772E+00
         11   -1    0    0    0    0  0.00000000000E+00  0.00000000000E+00  0.40000000000E+02  0.40000000000E+02  0.00000000000E+00 0. -1.
        -11   -1    0    0    0    0 -0.00000000000E+00 -0.00000000000E+00 -0.40000000000E+02  0.40000000000E+02  0.00000000000E+00 0.  1.
         23    2    1    2    0    0  0.00000000000E+00  0.00000000000E+00  0.00000000000E+00  0.80000000000E+02  0.80000000000E+02 0.  0.
          5    1    3    3  501    0 -0.15281238457E+02  0.29893773632E+02  0.21231016208E+02  0.40000000000E+02  0.47000000000E+01 0. -1.
         -5    1    3    3    0  501  0.15281238457E+02 -0.29893773632E+02 -0.21231016208E+02  0.40000000000E+02  0.47000000000E+01 0.  1.
</event>
<event>
 5    1  0.4872488E-001  0.8000000E+02  0.7546771E-02  0.1203772E+00
         11   -1    0    0    0    0  0.00000000000E+00  0.00000000000E+00  0.40000000000E+02  0.40000000000E+02  0.00000000000E+00 0.  1.
        -11   -1    0    0    0    0 -0.00000000000E+00 -0.00000000000E+00 -0.40000000000E+02  0.40000000000E+02  0.00000000000E+00 0. -1.
         23    2    1    2    0    0  0.00000000000E+00  0.00000000000E+00  0.00000000000E+00  0.80000000000E+02  0.80000000000E+02 0.  0.
          5    1    3    3  501    0  0.32728388620E+02 -0.13204065744E+02 -0.18232257847E+02  0.40000000000E+02  0.47000000000E+01 0. -1.
         -5    1    3    3    0  501 -0.32728388620E+02  0.13204065744E+02  0.18232257847E+02  0.40000000000E+02  0.47000000000E+01 0.  1.
</event>
<event>
 5    1  0.4872488E-001  0.8000000E+02  0.7546771E-02  0.1203772E+00
         11   -1    0    0    0    0  0.00000000000E+00  0.00000000000E+00  0.40000000000E+02  0.40000000000E+02  0.00000000000E+00 0. -1.
        -11   -1    0    0    0    0 -0.00000000000E+00 -0.00000000000E+00 -0.40000000000E+02  0.40000000000E+02  0.00000000000E+00 0.  1.
         23    2    1    2    0    0  0.00000000000E+00  0.00000000000E+00  0.00000000000E+00  0.80000000000E+02  0.80000000000E+02 0.  0.
          5    1    3    3  501    0 -0.39464288419E+02 -0.41980923684E+01 -0.16899585894E+01  0.40000000000E+02  0.47000000000E+01 0. -1.
         -5    1    3    3    0  501  0.39464288419E+02  0.41980923684E+01  0.16899585894E+01  0.40000000000E+02  0.47000000000E+01 0.  1.
</event>
<event>
 5    1  0.4872488E-001  0.8000000E+02  0.7546771E-02  0.1203772E+00
         11   -1    0    0    0    0  0.00000000000E+00  0.00000000000E+00  0.40000000000E+02  0.40000000000E+02  0.00000000000E+00 0.  1.
        -11   -1    0    0    0    0 -0.00000000000E+00 -0.00000000000E+00 -0.40000000000E+02  0.40000000000E+02  0.00000000000E+00 0. -1.
         23    2    1    2    0    0  0.00000000000E+00  0.00000000000E+00  0.00000000000E+00  0.80000000000E+02  0.80000000000E+02 0.  0.
          5    1    3    3  501    0 -0.58719329453E+01 -0.16074920234E+02 -0.35847278041E+02  0.40000000000E+02  0.47000000000E+01 0. -1.
         -5    1    3    3    0  501  0.58719329453E+01  0.16074920234E+02  0.35847278041E+02  0.40000000000E+02  0.47000000000E+01 0.  1.
</event>
<event>
 5    1  0.4872488E-001  0.8000000E+02  0.7546771E-02  0.1203772E+00
         11   -1    0    0    0    0  0.00000000000E+00  0.00000000000E+00  0.40000000000E+02  0.40000000000E+02  0.00000000000E+00 0.  1.
        -11   -1    0    0    0    0 -0.00000000000E+00 -0.00000000000E+00 -0.40000000000E+02  0.40000000000E+02  0.00000000000E+00 0. -1.
         23    2    1    2    0    0  0.00000000000E+00  0.00000000000E+00  0.00000000000E+00  0.80000000000E+02  0.80000000000E+02 0.  0.
          5    1    3    3  501    0 -0.10255654244E+02 -0.33876468497E+02 -0.18030985504E+02  0.40000000000E+02  0.47000000000E+01 0. -1.
         -5    1    3    3    0  501  0.10255654244E+02  0.33876468497E+02  0.18030985504E+02  0.40000000000E+02  0.47000000000E+01 0.  1.
</event>
<event>
 5    1  0.4872488E-001  0.8000000E+02  0.7546771E-02  0.1203772E+00
         11   -1    0    0    0    0  0.00000000000E+00  0.00000000000E+00  0.40000000000E+02  0.40000000000E+02  0.00000000000E+00 0. -1.
        -11   -1    0    0    0    0 -0.00000000000E+00 -0.00000000000E+00 -0.40000000000E+02  0.40000000000E+02  0.00000000000E+00 0.  1.
         23    2    1    2    0    0  0.00000000000E+00  0.00000000000E+00  0.00000000000E+00  0.80000000000E+02  0.80000000000E+02 0.  0.
          5    1    3    3  501    0 -0.86316385796E+01  0.21638062496E+00  0.38773160754E+02  0.40000000000E+02  0.47000000000E+01 0. -1.
         -5    1    3    3    0  501  0.86316385796E+01 -0.21638062496E+00 -0.38773160754E+02  0.40000000000E+02  0.47000000000E+01 0.  1.
</event>
<event>
 5    1  0.4872488E-001  0.8000000E+02  0.7546771E-02  0.1203772E+00
         11   -1    0    0    0    0  0.00000000000E+00  0.00000000000E+00  0.40000000000E+02  0.40000000000E+02  0.00000000000E+00 0.  1.
        -11   -1    0    0    0    0 -0.00000000000E+00 -0.00000000000E+00 -0.40000000000E+02  0.40000000000E+02  0.00000000000E+00 0. -1.
         23    2    1    2    0    0  0.00000000000E+00  0.00000000000E+00  0.00000000000E+00  0.80000000000E+02  0.80000000000E+02 0.  0.
          5    1    3    3  501    0 -0.23099344244E+02  0.77253231496E+01 -0.31379128059E+02  0.40000000000E+02  0.47000000000E+01 0. -1.
         -5    1    3    3    0  501  0.23099344244E+02 -0.77253231496E+01  0.31379128059E+02  0.40000000000E+02  0.47000000000E+01 0.  1.
</event>
<event>
 5    1  0.4872488E-001  0.8000000E+02  0.7546771E-02  0.1203772E+00
         11   -1    0    0    0    0  0.00000000000E+00  0.00000000000E+00  0.40000000000E+02  0.40000000000E+02  0.00000000000E+00 0.  1.
        -11   -1    0    0    0    0 -0.00000000000E+00 -0.00000000000E+00 -0.40000000000E+02  0.40000000000E+02  0.00000000000E+00 0. -1.
         23    2    1    2    0    0  0.00000000000E+00  0.00000000000E+00  0.00000000000E+00  0.80000000000E+02  0.80000000000E+02 0.  0.
          5    1    3    3  501    0 -0.39212743157E+02  0.53128903007E+01 -0.34704424478E+01  0.40000000000E+02  0.47000000000E+01 0. -1.
         -5    1    3    3    0  501  0.39212743157E+02 -0.53128903007E+01  0.34704424478E+01  0.40000000000E+02  0.47000000000E+01 0.  1.
</event>
<event>
 5    1  0.4872488E-001  0.8000000E+02  0.7546771E-02  0.1203772E+00
         11   -1    0    0    0    0  0.00000000000E+00  0.00000000000E+00  0.40000000000E+02  0.40000000000E+02  0.00000000000E+00 0.  1.
        -11   -1    0    0    0    0 -0.00000000000E+00 -0.00000000000E+00 -0.40000000000E+02  0.40000000000E+02  0.00000000000E+00 0. -1.
         23    2    1    2    0    0  0.00000000000E+00  0.00000000000E+00  0.00000000000E+00  0.80000000000E+02  0.80000000000E+02 0.  0.
          5    1    3    3  501    0 -0.34430987541E+02  0.19721449228E+02 -0.18658878020E+01  0.40000000000E+02  0.47000000000E+01 0. -1.
         -5    1    3    3    0  501  0.34430987541E+02 -0.19721449228E+02  0.18658878020E+01  0.40000000000E+02  0.47000000000E+01 0.  1.
</event>
<event>
 5    1  0.4872488E-001  0.8000000E+02  0.7546771E-02  0.1203772E+00
         11   -1    0    0    0    0  0.00000000000E+00  0.00000000000E+00  0.40000000000E+02  0.40000000000E+02  0.00000000000E+00 0.  1.
        -11   -1    0    0    0    0 -0.00000000000E+00 -0.00000000000E+00 -0.40000000000E+02  0.40000000000E+02  0.00000000000E+00 0. -1.
         23    2    1    2    0    0  0.00000000000E+00  0.00000000000E+00  0.00000000000E+00  0.80000000000E+02  0.80000000000E+02 0.  0.
          5    1    3    3  501    0  0.51791539620E+01  0.49156551223E+01 -0.39075858263E+02  0.40000000000E+02  0.47000000000E+01 0. -1.
         -5    1    3    3    0  501 -0.51791539620E+01 -0.49156551223E+01  0.39075858263E+02  0.40000000000E+02  0.47000000000E+01 0.  1.
</event>
<event>
 5    1  0.4872488E-001  0.8000000E+02  0.7546771E-02  0.1203772E+00
         11   -1    0    0    0    0  0.00000000000E+00  0.00000000000E+00  0.40000000000E+02  0.40000000000E+02  0.00000000000E+00 0. -1.
        -11   -1    0    0    0    0 -0.00000000000E+00 -0.00000000000E+00 -0.40000000000E+02  0.40000000000E+02  0.00000000000E+00 0.  1.
         23    2    1    2    0    0  0.00000000000E+00  0.00000000000E+00  0.00000000000E+00  0.80000000000E+02  0.80000000000E+02 0.  0.
          5    1    3    3  501    0 -0.19604957661E+02  0.27917446681E+02  0.20351211411E+02  0.40000000000E+02  0.47000000000E+01 0. -1.
         -5    1    3    3    0  501  0.19604957661E+02 -0.27917446681E+02 -0.20351211411E+02  0.40000000000E+02  0.47000000000E+01 0.  1.
</event>
<event>
 5    1  0.4872488E-001  0.8000000E+02  0.7546771E-02  0.1203772E+00
         11   -1    0    0    0    0  0.00000000000E+00  0.00000000000E+00  0.40000000000E+02  0.40000000000E+02  0.00000000000E+00 0. -1.
        -11   -1    0    0    0    0 -0.00000000000E+00 -0.00000000000E+00 -0.40000000000E+02  0.40000000000E+02  0.00000000000E+00 0.  1.
         23    2    1    2    0    0  0.00000000000E+00  0.00000000000E+00  0.00000000000E+00  0.80000000000E+02  0.80000000000E+02 0.  0.
          5    1    3    3  501    0 -0.33624069795E+02 -0.53648363075E+01 -0.20458505856E+02  0.40000000000E+02  0.47000000000E+01 0. -1.
         -5    1    3    3    0  501  0.33624069795E+02  0.53648363075E+01  0.20458505856E+02  0.40000000000E+02  0.47000000000E+01 0.  1.
</event>
<event>
 5    1  0.4872488E-001  0.8000000E+02  0.7546771E-02  0.1203772E+00
         11   -1    0    0    0    0  0.00000000000E+00  0.00000000000E+00  0.40000000000E+02  0.40000000000E+02  0.00000000000E+00 0. -1.
        -11   -1    0    0    0    0 -0.00000000000E+00 -0.00000000000E+00 -0.40000000000E+02  0.40000000000E+02  0.00000000000E+00 0.  1.
         23    2    1    2    0    0  0.00000000000E+00  0.00000000000E+00  0.00000000000E+00  0.80000000000E+02  0.80000000000E+02 0.  0.
          5    1    3    3  501    0 -0.91095858542E+01 -0.76449306854E+01  0.37900929809E+02  0.40000000000E+02  0.47000000000E+01 0. -1.
         -5    1    3    3    0  501  0.91095858542E+01  0.76449306854E+01 -0.37900929809E+02  0.40000000000E+02  0.47000000000E+01 0.  1.
</event>
<event>
 5    1  0.4872488E-001  0.8000000E+02  0.7546771E-02  0.1203772E+00
         11   -1    0    0    0    0  0.00000000000E+00  0.00000000000E+00  0.40000000000E+02  0.40000000000E+02  0.00000000000E+00 0.  1.
        -11   -1    0    0    0    0 -0.00000000000E+00 -0.00000000000E+00 -0.40000000000E+02  0.40000000000E+02  0.00000000000E+00 0. -1.
         23    2    1    2    0    0  0.00000000000E+00  0.00000000000E+00  0.00000000000E+00  0.80000000000E+02  0.80000000000E+02 0.  0.
          5    1    3    3  501    0  0.30096201772E+02  0.23464767780E+01 -0.25819037272E+02  0.40000000000E+02  0.47000000000E+01 0. -1.
         -5    1    3    3    0  501 -0.30096201772E+02 -0.23464767780E+01  0.25819037272E+02  0.40000000000E+02  0.47000000000E+01 0.  1.
</event>
<event>
 5    1  0.4872488E-001  0.8000000E+02  0.7546771E-02  0.1203772E+00
         11   -1    0    0    0    0  0.00000000000E+00  0.00000000000E+00  0.40000000000E+02  0.40000000000E+02  0.00000000000E+00 0.  1.
        -11   -1    0    0    0    0 -0.00000000000E+00 -0.00000000000E+00 -0.40000000000E+02  0.40000000000E+02  0.00000000000E+00 0. -1.
         23    2    1    2    0    0  0.00000000000E+00  0.00000000000E+00  0.00000000000E+00  0.80000000000E+02  0.80000000000E+02 0.  0.
          5    1    3    3  501    0  0.21415566113E+02 -0.28048432050E+02 -0.18236474100E+02  0.40000000000E+02  0.47000000000E+01 0. -1.
         -5    1    3    3    0  501 -0.21415566113E+02  0.28048432050E+02  0.18236474100E+02  0.40000000000E+02  0.47000000000E+01 0.  1.
</event>
<event>
 5    1  0.4872488E-001  0.8000000E+02  0.7546771E-02  0.1203772E+00
         11   -1    0    0    0    0  0.00000000000E+00  0.00000000000E+00  0.40000000000E+02  0.40000000000E+02  0.00000000000E+00 0. -1.
        -11   -1    0    0    0    0 -0.00000000000E+00 -0.00000000000E+00 -0.40000000000E+02  0.40000000000E+02  0.00000000000E+00 0.  1.
         23    2    1    2    0    0  0.00000000000E+00  0.00000000000E+00  0.00000000000E+00  0.80000000000E+02  0.80000000000E+02 0.  0.
          5    1    3    3  501    0  0.32908232157E+02 -0.72896850905E+01  0.21019484951E+02  0.40000000000E+02  0.47000000000E+01 0. -1.
         -5    1    3    3    0  501 -0.32908232157E+02  0.72896850905E+01 -0.21019484951E+02  0.40000000000E+02  0.47000000000E+01 0.  1.
</event>
<event>
 5    1  0.4872488E-001  0.8000000E+02  0.7546771E-02  0.1203772E+00
         11   -1    0    0    0    0  0.00000000000E+00  0.00000000000E+00  0.40000000000E+02  0.40000000000E+02  0.00000000000E+00 0.  1.
        -11   -1    0    0    0    0 -0.00000000000E+00 -0.00000000000E+00 -0.40000000000E+02  0.40000000000E+02  0.00000000000E+00 0. -1.
         23    2    1    2    0    0  0.00000000000E+00  0.00000000000E+00  0.00000000000E+00  0.80000000000E+02  0.80000000000E+02 0.  0.
          5    1    3    3  501    0 -0.17037573602E+02  0.10074315488E+02 -0.34440372431E+02  0.40000000000E+02  0.47000000000E+01 0. -1.
         -5    1    3    3    0  501  0.17037573602E+02 -0.10074315488E+02  0.34440372431E+02  0.40000000000E+02  0.47000000000E+01 0.  1.
</event>
<event>
 5    1  0.4872488E-001  0.8000000E+02  0.7546771E-02  0.1203772E+00
         11   -1    0    0    0    0  0.00000000000E+00  0.00000000000E+00  0.40000000000E+02  0.40000000000E+02  0.00000000000E+00 0. -1.
        -11   -1    0    0    0    0 -0.00000000000E+00 -0.00000000000E+00 -0.40000000000E+02  0.40000000000E+02  0.00000000000E+00 0.  1.
         23    2    1    2    0    0  0.00000000000E+00  0.00000000000E+00  0.00000000000E+00  0.80000000000E+02  0.80000000000E+02 0.  0.
          5    1    3    3  501    0 -0.21473052866E+02 -0.71380423866E+01  0.32647608664E+02  0.40000000000E+02  0.47000000000E+01 0. -1.
         -5    1    3    3    0  501  0.21473052866E+02  0.71380423866E+01 -0.32647608664E+02  0.40000000000E+02  0.47000000000E+01 0.  1.
</event>
<event>
 5    1  0.4872488E-001  0.8000000E+02  0.7546771E-02  0.1203772E+00
         11   -1    0    0    0    0  0.00000000000E+00  0.00000000000E+00  0.40000000000E+02  0.40000000000E+02  0.00000000000E+00 0. -1.
        -11   -1    0    0    0    0 -0.00000000000E+00 -0.00000000000E+00 -0.40000000000E+02  0.40000000000E+02  0.00000000000E+00 0.  1.
         23    2    1    2    0    0  0.00000000000E+00  0.00000000000E+00  0.00000000000E+00  0.80000000000E+02  0.80000000000E+02 0.  0.
          5    1    3    3  501    0  0.34815801563E+02 -0.17955451463E+02 -0.65857212446E+01  0.40000000000E+02  0.47000000000E+01 0. -1.
         -5    1    3    3    0  501 -0.34815801563E+02  0.17955451463E+02  0.65857212446E+01  0.40000000000E+02  0.47000000000E+01 0.  1.
</event>
<event>
 5    1  0.4872488E-001  0.8000000E+02  0.7546771E-02  0.1203772E+00
         11   -1    0    0    0    0  0.00000000000E+00  0.00000000000E+00  0.40000000000E+02  0.40000000000E+02  0.00000000000E+00 0.  1.
        -11   -1    0    0    0    0 -0.00000000000E+00 -0.00000000000E+00 -0.40000000000E+02  0.40000000000E+02  0.00000000000E+00 0. -1.
         23    2    1    2    0    0  0.00000000000E+00  0.00000000000E+00  0.00000000000E+00  0.80000000000E+02  0.80000000000E+02 0.  0.
          5    1    3    3  501    0 -0.22216153635E+02  0.27493744839E+02 -0.18123093344E+02  0.40000000000E+02  0.47000000000E+01 0. -1.
         -5    1    3    3    0  501  0.22216153635E+02 -0.27493744839E+02  0.18123093344E+02  0.40000000000E+02  0.47000000000E+01 0.  1.
</event>
<event>
 5    1  0.4872488E-001  0.8000000E+02  0.7546771E-02  0.1203772E+00
         11   -1    0    0    0    0  0.00000000000E+00  0.00000000000E+00  0.40000000000E+02  0.40000000000E+02  0.00000000000E+00 0. -1.
        -11   -1    0    0    0    0 -0.00000000000E+00 -0.00000000000E+00 -0.40000000000E+02  0.40000000000E+02  0.00000000000E+00 0.  1.
         23    2    1    2    0    0  0.00000000000E+00  0.00000000000E+00  0.00000000000E+00  0.80000000000E+02  0.80000000000E+02 0.  0.
          5    1    3    3  501    0  0.21175142225E+02  0.33422994471E+02  0.35251655798E+01  0.40000000000E+02  0.47000000000E+01 0. -1.
         -5    1    3    3    0  501 -0.21175142225E+02 -0.33422994471E+02 -0.35251655798E+01  0.40000000000E+02  0.47000000000E+01 0.  1.
</event>
<event>
 5    1  0.4872488E-001  0.8000000E+02  0.7546771E-02  0.1203772E+00
         11   -1    0    0    0    0  0.00000000000E+00  0.00000000000E+00  0.40000000000E+02  0.40000000000E+02  0.00000000000E+00 0. -1.
        -11   -1    0    0    0    0 -0.00000000000E+00 -0.00000000000E+00 -0.40000000000E+02  0.40000000000E+02  0.00000000000E+00 0.  1.
         23    2    1    2    0    0  0.00000000000E+00  0.00000000000E+00  0.00000000000E+00  0.80000000000E+02  0.80000000000E+02 0.  0.
          5    1    3    3  501    0  0.10667257453E+02  0.87566455788E+01  0.37248366094E+02  0.40000000000E+02  0.47000000000E+01 0. -1.
         -5    1    3    3    0  501 -0.10667257453E+02 -0.87566455788E+01 -0.37248366094E+02  0.40000000000E+02  0.47000000000E+01 0.  1.
</event>
<event>
 5    1  0.4872488E-001  0.8000000E+02  0.7546771E-02  0.1203772E+00
         11   -1    0    0    0    0  0.00000000000E+00  0.00000000000E+00  0.40000000000E+02  0.40000000000E+02  0.00000000000E+00 0.  1.
        -11   -1    0    0    0    0 -0.00000000000E+00 -0.00000000000E+00 -0.40000000000E+02  0.40000000000E+02  0.00000000000E+00 0. -1.
         23    2    1    2    0    0  0.00000000000E+00  0.00000000000E+00  0.00000000000E+00  0.80000000000E+02  0.80000000000E+02 0.  0.
          5    1    3    3  501    0 -0.29131981102E+02 -0.25298523180E+02  0.94457610591E+01  0.40000000000E+02  0.47000000000E+01 0. -1.
         -5    1    3    3    0  501  0.29131981102E+02  0.25298523180E+02 -0.94457610591E+01  0.40000000000E+02  0.47000000000E+01 0.  1.
</event>
<event>
 5    1  0.4872488E-001  0.8000000E+02  0.7546771E-02  0.1203772E+00
         11   -1    0    0    0    0  0.00000000000E+00  0.00000000000E+00  0.40000000000E+02  0.40000000000E+02  0.00000000000E+00 0. -1.
        -11   -1    0    0    0    0 -0.00000000000E+00 -0.00000000000E+00 -0.40000000000E+02  0.40000000000E+02  0.00000000000E+00 0.  1.
         23    2    1    2    0    0  0.00000000000E+00  0.00000000000E+00  0.00000000000E+00  0.80000000000E+02  0.80000000000E+02 0.  0.
          5    1    3    3  501    0  0.16056299937E+01  0.24141124881E+02  0.31504571760E+02  0.40000000000E+02  0.47000000000E+01 0. -1.
         -5    1    3    3    0  501 -0.16056299937E+01 -0.24141124881E+02 -0.31504571760E+02  0.40000000000E+02  0.47000000000E+01 0.  1.
</event>
<event>
 5    1  0.4872488E-001  0.8000000E+02  0.7546771E-02  0.1203772E+00
         11   -1    0    0    0    0  0.00000000000E+00  0.00000000000E+00  0.40000000000E+02  0.40000000000E+02  0.00000000000E+00 0. -1.
        -11   -1    0    0    0    0 -0.00000000000E+00 -0.00000000000E+00 -0.40000000000E+02  0.40000000000E+02  0.00000000000E+00 0.  1.
         23    2    1    2    0    0  0.00000000000E+00  0.00000000000E+00  0.00000000000E+00  0.80000000000E+02  0.80000000000E+02 0.  0.
          5    1    3    3  501    0 -0.26398424304E+01 -0.34920847634E+02  0.18747683389E+02  0.40000000000E+02  0.47000000000E+01 0. -1.
         -5    1    3    3    0  501  0.26398424304E+01  0.34920847634E+02 -0.18747683389E+02  0.40000000000E+02  0.47000000000E+01 0.  1.
</event>
<event>
 5    1  0.4872488E-001  0.8000000E+02  0.7546771E-02  0.1203772E+00
         11   -1    0    0    0    0  0.00000000000E+00  0.00000000000E+00  0.40000000000E+02  0.40000000000E+02  0.00000000000E+00 0.  1.
        -11   -1    0    0    0    0 -0.00000000000E+00 -0.00000000000E+00 -0.40000000000E+02  0.40000000000E+02  0.00000000000E+00 0. -1.
         23    2    1    2    0    0  0.00000000000E+00  0.00000000000E+00  0.00000000000E+00  0.80000000000E+02  0.80000000000E+02 0.  0.
          5    1    3    3  501    0  0.26385488144E+02 -0.20650864799E+02 -0.21336771042E+02  0.40000000000E+02  0.47000000000E+01 0. -1.
         -5    1    3    3    0  501 -0.26385488144E+02  0.20650864799E+02  0.21336771042E+02  0.40000000000E+02  0.47000000000E+01 0.  1.
</event>
<event>
 5    1  0.4872488E-001  0.8000000E+02  0.7546771E-02  0.1203772E+00
         11   -1    0    0    0    0  0.00000000000E+00  0.00000000000E+00  0.40000000000E+02  0.40000000000E+02  0.00000000000E+00 0.  1.
        -11   -1    0    0    0    0 -0.00000000000E+00 -0.00000000000E+00 -0.40000000000E+02  0.40000000000E+02  0.00000000000E+00 0. -1.
         23    2    1    2    0    0  0.00000000000E+00  0.00000000000E+00  0.00000000000E+00  0.80000000000E+02  0.80000000000E+02 0.  0.
          5    1    3    3  501    0  0.20180127589E+02 -0.72912850631E+01 -0.33429173077E+02  0.40000000000E+02  0.47000000000E+01 0. -1.
         -5    1    3    3    0  501 -0.20180127589E+02  0.72912850631E+01  0.33429173077E+02  0.40000000000E+02  0.47000000000E+01 0.  1.
</event>
<event>
 5    1  0.4872488E-001  0.8000000E+02  0.7546771E-02  0.1203772E+00
         11   -1    0    0    0    0  0.00000000000E+00  0.00000000000E+00  0.40000000000E+02  0.40000000000E+02  0.00000000000E+00 0. -1.
        -11   -1    0    0    0    0 -0.00000000000E+00 -0.00000000000E+00 -0.40000000000E+02  0.40000000000E+02  0.00000000000E+00 0.  1.
         23    2    1    2    0    0  0.00000000000E+00  0.00000000000E+00  0.00000000000E+00  0.80000000000E+02  0.80000000000E+02 0.  0.
          5    1    3    3  501    0  0.35158345472E+02 -0.50116390900E+01  0.17795623544E+02  0.40000000000E+02  0.47000000000E+01 0. -1.
         -5    1    3    3    0  501 -0.35158345472E+02  0.50116390900E+01 -0.17795623544E+02  0.40000000000E+02  0.47000000000E+01 0.  1.
</event>
<event>
 5    1  0.4872488E-001  0.8000000E+02  0.7546771E-02  0.1203772E+00
         11   -1    0    0    0    0  0.00000000000E+00  0.00000000000E+00  0.40000000000E+02  0.40000000000E+02  0.00000000000E+00 0. -1.
        -11   -1    0    0    0    0 -0.00000000000E+00 -0.00000000000E+00 -0.40000000000E+02  0.40000000000E+02  0.00000000000E+00 0.  1.
         23    2    1    2    0    0  0.00000000000E+00  0.00000000000E+00  0.00000000000E+00  0.80000000000E+02  0.80000000000E+02 0.  0.
          5    1    3    3  501    0 -0.28414225446E+02 -0.27750767890E+02 -0.66081298925E+00  0.40000000000E+02  0.47000000000E+01 0. -1.
         -5    1    3    3    0  501  0.28414225446E+02  0.27750767890E+02  0.66081298925E+00  0.40000000000E+02  0.47000000000E+01 0.  1.
</event>
<event>
 5    1  0.4872488E-001  0.8000000E+02  0.7546771E-02  0.1203772E+00
         11   -1    0    0    0    0  0.00000000000E+00  0.00000000000E+00  0.40000000000E+02  0.40000000000E+02  0.00000000000E+00 0.  1.
        -11   -1    0    0    0    0 -0.00000000000E+00 -0.00000000000E+00 -0.40000000000E+02  0.40000000000E+02  0.00000000000E+00 0. -1.
         23    2    1    2    0    0  0.00000000000E+00  0.00000000000E+00  0.00000000000E+00  0.80000000000E+02  0.80000000000E+02 0.  0.
          5    1    3    3  501    0  0.99947818012E+01 -0.24448937645E+02 -0.29669239707E+02  0.40000000000E+02  0.47000000000E+01 0. -1.
         -5    1    3    3    0  501 -0.99947818012E+01  0.24448937645E+02  0.29669239707E+02  0.40000000000E+02  0.47000000000E+01 0.  1.
</event>
<event>
 5    1  0.4872488E-001  0.8000000E+02  0.7546771E-02  0.1203772E+00
         11   -1    0    0    0    0  0.00000000000E+00  0.00000000000E+00  0.40000000000E+02  0.40000000000E+02  0.00000000000E+00 0. -1.
        -11   -1    0    0    0    0 -0.00000000000E+00 -0.00000000000E+00 -0.40000000000E+02  0.40000000000E+02  0.00000000000E+00 0.  1.
         23    2    1    2    0    0  0.00000000000E+00  0.00000000000E+00  0.00000000000E+00  0.80000000000E+02  0.80000000000E+02 0.  0.
          5    1    3    3  501    0  0.10257806244E+02 -0.37773231123E+02  0.67727705980E+01  0.40000000000E+02  0.47000000000E+01 0.  1.
         -5    1    3    3    0  501 -0.10257806244E+02  0.37773231123E+02 -0.67727705980E+01  0.40000000000E+02  0.47000000000E+01 0. -1.
</event>
<event>
 5    1  0.4872488E-001  0.8000000E+02  0.7546771E-02  0.1203772E+00
         11   -1    0    0    0    0  0.00000000000E+00  0.00000000000E+00  0.40000000000E+02  0.40000000000E+02  0.00000000000E+00 0. -1.
        -11   -1    0    0    0    0 -0.00000000000E+00 -0.00000000000E+00 -0.40000000000E+02  0.40000000000E+02  0.00000000000E+00 0.  1.
         23    2    1    2    0    0  0.00000000000E+00  0.00000000000E+00  0.00000000000E+00  0.80000000000E+02  0.80000000000E+02 0.  0.
          5    1    3    3  501    0  0.22099308774E+02  0.16711416485E+02  0.28465050690E+02  0.40000000000E+02  0.47000000000E+01 0. -1.
         -5    1    3    3    0  501 -0.22099308774E+02 -0.16711416485E+02 -0.28465050690E+02  0.40000000000E+02  0.47000000000E+01 0.  1.
</event>
<event>
 5    1  0.4872488E-001  0.8000000E+02  0.7546771E-02  0.1203772E+00
         11   -1    0    0    0    0  0.00000000000E+00  0.00000000000E+00  0.40000000000E+02  0.40000000000E+02  0.00000000000E+00 0. -1.
        -11   -1    0    0    0    0 -0.00000000000E+00 -0.00000000000E+00 -0.40000000000E+02  0.40000000000E+02  0.00000000000E+00 0.  1.
         23    2    1    2    0    0  0.00000000000E+00  0.00000000000E+00  0.00000000000E+00  0.80000000000E+02  0.80000000000E+02 0.  0.
          5    1    3    3  501    0  0.33296712626E+02  0.20818508653E+02 -0.59857017786E+01  0.40000000000E+02  0.47000000000E+01 0. -1.
         -5    1    3    3    0  501 -0.33296712626E+02 -0.20818508653E+02  0.59857017786E+01  0.40000000000E+02  0.47000000000E+01 0.  1.
</event>
<event>
 5    1  0.4872488E-001  0.8000000E+02  0.7546771E-02  0.1203772E+00
         11   -1    0    0    0    0  0.00000000000E+00  0.00000000000E+00  0.40000000000E+02  0.40000000000E+02  0.00000000000E+00 0.  1.
        -11   -1    0    0    0    0 -0.00000000000E+00 -0.00000000000E+00 -0.40000000000E+02  0.40000000000E+02  0.00000000000E+00 0. -1.
         23    2    1    2    0    0  0.00000000000E+00  0.00000000000E+00  0.00000000000E+00  0.80000000000E+02  0.80000000000E+02 0.  0.
          5    1    3    3  501    0 -0.19437631723E+02 -0.20470861037E+01 -0.34581756917E+02  0.40000000000E+02  0.47000000000E+01 0. -1.
         -5    1    3    3    0  501  0.19437631723E+02  0.20470861037E+01  0.34581756917E+02  0.40000000000E+02  0.47000000000E+01 0.  1.
</event>
<event>
 5    1  0.4872488E-001  0.8000000E+02  0.7546771E-02  0.1203772E+00
         11   -1    0    0    0    0  0.00000000000E+00  0.00000000000E+00  0.40000000000E+02  0.40000000000E+02  0.00000000000E+00 0. -1.
        -11   -1    0    0    0    0 -0.00000000000E+00 -0.00000000000E+00 -0.40000000000E+02  0.40000000000E+02  0.00000000000E+00 0.  1.
         23    2    1    2    0    0  0.00000000000E+00  0.00000000000E+00  0.00000000000E+00  0.80000000000E+02  0.80000000000E+02 0.  0.
          5    1    3    3  501    0 -0.35207157151E+02 -0.13864765506E+02  0.12088604668E+02  0.40000000000E+02  0.47000000000E+01 0. -1.
         -5    1    3    3    0  501  0.35207157151E+02  0.13864765506E+02 -0.12088604668E+02  0.40000000000E+02  0.47000000000E+01 0.  1.
</event>
<event>
 5    1  0.4872488E-001  0.8000000E+02  0.7546771E-02  0.1203772E+00
         11   -1    0    0    0    0  0.00000000000E+00  0.00000000000E+00  0.40000000000E+02  0.40000000000E+02  0.00000000000E+00 0. -1.
        -11   -1    0    0    0    0 -0.00000000000E+00 -0.00000000000E+00 -0.40000000000E+02  0.40000000000E+02  0.00000000000E+00 0.  1.
         23    2    1    2    0    0  0.00000000000E+00  0.00000000000E+00  0.00000000000E+00  0.80000000000E+02  0.80000000000E+02 0.  0.
          5    1    3    3  501    0 -0.78161690546E+01 -0.30066752638E+02  0.24754956820E+02  0.40000000000E+02  0.47000000000E+01 0. -1.
         -5    1    3    3    0  501  0.78161690546E+01  0.30066752638E+02 -0.24754956820E+02  0.40000000000E+02  0.47000000000E+01 0.  1.
</event>
<event>
 5    1  0.4872488E-001  0.8000000E+02  0.7546771E-02  0.1203772E+00
         11   -1    0    0    0    0  0.00000000000E+00  0.00000000000E+00  0.40000000000E+02  0.40000000000E+02  0.00000000000E+00 0. -1.
        -11   -1    0    0    0    0 -0.00000000000E+00 -0.00000000000E+00 -0.40000000000E+02  0.40000000000E+02  0.00000000000E+00 0.  1.
         23    2    1    2    0    0  0.00000000000E+00  0.00000000000E+00  0.00000000000E+00  0.80000000000E+02  0.80000000000E+02 0.  0.
          5    1    3    3  501    0  0.29206780476E+02 -0.13642722746E+02  0.23210990721E+02  0.40000000000E+02  0.47000000000E+01 0. -1.
         -5    1    3    3    0  501 -0.29206780476E+02  0.13642722746E+02 -0.23210990721E+02  0.40000000000E+02  0.47000000000E+01 0.  1.
</event>
<event>
 5    1  0.4872488E-001  0.8000000E+02  0.7546771E-02  0.1203772E+00
         11   -1    0    0    0    0  0.00000000000E+00  0.00000000000E+00  0.40000000000E+02  0.40000000000E+02  0.00000000000E+00 0. -1.
        -11   -1    0    0    0    0 -0.00000000000E+00 -0.00000000000E+00 -0.40000000000E+02  0.40000000000E+02  0.00000000000E+00 0.  1.
         23    2    1    2    0    0  0.00000000000E+00  0.00000000000E+00  0.00000000000E+00  0.80000000000E+02  0.80000000000E+02 0.  0.
          5    1    3    3  501    0 -0.81241762987E+01  0.15584299598E+02  0.35623550715E+02  0.40000000000E+02  0.47000000000E+01 0. -1.
         -5    1    3    3    0  501  0.81241762987E+01 -0.15584299598E+02 -0.35623550715E+02  0.40000000000E+02  0.47000000000E+01 0.  1.
</event>
<event>
 5    1  0.4872488E-001  0.8000000E+02  0.7546771E-02  0.1203772E+00
         11   -1    0    0    0    0  0.00000000000E+00  0.00000000000E+00  0.40000000000E+02  0.40000000000E+02  0.00000000000E+00 0. -1.
        -11   -1    0    0    0    0 -0.00000000000E+00 -0.00000000000E+00 -0.40000000000E+02  0.40000000000E+02  0.00000000000E+00 0.  1.
         23    2    1    2    0    0  0.00000000000E+00  0.00000000000E+00  0.00000000000E+00  0.80000000000E+02  0.80000000000E+02 0.  0.
          5    1    3    3  501    0 -0.78655636538E+01 -0.18896056469E+02  0.34043824085E+02  0.40000000000E+02  0.47000000000E+01 0. -1.
         -5    1    3    3    0  501  0.78655636538E+01  0.18896056469E+02 -0.34043824085E+02  0.40000000000E+02  0.47000000000E+01 0.  1.
</event>
<event>
 5    1  0.4872488E-001  0.8000000E+02  0.7546771E-02  0.1203772E+00
         11   -1    0    0    0    0  0.00000000000E+00  0.00000000000E+00  0.40000000000E+02  0.40000000000E+02  0.00000000000E+00 0. -1.
        -11   -1    0    0    0    0 -0.00000000000E+00 -0.00000000000E+00 -0.40000000000E+02  0.40000000000E+02  0.00000000000E+00 0.  1.
         23    2    1    2    0    0  0.00000000000E+00  0.00000000000E+00  0.00000000000E+00  0.80000000000E+02  0.80000000000E+02 0.  0.
          5    1    3    3  501    0 -0.25977749855E+02  0.27730327291E+02  0.11579959447E+02  0.40000000000E+02  0.47000000000E+01 0. -1.
         -5    1    3    3    0  501  0.25977749855E+02 -0.27730327291E+02 -0.11579959447E+02  0.40000000000E+02  0.47000000000E+01 0.  1.
</event>
<event>
 5    1  0.4872488E-001  0.8000000E+02  0.7546771E-02  0.1203772E+00
         11   -1    0    0    0    0  0.00000000000E+00  0.00000000000E+00  0.40000000000E+02  0.40000000000E+02  0.00000000000E+00 0.  1.
        -11   -1    0    0    0    0 -0.00000000000E+00 -0.00000000000E+00 -0.40000000000E+02  0.40000000000E+02  0.00000000000E+00 0. -1.
         23    2    1    2    0    0  0.00000000000E+00  0.00000000000E+00  0.00000000000E+00  0.80000000000E+02  0.80000000000E+02 0.  0.
          5    1    3    3  501    0  0.85505847487E+01 -0.36304166027E+02 -0.13667663646E+02  0.40000000000E+02  0.47000000000E+01 0. -1.
         -5    1    3    3    0  501 -0.85505847487E+01  0.36304166027E+02  0.13667663646E+02  0.40000000000E+02  0.47000000000E+01 0.  1.
</event>
<event>
 5    1  0.4872488E-001  0.8000000E+02  0.7546771E-02  0.1203772E+00
         11   -1    0    0    0    0  0.00000000000E+00  0.00000000000E+00  0.40000000000E+02  0.40000000000E+02  0.00000000000E+00 0.  1.
        -11   -1    0    0    0    0 -0.00000000000E+00 -0.00000000000E+00 -0.40000000000E+02  0.40000000000E+02  0.00000000000E+00 0. -1.
         23    2    1    2    0    0  0.00000000000E+00  0.00000000000E+00  0.00000000000E+00  0.80000000000E+02  0.80000000000E+02 0.  0.
          5    1    3    3  501    0  0.26551215696E+02 -0.75804002037E+01 -0.28556618809E+02  0.40000000000E+02  0.47000000000E+01 0. -1.
         -5    1    3    3    0  501 -0.26551215696E+02  0.75804002037E+01  0.28556618809E+02  0.40000000000E+02  0.47000000000E+01 0.  1.
</event>
<event>
 5    1  0.4872488E-001  0.8000000E+02  0.7546771E-02  0.1203772E+00
         11   -1    0    0    0    0  0.00000000000E+00  0.00000000000E+00  0.40000000000E+02  0.40000000000E+02  0.00000000000E+00 0. -1.
        -11   -1    0    0    0    0 -0.00000000000E+00 -0.00000000000E+00 -0.40000000000E+02  0.40000000000E+02  0.00000000000E+00 0.  1.
         23    2    1    2    0    0  0.00000000000E+00  0.00000000000E+00  0.00000000000E+00  0.80000000000E+02  0.80000000000E+02 0.  0.
          5    1    3    3  501    0  0.23007700343E+02 -0.44298825336E+01  0.32076967838E+02  0.40000000000E+02  0.47000000000E+01 0. -1.
         -5    1    3    3    0  501 -0.23007700343E+02  0.44298825336E+01 -0.32076967838E+02  0.40000000000E+02  0.47000000000E+01 0.  1.
</event>
<event>
 5    1  0.4872488E-001  0.8000000E+02  0.7546771E-02  0.1203772E+00
         11   -1    0    0    0    0  0.00000000000E+00  0.00000000000E+00  0.40000000000E+02  0.40000000000E+02  0.00000000000E+00 0.  1.
        -11   -1    0    0    0    0 -0.00000000000E+00 -0.00000000000E+00 -0.40000000000E+02  0.40000000000E+02  0.00000000000E+00 0. -1.
         23    2    1    2    0    0  0.00000000000E+00  0.00000000000E+00  0.00000000000E+00  0.80000000000E+02  0.80000000000E+02 0.  0.
          5    1    3    3  501    0 -0.37956806363E+02  0.61776788116E+01 -0.99512378732E+01  0.40000000000E+02  0.47000000000E+01 0. -1.
         -5    1    3    3    0  501  0.37956806363E+02 -0.61776788116E+01  0.99512378732E+01  0.40000000000E+02  0.47000000000E+01 0.  1.
</event>
<event>
 5    1  0.4872488E-001  0.8000000E+02  0.7546771E-02  0.1203772E+00
         11   -1    0    0    0    0  0.00000000000E+00  0.00000000000E+00  0.40000000000E+02  0.40000000000E+02  0.00000000000E+00 0.  1.
        -11   -1    0    0    0    0 -0.00000000000E+00 -0.00000000000E+00 -0.40000000000E+02  0.40000000000E+02  0.00000000000E+00 0. -1.
         23    2    1    2    0    0  0.00000000000E+00  0.00000000000E+00  0.00000000000E+00  0.80000000000E+02  0.80000000000E+02 0.  0.
          5    1    3    3  501    0 -0.78638903156E+01 -0.38935218573E+02  0.34348762962E+00  0.40000000000E+02  0.47000000000E+01 0. -1.
         -5    1    3    3    0  501  0.78638903156E+01  0.38935218573E+02 -0.34348762962E+00  0.40000000000E+02  0.47000000000E+01 0.  1.
</event>
<event>
 5    1  0.4872488E-001  0.8000000E+02  0.7546771E-02  0.1203772E+00
         11   -1    0    0    0    0  0.00000000000E+00  0.00000000000E+00  0.40000000000E+02  0.40000000000E+02  0.00000000000E+00 0. -1.
        -11   -1    0    0    0    0 -0.00000000000E+00 -0.00000000000E+00 -0.40000000000E+02  0.40000000000E+02  0.00000000000E+00 0.  1.
         23    2    1    2    0    0  0.00000000000E+00  0.00000000000E+00  0.00000000000E+00  0.80000000000E+02  0.80000000000E+02 0.  0.
          5    1    3    3  501    0 -0.41029031442E+01 -0.39024270130E+02  0.61792011299E+01  0.40000000000E+02  0.47000000000E+01 0. -1.
         -5    1    3    3    0  501  0.41029031442E+01  0.39024270130E+02 -0.61792011299E+01  0.40000000000E+02  0.47000000000E+01 0.  1.
</event>
<event>
 5    1  0.4872488E-001  0.8000000E+02  0.7546771E-02  0.1203772E+00
         11   -1    0    0    0    0  0.00000000000E+00  0.00000000000E+00  0.40000000000E+02  0.40000000000E+02  0.00000000000E+00 0.  1.
        -11   -1    0    0    0    0 -0.00000000000E+00 -0.00000000000E+00 -0.40000000000E+02  0.40000000000E+02  0.00000000000E+00 0. -1.
         23    2    1    2    0    0  0.00000000000E+00  0.00000000000E+00  0.00000000000E+00  0.80000000000E+02  0.80000000000E+02 0.  0.
          5    1    3    3  501    0 -0.39650924098E+01 -0.69661904890E+01 -0.38905786617E+02  0.40000000000E+02  0.47000000000E+01 0. -1.
         -5    1    3    3    0  501  0.39650924098E+01  0.69661904890E+01  0.38905786617E+02  0.40000000000E+02  0.47000000000E+01 0.  1.
</event>
<event>
 5    1  0.4872488E-001  0.8000000E+02  0.7546771E-02  0.1203772E+00
         11   -1    0    0    0    0  0.00000000000E+00  0.00000000000E+00  0.40000000000E+02  0.40000000000E+02  0.00000000000E+00 0.  1.
        -11   -1    0    0    0    0 -0.00000000000E+00 -0.00000000000E+00 -0.40000000000E+02  0.40000000000E+02  0.00000000000E+00 0. -1.
         23    2    1    2    0    0  0.00000000000E+00  0.00000000000E+00  0.00000000000E+00  0.80000000000E+02  0.80000000000E+02 0.  0.
          5    1    3    3  501    0 -0.35841892444E+02 -0.40999566968E+01  0.16627059304E+02  0.40000000000E+02  0.47000000000E+01 0. -1.
         -5    1    3    3    0  501  0.35841892444E+02  0.40999566968E+01 -0.16627059304E+02  0.40000000000E+02  0.47000000000E+01 0.  1.
</event>
<event>
 5    1  0.4872488E-001  0.8000000E+02  0.7546771E-02  0.1203772E+00
         11   -1    0    0    0    0  0.00000000000E+00  0.00000000000E+00  0.40000000000E+02  0.40000000000E+02  0.00000000000E+00 0. -1.
        -11   -1    0    0    0    0 -0.00000000000E+00 -0.00000000000E+00 -0.40000000000E+02  0.40000000000E+02  0.00000000000E+00 0.  1.
         23    2    1    2    0    0  0.00000000000E+00  0.00000000000E+00  0.00000000000E+00  0.80000000000E+02  0.80000000000E+02 0.  0.
          5    1    3    3  501    0 -0.12125900685E+02 -0.30641913802E+01  0.37702563093E+02  0.40000000000E+02  0.47000000000E+01 0. -1.
         -5    1    3    3    0  501  0.12125900685E+02  0.30641913802E+01 -0.37702563093E+02  0.40000000000E+02  0.47000000000E+01 0.  1.
</event>
<event>
 5    1  0.4872488E-001  0.8000000E+02  0.7546771E-02  0.1203772E+00
         11   -1    0    0    0    0  0.00000000000E+00  0.00000000000E+00  0.40000000000E+02  0.40000000000E+02  0.00000000000E+00 0.  1.
        -11   -1    0    0    0    0 -0.00000000000E+00 -0.00000000000E+00 -0.40000000000E+02  0.40000000000E+02  0.00000000000E+00 0. -1.
         23    2    1    2    0    0  0.00000000000E+00  0.00000000000E+00  0.00000000000E+00  0.80000000000E+02  0.80000000000E+02 0.  0.
          5    1    3    3  501    0 -0.32950440648E+02 -0.22160944054E+02 -0.10349008361E+01  0.40000000000E+02  0.47000000000E+01 0. -1.
         -5    1    3    3    0  501  0.32950440648E+02  0.22160944054E+02  0.10349008361E+01  0.40000000000E+02  0.47000000000E+01 0.  1.
</event>
<event>
 5    1  0.4872488E-001  0.8000000E+02  0.7546771E-02  0.1203772E+00
         11   -1    0    0    0    0  0.00000000000E+00  0.00000000000E+00  0.40000000000E+02  0.40000000000E+02  0.00000000000E+00 0. -1.
        -11   -1    0    0    0    0 -0.00000000000E+00 -0.00000000000E+00 -0.40000000000E+02  0.40000000000E+02  0.00000000000E+00 0.  1.
         23    2    1    2    0    0  0.00000000000E+00  0.00000000000E+00  0.00000000000E+00  0.80000000000E+02  0.80000000000E+02 0.  0.
          5    1    3    3  501    0 -0.35734114740E+02  0.12647058534E+02  0.11875813832E+02  0.40000000000E+02  0.47000000000E+01 0.  1.
         -5    1    3    3    0  501  0.35734114740E+02 -0.12647058534E+02 -0.11875813832E+02  0.40000000000E+02  0.47000000000E+01 0. -1.
</event>
<event>
 5    1  0.4872488E-001  0.8000000E+02  0.7546771E-02  0.1203772E+00
         11   -1    0    0    0    0  0.00000000000E+00  0.00000000000E+00  0.40000000000E+02  0.40000000000E+02  0.00000000000E+00 0. -1.
        -11   -1    0    0    0    0 -0.00000000000E+00 -0.00000000000E+00 -0.40000000000E+02  0.40000000000E+02  0.00000000000E+00 0.  1.
         23    2    1    2    0    0  0.00000000000E+00  0.00000000000E+00  0.00000000000E+00  0.80000000000E+02  0.80000000000E+02 0.  0.
          5    1    3    3  501    0  0.11535619433E+01 -0.15318388830E+02  0.36632311673E+02  0.40000000000E+02  0.47000000000E+01 0. -1.
         -5    1    3    3    0  501 -0.11535619433E+01  0.15318388830E+02 -0.36632311673E+02  0.40000000000E+02  0.47000000000E+01 0.  1.
</event>
<event>
 5    1  0.4872488E-001  0.8000000E+02  0.7546771E-02  0.1203772E+00
         11   -1    0    0    0    0  0.00000000000E+00  0.00000000000E+00  0.40000000000E+02  0.40000000000E+02  0.00000000000E+00 0. -1.
        -11   -1    0    0    0    0 -0.00000000000E+00 -0.00000000000E+00 -0.40000000000E+02  0.40000000000E+02  0.00000000000E+00 0.  1.
         23    2    1    2    0    0  0.00000000000E+00  0.00000000000E+00  0.00000000000E+00  0.80000000000E+02  0.80000000000E+02 0.  0.
          5    1    3    3  501    0  0.29407550561E+02 -0.26584223960E+02  0.25268570266E+01  0.40000000000E+02  0.47000000000E+01 0. -1.
         -5    1    3    3    0  501 -0.29407550561E+02  0.26584223960E+02 -0.25268570266E+01  0.40000000000E+02  0.47000000000E+01 0.  1.
</event>
<event>
 5    1  0.4872488E-001  0.8000000E+02  0.7546771E-02  0.1203772E+00
         11   -1    0    0    0    0  0.00000000000E+00  0.00000000000E+00  0.40000000000E+02  0.40000000000E+02  0.00000000000E+00 0.  1.
        -11   -1    0    0    0    0 -0.00000000000E+00 -0.00000000000E+00 -0.40000000000E+02  0.40000000000E+02  0.00000000000E+00 0. -1.
         23    2    1    2    0    0  0.00000000000E+00  0.00000000000E+00  0.00000000000E+00  0.80000000000E+02  0.80000000000E+02 0.  0.
          5    1    3    3  501    0  0.26428750917E+02 -0.13695377228E+02 -0.26303379393E+02  0.40000000000E+02  0.47000000000E+01 0. -1.
         -5    1    3    3    0  501 -0.26428750917E+02  0.13695377228E+02  0.26303379393E+02  0.40000000000E+02  0.47000000000E+01 0.  1.
</event>
<event>
 5    1  0.4872488E-001  0.8000000E+02  0.7546771E-02  0.1203772E+00
         11   -1    0    0    0    0  0.00000000000E+00  0.00000000000E+00  0.40000000000E+02  0.40000000000E+02  0.00000000000E+00 0. -1.
        -11   -1    0    0    0    0 -0.00000000000E+00 -0.00000000000E+00 -0.40000000000E+02  0.40000000000E+02  0.00000000000E+00 0.  1.
         23    2    1    2    0    0  0.00000000000E+00  0.00000000000E+00  0.00000000000E+00  0.80000000000E+02  0.80000000000E+02 0.  0.
          5    1    3    3  501    0  0.89884221864E+00  0.33693752842E+02  0.21019826406E+02  0.40000000000E+02  0.47000000000E+01 0. -1.
         -5    1    3    3    0  501 -0.89884221864E+00 -0.33693752842E+02 -0.21019826406E+02  0.40000000000E+02  0.47000000000E+01 0.  1.
</event>
<event>
 5    1  0.4872488E-001  0.8000000E+02  0.7546771E-02  0.1203772E+00
         11   -1    0    0    0    0  0.00000000000E+00  0.00000000000E+00  0.40000000000E+02  0.40000000000E+02  0.00000000000E+00 0. -1.
        -11   -1    0    0    0    0 -0.00000000000E+00 -0.00000000000E+00 -0.40000000000E+02  0.40000000000E+02  0.00000000000E+00 0.  1.
         23    2    1    2    0    0  0.00000000000E+00  0.00000000000E+00  0.00000000000E+00  0.80000000000E+02  0.80000000000E+02 0.  0.
          5    1    3    3  501    0  0.12248960236E+02  0.36930671782E+02 -0.79999034296E+01  0.40000000000E+02  0.47000000000E+01 0.  1.
         -5    1    3    3    0  501 -0.12248960236E+02 -0.36930671782E+02  0.79999034296E+01  0.40000000000E+02  0.47000000000E+01 0. -1.
</event>
<event>
 5    1  0.4872488E-001  0.8000000E+02  0.7546771E-02  0.1203772E+00
         11   -1    0    0    0    0  0.00000000000E+00  0.00000000000E+00  0.40000000000E+02  0.40000000000E+02  0.00000000000E+00 0.  1.
        -11   -1    0    0    0    0 -0.00000000000E+00 -0.00000000000E+00 -0.40000000000E+02  0.40000000000E+02  0.00000000000E+00 0. -1.
         23    2    1    2    0    0  0.00000000000E+00  0.00000000000E+00  0.00000000000E+00  0.80000000000E+02  0.80000000000E+02 0.  0.
          5    1    3    3  501    0  0.80309212992E+01  0.14723075184E+02 -0.36008962221E+02  0.40000000000E+02  0.47000000000E+01 0. -1.
         -5    1    3    3    0  501 -0.80309212992E+01 -0.14723075184E+02  0.36008962221E+02  0.40000000000E+02  0.47000000000E+01 0.  1.
</event>
<event>
 5    1  0.4872488E-001  0.8000000E+02  0.7546771E-02  0.1203772E+00
         11   -1    0    0    0    0  0.00000000000E+00  0.00000000000E+00  0.40000000000E+02  0.40000000000E+02  0.00000000000E+00 0. -1.
        -11   -1    0    0    0    0 -0.00000000000E+00 -0.00000000000E+00 -0.40000000000E+02  0.40000000000E+02  0.00000000000E+00 0.  1.
         23    2    1    2    0    0  0.00000000000E+00  0.00000000000E+00  0.00000000000E+00  0.80000000000E+02  0.80000000000E+02 0.  0.
          5    1    3    3  501    0  0.15804051480E+02  0.33816184529E+02  0.13587038702E+02  0.40000000000E+02  0.47000000000E+01 0. -1.
         -5    1    3    3    0  501 -0.15804051480E+02 -0.33816184529E+02 -0.13587038702E+02  0.40000000000E+02  0.47000000000E+01 0.  1.
</event>
<event>
 5    1  0.4872488E-001  0.8000000E+02  0.7546771E-02  0.1203772E+00
         11   -1    0    0    0    0  0.00000000000E+00  0.00000000000E+00  0.40000000000E+02  0.40000000000E+02  0.00000000000E+00 0. -1.
        -11   -1    0    0    0    0 -0.00000000000E+00 -0.00000000000E+00 -0.40000000000E+02  0.40000000000E+02  0.00000000000E+00 0.  1.
         23    2    1    2    0    0  0.00000000000E+00  0.00000000000E+00  0.00000000000E+00  0.80000000000E+02  0.80000000000E+02 0.  0.
          5    1    3    3  501    0  0.10448506216E+02 -0.38280534845E+02 -0.18273942704E+01  0.40000000000E+02  0.47000000000E+01 0.  1.
         -5    1    3    3    0  501 -0.10448506216E+02  0.38280534845E+02  0.18273942704E+01  0.40000000000E+02  0.47000000000E+01 0. -1.
</event>
<event>
 5    1  0.4872488E-001  0.8000000E+02  0.7546771E-02  0.1203772E+00
         11   -1    0    0    0    0  0.00000000000E+00  0.00000000000E+00  0.40000000000E+02  0.40000000000E+02  0.00000000000E+00 0. -1.
        -11   -1    0    0    0    0 -0.00000000000E+00 -0.00000000000E+00 -0.40000000000E+02  0.40000000000E+02  0.00000000000E+00 0.  1.
         23    2    1    2    0    0  0.00000000000E+00  0.00000000000E+00  0.00000000000E+00  0.80000000000E+02  0.80000000000E+02 0.  0.
          5    1    3    3  501    0 -0.11249840603E+01 -0.27945759453E+02 -0.28207781541E+02  0.40000000000E+02  0.47000000000E+01 0.  1.
         -5    1    3    3    0  501  0.11249840603E+01  0.27945759453E+02  0.28207781541E+02  0.40000000000E+02  0.47000000000E+01 0. -1.
</event>
<event>
 5    1  0.4872488E-001  0.8000000E+02  0.7546771E-02  0.1203772E+00
         11   -1    0    0    0    0  0.00000000000E+00  0.00000000000E+00  0.40000000000E+02  0.40000000000E+02  0.00000000000E+00 0. -1.
        -11   -1    0    0    0    0 -0.00000000000E+00 -0.00000000000E+00 -0.40000000000E+02  0.40000000000E+02  0.00000000000E+00 0.  1.
         23    2    1    2    0    0  0.00000000000E+00  0.00000000000E+00  0.00000000000E+00  0.80000000000E+02  0.80000000000E+02 0.  0.
          5    1    3    3  501    0 -0.25986216062E+02 -0.26945549094E+02 -0.13287737159E+02  0.40000000000E+02  0.47000000000E+01 0.  1.
         -5    1    3    3    0  501  0.25986216062E+02  0.26945549094E+02  0.13287737159E+02  0.40000000000E+02  0.47000000000E+01 0. -1.
</event>
<event>
 5    1  0.4872488E-001  0.8000000E+02  0.7546771E-02  0.1203772E+00
         11   -1    0    0    0    0  0.00000000000E+00  0.00000000000E+00  0.40000000000E+02  0.40000000000E+02  0.00000000000E+00 0. -1.
        -11   -1    0    0    0    0 -0.00000000000E+00 -0.00000000000E+00 -0.40000000000E+02  0.40000000000E+02  0.00000000000E+00 0.  1.
         23    2    1    2    0    0  0.00000000000E+00  0.00000000000E+00  0.00000000000E+00  0.80000000000E+02  0.80000000000E+02 0.  0.
          5    1    3    3  501    0  0.36766662958E+02  0.33678530891E+01  0.14655376505E+02  0.40000000000E+02  0.47000000000E+01 0. -1.
         -5    1    3    3    0  501 -0.36766662958E+02 -0.33678530891E+01 -0.14655376505E+02  0.40000000000E+02  0.47000000000E+01 0.  1.
</event>
<event>
 5    1  0.4872488E-001  0.8000000E+02  0.7546771E-02  0.1203772E+00
         11   -1    0    0    0    0  0.00000000000E+00  0.00000000000E+00  0.40000000000E+02  0.40000000000E+02  0.00000000000E+00 0.  1.
        -11   -1    0    0    0    0 -0.00000000000E+00 -0.00000000000E+00 -0.40000000000E+02  0.40000000000E+02  0.00000000000E+00 0. -1.
         23    2    1    2    0    0  0.00000000000E+00  0.00000000000E+00  0.00000000000E+00  0.80000000000E+02  0.80000000000E+02 0.  0.
          5    1    3    3  501    0 -0.12954684307E+02 -0.31896103190E+02 -0.19817284269E+02  0.40000000000E+02  0.47000000000E+01 0. -1.
         -5    1    3    3    0  501  0.12954684307E+02  0.31896103190E+02  0.19817284269E+02  0.40000000000E+02  0.47000000000E+01 0.  1.
</event>
<event>
 5    1  0.4872488E-001  0.8000000E+02  0.7546771E-02  0.1203772E+00
         11   -1    0    0    0    0  0.00000000000E+00  0.00000000000E+00  0.40000000000E+02  0.40000000000E+02  0.00000000000E+00 0. -1.
        -11   -1    0    0    0    0 -0.00000000000E+00 -0.00000000000E+00 -0.40000000000E+02  0.40000000000E+02  0.00000000000E+00 0.  1.
         23    2    1    2    0    0  0.00000000000E+00  0.00000000000E+00  0.00000000000E+00  0.80000000000E+02  0.80000000000E+02 0.  0.
          5    1    3    3  501    0  0.20770723357E+02  0.87050858641E+01  0.32721682892E+02  0.40000000000E+02  0.47000000000E+01 0. -1.
         -5    1    3    3    0  501 -0.20770723357E+02 -0.87050858641E+01 -0.32721682892E+02  0.40000000000E+02  0.47000000000E+01 0.  1.
</event>
<event>
 5    1  0.4872488E-001  0.8000000E+02  0.7546771E-02  0.1203772E+00
         11   -1    0    0    0    0  0.00000000000E+00  0.00000000000E+00  0.40000000000E+02  0.40000000000E+02  0.00000000000E+00 0.  1.
        -11   -1    0    0    0    0 -0.00000000000E+00 -0.00000000000E+00 -0.40000000000E+02  0.40000000000E+02  0.00000000000E+00 0. -1.
         23    2    1    2    0    0  0.00000000000E+00  0.00000000000E+00  0.00000000000E+00  0.80000000000E+02  0.80000000000E+02 0.  0.
          5    1    3    3  501    0  0.34189745922E+02  0.16254581900E+02 -0.12031618389E+02  0.40000000000E+02  0.47000000000E+01 0. -1.
         -5    1    3    3    0  501 -0.34189745922E+02 -0.16254581900E+02  0.12031618389E+02  0.40000000000E+02  0.47000000000E+01 0.  1.
</event>
<event>
 5    1  0.4872488E-001  0.8000000E+02  0.7546771E-02  0.1203772E+00
         11   -1    0    0    0    0  0.00000000000E+00  0.00000000000E+00  0.40000000000E+02  0.40000000000E+02  0.00000000000E+00 0.  1.
        -11   -1    0    0    0    0 -0.00000000000E+00 -0.00000000000E+00 -0.40000000000E+02  0.40000000000E+02  0.00000000000E+00 0. -1.
         23    2    1    2    0    0  0.00000000000E+00  0.00000000000E+00  0.00000000000E+00  0.80000000000E+02  0.80000000000E+02 0.  0.
          5    1    3    3  501    0 -0.13800381214E+02  0.34453436778E+02 -0.14156983171E+02  0.40000000000E+02  0.47000000000E+01 0. -1.
         -5    1    3    3    0  501  0.13800381214E+02 -0.34453436778E+02  0.14156983171E+02  0.40000000000E+02  0.47000000000E+01 0.  1.
</event>
<event>
 5    1  0.4872488E-001  0.8000000E+02  0.7546771E-02  0.1203772E+00
         11   -1    0    0    0    0  0.00000000000E+00  0.00000000000E+00  0.40000000000E+02  0.40000000000E+02  0.00000000000E+00 0.  1.
        -11   -1    0    0    0    0 -0.00000000000E+00 -0.00000000000E+00 -0.40000000000E+02  0.40000000000E+02  0.00000000000E+00 0. -1.
         23    2    1    2    0    0  0.00000000000E+00  0.00000000000E+00  0.00000000000E+00  0.80000000000E+02  0.80000000000E+02 0.  0.
          5    1    3    3  501    0 -0.32426068178E+02 -0.14794961319E+02 -0.17537651556E+02  0.40000000000E+02  0.47000000000E+01 0. -1.
         -5    1    3    3    0  501  0.32426068178E+02  0.14794961319E+02  0.17537651556E+02  0.40000000000E+02  0.47000000000E+01 0.  1.
</event>
<event>
 5    1  0.4872488E-001  0.8000000E+02  0.7546771E-02  0.1203772E+00
         11   -1    0    0    0    0  0.00000000000E+00  0.00000000000E+00  0.40000000000E+02  0.40000000000E+02  0.00000000000E+00 0. -1.
        -11   -1    0    0    0    0 -0.00000000000E+00 -0.00000000000E+00 -0.40000000000E+02  0.40000000000E+02  0.00000000000E+00 0.  1.
         23    2    1    2    0    0  0.00000000000E+00  0.00000000000E+00  0.00000000000E+00  0.80000000000E+02  0.80000000000E+02 0.  0.
          5    1    3    3  501    0 -0.17465274209E+02 -0.35014361183E+02  0.68460724343E+01  0.40000000000E+02  0.47000000000E+01 0. -1.
         -5    1    3    3    0  501  0.17465274209E+02  0.35014361183E+02 -0.68460724343E+01  0.40000000000E+02  0.47000000000E+01 0.  1.
</event>
<event>
 5    1  0.4872488E-001  0.8000000E+02  0.7546771E-02  0.1203772E+00
         11   -1    0    0    0    0  0.00000000000E+00  0.00000000000E+00  0.40000000000E+02  0.40000000000E+02  0.00000000000E+00 0. -1.
        -11   -1    0    0    0    0 -0.00000000000E+00 -0.00000000000E+00 -0.40000000000E+02  0.40000000000E+02  0.00000000000E+00 0.  1.
         23    2    1    2    0    0  0.00000000000E+00  0.00000000000E+00  0.00000000000E+00  0.80000000000E+02  0.80000000000E+02 0.  0.
          5    1    3    3  501    0 -0.19693377375E+02  0.32581994228E+02  0.11335543201E+02  0.40000000000E+02  0.47000000000E+01 0. -1.
         -5    1    3    3    0  501  0.19693377375E+02 -0.32581994228E+02 -0.11335543201E+02  0.40000000000E+02  0.47000000000E+01 0.  1.
</event>
<event>
 5    1  0.4872488E-001  0.8000000E+02  0.7546771E-02  0.1203772E+00
         11   -1    0    0    0    0  0.00000000000E+00  0.00000000000E+00  0.40000000000E+02  0.40000000000E+02  0.00000000000E+00 0.  1.
        -11   -1    0    0    0    0 -0.00000000000E+00 -0.00000000000E+00 -0.40000000000E+02  0.40000000000E+02  0.00000000000E+00 0. -1.
         23    2    1    2    0    0  0.00000000000E+00  0.00000000000E+00  0.00000000000E+00  0.80000000000E+02  0.80000000000E+02 0.  0.
          5    1    3    3  501    0 -0.34584522744E+02  0.18858891027E+02  0.51149795524E+01  0.40000000000E+02  0.47000000000E+01 0. -1.
         -5    1    3    3    0  501  0.34584522744E+02 -0.18858891027E+02 -0.51149795524E+01  0.40000000000E+02  0.47000000000E+01 0.  1.
</event>
<event>
 5    1  0.4872488E-001  0.8000000E+02  0.7546771E-02  0.1203772E+00
         11   -1    0    0    0    0  0.00000000000E+00  0.00000000000E+00  0.40000000000E+02  0.40000000000E+02  0.00000000000E+00 0. -1.
        -11   -1    0    0    0    0 -0.00000000000E+00 -0.00000000000E+00 -0.40000000000E+02  0.40000000000E+02  0.00000000000E+00 0.  1.
         23    2    1    2    0    0  0.00000000000E+00  0.00000000000E+00  0.00000000000E+00  0.80000000000E+02  0.80000000000E+02 0.  0.
          5    1    3    3  501    0 -0.13272098819E+02 -0.35192169731E+02  0.12777816031E+02  0.40000000000E+02  0.47000000000E+01 0. -1.
         -5    1    3    3    0  501  0.13272098819E+02  0.35192169731E+02 -0.12777816031E+02  0.40000000000E+02  0.47000000000E+01 0.  1.
</event>
<event>
 5    1  0.4872488E-001  0.8000000E+02  0.7546771E-02  0.1203772E+00
         11   -1    0    0    0    0  0.00000000000E+00  0.00000000000E+00  0.40000000000E+02  0.40000000000E+02  0.00000000000E+00 0.  1.
        -11   -1    0    0    0    0 -0.00000000000E+00 -0.00000000000E+00 -0.40000000000E+02  0.40000000000E+02  0.00000000000E+00 0. -1.
         23    2    1    2    0    0  0.00000000000E+00  0.00000000000E+00  0.00000000000E+00  0.80000000000E+02  0.80000000000E+02 0.  0.
          5    1    3    3  501    0 -0.20245020324E+02  0.37099172613E+00 -0.34174720441E+02  0.40000000000E+02  0.47000000000E+01 0. -1.
         -5    1    3    3    0  501  0.20245020324E+02 -0.37099172613E+00  0.34174720441E+02  0.40000000000E+02  0.47000000000E+01 0.  1.
</event>
<event>
 5    1  0.4872488E-001  0.8000000E+02  0.7546771E-02  0.1203772E+00
         11   -1    0    0    0    0  0.00000000000E+00  0.00000000000E+00  0.40000000000E+02  0.40000000000E+02  0.00000000000E+00 0. -1.
        -11   -1    0    0    0    0 -0.00000000000E+00 -0.00000000000E+00 -0.40000000000E+02  0.40000000000E+02  0.00000000000E+00 0.  1.
         23    2    1    2    0    0  0.00000000000E+00  0.00000000000E+00  0.00000000000E+00  0.80000000000E+02  0.80000000000E+02 0.  0.
          5    1    3    3  501    0 -0.38070925191E+02  0.11020114282E+02  0.26592736381E+01  0.40000000000E+02  0.47000000000E+01 0. -1.
         -5    1    3    3    0  501  0.38070925191E+02 -0.11020114282E+02 -0.26592736381E+01  0.40000000000E+02  0.47000000000E+01 0.  1.
</event>
<event>
 5    1  0.4872488E-001  0.8000000E+02  0.7546771E-02  0.1203772E+00
         11   -1    0    0    0    0  0.00000000000E+00  0.00000000000E+00  0.40000000000E+02  0.40000000000E+02  0.00000000000E+00 0.  1.
        -11   -1    0    0    0    0 -0.00000000000E+00 -0.00000000000E+00 -0.40000000000E+02  0.40000000000E+02  0.00000000000E+00 0. -1.
         23    2    1    2    0    0  0.00000000000E+00  0.00000000000E+00  0.00000000000E+00  0.80000000000E+02  0.80000000000E+02 0.  0.
          5    1    3    3  501    0 -0.22279103606E+00 -0.36976916361E+01 -0.39549809617E+02  0.40000000000E+02  0.47000000000E+01 0. -1.
         -5    1    3    3    0  501  0.22279103606E+00  0.36976916361E+01  0.39549809617E+02  0.40000000000E+02  0.47000000000E+01 0.  1.
</event>
<event>
 5    1  0.4872488E-001  0.8000000E+02  0.7546771E-02  0.1203772E+00
         11   -1    0    0    0    0  0.00000000000E+00  0.00000000000E+00  0.40000000000E+02  0.40000000000E+02  0.00000000000E+00 0.  1.
        -11   -1    0    0    0    0 -0.00000000000E+00 -0.00000000000E+00 -0.40000000000E+02  0.40000000000E+02  0.00000000000E+00 0. -1.
         23    2    1    2    0    0  0.00000000000E+00  0.00000000000E+00  0.00000000000E+00  0.80000000000E+02  0.80000000000E+02 0.  0.
          5    1    3    3  501    0 -0.25552956431E+02 -0.29436887373E+02 -0.76436954012E+01  0.40000000000E+02  0.47000000000E+01 0. -1.
         -5    1    3    3    0  501  0.25552956431E+02  0.29436887373E+02  0.76436954012E+01  0.40000000000E+02  0.47000000000E+01 0.  1.
</event>
<event>
 5    1  0.4872488E-001  0.8000000E+02  0.7546771E-02  0.1203772E+00
         11   -1    0    0    0    0  0.00000000000E+00  0.00000000000E+00  0.40000000000E+02  0.40000000000E+02  0.00000000000E+00 0.  1.
        -11   -1    0    0    0    0 -0.00000000000E+00 -0.00000000000E+00 -0.40000000000E+02  0.40000000000E+02  0.00000000000E+00 0. -1.
         23    2    1    2    0    0  0.00000000000E+00  0.00000000000E+00  0.00000000000E+00  0.80000000000E+02  0.80000000000E+02 0.  0.
          5    1    3    3  501    0  0.16184958498E+01 -0.46301931786E+01 -0.39418926702E+02  0.40000000000E+02  0.47000000000E+01 0. -1.
         -5    1    3    3    0  501 -0.16184958498E+01  0.46301931786E+01  0.39418926702E+02  0.40000000000E+02  0.47000000000E+01 0.  1.
</event>
<event>
 5    1  0.4872488E-001  0.8000000E+02  0.7546771E-02  0.1203772E+00
         11   -1    0    0    0    0  0.00000000000E+00  0.00000000000E+00  0.40000000000E+02  0.40000000000E+02  0.00000000000E+00 0. -1.
        -11   -1    0    0    0    0 -0.00000000000E+00 -0.00000000000E+00 -0.40000000000E+02  0.40000000000E+02  0.00000000000E+00 0.  1.
         23    2    1    2    0    0  0.00000000000E+00  0.00000000000E+00  0.00000000000E+00  0.80000000000E+02  0.80000000000E+02 0.  0.
          5    1    3    3  501    0  0.31995376400E+02  0.12142950772E+02 -0.20168158953E+02  0.40000000000E+02  0.47000000000E+01 0. -1.
         -5    1    3    3    0  501 -0.31995376400E+02 -0.12142950772E+02  0.20168158953E+02  0.40000000000E+02  0.47000000000E+01 0.  1.
</event>
<event>
 5    1  0.4872488E-001  0.8000000E+02  0.7546771E-02  0.1203772E+00
         11   -1    0    0    0    0  0.00000000000E+00  0.00000000000E+00  0.40000000000E+02  0.40000000000E+02  0.00000000000E+00 0. -1.
        -11   -1    0    0    0    0 -0.00000000000E+00 -0.00000000000E+00 -0.40000000000E+02  0.40000000000E+02  0.00000000000E+00 0.  1.
         23    2    1    2    0    0  0.00000000000E+00  0.00000000000E+00  0.00000000000E+00  0.80000000000E+02  0.80000000000E+02 0.  0.
          5    1    3    3  501    0  0.41604086197E+01  0.39260354575E+02  0.43846959671E+01  0.40000000000E+02  0.47000000000E+01 0. -1.
         -5    1    3    3    0  501 -0.41604086197E+01 -0.39260354575E+02 -0.43846959671E+01  0.40000000000E+02  0.47000000000E+01 0.  1.
</event>
<event>
 5    1  0.4872488E-001  0.8000000E+02  0.7546771E-02  0.1203772E+00
         11   -1    0    0    0    0  0.00000000000E+00  0.00000000000E+00  0.40000000000E+02  0.40000000000E+02  0.00000000000E+00 0. -1.
        -11   -1    0    0    0    0 -0.00000000000E+00 -0.00000000000E+00 -0.40000000000E+02  0.40000000000E+02  0.00000000000E+00 0.  1.
         23    2    1    2    0    0  0.00000000000E+00  0.00000000000E+00  0.00000000000E+00  0.80000000000E+02  0.80000000000E+02 0.  0.
          5    1    3    3  501    0 -0.31134963082E+02  0.19303749175E+02  0.15358689451E+02  0.40000000000E+02  0.47000000000E+01 0. -1.
         -5    1    3    3    0  501  0.31134963082E+02 -0.19303749175E+02 -0.15358689451E+02  0.40000000000E+02  0.47000000000E+01 0.  1.
</event>
<event>
 5    1  0.4872488E-001  0.8000000E+02  0.7546771E-02  0.1203772E+00
         11   -1    0    0    0    0  0.00000000000E+00  0.00000000000E+00  0.40000000000E+02  0.40000000000E+02  0.00000000000E+00 0. -1.
        -11   -1    0    0    0    0 -0.00000000000E+00 -0.00000000000E+00 -0.40000000000E+02  0.40000000000E+02  0.00000000000E+00 0.  1.
         23    2    1    2    0    0  0.00000000000E+00  0.00000000000E+00  0.00000000000E+00  0.80000000000E+02  0.80000000000E+02 0.  0.
          5    1    3    3  501    0 -0.50002816568E+01  0.35232686049E+02  0.17651204411E+02  0.40000000000E+02  0.47000000000E+01 0. -1.
         -5    1    3    3    0  501  0.50002816568E+01 -0.35232686049E+02 -0.17651204411E+02  0.40000000000E+02  0.47000000000E+01 0.  1.
</event>
<event>
 5    1  0.4872488E-001  0.8000000E+02  0.7546771E-02  0.1203772E+00
         11   -1    0    0    0    0  0.00000000000E+00  0.00000000000E+00  0.40000000000E+02  0.40000000000E+02  0.00000000000E+00 0. -1.
        -11   -1    0    0    0    0 -0.00000000000E+00 -0.00000000000E+00 -0.40000000000E+02  0.40000000000E+02  0.00000000000E+00 0.  1.
         23    2    1    2    0    0  0.00000000000E+00  0.00000000000E+00  0.00000000000E+00  0.80000000000E+02  0.80000000000E+02 0.  0.
          5    1    3    3  501    0 -0.28789655454E+01 -0.29100995722E+02  0.26884077172E+02  0.40000000000E+02  0.47000000000E+01 0. -1.
         -5    1    3    3    0  501  0.28789655454E+01  0.29100995722E+02 -0.26884077172E+02  0.40000000000E+02  0.47000000000E+01 0.  1.
</event>
<event>
 5    1  0.4872488E-001  0.8000000E+02  0.7546771E-02  0.1203772E+00
         11   -1    0    0    0    0  0.00000000000E+00  0.00000000000E+00  0.40000000000E+02  0.40000000000E+02  0.00000000000E+00 0. -1.
        -11   -1    0    0    0    0 -0.00000000000E+00 -0.00000000000E+00 -0.40000000000E+02  0.40000000000E+02  0.00000000000E+00 0.  1.
         23    2    1    2    0    0  0.00000000000E+00  0.00000000000E+00  0.00000000000E+00  0.80000000000E+02  0.80000000000E+02 0.  0.
          5    1    3    3  501    0 -0.23275158346E+02  0.32189140130E+02  0.19042503213E+00  0.40000000000E+02  0.47000000000E+01 0. -1.
         -5    1    3    3    0  501  0.23275158346E+02 -0.32189140130E+02 -0.19042503213E+00  0.40000000000E+02  0.47000000000E+01 0.  1.
</event>
<event>
 5    1  0.4872488E-001  0.8000000E+02  0.7546771E-02  0.1203772E+00
         11   -1    0    0    0    0  0.00000000000E+00  0.00000000000E+00  0.40000000000E+02  0.40000000000E+02  0.00000000000E+00 0. -1.
        -11   -1    0    0    0    0 -0.00000000000E+00 -0.00000000000E+00 -0.40000000000E+02  0.40000000000E+02  0.00000000000E+00 0.  1.
         23    2    1    2    0    0  0.00000000000E+00  0.00000000000E+00  0.00000000000E+00  0.80000000000E+02  0.80000000000E+02 0.  0.
          5    1    3    3  501    0 -0.14737424568E+02  0.33920992634E+02  0.14494294595E+02  0.40000000000E+02  0.47000000000E+01 0. -1.
         -5    1    3    3    0  501  0.14737424568E+02 -0.33920992634E+02 -0.14494294595E+02  0.40000000000E+02  0.47000000000E+01 0.  1.
</event>
<event>
 5    1  0.4872488E-001  0.8000000E+02  0.7546771E-02  0.1203772E+00
         11   -1    0    0    0    0  0.00000000000E+00  0.00000000000E+00  0.40000000000E+02  0.40000000000E+02  0.00000000000E+00 0.  1.
        -11   -1    0    0    0    0 -0.00000000000E+00 -0.00000000000E+00 -0.40000000000E+02  0.40000000000E+02  0.00000000000E+00 0. -1.
         23    2    1    2    0    0  0.00000000000E+00  0.00000000000E+00  0.00000000000E+00  0.80000000000E+02  0.80000000000E+02 0.  0.
          5    1    3    3  501    0  0.36172941387E+02 -0.63224927402E+01 -0.15147752209E+02  0.40000000000E+02  0.47000000000E+01 0. -1.
         -5    1    3    3    0  501 -0.36172941387E+02  0.63224927402E+01  0.15147752209E+02  0.40000000000E+02  0.47000000000E+01 0.  1.
</event>
<event>
 5    1  0.4872488E-001  0.8000000E+02  0.7546771E-02  0.1203772E+00
         11   -1    0    0    0    0  0.00000000000E+00  0.00000000000E+00  0.40000000000E+02  0.40000000000E+02  0.00000000000E+00 0.  1.
        -11   -1    0    0    0    0 -0.00000000000E+00 -0.00000000000E+00 -0.40000000000E+02  0.40000000000E+02  0.00000000000E+00 0. -1.
         23    2    1    2    0    0  0.00000000000E+00  0.00000000000E+00  0.00000000000E+00  0.80000000000E+02  0.80000000000E+02 0.  0.
          5    1    3    3  501    0  0.34413212867E+02 -0.19835998128E+02  0.41708324030E+00  0.40000000000E+02  0.47000000000E+01 0. -1.
         -5    1    3    3    0  501 -0.34413212867E+02  0.19835998128E+02 -0.41708324030E+00  0.40000000000E+02  0.47000000000E+01 0.  1.
</event>
<event>
 5    1  0.4872488E-001  0.8000000E+02  0.7546771E-02  0.1203772E+00
         11   -1    0    0    0    0  0.00000000000E+00  0.00000000000E+00  0.40000000000E+02  0.40000000000E+02  0.00000000000E+00 0. -1.
        -11   -1    0    0    0    0 -0.00000000000E+00 -0.00000000000E+00 -0.40000000000E+02  0.40000000000E+02  0.00000000000E+00 0.  1.
         23    2    1    2    0    0  0.00000000000E+00  0.00000000000E+00  0.00000000000E+00  0.80000000000E+02  0.80000000000E+02 0.  0.
          5    1    3    3  501    0  0.31791487981E+02  0.23590129548E+02  0.32736951430E+01  0.40000000000E+02  0.47000000000E+01 0. -1.
         -5    1    3    3    0  501 -0.31791487981E+02 -0.23590129548E+02 -0.32736951430E+01  0.40000000000E+02  0.47000000000E+01 0.  1.
</event>
<event>
 5    1  0.4872488E-001  0.8000000E+02  0.7546771E-02  0.1203772E+00
         11   -1    0    0    0    0  0.00000000000E+00  0.00000000000E+00  0.40000000000E+02  0.40000000000E+02  0.00000000000E+00 0.  1.
        -11   -1    0    0    0    0 -0.00000000000E+00 -0.00000000000E+00 -0.40000000000E+02  0.40000000000E+02  0.00000000000E+00 0. -1.
         23    2    1    2    0    0  0.00000000000E+00  0.00000000000E+00  0.00000000000E+00  0.80000000000E+02  0.80000000000E+02 0.  0.
          5    1    3    3  501    0 -0.17820134468E+02  0.90000111969E+00 -0.35490038117E+02  0.40000000000E+02  0.47000000000E+01 0. -1.
         -5    1    3    3    0  501  0.17820134468E+02 -0.90000111969E+00  0.35490038117E+02  0.40000000000E+02  0.47000000000E+01 0.  1.
</event>
<event>
 5    1  0.4872488E-001  0.8000000E+02  0.7546771E-02  0.1203772E+00
         11   -1    0    0    0    0  0.00000000000E+00  0.00000000000E+00  0.40000000000E+02  0.40000000000E+02  0.00000000000E+00 0. -1.
        -11   -1    0    0    0    0 -0.00000000000E+00 -0.00000000000E+00 -0.40000000000E+02  0.40000000000E+02  0.00000000000E+00 0.  1.
         23    2    1    2    0    0  0.00000000000E+00  0.00000000000E+00  0.00000000000E+00  0.80000000000E+02  0.80000000000E+02 0.  0.
          5    1    3    3  501    0 -0.14967564217E+02 -0.23264772563E+02  0.28506707615E+02  0.40000000000E+02  0.47000000000E+01 0. -1.
         -5    1    3    3    0  501  0.14967564217E+02  0.23264772563E+02 -0.28506707615E+02  0.40000000000E+02  0.47000000000E+01 0.  1.
</event>
<event>
 5    1  0.4872488E-001  0.8000000E+02  0.7546771E-02  0.1203772E+00
         11   -1    0    0    0    0  0.00000000000E+00  0.00000000000E+00  0.40000000000E+02  0.40000000000E+02  0.00000000000E+00 0. -1.
        -11   -1    0    0    0    0 -0.00000000000E+00 -0.00000000000E+00 -0.40000000000E+02  0.40000000000E+02  0.00000000000E+00 0.  1.
         23    2    1    2    0    0  0.00000000000E+00  0.00000000000E+00  0.00000000000E+00  0.80000000000E+02  0.80000000000E+02 0.  0.
          5    1    3    3  501    0 -0.29273125634E+02  0.11821702784E+02  0.24108949767E+02  0.40000000000E+02  0.47000000000E+01 0. -1.
         -5    1    3    3    0  501  0.29273125634E+02 -0.11821702784E+02 -0.24108949767E+02  0.40000000000E+02  0.47000000000E+01 0.  1.
</event>
<event>
 5    1  0.4872488E-001  0.8000000E+02  0.7546771E-02  0.1203772E+00
         11   -1    0    0    0    0  0.00000000000E+00  0.00000000000E+00  0.40000000000E+02  0.40000000000E+02  0.00000000000E+00 0.  1.
        -11   -1    0    0    0    0 -0.00000000000E+00 -0.00000000000E+00 -0.40000000000E+02  0.40000000000E+02  0.00000000000E+00 0. -1.
         23    2    1    2    0    0  0.00000000000E+00  0.00000000000E+00  0.00000000000E+00  0.80000000000E+02  0.80000000000E+02 0.  0.
          5    1    3    3  501    0  0.40823052419E+01  0.10563020636E+02 -0.38074497751E+02  0.40000000000E+02  0.47000000000E+01 0. -1.
         -5    1    3    3    0  501 -0.40823052419E+01 -0.10563020636E+02  0.38074497751E+02  0.40000000000E+02  0.47000000000E+01 0.  1.
</event>
<event>
 5    1  0.4872488E-001  0.8000000E+02  0.7546771E-02  0.1203772E+00
         11   -1    0    0    0    0  0.00000000000E+00  0.00000000000E+00  0.40000000000E+02  0.40000000000E+02  0.00000000000E+00 0.  1.
        -11   -1    0    0    0    0 -0.00000000000E+00 -0.00000000000E+00 -0.40000000000E+02  0.40000000000E+02  0.00000000000E+00 0. -1.
         23    2    1    2    0    0  0.00000000000E+00  0.00000000000E+00  0.00000000000E+00  0.80000000000E+02  0.80000000000E+02 0.  0.
          5    1    3    3  501    0  0.76533364037E+01 -0.28395091011E+01 -0.38875102957E+02  0.40000000000E+02  0.47000000000E+01 0. -1.
         -5    1    3    3    0  501 -0.76533364037E+01  0.28395091011E+01  0.38875102957E+02  0.40000000000E+02  0.47000000000E+01 0.  1.
</event>
<event>
 5    1  0.4872488E-001  0.8000000E+02  0.7546771E-02  0.1203772E+00
         11   -1    0    0    0    0  0.00000000000E+00  0.00000000000E+00  0.40000000000E+02  0.40000000000E+02  0.00000000000E+00 0.  1.
        -11   -1    0    0    0    0 -0.00000000000E+00 -0.00000000000E+00 -0.40000000000E+02  0.40000000000E+02  0.00000000000E+00 0. -1.
         23    2    1    2    0    0  0.00000000000E+00  0.00000000000E+00  0.00000000000E+00  0.80000000000E+02  0.80000000000E+02 0.  0.
          5    1    3    3  501    0 -0.26681581417E+02  0.25603309286E+02 -0.14507714041E+02  0.40000000000E+02  0.47000000000E+01 0. -1.
         -5    1    3    3    0  501  0.26681581417E+02 -0.25603309286E+02  0.14507714041E+02  0.40000000000E+02  0.47000000000E+01 0.  1.
</event>
<event>
 5    1  0.4872488E-001  0.8000000E+02  0.7546771E-02  0.1203772E+00
         11   -1    0    0    0    0  0.00000000000E+00  0.00000000000E+00  0.40000000000E+02  0.40000000000E+02  0.00000000000E+00 0.  1.
        -11   -1    0    0    0    0 -0.00000000000E+00 -0.00000000000E+00 -0.40000000000E+02  0.40000000000E+02  0.00000000000E+00 0. -1.
         23    2    1    2    0    0  0.00000000000E+00  0.00000000000E+00  0.00000000000E+00  0.80000000000E+02  0.80000000000E+02 0.  0.
          5    1    3    3  501    0 -0.34744710113E+02 -0.16228020279E+02 -0.10361779625E+02  0.40000000000E+02  0.47000000000E+01 0. -1.
         -5    1    3    3    0  501  0.34744710113E+02  0.16228020279E+02  0.10361779625E+02  0.40000000000E+02  0.47000000000E+01 0.  1.
</event>
<event>
 5    1  0.4872488E-001  0.8000000E+02  0.7546771E-02  0.1203772E+00
         11   -1    0    0    0    0  0.00000000000E+00  0.00000000000E+00  0.40000000000E+02  0.40000000000E+02  0.00000000000E+00 0.  1.
        -11   -1    0    0    0    0 -0.00000000000E+00 -0.00000000000E+00 -0.40000000000E+02  0.40000000000E+02  0.00000000000E+00 0. -1.
         23    2    1    2    0    0  0.00000000000E+00  0.00000000000E+00  0.00000000000E+00  0.80000000000E+02  0.80000000000E+02 0.  0.
          5    1    3    3  501    0  0.11348272124E+02  0.37941171272E+02 -0.30974573949E+01  0.40000000000E+02  0.47000000000E+01 0. -1.
         -5    1    3    3    0  501 -0.11348272124E+02 -0.37941171272E+02  0.30974573949E+01  0.40000000000E+02  0.47000000000E+01 0.  1.
</event>
<event>
 5    1  0.4872488E-001  0.8000000E+02  0.7546771E-02  0.1203772E+00
         11   -1    0    0    0    0  0.00000000000E+00  0.00000000000E+00  0.40000000000E+02  0.40000000000E+02  0.00000000000E+00 0.  1.
        -11   -1    0    0    0    0 -0.00000000000E+00 -0.00000000000E+00 -0.40000000000E+02  0.40000000000E+02  0.00000000000E+00 0. -1.
         23    2    1    2    0    0  0.00000000000E+00  0.00000000000E+00  0.00000000000E+00  0.80000000000E+02  0.80000000000E+02 0.  0.
          5    1    3    3  501    0  0.16988241987E+02  0.30718058841E+02  0.18593291673E+02  0.40000000000E+02  0.47000000000E+01 0. -1.
         -5    1    3    3    0  501 -0.16988241987E+02 -0.30718058841E+02 -0.18593291673E+02  0.40000000000E+02  0.47000000000E+01 0.  1.
</event>
<event>
 5    1  0.4872488E-001  0.8000000E+02  0.7546771E-02  0.1203772E+00
         11   -1    0    0    0    0  0.00000000000E+00  0.00000000000E+00  0.40000000000E+02  0.40000000000E+02  0.00000000000E+00 0. -1.
        -11   -1    0    0    0    0 -0.00000000000E+00 -0.00000000000E+00 -0.40000000000E+02  0.40000000000E+02  0.00000000000E+00 0.  1.
         23    2    1    2    0    0  0.00000000000E+00  0.00000000000E+00  0.00000000000E+00  0.80000000000E+02  0.80000000000E+02 0.  0.
          5    1    3    3  501    0  0.11210263665E+02 -0.36117090481E+02  0.12157128106E+02  0.40000000000E+02  0.47000000000E+01 0. -1.
         -5    1    3    3    0  501 -0.11210263665E+02  0.36117090481E+02 -0.12157128106E+02  0.40000000000E+02  0.47000000000E+01 0.  1.
</event>
<event>
 5    1  0.4872488E-001  0.8000000E+02  0.7546771E-02  0.1203772E+00
         11   -1    0    0    0    0  0.00000000000E+00  0.00000000000E+00  0.40000000000E+02  0.40000000000E+02  0.00000000000E+00 0.  1.
        -11   -1    0    0    0    0 -0.00000000000E+00 -0.00000000000E+00 -0.40000000000E+02  0.40000000000E+02  0.00000000000E+00 0. -1.
         23    2    1    2    0    0  0.00000000000E+00  0.00000000000E+00  0.00000000000E+00  0.80000000000E+02  0.80000000000E+02 0.  0.
          5    1    3    3  501    0  0.21883734697E+02 -0.78063336139E+01 -0.32219145103E+02  0.40000000000E+02  0.47000000000E+01 0. -1.
         -5    1    3    3    0  501 -0.21883734697E+02  0.78063336139E+01  0.32219145103E+02  0.40000000000E+02  0.47000000000E+01 0.  1.
</event>
<event>
 5    1  0.4872488E-001  0.8000000E+02  0.7546771E-02  0.1203772E+00
         11   -1    0    0    0    0  0.00000000000E+00  0.00000000000E+00  0.40000000000E+02  0.40000000000E+02  0.00000000000E+00 0.  1.
        -11   -1    0    0    0    0 -0.00000000000E+00 -0.00000000000E+00 -0.40000000000E+02  0.40000000000E+02  0.00000000000E+00 0. -1.
         23    2    1    2    0    0  0.00000000000E+00  0.00000000000E+00  0.00000000000E+00  0.80000000000E+02  0.80000000000E+02 0.  0.
          5    1    3    3  501    0  0.13125939133E+02 -0.35314022669E+02  0.12591247946E+02  0.40000000000E+02  0.47000000000E+01 0. -1.
         -5    1    3    3    0  501 -0.13125939133E+02  0.35314022669E+02 -0.12591247946E+02  0.40000000000E+02  0.47000000000E+01 0.  1.
</event>
<event>
 5    1  0.4872488E-001  0.8000000E+02  0.7546771E-02  0.1203772E+00
         11   -1    0    0    0    0  0.00000000000E+00  0.00000000000E+00  0.40000000000E+02  0.40000000000E+02  0.00000000000E+00 0. -1.
        -11   -1    0    0    0    0 -0.00000000000E+00 -0.00000000000E+00 -0.40000000000E+02  0.40000000000E+02  0.00000000000E+00 0.  1.
         23    2    1    2    0    0  0.00000000000E+00  0.00000000000E+00  0.00000000000E+00  0.80000000000E+02  0.80000000000E+02 0.  0.
          5    1    3    3  501    0 -0.29532576299E+01  0.22144933562E+02  0.32844941572E+02  0.40000000000E+02  0.47000000000E+01 0. -1.
         -5    1    3    3    0  501  0.29532576299E+01 -0.22144933562E+02 -0.32844941572E+02  0.40000000000E+02  0.47000000000E+01 0.  1.
</event>
<event>
 5    1  0.4872488E-001  0.8000000E+02  0.7546771E-02  0.1203772E+00
         11   -1    0    0    0    0  0.00000000000E+00  0.00000000000E+00  0.40000000000E+02  0.40000000000E+02  0.00000000000E+00 0.  1.
        -11   -1    0    0    0    0 -0.00000000000E+00 -0.00000000000E+00 -0.40000000000E+02  0.40000000000E+02  0.00000000000E+00 0. -1.
         23    2    1    2    0    0  0.00000000000E+00  0.00000000000E+00  0.00000000000E+00  0.80000000000E+02  0.80000000000E+02 0.  0.
          5    1    3    3  501    0 -0.30118759799E+02 -0.12009227198E+02 -0.22946650525E+02  0.40000000000E+02  0.47000000000E+01 0. -1.
         -5    1    3    3    0  501  0.30118759799E+02  0.12009227198E+02  0.22946650525E+02  0.40000000000E+02  0.47000000000E+01 0.  1.
</event>
<event>
 5    1  0.4872488E-001  0.8000000E+02  0.7546771E-02  0.1203772E+00
         11   -1    0    0    0    0  0.00000000000E+00  0.00000000000E+00  0.40000000000E+02  0.40000000000E+02  0.00000000000E+00 0. -1.
        -11   -1    0    0    0    0 -0.00000000000E+00 -0.00000000000E+00 -0.40000000000E+02  0.40000000000E+02  0.00000000000E+00 0.  1.
         23    2    1    2    0    0  0.00000000000E+00  0.00000000000E+00  0.00000000000E+00  0.80000000000E+02  0.80000000000E+02 0.  0.
          5    1    3    3  501    0  0.25758523851E+02  0.18945202965E+02  0.23568787275E+02  0.40000000000E+02  0.47000000000E+01 0. -1.
         -5    1    3    3    0  501 -0.25758523851E+02 -0.18945202965E+02 -0.23568787275E+02  0.40000000000E+02  0.47000000000E+01 0.  1.
</event>
<event>
 5    1  0.4872488E-001  0.8000000E+02  0.7546771E-02  0.1203772E+00
         11   -1    0    0    0    0  0.00000000000E+00  0.00000000000E+00  0.40000000000E+02  0.40000000000E+02  0.00000000000E+00 0.  1.
        -11   -1    0    0    0    0 -0.00000000000E+00 -0.00000000000E+00 -0.40000000000E+02  0.40000000000E+02  0.00000000000E+00 0. -1.
         23    2    1    2    0    0  0.00000000000E+00  0.00000000000E+00  0.00000000000E+00  0.80000000000E+02  0.80000000000E+02 0.  0.
          5    1    3    3  501    0  0.10769969853E+02 -0.47110309622E+01 -0.37943694294E+02  0.40000000000E+02  0.47000000000E+01 0. -1.
         -5    1    3    3    0  501 -0.10769969853E+02  0.47110309622E+01  0.37943694294E+02  0.40000000000E+02  0.47000000000E+01 0.  1.
</event>
<event>
 5    1  0.4872488E-001  0.8000000E+02  0.7546771E-02  0.1203772E+00
         11   -1    0    0    0    0  0.00000000000E+00  0.00000000000E+00  0.40000000000E+02  0.40000000000E+02  0.00000000000E+00 0.  1.
        -11   -1    0    0    0    0 -0.00000000000E+00 -0.00000000000E+00 -0.40000000000E+02  0.40000000000E+02  0.00000000000E+00 0. -1.
         23    2    1    2    0    0  0.00000000000E+00  0.00000000000E+00  0.00000000000E+00  0.80000000000E+02  0.80000000000E+02 0.  0.
          5    1    3    3  501    0 -0.43096214613E+01  0.25466144448E+02 -0.30179672792E+02  0.40000000000E+02  0.47000000000E+01 0. -1.
         -5    1    3    3    0  501  0.43096214613E+01 -0.25466144448E+02  0.30179672792E+02  0.40000000000E+02  0.47000000000E+01 0.  1.
</event>
<event>
 5    1  0.4872488E-001  0.8000000E+02  0.7546771E-02  0.1203772E+00
         11   -1    0    0    0    0  0.00000000000E+00  0.00000000000E+00  0.40000000000E+02  0.40000000000E+02  0.00000000000E+00 0.  1.
        -11   -1    0    0    0    0 -0.00000000000E+00 -0.00000000000E+00 -0.40000000000E+02  0.40000000000E+02  0.00000000000E+00 0. -1.
         23    2    1    2    0    0  0.00000000000E+00  0.00000000000E+00  0.00000000000E+00  0.80000000000E+02  0.80000000000E+02 0.  0.
          5    1    3    3  501    0  0.11817747837E+02  0.29248806877E+02  0.24140383848E+02  0.40000000000E+02  0.47000000000E+01 0. -1.
         -5    1    3    3    0  501 -0.11817747837E+02 -0.29248806877E+02 -0.24140383848E+02  0.40000000000E+02  0.47000000000E+01 0.  1.
</event>
<event>
 5    1  0.4872488E-001  0.8000000E+02  0.7546771E-02  0.1203772E+00
         11   -1    0    0    0    0  0.00000000000E+00  0.00000000000E+00  0.40000000000E+02  0.40000000000E+02  0.00000000000E+00 0. -1.
        -11   -1    0    0    0    0 -0.00000000000E+00 -0.00000000000E+00 -0.40000000000E+02  0.40000000000E+02  0.00000000000E+00 0.  1.
         23    2    1    2    0    0  0.00000000000E+00  0.00000000000E+00  0.00000000000E+00  0.80000000000E+02  0.80000000000E+02 0.  0.
          5    1    3    3  501    0 -0.26036220945E+01 -0.32295497235E+01  0.39505710481E+02  0.40000000000E+02  0.47000000000E+01 0. -1.
         -5    1    3    3    0  501  0.26036220945E+01  0.32295497235E+01 -0.39505710481E+02  0.40000000000E+02  0.47000000000E+01 0.  1.
</event>
<event>
 5    1  0.4872488E-001  0.8000000E+02  0.7546771E-02  0.1203772E+00
         11   -1    0    0    0    0  0.00000000000E+00  0.00000000000E+00  0.40000000000E+02  0.40000000000E+02  0.00000000000E+00 0.  1.
        -11   -1    0    0    0    0 -0.00000000000E+00 -0.00000000000E+00 -0.40000000000E+02  0.40000000000E+02  0.00000000000E+00 0. -1.
         23    2    1    2    0    0  0.00000000000E+00  0.00000000000E+00  0.00000000000E+00  0.80000000000E+02  0.80000000000E+02 0.  0.
          5    1    3    3  501    0  0.88316761425E+01  0.35219257377E+02 -0.16109481877E+02  0.40000000000E+02  0.47000000000E+01 0. -1.
         -5    1    3    3    0  501 -0.88316761425E+01 -0.35219257377E+02  0.16109481877E+02  0.40000000000E+02  0.47000000000E+01 0.  1.
</event>
<event>
 5    1  0.4872488E-001  0.8000000E+02  0.7546771E-02  0.1203772E+00
         11   -1    0    0    0    0  0.00000000000E+00  0.00000000000E+00  0.40000000000E+02  0.40000000000E+02  0.00000000000E+00 0.  1.
        -11   -1    0    0    0    0 -0.00000000000E+00 -0.00000000000E+00 -0.40000000000E+02  0.40000000000E+02  0.00000000000E+00 0. -1.
         23    2    1    2    0    0  0.00000000000E+00  0.00000000000E+00  0.00000000000E+00  0.80000000000E+02  0.80000000000E+02 0.  0.
          5    1    3    3  501    0  0.12832312370E+02  0.34348624457E+02 -0.15277884578E+02  0.40000000000E+02  0.47000000000E+01 0. -1.
         -5    1    3    3    0  501 -0.12832312370E+02 -0.34348624457E+02  0.15277884578E+02  0.40000000000E+02  0.47000000000E+01 0.  1.
</event>
<event>
 5    1  0.4872488E-001  0.8000000E+02  0.7546771E-02  0.1203772E+00
         11   -1    0    0    0    0  0.00000000000E+00  0.00000000000E+00  0.40000000000E+02  0.40000000000E+02  0.00000000000E+00 0. -1.
        -11   -1    0    0    0    0 -0.00000000000E+00 -0.00000000000E+00 -0.40000000000E+02  0.40000000000E+02  0.00000000000E+00 0.  1.
         23    2    1    2    0    0  0.00000000000E+00  0.00000000000E+00  0.00000000000E+00  0.80000000000E+02  0.80000000000E+02 0.  0.
          5    1    3    3  501    0 -0.89626804004E+01  0.29123069886E+02  0.25483860783E+02  0.40000000000E+02  0.47000000000E+01 0. -1.
         -5    1    3    3    0  501  0.89626804004E+01 -0.29123069886E+02 -0.25483860783E+02  0.40000000000E+02  0.47000000000E+01 0.  1.
</event>
<event>
 5    1  0.4872488E-001  0.8000000E+02  0.7546771E-02  0.1203772E+00
         11   -1    0    0    0    0  0.00000000000E+00  0.00000000000E+00  0.40000000000E+02  0.40000000000E+02  0.00000000000E+00 0. -1.
        -11   -1    0    0    0    0 -0.00000000000E+00 -0.00000000000E+00 -0.40000000000E+02  0.40000000000E+02  0.00000000000E+00 0.  1.
         23    2    1    2    0    0  0.00000000000E+00  0.00000000000E+00  0.00000000000E+00  0.80000000000E+02  0.80000000000E+02 0.  0.
          5    1    3    3  501    0  0.32593685231E+02  0.17109225099E+02  0.14927695723E+02  0.40000000000E+02  0.47000000000E+01 0. -1.
         -5    1    3    3    0  501 -0.32593685231E+02 -0.17109225099E+02 -0.14927695723E+02  0.40000000000E+02  0.47000000000E+01 0.  1.
</event>
<event>
 5    1  0.4872488E-001  0.8000000E+02  0.7546771E-02  0.1203772E+00
         11   -1    0    0    0    0  0.00000000000E+00  0.00000000000E+00  0.40000000000E+02  0.40000000000E+02  0.00000000000E+00 0. -1.
        -11   -1    0    0    0    0 -0.00000000000E+00 -0.00000000000E+00 -0.40000000000E+02  0.40000000000E+02  0.00000000000E+00 0.  1.
         23    2    1    2    0    0  0.00000000000E+00  0.00000000000E+00  0.00000000000E+00  0.80000000000E+02  0.80000000000E+02 0.  0.
          5    1    3    3  501    0  0.14005000858E+02  0.15323984196E+02  0.33866583225E+02  0.40000000000E+02  0.47000000000E+01 0. -1.
         -5    1    3    3    0  501 -0.14005000858E+02 -0.15323984196E+02 -0.33866583225E+02  0.40000000000E+02  0.47000000000E+01 0.  1.
</event>
<event>
 5    1  0.4872488E-001  0.8000000E+02  0.7546771E-02  0.1203772E+00
         11   -1    0    0    0    0  0.00000000000E+00  0.00000000000E+00  0.40000000000E+02  0.40000000000E+02  0.00000000000E+00 0. -1.
        -11   -1    0    0    0    0 -0.00000000000E+00 -0.00000000000E+00 -0.40000000000E+02  0.40000000000E+02  0.00000000000E+00 0.  1.
         23    2    1    2    0    0  0.00000000000E+00  0.00000000000E+00  0.00000000000E+00  0.80000000000E+02  0.80000000000E+02 0.  0.
          5    1    3    3  501    0 -0.40419893539E+01  0.31341388179E+02 -0.24068438027E+02  0.40000000000E+02  0.47000000000E+01 0.  1.
         -5    1    3    3    0  501  0.40419893539E+01 -0.31341388179E+02  0.24068438027E+02  0.40000000000E+02  0.47000000000E+01 0. -1.
</event>
<event>
 5    1  0.4872488E-001  0.8000000E+02  0.7546771E-02  0.1203772E+00
         11   -1    0    0    0    0  0.00000000000E+00  0.00000000000E+00  0.40000000000E+02  0.40000000000E+02  0.00000000000E+00 0. -1.
        -11   -1    0    0    0    0 -0.00000000000E+00 -0.00000000000E+00 -0.40000000000E+02  0.40000000000E+02  0.00000000000E+00 0.  1.
         23    2    1    2    0    0  0.00000000000E+00  0.00000000000E+00  0.00000000000E+00  0.80000000000E+02  0.80000000000E+02 0.  0.
          5    1    3    3  501    0  0.28068283031E+02 -0.84985120987E+01  0.26792849415E+02  0.40000000000E+02  0.47000000000E+01 0. -1.
         -5    1    3    3    0  501 -0.28068283031E+02  0.84985120987E+01 -0.26792849415E+02  0.40000000000E+02  0.47000000000E+01 0.  1.
</event>
<event>
 5    1  0.4872488E-001  0.8000000E+02  0.7546771E-02  0.1203772E+00
         11   -1    0    0    0    0  0.00000000000E+00  0.00000000000E+00  0.40000000000E+02  0.40000000000E+02  0.00000000000E+00 0. -1.
        -11   -1    0    0    0    0 -0.00000000000E+00 -0.00000000000E+00 -0.40000000000E+02  0.40000000000E+02  0.00000000000E+00 0.  1.
         23    2    1    2    0    0  0.00000000000E+00  0.00000000000E+00  0.00000000000E+00  0.80000000000E+02  0.80000000000E+02 0.  0.
          5    1    3    3  501    0 -0.29852345848E+02 -0.25868816853E+02  0.41894823056E+01  0.40000000000E+02  0.47000000000E+01 0. -1.
         -5    1    3    3    0  501  0.29852345848E+02  0.25868816853E+02 -0.41894823056E+01  0.40000000000E+02  0.47000000000E+01 0.  1.
</event>
<event>
 5    1  0.4872488E-001  0.8000000E+02  0.7546771E-02  0.1203772E+00
         11   -1    0    0    0    0  0.00000000000E+00  0.00000000000E+00  0.40000000000E+02  0.40000000000E+02  0.00000000000E+00 0. -1.
        -11   -1    0    0    0    0 -0.00000000000E+00 -0.00000000000E+00 -0.40000000000E+02  0.40000000000E+02  0.00000000000E+00 0.  1.
         23    2    1    2    0    0  0.00000000000E+00  0.00000000000E+00  0.00000000000E+00  0.80000000000E+02  0.80000000000E+02 0.  0.
          5    1    3    3  501    0  0.12733326576E+02 -0.14870182010E+02  0.34563710468E+02  0.40000000000E+02  0.47000000000E+01 0. -1.
         -5    1    3    3    0  501 -0.12733326576E+02  0.14870182010E+02 -0.34563710468E+02  0.40000000000E+02  0.47000000000E+01 0.  1.
</event>
<event>
 5    1  0.4872488E-001  0.8000000E+02  0.7546771E-02  0.1203772E+00
         11   -1    0    0    0    0  0.00000000000E+00  0.00000000000E+00  0.40000000000E+02  0.40000000000E+02  0.00000000000E+00 0. -1.
        -11   -1    0    0    0    0 -0.00000000000E+00 -0.00000000000E+00 -0.40000000000E+02  0.40000000000E+02  0.00000000000E+00 0.  1.
         23    2    1    2    0    0  0.00000000000E+00  0.00000000000E+00  0.00000000000E+00  0.80000000000E+02  0.80000000000E+02 0.  0.
          5    1    3    3  501    0  0.28572323157E+02 -0.13192262411E+02  0.24238328364E+02  0.40000000000E+02  0.47000000000E+01 0. -1.
         -5    1    3    3    0  501 -0.28572323157E+02  0.13192262411E+02 -0.24238328364E+02  0.40000000000E+02  0.47000000000E+01 0.  1.
</event>
<event>
 5    1  0.4872488E-001  0.8000000E+02  0.7546771E-02  0.1203772E+00
         11   -1    0    0    0    0  0.00000000000E+00  0.00000000000E+00  0.40000000000E+02  0.40000000000E+02  0.00000000000E+00 0. -1.
        -11   -1    0    0    0    0 -0.00000000000E+00 -0.00000000000E+00 -0.40000000000E+02  0.40000000000E+02  0.00000000000E+00 0.  1.
         23    2    1    2    0    0  0.00000000000E+00  0.00000000000E+00  0.00000000000E+00  0.80000000000E+02  0.80000000000E+02 0.  0.
          5    1    3    3  501    0  0.49145358612E+01 -0.25621426340E+02  0.29954963689E+02  0.40000000000E+02  0.47000000000E+01 0. -1.
         -5    1    3    3    0  501 -0.49145358612E+01  0.25621426340E+02 -0.29954963689E+02  0.40000000000E+02  0.47000000000E+01 0.  1.
</event>
<event>
 5    1  0.4872488E-001  0.8000000E+02  0.7546771E-02  0.1203772E+00
         11   -1    0    0    0    0  0.00000000000E+00  0.00000000000E+00  0.40000000000E+02  0.40000000000E+02  0.00000000000E+00 0. -1.
        -11   -1    0    0    0    0 -0.00000000000E+00 -0.00000000000E+00 -0.40000000000E+02  0.40000000000E+02  0.00000000000E+00 0.  1.
         23    2    1    2    0    0  0.00000000000E+00  0.00000000000E+00  0.00000000000E+00  0.80000000000E+02  0.80000000000E+02 0.  0.
          5    1    3    3  501    0 -0.21791262802E+02  0.29882407309E+02  0.14494571359E+02  0.40000000000E+02  0.47000000000E+01 0. -1.
         -5    1    3    3    0  501  0.21791262802E+02 -0.29882407309E+02 -0.14494571359E+02  0.40000000000E+02  0.47000000000E+01 0.  1.
</event>
<event>
 5    1  0.4872488E-001  0.8000000E+02  0.7546771E-02  0.1203772E+00
         11   -1    0    0    0    0  0.00000000000E+00  0.00000000000E+00  0.40000000000E+02  0.40000000000E+02  0.00000000000E+00 0. -1.
        -11   -1    0    0    0    0 -0.00000000000E+00 -0.00000000000E+00 -0.40000000000E+02  0.40000000000E+02  0.00000000000E+00 0.  1.
         23    2    1    2    0    0  0.00000000000E+00  0.00000000000E+00  0.00000000000E+00  0.80000000000E+02  0.80000000000E+02 0.  0.
          5    1    3    3  501    0  0.23290886091E+02 -0.16072094422E+02  0.27877094647E+02  0.40000000000E+02  0.47000000000E+01 0. -1.
         -5    1    3    3    0  501 -0.23290886091E+02  0.16072094422E+02 -0.27877094647E+02  0.40000000000E+02  0.47000000000E+01 0.  1.
</event>
<event>
 5    1  0.4872488E-001  0.8000000E+02  0.7546771E-02  0.1203772E+00
         11   -1    0    0    0    0  0.00000000000E+00  0.00000000000E+00  0.40000000000E+02  0.40000000000E+02  0.00000000000E+00 0. -1.
        -11   -1    0    0    0    0 -0.00000000000E+00 -0.00000000000E+00 -0.40000000000E+02  0.40000000000E+02  0.00000000000E+00 0.  1.
         23    2    1    2    0    0  0.00000000000E+00  0.00000000000E+00  0.00000000000E+00  0.80000000000E+02  0.80000000000E+02 0.  0.
          5    1    3    3  501    0  0.82725629323E+01 -0.67108578562E+01  0.38267990401E+02  0.40000000000E+02  0.47000000000E+01 0. -1.
         -5    1    3    3    0  501 -0.82725629323E+01  0.67108578562E+01 -0.38267990401E+02  0.40000000000E+02  0.47000000000E+01 0.  1.
</event>
<event>
 5    1  0.4872488E-001  0.8000000E+02  0.7546771E-02  0.1203772E+00
         11   -1    0    0    0    0  0.00000000000E+00  0.00000000000E+00  0.40000000000E+02  0.40000000000E+02  0.00000000000E+00 0.  1.
        -11   -1    0    0    0    0 -0.00000000000E+00 -0.00000000000E+00 -0.40000000000E+02  0.40000000000E+02  0.00000000000E+00 0. -1.
         23    2    1    2    0    0  0.00000000000E+00  0.00000000000E+00  0.00000000000E+00  0.80000000000E+02  0.80000000000E+02 0.  0.
          5    1    3    3  501    0 -0.11146270813E+02  0.32646704584E+02 -0.19694246032E+02  0.40000000000E+02  0.47000000000E+01 0. -1.
         -5    1    3    3    0  501  0.11146270813E+02 -0.32646704584E+02  0.19694246032E+02  0.40000000000E+02  0.47000000000E+01 0.  1.
</event>
<event>
 5    1  0.4872488E-001  0.8000000E+02  0.7546771E-02  0.1203772E+00
         11   -1    0    0    0    0  0.00000000000E+00  0.00000000000E+00  0.40000000000E+02  0.40000000000E+02  0.00000000000E+00 0. -1.
        -11   -1    0    0    0    0 -0.00000000000E+00 -0.00000000000E+00 -0.40000000000E+02  0.40000000000E+02  0.00000000000E+00 0.  1.
         23    2    1    2    0    0  0.00000000000E+00  0.00000000000E+00  0.00000000000E+00  0.80000000000E+02  0.80000000000E+02 0.  0.
          5    1    3    3  501    0 -0.20977228475E+02  0.53139615879E+01  0.33311074702E+02  0.40000000000E+02  0.47000000000E+01 0. -1.
         -5    1    3    3    0  501  0.20977228475E+02 -0.53139615879E+01 -0.33311074702E+02  0.40000000000E+02  0.47000000000E+01 0.  1.
</event>
<event>
 5    1  0.4872488E-001  0.8000000E+02  0.7546771E-02  0.1203772E+00
         11   -1    0    0    0    0  0.00000000000E+00  0.00000000000E+00  0.40000000000E+02  0.40000000000E+02  0.00000000000E+00 0.  1.
        -11   -1    0    0    0    0 -0.00000000000E+00 -0.00000000000E+00 -0.40000000000E+02  0.40000000000E+02  0.00000000000E+00 0. -1.
         23    2    1    2    0    0  0.00000000000E+00  0.00000000000E+00  0.00000000000E+00  0.80000000000E+02  0.80000000000E+02 0.  0.
          5    1    3    3  501    0  0.24869849689E+02 -0.82873382353E+01 -0.29844942644E+02  0.40000000000E+02  0.47000000000E+01 0. -1.
         -5    1    3    3    0  501 -0.24869849689E+02  0.82873382353E+01  0.29844942644E+02  0.40000000000E+02  0.47000000000E+01 0.  1.
</event>
<event>
 5    1  0.4872488E-001  0.8000000E+02  0.7546771E-02  0.1203772E+00
         11   -1    0    0    0    0  0.00000000000E+00  0.00000000000E+00  0.40000000000E+02  0.40000000000E+02  0.00000000000E+00 0.  1.
        -11   -1    0    0    0    0 -0.00000000000E+00 -0.00000000000E+00 -0.40000000000E+02  0.40000000000E+02  0.00000000000E+00 0. -1.
         23    2    1    2    0    0  0.00000000000E+00  0.00000000000E+00  0.00000000000E+00  0.80000000000E+02  0.80000000000E+02 0.  0.
          5    1    3    3  501    0  0.38186186912E+02 -0.10916079627E+02 -0.75122215872E+00  0.40000000000E+02  0.47000000000E+01 0. -1.
         -5    1    3    3    0  501 -0.38186186912E+02  0.10916079627E+02  0.75122215872E+00  0.40000000000E+02  0.47000000000E+01 0.  1.
</event>
<event>
 5    1  0.4872488E-001  0.8000000E+02  0.7546771E-02  0.1203772E+00
         11   -1    0    0    0    0  0.00000000000E+00  0.00000000000E+00  0.40000000000E+02  0.40000000000E+02  0.00000000000E+00 0.  1.
        -11   -1    0    0    0    0 -0.00000000000E+00 -0.00000000000E+00 -0.40000000000E+02  0.40000000000E+02  0.00000000000E+00 0. -1.
         23    2    1    2    0    0  0.00000000000E+00  0.00000000000E+00  0.00000000000E+00  0.80000000000E+02  0.80000000000E+02 0.  0.
          5    1    3    3  501    0  0.27197569223E+02 -0.13475783603E+02 -0.25624314325E+02  0.40000000000E+02  0.47000000000E+01 0. -1.
         -5    1    3    3    0  501 -0.27197569223E+02  0.13475783603E+02  0.25624314325E+02  0.40000000000E+02  0.47000000000E+01 0.  1.
</event>
<event>
 5    1  0.4872488E-001  0.8000000E+02  0.7546771E-02  0.1203772E+00
         11   -1    0    0    0    0  0.00000000000E+00  0.00000000000E+00  0.40000000000E+02  0.40000000000E+02  0.00000000000E+00 0.  1.
        -11   -1    0    0    0    0 -0.00000000000E+00 -0.00000000000E+00 -0.40000000000E+02  0.40000000000E+02  0.00000000000E+00 0. -1.
         23    2    1    2    0    0  0.00000000000E+00  0.00000000000E+00  0.00000000000E+00  0.80000000000E+02  0.80000000000E+02 0.  0.
          5    1    3    3  501    0 -0.26183016005E+02 -0.11930662170E+02 -0.27386474273E+02  0.40000000000E+02  0.47000000000E+01 0. -1.
         -5    1    3    3    0  501  0.26183016005E+02  0.11930662170E+02  0.27386474273E+02  0.40000000000E+02  0.47000000000E+01 0.  1.
</event>
<event>
 5    1  0.4872488E-001  0.8000000E+02  0.7546771E-02  0.1203772E+00
         11   -1    0    0    0    0  0.00000000000E+00  0.00000000000E+00  0.40000000000E+02  0.40000000000E+02  0.00000000000E+00 0.  1.
        -11   -1    0    0    0    0 -0.00000000000E+00 -0.00000000000E+00 -0.40000000000E+02  0.40000000000E+02  0.00000000000E+00 0. -1.
         23    2    1    2    0    0  0.00000000000E+00  0.00000000000E+00  0.00000000000E+00  0.80000000000E+02  0.80000000000E+02 0.  0.
          5    1    3    3  501    0  0.27216169013E+01 -0.39516073690E+02 -0.29971188799E+01  0.40000000000E+02  0.47000000000E+01 0. -1.
         -5    1    3    3    0  501 -0.27216169013E+01  0.39516073690E+02  0.29971188799E+01  0.40000000000E+02  0.47000000000E+01 0.  1.
</event>
<event>
 5    1  0.4872488E-001  0.8000000E+02  0.7546771E-02  0.1203772E+00
         11   -1    0    0    0    0  0.00000000000E+00  0.00000000000E+00  0.40000000000E+02  0.40000000000E+02  0.00000000000E+00 0. -1.
        -11   -1    0    0    0    0 -0.00000000000E+00 -0.00000000000E+00 -0.40000000000E+02  0.40000000000E+02  0.00000000000E+00 0.  1.
         23    2    1    2    0    0  0.00000000000E+00  0.00000000000E+00  0.00000000000E+00  0.80000000000E+02  0.80000000000E+02 0.  0.
          5    1    3    3  501    0  0.95277004710E+01  0.30602018582E+02 -0.23465919595E+02  0.40000000000E+02  0.47000000000E+01 0. -1.
         -5    1    3    3    0  501 -0.95277004710E+01 -0.30602018582E+02  0.23465919595E+02  0.40000000000E+02  0.47000000000E+01 0.  1.
</event>
<event>
 5    1  0.4872488E-001  0.8000000E+02  0.7546771E-02  0.1203772E+00
         11   -1    0    0    0    0  0.00000000000E+00  0.00000000000E+00  0.40000000000E+02  0.40000000000E+02  0.00000000000E+00 0.  1.
        -11   -1    0    0    0    0 -0.00000000000E+00 -0.00000000000E+00 -0.40000000000E+02  0.40000000000E+02  0.00000000000E+00 0. -1.
         23    2    1    2    0    0  0.00000000000E+00  0.00000000000E+00  0.00000000000E+00  0.80000000000E+02  0.80000000000E+02 0.  0.
          5    1    3    3  501    0  0.20264878768E+02 -0.39223205522E+01 -0.33939064365E+02  0.40000000000E+02  0.47000000000E+01 0. -1.
         -5    1    3    3    0  501 -0.20264878768E+02  0.39223205522E+01  0.33939064365E+02  0.40000000000E+02  0.47000000000E+01 0.  1.
</event>
<event>
 5    1  0.4872488E-001  0.8000000E+02  0.7546771E-02  0.1203772E+00
         11   -1    0    0    0    0  0.00000000000E+00  0.00000000000E+00  0.40000000000E+02  0.40000000000E+02  0.00000000000E+00 0.  1.
        -11   -1    0    0    0    0 -0.00000000000E+00 -0.00000000000E+00 -0.40000000000E+02  0.40000000000E+02  0.00000000000E+00 0. -1.
         23    2    1    2    0    0  0.00000000000E+00  0.00000000000E+00  0.00000000000E+00  0.80000000000E+02  0.80000000000E+02 0.  0.
          5    1    3    3  501    0 -0.65375685746E+01 -0.22792947801E+02 -0.31869291295E+02  0.40000000000E+02  0.47000000000E+01 0. -1.
         -5    1    3    3    0  501  0.65375685746E+01  0.22792947801E+02  0.31869291295E+02  0.40000000000E+02  0.47000000000E+01 0.  1.
</event>
<event>
 5    1  0.4872488E-001  0.8000000E+02  0.7546771E-02  0.1203772E+00
         11   -1    0    0    0    0  0.00000000000E+00  0.00000000000E+00  0.40000000000E+02  0.40000000000E+02  0.00000000000E+00 0. -1.
        -11   -1    0    0    0    0 -0.00000000000E+00 -0.00000000000E+00 -0.40000000000E+02  0.40000000000E+02  0.00000000000E+00 0.  1.
         23    2    1    2    0    0  0.00000000000E+00  0.00000000000E+00  0.00000000000E+00  0.80000000000E+02  0.80000000000E+02 0.  0.
          5    1    3    3  501    0  0.18472398973E+02 -0.16845419506E+02  0.30869277896E+02  0.40000000000E+02  0.47000000000E+01 0. -1.
         -5    1    3    3    0  501 -0.18472398973E+02  0.16845419506E+02 -0.30869277896E+02  0.40000000000E+02  0.47000000000E+01 0.  1.
</event>
<event>
 5    1  0.4872488E-001  0.8000000E+02  0.7546771E-02  0.1203772E+00
         11   -1    0    0    0    0  0.00000000000E+00  0.00000000000E+00  0.40000000000E+02  0.40000000000E+02  0.00000000000E+00 0.  1.
        -11   -1    0    0    0    0 -0.00000000000E+00 -0.00000000000E+00 -0.40000000000E+02  0.40000000000E+02  0.00000000000E+00 0. -1.
         23    2    1    2    0    0  0.00000000000E+00  0.00000000000E+00  0.00000000000E+00  0.80000000000E+02  0.80000000000E+02 0.  0.
          5    1    3    3  501    0  0.27596280930E+02  0.26986606844E+02  0.93850055878E+01  0.40000000000E+02  0.47000000000E+01 0. -1.
         -5    1    3    3    0  501 -0.27596280930E+02 -0.26986606844E+02 -0.93850055878E+01  0.40000000000E+02  0.47000000000E+01 0.  1.
</event>
<event>
 5    1  0.4872488E-001  0.8000000E+02  0.7546771E-02  0.1203772E+00
         11   -1    0    0    0    0  0.00000000000E+00  0.00000000000E+00  0.40000000000E+02  0.40000000000E+02  0.00000000000E+00 0.  1.
        -11   -1    0    0    0    0 -0.00000000000E+00 -0.00000000000E+00 -0.40000000000E+02  0.40000000000E+02  0.00000000000E+00 0. -1.
         23    2    1    2    0    0  0.00000000000E+00  0.00000000000E+00  0.00000000000E+00  0.80000000000E+02  0.80000000000E+02 0.  0.
          5    1    3    3  501    0  0.16880541867E+02  0.72104910768E+01 -0.35227349101E+02  0.40000000000E+02  0.47000000000E+01 0. -1.
         -5    1    3    3    0  501 -0.16880541867E+02 -0.72104910768E+01  0.35227349101E+02  0.40000000000E+02  0.47000000000E+01 0.  1.
</event>
<event>
 5    1  0.4872488E-001  0.8000000E+02  0.7546771E-02  0.1203772E+00
         11   -1    0    0    0    0  0.00000000000E+00  0.00000000000E+00  0.40000000000E+02  0.40000000000E+02  0.00000000000E+00 0.  1.
        -11   -1    0    0    0    0 -0.00000000000E+00 -0.00000000000E+00 -0.40000000000E+02  0.40000000000E+02  0.00000000000E+00 0. -1.
         23    2    1    2    0    0  0.00000000000E+00  0.00000000000E+00  0.00000000000E+00  0.80000000000E+02  0.80000000000E+02 0.  0.
          5    1    3    3  501    0 -0.11926244048E+01 -0.86195590368E+01 -0.38758106882E+02  0.40000000000E+02  0.47000000000E+01 0. -1.
         -5    1    3    3    0  501  0.11926244048E+01  0.86195590368E+01  0.38758106882E+02  0.40000000000E+02  0.47000000000E+01 0.  1.
</event>
<event>
 5    1  0.4872488E-001  0.8000000E+02  0.7546771E-02  0.1203772E+00
         11   -1    0    0    0    0  0.00000000000E+00  0.00000000000E+00  0.40000000000E+02  0.40000000000E+02  0.00000000000E+00 0.  1.
        -11   -1    0    0    0    0 -0.00000000000E+00 -0.00000000000E+00 -0.40000000000E+02  0.40000000000E+02  0.00000000000E+00 0. -1.
         23    2    1    2    0    0  0.00000000000E+00  0.00000000000E+00  0.00000000000E+00  0.80000000000E+02  0.80000000000E+02 0.  0.
          5    1    3    3  501    0 -0.91665025130E+01 -0.24771986867E+02 -0.29668736042E+02  0.40000000000E+02  0.47000000000E+01 0. -1.
         -5    1    3    3    0  501  0.91665025130E+01  0.24771986867E+02  0.29668736042E+02  0.40000000000E+02  0.47000000000E+01 0.  1.
</event>
<event>
 5    1  0.4872488E-001  0.8000000E+02  0.7546771E-02  0.1203772E+00
         11   -1    0    0    0    0  0.00000000000E+00  0.00000000000E+00  0.40000000000E+02  0.40000000000E+02  0.00000000000E+00 0. -1.
        -11   -1    0    0    0    0 -0.00000000000E+00 -0.00000000000E+00 -0.40000000000E+02  0.40000000000E+02  0.00000000000E+00 0.  1.
         23    2    1    2    0    0  0.00000000000E+00  0.00000000000E+00  0.00000000000E+00  0.80000000000E+02  0.80000000000E+02 0.  0.
          5    1    3    3  501    0 -0.80737070350E+01  0.12388967183E+02  0.36867855197E+02  0.40000000000E+02  0.47000000000E+01 0. -1.
         -5    1    3    3    0  501  0.80737070350E+01 -0.12388967183E+02 -0.36867855197E+02  0.40000000000E+02  0.47000000000E+01 0.  1.
</event>
<event>
 5    1  0.4872488E-001  0.8000000E+02  0.7546771E-02  0.1203772E+00
         11   -1    0    0    0    0  0.00000000000E+00  0.00000000000E+00  0.40000000000E+02  0.40000000000E+02  0.00000000000E+00 0.  1.
        -11   -1    0    0    0    0 -0.00000000000E+00 -0.00000000000E+00 -0.40000000000E+02  0.40000000000E+02  0.00000000000E+00 0. -1.
         23    2    1    2    0    0  0.00000000000E+00  0.00000000000E+00  0.00000000000E+00  0.80000000000E+02  0.80000000000E+02 0.  0.
          5    1    3    3  501    0 -0.13587005684E+02 -0.35887398047E+02 -0.10266349786E+02  0.40000000000E+02  0.47000000000E+01 0. -1.
         -5    1    3    3    0  501  0.13587005684E+02  0.35887398047E+02  0.10266349786E+02  0.40000000000E+02  0.47000000000E+01 0.  1.
</event>
<event>
 5    1  0.4872488E-001  0.8000000E+02  0.7546771E-02  0.1203772E+00
         11   -1    0    0    0    0  0.00000000000E+00  0.00000000000E+00  0.40000000000E+02  0.40000000000E+02  0.00000000000E+00 0.  1.
        -11   -1    0    0    0    0 -0.00000000000E+00 -0.00000000000E+00 -0.40000000000E+02  0.40000000000E+02  0.00000000000E+00 0. -1.
         23    2    1    2    0    0  0.00000000000E+00  0.00000000000E+00  0.00000000000E+00  0.80000000000E+02  0.80000000000E+02 0.  0.
          5    1    3    3  501    0  0.96986050633E+01  0.10575948050E+01 -0.38506214473E+02  0.40000000000E+02  0.47000000000E+01 0. -1.
         -5    1    3    3    0  501 -0.96986050633E+01 -0.10575948050E+01  0.38506214473E+02  0.40000000000E+02  0.47000000000E+01 0.  1.
</event>
<event>
 5    1  0.4872488E-001  0.8000000E+02  0.7546771E-02  0.1203772E+00
         11   -1    0    0    0    0  0.00000000000E+00  0.00000000000E+00  0.40000000000E+02  0.40000000000E+02  0.00000000000E+00 0. -1.
        -11   -1    0    0    0    0 -0.00000000000E+00 -0.00000000000E+00 -0.40000000000E+02  0.40000000000E+02  0.00000000000E+00 0.  1.
         23    2    1    2    0    0  0.00000000000E+00  0.00000000000E+00  0.00000000000E+00  0.80000000000E+02  0.80000000000E+02 0.  0.
          5    1    3    3  501    0 -0.16760940940E+02  0.34612189801E+02  0.99487273567E+01  0.40000000000E+02  0.47000000000E+01 0. -1.
         -5    1    3    3    0  501  0.16760940940E+02 -0.34612189801E+02 -0.99487273567E+01  0.40000000000E+02  0.47000000000E+01 0.  1.
</event>
<event>
 5    1  0.4872488E-001  0.8000000E+02  0.7546771E-02  0.1203772E+00
         11   -1    0    0    0    0  0.00000000000E+00  0.00000000000E+00  0.40000000000E+02  0.40000000000E+02  0.00000000000E+00 0.  1.
        -11   -1    0    0    0    0 -0.00000000000E+00 -0.00000000000E+00 -0.40000000000E+02  0.40000000000E+02  0.00000000000E+00 0. -1.
         23    2    1    2    0    0  0.00000000000E+00  0.00000000000E+00  0.00000000000E+00  0.80000000000E+02  0.80000000000E+02 0.  0.
          5    1    3    3  501    0  0.35594141745E+02 -0.91898330464E+01  0.15050383451E+02  0.40000000000E+02  0.47000000000E+01 0. -1.
         -5    1    3    3    0  501 -0.35594141745E+02  0.91898330464E+01 -0.15050383451E+02  0.40000000000E+02  0.47000000000E+01 0.  1.
</event>
<event>
 5    1  0.4872488E-001  0.8000000E+02  0.7546771E-02  0.1203772E+00
         11   -1    0    0    0    0  0.00000000000E+00  0.00000000000E+00  0.40000000000E+02  0.40000000000E+02  0.00000000000E+00 0. -1.
        -11   -1    0    0    0    0 -0.00000000000E+00 -0.00000000000E+00 -0.40000000000E+02  0.40000000000E+02  0.00000000000E+00 0.  1.
         23    2    1    2    0    0  0.00000000000E+00  0.00000000000E+00  0.00000000000E+00  0.80000000000E+02  0.80000000000E+02 0.  0.
          5    1    3    3  501    0 -0.33139346789E+02  0.16048722375E+02  0.14904100259E+02  0.40000000000E+02  0.47000000000E+01 0.  1.
         -5    1    3    3    0  501  0.33139346789E+02 -0.16048722375E+02 -0.14904100259E+02  0.40000000000E+02  0.47000000000E+01 0. -1.
</event>
<event>
 5    1  0.4872488E-001  0.8000000E+02  0.7546771E-02  0.1203772E+00
         11   -1    0    0    0    0  0.00000000000E+00  0.00000000000E+00  0.40000000000E+02  0.40000000000E+02  0.00000000000E+00 0.  1.
        -11   -1    0    0    0    0 -0.00000000000E+00 -0.00000000000E+00 -0.40000000000E+02  0.40000000000E+02  0.00000000000E+00 0. -1.
         23    2    1    2    0    0  0.00000000000E+00  0.00000000000E+00  0.00000000000E+00  0.80000000000E+02  0.80000000000E+02 0.  0.
          5    1    3    3  501    0  0.26988262076E+02 -0.19198599503E+02 -0.21930742971E+02  0.40000000000E+02  0.47000000000E+01 0. -1.
         -5    1    3    3    0  501 -0.26988262076E+02  0.19198599503E+02  0.21930742971E+02  0.40000000000E+02  0.47000000000E+01 0.  1.
</event>
<event>
 5    1  0.4872488E-001  0.8000000E+02  0.7546771E-02  0.1203772E+00
         11   -1    0    0    0    0  0.00000000000E+00  0.00000000000E+00  0.40000000000E+02  0.40000000000E+02  0.00000000000E+00 0. -1.
        -11   -1    0    0    0    0 -0.00000000000E+00 -0.00000000000E+00 -0.40000000000E+02  0.40000000000E+02  0.00000000000E+00 0.  1.
         23    2    1    2    0    0  0.00000000000E+00  0.00000000000E+00  0.00000000000E+00  0.80000000000E+02  0.80000000000E+02 0.  0.
          5    1    3    3  501    0  0.29177523585E+02 -0.10484016026E+02  0.24832791333E+02  0.40000000000E+02  0.47000000000E+01 0. -1.
         -5    1    3    3    0  501 -0.29177523585E+02  0.10484016026E+02 -0.24832791333E+02  0.40000000000E+02  0.47000000000E+01 0.  1.
</event>
<event>
 5    1  0.4872488E-001  0.8000000E+02  0.7546771E-02  0.1203772E+00
         11   -1    0    0    0    0  0.00000000000E+00  0.00000000000E+00  0.40000000000E+02  0.40000000000E+02  0.00000000000E+00 0. -1.
        -11   -1    0    0    0    0 -0.00000000000E+00 -0.00000000000E+00 -0.40000000000E+02  0.40000000000E+02  0.00000000000E+00 0.  1.
         23    2    1    2    0    0  0.00000000000E+00  0.00000000000E+00  0.00000000000E+00  0.80000000000E+02  0.80000000000E+02 0.  0.
          5    1    3    3  501    0  0.19892609746E+02  0.33833057464E+02 -0.61252183774E+01  0.40000000000E+02  0.47000000000E+01 0.  1.
         -5    1    3    3    0  501 -0.19892609746E+02 -0.33833057464E+02  0.61252183774E+01  0.40000000000E+02  0.47000000000E+01 0. -1.
</event>
<event>
 5    1  0.4872488E-001  0.8000000E+02  0.7546771E-02  0.1203772E+00
         11   -1    0    0    0    0  0.00000000000E+00  0.00000000000E+00  0.40000000000E+02  0.40000000000E+02  0.00000000000E+00 0. -1.
        -11   -1    0    0    0    0 -0.00000000000E+00 -0.00000000000E+00 -0.40000000000E+02  0.40000000000E+02  0.00000000000E+00 0.  1.
         23    2    1    2    0    0  0.00000000000E+00  0.00000000000E+00  0.00000000000E+00  0.80000000000E+02  0.80000000000E+02 0.  0.
          5    1    3    3  501    0  0.51534841456E+01  0.10958006878E+02  0.37832177923E+02  0.40000000000E+02  0.47000000000E+01 0. -1.
         -5    1    3    3    0  501 -0.51534841456E+01 -0.10958006878E+02 -0.37832177923E+02  0.40000000000E+02  0.47000000000E+01 0.  1.
</event>
<event>
 5    1  0.4872488E-001  0.8000000E+02  0.7546771E-02  0.1203772E+00
         11   -1    0    0    0    0  0.00000000000E+00  0.00000000000E+00  0.40000000000E+02  0.40000000000E+02  0.00000000000E+00 0.  1.
        -11   -1    0    0    0    0 -0.00000000000E+00 -0.00000000000E+00 -0.40000000000E+02  0.40000000000E+02  0.00000000000E+00 0. -1.
         23    2    1    2    0    0  0.00000000000E+00  0.00000000000E+00  0.00000000000E+00  0.80000000000E+02  0.80000000000E+02 0.  0.
          5    1    3    3  501    0  0.29505703429E+02  0.31420063900E+01 -0.26409302547E+02  0.40000000000E+02  0.47000000000E+01 0. -1.
         -5    1    3    3    0  501 -0.29505703429E+02 -0.31420063900E+01  0.26409302547E+02  0.40000000000E+02  0.47000000000E+01 0.  1.
</event>
<event>
 5    1  0.4872488E-001  0.8000000E+02  0.7546771E-02  0.1203772E+00
         11   -1    0    0    0    0  0.00000000000E+00  0.00000000000E+00  0.40000000000E+02  0.40000000000E+02  0.00000000000E+00 0. -1.
        -11   -1    0    0    0    0 -0.00000000000E+00 -0.00000000000E+00 -0.40000000000E+02  0.40000000000E+02  0.00000000000E+00 0.  1.
         23    2    1    2    0    0  0.00000000000E+00  0.00000000000E+00  0.00000000000E+00  0.80000000000E+02  0.80000000000E+02 0.  0.
          5    1    3    3  501    0  0.32407859077E+02 -0.25998286092E+01  0.22822829825E+02  0.40000000000E+02  0.47000000000E+01 0. -1.
         -5    1    3    3    0  501 -0.32407859077E+02  0.25998286092E+01 -0.22822829825E+02  0.40000000000E+02  0.47000000000E+01 0.  1.
</event>
<event>
 5    1  0.4872488E-001  0.8000000E+02  0.7546771E-02  0.1203772E+00
         11   -1    0    0    0    0  0.00000000000E+00  0.00000000000E+00  0.40000000000E+02  0.40000000000E+02  0.00000000000E+00 0.  1.
        -11   -1    0    0    0    0 -0.00000000000E+00 -0.00000000000E+00 -0.40000000000E+02  0.40000000000E+02  0.00000000000E+00 0. -1.
         23    2    1    2    0    0  0.00000000000E+00  0.00000000000E+00  0.00000000000E+00  0.80000000000E+02  0.80000000000E+02 0.  0.
          5    1    3    3  501    0 -0.40278515547E+01  0.64411897697E+01 -0.38989710004E+02  0.40000000000E+02  0.47000000000E+01 0. -1.
         -5    1    3    3    0  501  0.40278515547E+01 -0.64411897697E+01  0.38989710004E+02  0.40000000000E+02  0.47000000000E+01 0.  1.
</event>
<event>
 5    1  0.4872488E-001  0.8000000E+02  0.7546771E-02  0.1203772E+00
         11   -1    0    0    0    0  0.00000000000E+00  0.00000000000E+00  0.40000000000E+02  0.40000000000E+02  0.00000000000E+00 0. -1.
        -11   -1    0    0    0    0 -0.00000000000E+00 -0.00000000000E+00 -0.40000000000E+02  0.40000000000E+02  0.00000000000E+00 0.  1.
         23    2    1    2    0    0  0.00000000000E+00  0.00000000000E+00  0.00000000000E+00  0.80000000000E+02  0.80000000000E+02 0.  0.
          5    1    3    3  501    0  0.26621135379E+02 -0.14885611733E+02  0.25448845052E+02  0.40000000000E+02  0.47000000000E+01 0. -1.
         -5    1    3    3    0  501 -0.26621135379E+02  0.14885611733E+02 -0.25448845052E+02  0.40000000000E+02  0.47000000000E+01 0.  1.
</event>
<event>
 5    1  0.4872488E-001  0.8000000E+02  0.7546771E-02  0.1203772E+00
         11   -1    0    0    0    0  0.00000000000E+00  0.00000000000E+00  0.40000000000E+02  0.40000000000E+02  0.00000000000E+00 0. -1.
        -11   -1    0    0    0    0 -0.00000000000E+00 -0.00000000000E+00 -0.40000000000E+02  0.40000000000E+02  0.00000000000E+00 0.  1.
         23    2    1    2    0    0  0.00000000000E+00  0.00000000000E+00  0.00000000000E+00  0.80000000000E+02  0.80000000000E+02 0.  0.
          5    1    3    3  501    0 -0.25306653215E+02  0.52388851880E+01 -0.30166825903E+02  0.40000000000E+02  0.47000000000E+01 0.  1.
         -5    1    3    3    0  501  0.25306653215E+02 -0.52388851880E+01  0.30166825903E+02  0.40000000000E+02  0.47000000000E+01 0. -1.
</event>
<event>
 5    1  0.4872488E-001  0.8000000E+02  0.7546771E-02  0.1203772E+00
         11   -1    0    0    0    0  0.00000000000E+00  0.00000000000E+00  0.40000000000E+02  0.40000000000E+02  0.00000000000E+00 0.  1.
        -11   -1    0    0    0    0 -0.00000000000E+00 -0.00000000000E+00 -0.40000000000E+02  0.40000000000E+02  0.00000000000E+00 0. -1.
         23    2    1    2    0    0  0.00000000000E+00  0.00000000000E+00  0.00000000000E+00  0.80000000000E+02  0.80000000000E+02 0.  0.
          5    1    3    3  501    0  0.14157039879E+02  0.29975208035E+02 -0.21885500340E+02  0.40000000000E+02  0.47000000000E+01 0. -1.
         -5    1    3    3    0  501 -0.14157039879E+02 -0.29975208035E+02  0.21885500340E+02  0.40000000000E+02  0.47000000000E+01 0.  1.
</event>
<event>
 5    1  0.4872488E-001  0.8000000E+02  0.7546771E-02  0.1203772E+00
         11   -1    0    0    0    0  0.00000000000E+00  0.00000000000E+00  0.40000000000E+02  0.40000000000E+02  0.00000000000E+00 0.  1.
        -11   -1    0    0    0    0 -0.00000000000E+00 -0.00000000000E+00 -0.40000000000E+02  0.40000000000E+02  0.00000000000E+00 0. -1.
         23    2    1    2    0    0  0.00000000000E+00  0.00000000000E+00  0.00000000000E+00  0.80000000000E+02  0.80000000000E+02 0.  0.
          5    1    3    3  501    0  0.21279203809E+02 -0.33458357289E+02  0.23756710240E+01  0.40000000000E+02  0.47000000000E+01 0. -1.
         -5    1    3    3    0  501 -0.21279203809E+02  0.33458357289E+02 -0.23756710240E+01  0.40000000000E+02  0.47000000000E+01 0.  1.
</event>
<event>
 5    1  0.4872488E-001  0.8000000E+02  0.7546771E-02  0.1203772E+00
         11   -1    0    0    0    0  0.00000000000E+00  0.00000000000E+00  0.40000000000E+02  0.40000000000E+02  0.00000000000E+00 0.  1.
        -11   -1    0    0    0    0 -0.00000000000E+00 -0.00000000000E+00 -0.40000000000E+02  0.40000000000E+02  0.00000000000E+00 0. -1.
         23    2    1    2    0    0  0.00000000000E+00  0.00000000000E+00  0.00000000000E+00  0.80000000000E+02  0.80000000000E+02 0.  0.
          5    1    3    3  501    0  0.10496438728E+02  0.29727211610E+02 -0.24166664312E+02  0.40000000000E+02  0.47000000000E+01 0. -1.
         -5    1    3    3    0  501 -0.10496438728E+02 -0.29727211610E+02  0.24166664312E+02  0.40000000000E+02  0.47000000000E+01 0.  1.
</event>
<event>
 5    1  0.4872488E-001  0.8000000E+02  0.7546771E-02  0.1203772E+00
         11   -1    0    0    0    0  0.00000000000E+00  0.00000000000E+00  0.40000000000E+02  0.40000000000E+02  0.00000000000E+00 0. -1.
        -11   -1    0    0    0    0 -0.00000000000E+00 -0.00000000000E+00 -0.40000000000E+02  0.40000000000E+02  0.00000000000E+00 0.  1.
         23    2    1    2    0    0  0.00000000000E+00  0.00000000000E+00  0.00000000000E+00  0.80000000000E+02  0.80000000000E+02 0.  0.
          5    1    3    3  501    0  0.34360805190E+02 -0.12334564034E+02  0.15655784771E+02  0.40000000000E+02  0.47000000000E+01 0. -1.
         -5    1    3    3    0  501 -0.34360805190E+02  0.12334564034E+02 -0.15655784771E+02  0.40000000000E+02  0.47000000000E+01 0.  1.
</event>
<event>
 5    1  0.4872488E-001  0.8000000E+02  0.7546771E-02  0.1203772E+00
         11   -1    0    0    0    0  0.00000000000E+00  0.00000000000E+00  0.40000000000E+02  0.40000000000E+02  0.00000000000E+00 0.  1.
        -11   -1    0    0    0    0 -0.00000000000E+00 -0.00000000000E+00 -0.40000000000E+02  0.40000000000E+02  0.00000000000E+00 0. -1.
         23    2    1    2    0    0  0.00000000000E+00  0.00000000000E+00  0.00000000000E+00  0.80000000000E+02  0.80000000000E+02 0.  0.
          5    1    3    3  501    0 -0.16786753777E+02 -0.35348184512E+02  0.68279388794E+01  0.40000000000E+02  0.47000000000E+01 0. -1.
         -5    1    3    3    0  501  0.16786753777E+02  0.35348184512E+02 -0.68279388794E+01  0.40000000000E+02  0.47000000000E+01 0.  1.
</event>
<event>
 5    1  0.4872488E-001  0.8000000E+02  0.7546771E-02  0.1203772E+00
         11   -1    0    0    0    0  0.00000000000E+00  0.00000000000E+00  0.40000000000E+02  0.40000000000E+02  0.00000000000E+00 0. -1.
        -11   -1    0    0    0    0 -0.00000000000E+00 -0.00000000000E+00 -0.40000000000E+02  0.40000000000E+02  0.00000000000E+00 0.  1.
         23    2    1    2    0    0  0.00000000000E+00  0.00000000000E+00  0.00000000000E+00  0.80000000000E+02  0.80000000000E+02 0.  0.
          5    1    3    3  501    0 -0.34813494441E+02  0.18234021492E+02  0.57836895679E+01  0.40000000000E+02  0.47000000000E+01 0. -1.
         -5    1    3    3    0  501  0.34813494441E+02 -0.18234021492E+02 -0.57836895679E+01  0.40000000000E+02  0.47000000000E+01 0.  1.
</event>
<event>
 5    1  0.4872488E-001  0.8000000E+02  0.7546771E-02  0.1203772E+00
         11   -1    0    0    0    0  0.00000000000E+00  0.00000000000E+00  0.40000000000E+02  0.40000000000E+02  0.00000000000E+00 0. -1.
        -11   -1    0    0    0    0 -0.00000000000E+00 -0.00000000000E+00 -0.40000000000E+02  0.40000000000E+02  0.00000000000E+00 0.  1.
         23    2    1    2    0    0  0.00000000000E+00  0.00000000000E+00  0.00000000000E+00  0.80000000000E+02  0.80000000000E+02 0.  0.
          5    1    3    3  501    0  0.38612726740E+02  0.60168634446E+01  0.71249342463E+01  0.40000000000E+02  0.47000000000E+01 0. -1.
         -5    1    3    3    0  501 -0.38612726740E+02 -0.60168634446E+01 -0.71249342463E+01  0.40000000000E+02  0.47000000000E+01 0.  1.
</event>
<event>
 5    1  0.4872488E-001  0.8000000E+02  0.7546771E-02  0.1203772E+00
         11   -1    0    0    0    0  0.00000000000E+00  0.00000000000E+00  0.40000000000E+02  0.40000000000E+02  0.00000000000E+00 0. -1.
        -11   -1    0    0    0    0 -0.00000000000E+00 -0.00000000000E+00 -0.40000000000E+02  0.40000000000E+02  0.00000000000E+00 0.  1.
         23    2    1    2    0    0  0.00000000000E+00  0.00000000000E+00  0.00000000000E+00  0.80000000000E+02  0.80000000000E+02 0.  0.
          5    1    3    3  501    0 -0.63998242514E+01  0.11041606946E+02  0.37616953168E+02  0.40000000000E+02  0.47000000000E+01 0. -1.
         -5    1    3    3    0  501  0.63998242514E+01 -0.11041606946E+02 -0.37616953168E+02  0.40000000000E+02  0.47000000000E+01 0.  1.
</event>
<event>
 5    1  0.4872488E-001  0.8000000E+02  0.7546771E-02  0.1203772E+00
         11   -1    0    0    0    0  0.00000000000E+00  0.00000000000E+00  0.40000000000E+02  0.40000000000E+02  0.00000000000E+00 0.  1.
        -11   -1    0    0    0    0 -0.00000000000E+00 -0.00000000000E+00 -0.40000000000E+02  0.40000000000E+02  0.00000000000E+00 0. -1.
         23    2    1    2    0    0  0.00000000000E+00  0.00000000000E+00  0.00000000000E+00  0.80000000000E+02  0.80000000000E+02 0.  0.
          5    1    3    3  501    0 -0.81354973861E+00  0.37836550088E+02 -0.12068289615E+02  0.40000000000E+02  0.47000000000E+01 0. -1.
         -5    1    3    3    0  501  0.81354973861E+00 -0.37836550088E+02  0.12068289615E+02  0.40000000000E+02  0.47000000000E+01 0.  1.
</event>
<event>
 5    1  0.4872488E-001  0.8000000E+02  0.7546771E-02  0.1203772E+00
         11   -1    0    0    0    0  0.00000000000E+00  0.00000000000E+00  0.40000000000E+02  0.40000000000E+02  0.00000000000E+00 0.  1.
        -11   -1    0    0    0    0 -0.00000000000E+00 -0.00000000000E+00 -0.40000000000E+02  0.40000000000E+02  0.00000000000E+00 0. -1.
         23    2    1    2    0    0  0.00000000000E+00  0.00000000000E+00  0.00000000000E+00  0.80000000000E+02  0.80000000000E+02 0.  0.
          5    1    3    3  501    0 -0.78915062880E+01  0.38433451618E+02 -0.62051531209E+01  0.40000000000E+02  0.47000000000E+01 0. -1.
         -5    1    3    3    0  501  0.78915062880E+01 -0.38433451618E+02  0.62051531209E+01  0.40000000000E+02  0.47000000000E+01 0.  1.
</event>
<event>
 5    1  0.4872488E-001  0.8000000E+02  0.7546771E-02  0.1203772E+00
         11   -1    0    0    0    0  0.00000000000E+00  0.00000000000E+00  0.40000000000E+02  0.40000000000E+02  0.00000000000E+00 0.  1.
        -11   -1    0    0    0    0 -0.00000000000E+00 -0.00000000000E+00 -0.40000000000E+02  0.40000000000E+02  0.00000000000E+00 0. -1.
         23    2    1    2    0    0  0.00000000000E+00  0.00000000000E+00  0.00000000000E+00  0.80000000000E+02  0.80000000000E+02 0.  0.
          5    1    3    3  501    0  0.20268916659E+01 -0.20125211988E+02 -0.34187388795E+02  0.40000000000E+02  0.47000000000E+01 0. -1.
         -5    1    3    3    0  501 -0.20268916659E+01  0.20125211988E+02  0.34187388795E+02  0.40000000000E+02  0.47000000000E+01 0.  1.
</event>
<event>
 5    1  0.4872488E-001  0.8000000E+02  0.7546771E-02  0.1203772E+00
         11   -1    0    0    0    0  0.00000000000E+00  0.00000000000E+00  0.40000000000E+02  0.40000000000E+02  0.00000000000E+00 0.  1.
        -11   -1    0    0    0    0 -0.00000000000E+00 -0.00000000000E+00 -0.40000000000E+02  0.40000000000E+02  0.00000000000E+00 0. -1.
         23    2    1    2    0    0  0.00000000000E+00  0.00000000000E+00  0.00000000000E+00  0.80000000000E+02  0.80000000000E+02 0.  0.
          5    1    3    3  501    0 -0.26365145211E+02  0.19824308849E+02 -0.22131106992E+02  0.40000000000E+02  0.47000000000E+01 0. -1.
         -5    1    3    3    0  501  0.26365145211E+02 -0.19824308849E+02  0.22131106992E+02  0.40000000000E+02  0.47000000000E+01 0.  1.
</event>
<event>
 5    1  0.4872488E-001  0.8000000E+02  0.7546771E-02  0.1203772E+00
         11   -1    0    0    0    0  0.00000000000E+00  0.00000000000E+00  0.40000000000E+02  0.40000000000E+02  0.00000000000E+00 0.  1.
        -11   -1    0    0    0    0 -0.00000000000E+00 -0.00000000000E+00 -0.40000000000E+02  0.40000000000E+02  0.00000000000E+00 0. -1.
         23    2    1    2    0    0  0.00000000000E+00  0.00000000000E+00  0.00000000000E+00  0.80000000000E+02  0.80000000000E+02 0.  0.
          5    1    3    3  501    0 -0.44690873135E+01  0.15770074988E+02 -0.36183449165E+02  0.40000000000E+02  0.47000000000E+01 0. -1.
         -5    1    3    3    0  501  0.44690873135E+01 -0.15770074988E+02  0.36183449165E+02  0.40000000000E+02  0.47000000000E+01 0.  1.
</event>
<event>
 5    1  0.4872488E-001  0.8000000E+02  0.7546771E-02  0.1203772E+00
         11   -1    0    0    0    0  0.00000000000E+00  0.00000000000E+00  0.40000000000E+02  0.40000000000E+02  0.00000000000E+00 0.  1.
        -11   -1    0    0    0    0 -0.00000000000E+00 -0.00000000000E+00 -0.40000000000E+02  0.40000000000E+02  0.00000000000E+00 0. -1.
         23    2    1    2    0    0  0.00000000000E+00  0.00000000000E+00  0.00000000000E+00  0.80000000000E+02  0.80000000000E+02 0.  0.
          5    1    3    3  501    0  0.51596556899E+01  0.38602224519E+02 -0.78202439447E+01  0.40000000000E+02  0.47000000000E+01 0. -1.
         -5    1    3    3    0  501 -0.51596556899E+01 -0.38602224519E+02  0.78202439447E+01  0.40000000000E+02  0.47000000000E+01 0.  1.
</event>
<event>
 5    1  0.4872488E-001  0.8000000E+02  0.7546771E-02  0.1203772E+00
         11   -1    0    0    0    0  0.00000000000E+00  0.00000000000E+00  0.40000000000E+02  0.40000000000E+02  0.00000000000E+00 0.  1.
        -11   -1    0    0    0    0 -0.00000000000E+00 -0.00000000000E+00 -0.40000000000E+02  0.40000000000E+02  0.00000000000E+00 0. -1.
         23    2    1    2    0    0  0.00000000000E+00  0.00000000000E+00  0.00000000000E+00  0.80000000000E+02  0.80000000000E+02 0.  0.
          5    1    3    3  501    0  0.31468004156E+01 -0.34230456677E+02 -0.19906870242E+02  0.40000000000E+02  0.47000000000E+01 0. -1.
         -5    1    3    3    0  501 -0.31468004156E+01  0.34230456677E+02  0.19906870242E+02  0.40000000000E+02  0.47000000000E+01 0.  1.
</event>
<event>
 5    1  0.4872488E-001  0.8000000E+02  0.7546771E-02  0.1203772E+00
         11   -1    0    0    0    0  0.00000000000E+00  0.00000000000E+00  0.40000000000E+02  0.40000000000E+02  0.00000000000E+00 0.  1.
        -11   -1    0    0    0    0 -0.00000000000E+00 -0.00000000000E+00 -0.40000000000E+02  0.40000000000E+02  0.00000000000E+00 0. -1.
         23    2    1    2    0    0  0.00000000000E+00  0.00000000000E+00  0.00000000000E+00  0.80000000000E+02  0.80000000000E+02 0.  0.
          5    1    3    3  501    0 -0.35811273737E+01  0.26647589682E+02 -0.29240237531E+02  0.40000000000E+02  0.47000000000E+01 0. -1.
         -5    1    3    3    0  501  0.35811273737E+01 -0.26647589682E+02  0.29240237531E+02  0.40000000000E+02  0.47000000000E+01 0.  1.
</event>
<event>
 5    1  0.4872488E-001  0.8000000E+02  0.7546771E-02  0.1203772E+00
         11   -1    0    0    0    0  0.00000000000E+00  0.00000000000E+00  0.40000000000E+02  0.40000000000E+02  0.00000000000E+00 0.  1.
        -11   -1    0    0    0    0 -0.00000000000E+00 -0.00000000000E+00 -0.40000000000E+02  0.40000000000E+02  0.00000000000E+00 0. -1.
         23    2    1    2    0    0  0.00000000000E+00  0.00000000000E+00  0.00000000000E+00  0.80000000000E+02  0.80000000000E+02 0.  0.
          5    1    3    3  501    0  0.88896777202E+01  0.47611220506E+01 -0.38421547950E+02  0.40000000000E+02  0.47000000000E+01 0. -1.
         -5    1    3    3    0  501 -0.88896777202E+01 -0.47611220506E+01  0.38421547950E+02  0.40000000000E+02  0.47000000000E+01 0.  1.
</event>
<event>
 5    1  0.4872488E-001  0.8000000E+02  0.7546771E-02  0.1203772E+00
         11   -1    0    0    0    0  0.00000000000E+00  0.00000000000E+00  0.40000000000E+02  0.40000000000E+02  0.00000000000E+00 0.  1.
        -11   -1    0    0    0    0 -0.00000000000E+00 -0.00000000000E+00 -0.40000000000E+02  0.40000000000E+02  0.00000000000E+00 0. -1.
         23    2    1    2    0    0  0.00000000000E+00  0.00000000000E+00  0.00000000000E+00  0.80000000000E+02  0.80000000000E+02 0.  0.
          5    1    3    3  501    0  0.24443957300E+01  0.19396114629E+02 -0.34579266430E+02  0.40000000000E+02  0.47000000000E+01 0. -1.
         -5    1    3    3    0  501 -0.24443957300E+01 -0.19396114629E+02  0.34579266430E+02  0.40000000000E+02  0.47000000000E+01 0.  1.
</event>
<event>
 5    1  0.4872488E-001  0.8000000E+02  0.7546771E-02  0.1203772E+00
         11   -1    0    0    0    0  0.00000000000E+00  0.00000000000E+00  0.40000000000E+02  0.40000000000E+02  0.00000000000E+00 0. -1.
        -11   -1    0    0    0    0 -0.00000000000E+00 -0.00000000000E+00 -0.40000000000E+02  0.40000000000E+02  0.00000000000E+00 0.  1.
         23    2    1    2    0    0  0.00000000000E+00  0.00000000000E+00  0.00000000000E+00  0.80000000000E+02  0.80000000000E+02 0.  0.
          5    1    3    3  501    0  0.31333108671E+02 -0.10898185124E+02  0.21848932743E+02  0.40000000000E+02  0.47000000000E+01 0. -1.
         -5    1    3    3    0  501 -0.31333108671E+02  0.10898185124E+02 -0.21848932743E+02  0.40000000000E+02  0.47000000000E+01 0.  1.
</event>
<event>
 5    1  0.4872488E-001  0.8000000E+02  0.7546771E-02  0.1203772E+00
         11   -1    0    0    0    0  0.00000000000E+00  0.00000000000E+00  0.40000000000E+02  0.40000000000E+02  0.00000000000E+00 0. -1.
        -11   -1    0    0    0    0 -0.00000000000E+00 -0.00000000000E+00 -0.40000000000E+02  0.40000000000E+02  0.00000000000E+00 0.  1.
         23    2    1    2    0    0  0.00000000000E+00  0.00000000000E+00  0.00000000000E+00  0.80000000000E+02  0.80000000000E+02 0.  0.
          5    1    3    3  501    0 -0.17235070336E+01  0.83451970221E+01  0.38798159881E+02  0.40000000000E+02  0.47000000000E+01 0. -1.
         -5    1    3    3    0  501  0.17235070336E+01 -0.83451970221E+01 -0.38798159881E+02  0.40000000000E+02  0.47000000000E+01 0.  1.
</event>
<event>
 5    1  0.4872488E-001  0.8000000E+02  0.7546771E-02  0.1203772E+00
         11   -1    0    0    0    0  0.00000000000E+00  0.00000000000E+00  0.40000000000E+02  0.40000000000E+02  0.00000000000E+00 0.  1.
        -11   -1    0    0    0    0 -0.00000000000E+00 -0.00000000000E+00 -0.40000000000E+02  0.40000000000E+02  0.00000000000E+00 0. -1.
         23    2    1    2    0    0  0.00000000000E+00  0.00000000000E+00  0.00000000000E+00  0.80000000000E+02  0.80000000000E+02 0.  0.
          5    1    3    3  501    0  0.13607587663E+02 -0.14285648950E+02 -0.34477003815E+02  0.40000000000E+02  0.47000000000E+01 0. -1.
         -5    1    3    3    0  501 -0.13607587663E+02  0.14285648950E+02  0.34477003815E+02  0.40000000000E+02  0.47000000000E+01 0.  1.
</event>
<event>
 5    1  0.4872488E-001  0.8000000E+02  0.7546771E-02  0.1203772E+00
         11   -1    0    0    0    0  0.00000000000E+00  0.00000000000E+00  0.40000000000E+02  0.40000000000E+02  0.00000000000E+00 0.  1.
        -11   -1    0    0    0    0 -0.00000000000E+00 -0.00000000000E+00 -0.40000000000E+02  0.40000000000E+02  0.00000000000E+00 0. -1.
         23    2    1    2    0    0  0.00000000000E+00  0.00000000000E+00  0.00000000000E+00  0.80000000000E+02  0.80000000000E+02 0.  0.
          5    1    3    3  501    0  0.27034192343E+01  0.24229883309E+02 -0.31361031221E+02  0.40000000000E+02  0.47000000000E+01 0. -1.
         -5    1    3    3    0  501 -0.27034192343E+01 -0.24229883309E+02  0.31361031221E+02  0.40000000000E+02  0.47000000000E+01 0.  1.
</event>
<event>
 5    1  0.4872488E-001  0.8000000E+02  0.7546771E-02  0.1203772E+00
         11   -1    0    0    0    0  0.00000000000E+00  0.00000000000E+00  0.40000000000E+02  0.40000000000E+02  0.00000000000E+00 0.  1.
        -11   -1    0    0    0    0 -0.00000000000E+00 -0.00000000000E+00 -0.40000000000E+02  0.40000000000E+02  0.00000000000E+00 0. -1.
         23    2    1    2    0    0  0.00000000000E+00  0.00000000000E+00  0.00000000000E+00  0.80000000000E+02  0.80000000000E+02 0.  0.
          5    1    3    3  501    0  0.28908686756E+02 -0.21120154138E+02 -0.17208629207E+02  0.40000000000E+02  0.47000000000E+01 0. -1.
         -5    1    3    3    0  501 -0.28908686756E+02  0.21120154138E+02  0.17208629207E+02  0.40000000000E+02  0.47000000000E+01 0.  1.
</event>
<event>
 5    1  0.4872488E-001  0.8000000E+02  0.7546771E-02  0.1203772E+00
         11   -1    0    0    0    0  0.00000000000E+00  0.00000000000E+00  0.40000000000E+02  0.40000000000E+02  0.00000000000E+00 0.  1.
        -11   -1    0    0    0    0 -0.00000000000E+00 -0.00000000000E+00 -0.40000000000E+02  0.40000000000E+02  0.00000000000E+00 0. -1.
         23    2    1    2    0    0  0.00000000000E+00  0.00000000000E+00  0.00000000000E+00  0.80000000000E+02  0.80000000000E+02 0.  0.
          5    1    3    3  501    0  0.29057157135E+02  0.24078233649E+02 -0.12402833691E+02  0.40000000000E+02  0.47000000000E+01 0. -1.
         -5    1    3    3    0  501 -0.29057157135E+02 -0.24078233649E+02  0.12402833691E+02  0.40000000000E+02  0.47000000000E+01 0.  1.
</event>
<event>
 5    1  0.4872488E-001  0.8000000E+02  0.7546771E-02  0.1203772E+00
         11   -1    0    0    0    0  0.00000000000E+00  0.00000000000E+00  0.40000000000E+02  0.40000000000E+02  0.00000000000E+00 0.  1.
        -11   -1    0    0    0    0 -0.00000000000E+00 -0.00000000000E+00 -0.40000000000E+02  0.40000000000E+02  0.00000000000E+00 0. -1.
         23    2    1    2    0    0  0.00000000000E+00  0.00000000000E+00  0.00000000000E+00  0.80000000000E+02  0.80000000000E+02 0.  0.
          5    1    3    3  501    0  0.12048942490E+02 -0.32853309862E+02 -0.18798750384E+02  0.40000000000E+02  0.47000000000E+01 0. -1.
         -5    1    3    3    0  501 -0.12048942490E+02  0.32853309862E+02  0.18798750384E+02  0.40000000000E+02  0.47000000000E+01 0.  1.
</event>
<event>
 5    1  0.4872488E-001  0.8000000E+02  0.7546771E-02  0.1203772E+00
         11   -1    0    0    0    0  0.00000000000E+00  0.00000000000E+00  0.40000000000E+02  0.40000000000E+02  0.00000000000E+00 0. -1.
        -11   -1    0    0    0    0 -0.00000000000E+00 -0.00000000000E+00 -0.40000000000E+02  0.40000000000E+02  0.00000000000E+00 0.  1.
         23    2    1    2    0    0  0.00000000000E+00  0.00000000000E+00  0.00000000000E+00  0.80000000000E+02  0.80000000000E+02 0.  0.
          5    1    3    3  501    0  0.37007755705E+01 -0.37418049841E+02 -0.12810300789E+02  0.40000000000E+02  0.47000000000E+01 0. -1.
         -5    1    3    3    0  501 -0.37007755705E+01  0.37418049841E+02  0.12810300789E+02  0.40000000000E+02  0.47000000000E+01 0.  1.
</event>
<event>
 5    1  0.4872488E-001  0.8000000E+02  0.7546771E-02  0.1203772E+00
         11   -1    0    0    0    0  0.00000000000E+00  0.00000000000E+00  0.40000000000E+02  0.40000000000E+02  0.00000000000E+00 0.  1.
        -11   -1    0    0    0    0 -0.00000000000E+00 -0.00000000000E+00 -0.40000000000E+02  0.40000000000E+02  0.00000000000E+00 0. -1.
         23    2    1    2    0    0  0.00000000000E+00  0.00000000000E+00  0.00000000000E+00  0.80000000000E+02  0.80000000000E+02 0.  0.
          5    1    3    3  501    0  0.89206438926E+01  0.36668094016E+02  0.12400927133E+02  0.40000000000E+02  0.47000000000E+01 0. -1.
         -5    1    3    3    0  501 -0.89206438926E+01 -0.36668094016E+02 -0.12400927133E+02  0.40000000000E+02  0.47000000000E+01 0.  1.
</event>
<event>
 5    1  0.4872488E-001  0.8000000E+02  0.7546771E-02  0.1203772E+00
         11   -1    0    0    0    0  0.00000000000E+00  0.00000000000E+00  0.40000000000E+02  0.40000000000E+02  0.00000000000E+00 0.  1.
        -11   -1    0    0    0    0 -0.00000000000E+00 -0.00000000000E+00 -0.40000000000E+02  0.40000000000E+02  0.00000000000E+00 0. -1.
         23    2    1    2    0    0  0.00000000000E+00  0.00000000000E+00  0.00000000000E+00  0.80000000000E+02  0.80000000000E+02 0.  0.
          5    1    3    3  501    0 -0.92902518388E+01  0.38621166970E+02 -0.81747336097E-01  0.40000000000E+02  0.47000000000E+01 0. -1.
         -5    1    3    3    0  501  0.92902518388E+01 -0.38621166970E+02  0.81747336097E-01  0.40000000000E+02  0.47000000000E+01 0.  1.
</event>
<event>
 5    1  0.4872488E-001  0.8000000E+02  0.7546771E-02  0.1203772E+00
         11   -1    0    0    0    0  0.00000000000E+00  0.00000000000E+00  0.40000000000E+02  0.40000000000E+02  0.00000000000E+00 0.  1.
        -11   -1    0    0    0    0 -0.00000000000E+00 -0.00000000000E+00 -0.40000000000E+02  0.40000000000E+02  0.00000000000E+00 0. -1.
         23    2    1    2    0    0  0.00000000000E+00  0.00000000000E+00  0.00000000000E+00  0.80000000000E+02  0.80000000000E+02 0.  0.
          5    1    3    3  501    0 -0.17820783058E+02 -0.31231753837E+02 -0.16879195581E+02  0.40000000000E+02  0.47000000000E+01 0. -1.
         -5    1    3    3    0  501  0.17820783058E+02  0.31231753837E+02  0.16879195581E+02  0.40000000000E+02  0.47000000000E+01 0.  1.
</event>
<event>
 5    1  0.4872488E-001  0.8000000E+02  0.7546771E-02  0.1203772E+00
         11   -1    0    0    0    0  0.00000000000E+00  0.00000000000E+00  0.40000000000E+02  0.40000000000E+02  0.00000000000E+00 0.  1.
        -11   -1    0    0    0    0 -0.00000000000E+00 -0.00000000000E+00 -0.40000000000E+02  0.40000000000E+02  0.00000000000E+00 0. -1.
         23    2    1    2    0    0  0.00000000000E+00  0.00000000000E+00  0.00000000000E+00  0.80000000000E+02  0.80000000000E+02 0.  0.
          5    1    3    3  501    0  0.31107630565E+01  0.15666778731E+02 -0.36370114069E+02  0.40000000000E+02  0.47000000000E+01 0. -1.
         -5    1    3    3    0  501 -0.31107630565E+01 -0.15666778731E+02  0.36370114069E+02  0.40000000000E+02  0.47000000000E+01 0.  1.
</event>
<event>
 5    1  0.4872488E-001  0.8000000E+02  0.7546771E-02  0.1203772E+00
         11   -1    0    0    0    0  0.00000000000E+00  0.00000000000E+00  0.40000000000E+02  0.40000000000E+02  0.00000000000E+00 0.  1.
        -11   -1    0    0    0    0 -0.00000000000E+00 -0.00000000000E+00 -0.40000000000E+02  0.40000000000E+02  0.00000000000E+00 0. -1.
         23    2    1    2    0    0  0.00000000000E+00  0.00000000000E+00  0.00000000000E+00  0.80000000000E+02  0.80000000000E+02 0.  0.
          5    1    3    3  501    0  0.11723249772E+02 -0.36164528334E+02 -0.11515307429E+02  0.40000000000E+02  0.47000000000E+01 0. -1.
         -5    1    3    3    0  501 -0.11723249772E+02  0.36164528334E+02  0.11515307429E+02  0.40000000000E+02  0.47000000000E+01 0.  1.
</event>
<event>
 5    1  0.4872488E-001  0.8000000E+02  0.7546771E-02  0.1203772E+00
         11   -1    0    0    0    0  0.00000000000E+00  0.00000000000E+00  0.40000000000E+02  0.40000000000E+02  0.00000000000E+00 0.  1.
        -11   -1    0    0    0    0 -0.00000000000E+00 -0.00000000000E+00 -0.40000000000E+02  0.40000000000E+02  0.00000000000E+00 0. -1.
         23    2    1    2    0    0  0.00000000000E+00  0.00000000000E+00  0.00000000000E+00  0.80000000000E+02  0.80000000000E+02 0.  0.
          5    1    3    3  501    0  0.10807968855E+02 -0.19925090388E+02 -0.32620370664E+02  0.40000000000E+02  0.47000000000E+01 0. -1.
         -5    1    3    3    0  501 -0.10807968855E+02  0.19925090388E+02  0.32620370664E+02  0.40000000000E+02  0.47000000000E+01 0.  1.
</event>
<event>
 5    1  0.4872488E-001  0.8000000E+02  0.7546771E-02  0.1203772E+00
         11   -1    0    0    0    0  0.00000000000E+00  0.00000000000E+00  0.40000000000E+02  0.40000000000E+02  0.00000000000E+00 0.  1.
        -11   -1    0    0    0    0 -0.00000000000E+00 -0.00000000000E+00 -0.40000000000E+02  0.40000000000E+02  0.00000000000E+00 0. -1.
         23    2    1    2    0    0  0.00000000000E+00  0.00000000000E+00  0.00000000000E+00  0.80000000000E+02  0.80000000000E+02 0.  0.
          5    1    3    3  501    0  0.18941354076E+01  0.39264645584E+02 -0.57105041985E+01  0.40000000000E+02  0.47000000000E+01 0. -1.
         -5    1    3    3    0  501 -0.18941354076E+01 -0.39264645584E+02  0.57105041985E+01  0.40000000000E+02  0.47000000000E+01 0.  1.
</event>
<event>
 5    1  0.4872488E-001  0.8000000E+02  0.7546771E-02  0.1203772E+00
         11   -1    0    0    0    0  0.00000000000E+00  0.00000000000E+00  0.40000000000E+02  0.40000000000E+02  0.00000000000E+00 0. -1.
        -11   -1    0    0    0    0 -0.00000000000E+00 -0.00000000000E+00 -0.40000000000E+02  0.40000000000E+02  0.00000000000E+00 0.  1.
         23    2    1    2    0    0  0.00000000000E+00  0.00000000000E+00  0.00000000000E+00  0.80000000000E+02  0.80000000000E+02 0.  0.
          5    1    3    3  501    0  0.29785222979E+02 -0.14746896185E+02  0.21754988968E+02  0.40000000000E+02  0.47000000000E+01 0. -1.
         -5    1    3    3    0  501 -0.29785222979E+02  0.14746896185E+02 -0.21754988968E+02  0.40000000000E+02  0.47000000000E+01 0.  1.
</event>
<event>
 5    1  0.4872488E-001  0.8000000E+02  0.7546771E-02  0.1203772E+00
         11   -1    0    0    0    0  0.00000000000E+00  0.00000000000E+00  0.40000000000E+02  0.40000000000E+02  0.00000000000E+00 0.  1.
        -11   -1    0    0    0    0 -0.00000000000E+00 -0.00000000000E+00 -0.40000000000E+02  0.40000000000E+02  0.00000000000E+00 0. -1.
         23    2    1    2    0    0  0.00000000000E+00  0.00000000000E+00  0.00000000000E+00  0.80000000000E+02  0.80000000000E+02 0.  0.
          5    1    3    3  501    0  0.15008472847E+02 -0.21734186892E+02 -0.29669527515E+02  0.40000000000E+02  0.47000000000E+01 0. -1.
         -5    1    3    3    0  501 -0.15008472847E+02  0.21734186892E+02  0.29669527515E+02  0.40000000000E+02  0.47000000000E+01 0.  1.
</event>
