<event>
 5    1  0.8909620E-001  0.1000000E+03  0.7546771E-02  0.1163815E+00
         11   -1    0    0    0    0  0.00000000000E+00  0.00000000000E+00  0.50000000000E+02  0.50000000000E+02  0.00000000000E+00 0. -1.
        -11   -1    0    0    0    0 -0.00000000000E+00 -0.00000000000E+00 -0.50000000000E+02  0.50000000000E+02  0.00000000000E+00 0.  1.
         23    2    1    2    0    0  0.00000000000E+00  0.00000000000E+00  0.00000000000E+00  0.10000000000E+03  0.10000000000E+03 0.  0.
          5    1    3    3  501    0 -0.17503045722E+02 -0.26496406895E+00  0.46599175792E+02  0.50000000000E+02  0.47000000000E+01 0. -1.
         -5    1    3    3    0  501  0.17503045722E+02  0.26496406895E+00 -0.46599175792E+02  0.50000000000E+02  0.47000000000E+01 0.  1.
</event>
<event>
 5    1  0.8909620E-001  0.1000000E+03  0.7546771E-02  0.1163815E+00
         11   -1    0    0    0    0  0.00000000000E+00  0.00000000000E+00  0.50000000000E+02  0.50000000000E+02  0.00000000000E+00 0. -1.
        -11   -1    0    0    0    0 -0.00000000000E+00 -0.00000000000E+00 -0.50000000000E+02  0.50000000000E+02  0.00000000000E+00 0.  1.
         23    2    1    2    0    0  0.00000000000E+00  0.00000000000E+00  0.00000000000E+00  0.10000000000E+03  0.10000000000E+03 0.  0.
          5    1    3    3  501    0  0.43993313652E+02  0.16310150441E+02 -0.16627607960E+02  0.50000000000E+02  0.47000000000E+01 0. -1.
         -5    1    3    3    0  501 -0.43993313652E+02 -0.16310150441E+02  0.16627607960E+02  0.50000000000E+02  0.47000000000E+01 0.  1.
</event>
<event>
 5    1  0.8909620E-001  0.1000000E+03  0.7546771E-02  0.1163815E+00
         11   -1    0    0    0    0  0.00000000000E+00  0.00000000000E+00  0.50000000000E+02  0.50000000000E+02  0.00000000000E+00 0. -1.
        -11   -1    0    0    0    0 -0.00000000000E+00 -0.00000000000E+00 -0.50000000000E+02  0.50000000000E+02  0.00000000000E+00 0.  1.
         23    2    1    2    0    0  0.00000000000E+00  0.00000000000E+00  0.00000000000E+00  0.10000000000E+03  0.10000000000E+03 0.  0.
          5    1    3    3  501    0 -0.11272624051E+02  0.44974338868E+02 -0.18114822394E+02  0.50000000000E+02  0.47000000000E+01 0. -1.
         -5    1    3    3    0  501  0.11272624051E+02 -0.44974338868E+02  0.18114822394E+02  0.50000000000E+02  0.47000000000E+01 0.  1.
</event>
<event>
 5    1  0.8909620E-001  0.1000000E+03  0.7546771E-02  0.1163815E+00
         11   -1    0    0    0    0  0.00000000000E+00  0.00000000000E+00  0.50000000000E+02  0.50000000000E+02  0.00000000000E+00 0. -1.
        -11   -1    0    0    0    0 -0.00000000000E+00 -0.00000000000E+00 -0.50000000000E+02  0.50000000000E+02  0.00000000000E+00 0.  1.
         23    2    1    2    0    0  0.00000000000E+00  0.00000000000E+00  0.00000000000E+00  0.10000000000E+03  0.10000000000E+03 0.  0.
          5    1    3    3  501    0 -0.27637194620E+02 -0.19298114123E+02  0.36628926613E+02  0.50000000000E+02  0.47000000000E+01 0. -1.
         -5    1    3    3    0  501  0.27637194620E+02  0.19298114123E+02 -0.36628926613E+02  0.50000000000E+02  0.47000000000E+01 0.  1.
</event>
<event>
 5    1  0.8909620E-001  0.1000000E+03  0.7546771E-02  0.1163815E+00
         11   -1    0    0    0    0  0.00000000000E+00  0.00000000000E+00  0.50000000000E+02  0.50000000000E+02  0.00000000000E+00 0. -1.
        -11   -1    0    0    0    0 -0.00000000000E+00 -0.00000000000E+00 -0.50000000000E+02  0.50000000000E+02  0.00000000000E+00 0.  1.
         23    2    1    2    0    0  0.00000000000E+00  0.00000000000E+00  0.00000000000E+00  0.10000000000E+03  0.10000000000E+03 0.  0.
          5    1    3    3  501    0  0.24025492980E+02 -0.11406130110E+02  0.42078330326E+02  0.50000000000E+02  0.47000000000E+01 0. -1.
         -5    1    3    3    0  501 -0.24025492980E+02  0.11406130110E+02 -0.42078330326E+02  0.50000000000E+02  0.47000000000E+01 0.  1.
</event>
<event>
 5    1  0.8909620E-001  0.1000000E+03  0.7546771E-02  0.1163815E+00
         11   -1    0    0    0    0  0.00000000000E+00  0.00000000000E+00  0.50000000000E+02  0.50000000000E+02  0.00000000000E+00 0. -1.
        -11   -1    0    0    0    0 -0.00000000000E+00 -0.00000000000E+00 -0.50000000000E+02  0.50000000000E+02  0.00000000000E+00 0.  1.
         23    2    1    2    0    0  0.00000000000E+00  0.00000000000E+00  0.00000000000E+00  0.10000000000E+03  0.10000000000E+03 0.  0.
          5    1    3    3  501    0 -0.34486860493E+02 -0.13162451086E+02  0.33396352118E+02  0.50000000000E+02  0.47000000000E+01 0. -1.
         -5    1    3    3    0  501  0.34486860493E+02  0.13162451086E+02 -0.33396352118E+02  0.50000000000E+02  0.47000000000E+01 0.  1.
</event>
<event>
 5    1  0.8909620E-001  0.1000000E+03  0.7546771E-02  0.1163815E+00
         11   -1    0    0    0    0  0.00000000000E+00  0.00000000000E+00  0.50000000000E+02  0.50000000000E+02  0.00000000000E+00 0. -1.
        -11   -1    0    0    0    0 -0.00000000000E+00 -0.00000000000E+00 -0.50000000000E+02  0.50000000000E+02  0.00000000000E+00 0.  1.
         23    2    1    2    0    0  0.00000000000E+00  0.00000000000E+00  0.00000000000E+00  0.10000000000E+03  0.10000000000E+03 0.  0.
          5    1    3    3  501    0  0.72851478324E+01  0.98114371750E+01  0.48255282836E+02  0.50000000000E+02  0.47000000000E+01 0. -1.
         -5    1    3    3    0  501 -0.72851478324E+01 -0.98114371750E+01 -0.48255282836E+02  0.50000000000E+02  0.47000000000E+01 0.  1.
</event>
<event>
 5    1  0.8909620E-001  0.1000000E+03  0.7546771E-02  0.1163815E+00
         11   -1    0    0    0    0  0.00000000000E+00  0.00000000000E+00  0.50000000000E+02  0.50000000000E+02  0.00000000000E+00 0.  1.
        -11   -1    0    0    0    0 -0.00000000000E+00 -0.00000000000E+00 -0.50000000000E+02  0.50000000000E+02  0.00000000000E+00 0. -1.
         23    2    1    2    0    0  0.00000000000E+00  0.00000000000E+00  0.00000000000E+00  0.10000000000E+03  0.10000000000E+03 0.  0.
          5    1    3    3  501    0  0.52629000491E+01  0.25256627541E+02 -0.42571289014E+02  0.50000000000E+02  0.47000000000E+01 0. -1.
         -5    1    3    3    0  501 -0.52629000491E+01 -0.25256627541E+02  0.42571289014E+02  0.50000000000E+02  0.47000000000E+01 0.  1.
</event>
<event>
 5    1  0.8909620E-001  0.1000000E+03  0.7546771E-02  0.1163815E+00
         11   -1    0    0    0    0  0.00000000000E+00  0.00000000000E+00  0.50000000000E+02  0.50000000000E+02  0.00000000000E+00 0.  1.
        -11   -1    0    0    0    0 -0.00000000000E+00 -0.00000000000E+00 -0.50000000000E+02  0.50000000000E+02  0.00000000000E+00 0. -1.
         23    2    1    2    0    0  0.00000000000E+00  0.00000000000E+00  0.00000000000E+00  0.10000000000E+03  0.10000000000E+03 0.  0.
          5    1    3    3  501    0  0.58776974784E+01  0.37353421274E+01 -0.49289044336E+02  0.50000000000E+02  0.47000000000E+01 0. -1.
         -5    1    3    3    0  501 -0.58776974784E+01 -0.37353421274E+01  0.49289044336E+02  0.50000000000E+02  0.47000000000E+01 0.  1.
</event>
<event>
 5    1  0.8909620E-001  0.1000000E+03  0.7546771E-02  0.1163815E+00
         11   -1    0    0    0    0  0.00000000000E+00  0.00000000000E+00  0.50000000000E+02  0.50000000000E+02  0.00000000000E+00 0. -1.
        -11   -1    0    0    0    0 -0.00000000000E+00 -0.00000000000E+00 -0.50000000000E+02  0.50000000000E+02  0.00000000000E+00 0.  1.
         23    2    1    2    0    0  0.00000000000E+00  0.00000000000E+00  0.00000000000E+00  0.10000000000E+03  0.10000000000E+03 0.  0.
          5    1    3    3  501    0  0.45645383346E+02  0.17319212243E+02  0.97187379036E+01  0.50000000000E+02  0.47000000000E+01 0. -1.
         -5    1    3    3    0  501 -0.45645383346E+02 -0.17319212243E+02 -0.97187379036E+01  0.50000000000E+02  0.47000000000E+01 0.  1.
</event>
<event>
 5    1  0.8909620E-001  0.1000000E+03  0.7546771E-02  0.1163815E+00
         11   -1    0    0    0    0  0.00000000000E+00  0.00000000000E+00  0.50000000000E+02  0.50000000000E+02  0.00000000000E+00 0. -1.
        -11   -1    0    0    0    0 -0.00000000000E+00 -0.00000000000E+00 -0.50000000000E+02  0.50000000000E+02  0.00000000000E+00 0.  1.
         23    2    1    2    0    0  0.00000000000E+00  0.00000000000E+00  0.00000000000E+00  0.10000000000E+03  0.10000000000E+03 0.  0.
          5    1    3    3  501    0 -0.16628908299E+02  0.29750412428E+02  0.36280881593E+02  0.50000000000E+02  0.47000000000E+01 0. -1.
         -5    1    3    3    0  501  0.16628908299E+02 -0.29750412428E+02 -0.36280881593E+02  0.50000000000E+02  0.47000000000E+01 0.  1.
</event>
<event>
 5    1  0.8909620E-001  0.1000000E+03  0.7546771E-02  0.1163815E+00
         11   -1    0    0    0    0  0.00000000000E+00  0.00000000000E+00  0.50000000000E+02  0.50000000000E+02  0.00000000000E+00 0. -1.
        -11   -1    0    0    0    0 -0.00000000000E+00 -0.00000000000E+00 -0.50000000000E+02  0.50000000000E+02  0.00000000000E+00 0.  1.
         23    2    1    2    0    0  0.00000000000E+00  0.00000000000E+00  0.00000000000E+00  0.10000000000E+03  0.10000000000E+03 0.  0.
          5    1    3    3  501    0 -0.77375957422E+01 -0.49161394338E+02  0.10940378939E+01  0.50000000000E+02  0.47000000000E+01 0. -1.
         -5    1    3    3    0  501  0.77375957422E+01  0.49161394338E+02 -0.10940378939E+01  0.50000000000E+02  0.47000000000E+01 0.  1.
</event>
<event>
 5    1  0.8909620E-001  0.1000000E+03  0.7546771E-02  0.1163815E+00
         11   -1    0    0    0    0  0.00000000000E+00  0.00000000000E+00  0.50000000000E+02  0.50000000000E+02  0.00000000000E+00 0.  1.
        -11   -1    0    0    0    0 -0.00000000000E+00 -0.00000000000E+00 -0.50000000000E+02  0.50000000000E+02  0.00000000000E+00 0. -1.
         23    2    1    2    0    0  0.00000000000E+00  0.00000000000E+00  0.00000000000E+00  0.10000000000E+03  0.10000000000E+03 0.  0.
          5    1    3    3  501    0  0.30495008380E+02  0.36817044460E+02 -0.13873344987E+02  0.50000000000E+02  0.47000000000E+01 0. -1.
         -5    1    3    3    0  501 -0.30495008380E+02 -0.36817044460E+02  0.13873344987E+02  0.50000000000E+02  0.47000000000E+01 0.  1.
</event>
<event>
 5    1  0.8909620E-001  0.1000000E+03  0.7546771E-02  0.1163815E+00
         11   -1    0    0    0    0  0.00000000000E+00  0.00000000000E+00  0.50000000000E+02  0.50000000000E+02  0.00000000000E+00 0.  1.
        -11   -1    0    0    0    0 -0.00000000000E+00 -0.00000000000E+00 -0.50000000000E+02  0.50000000000E+02  0.00000000000E+00 0. -1.
         23    2    1    2    0    0  0.00000000000E+00  0.00000000000E+00  0.00000000000E+00  0.10000000000E+03  0.10000000000E+03 0.  0.
          5    1    3    3  501    0 -0.82294368918E+01 -0.22255484543E+02  0.43759339303E+02  0.50000000000E+02  0.47000000000E+01 0.  1.
         -5    1    3    3    0  501  0.82294368918E+01  0.22255484543E+02 -0.43759339303E+02  0.50000000000E+02  0.47000000000E+01 0. -1.
</event>
<event>
 5    1  0.8909620E-001  0.1000000E+03  0.7546771E-02  0.1163815E+00
         11   -1    0    0    0    0  0.00000000000E+00  0.00000000000E+00  0.50000000000E+02  0.50000000000E+02  0.00000000000E+00 0.  1.
        -11   -1    0    0    0    0 -0.00000000000E+00 -0.00000000000E+00 -0.50000000000E+02  0.50000000000E+02  0.00000000000E+00 0. -1.
         23    2    1    2    0    0  0.00000000000E+00  0.00000000000E+00  0.00000000000E+00  0.10000000000E+03  0.10000000000E+03 0.  0.
          5    1    3    3  501    0 -0.34871928762E+02 -0.23200637578E+02 -0.26899609670E+02  0.50000000000E+02  0.47000000000E+01 0. -1.
         -5    1    3    3    0  501  0.34871928762E+02  0.23200637578E+02  0.26899609670E+02  0.50000000000E+02  0.47000000000E+01 0.  1.
</event>
<event>
 5    1  0.8909620E-001  0.1000000E+03  0.7546771E-02  0.1163815E+00
         11   -1    0    0    0    0  0.00000000000E+00  0.00000000000E+00  0.50000000000E+02  0.50000000000E+02  0.00000000000E+00 0. -1.
        -11   -1    0    0    0    0 -0.00000000000E+00 -0.00000000000E+00 -0.50000000000E+02  0.50000000000E+02  0.00000000000E+00 0.  1.
         23    2    1    2    0    0  0.00000000000E+00  0.00000000000E+00  0.00000000000E+00  0.10000000000E+03  0.10000000000E+03 0.  0.
          5    1    3    3  501    0  0.26142797436E+02 -0.30900359944E+02  0.28976402425E+02  0.50000000000E+02  0.47000000000E+01 0. -1.
         -5    1    3    3    0  501 -0.26142797436E+02  0.30900359944E+02 -0.28976402425E+02  0.50000000000E+02  0.47000000000E+01 0.  1.
</event>
<event>
 5    1  0.8909620E-001  0.1000000E+03  0.7546771E-02  0.1163815E+00
         11   -1    0    0    0    0  0.00000000000E+00  0.00000000000E+00  0.50000000000E+02  0.50000000000E+02  0.00000000000E+00 0. -1.
        -11   -1    0    0    0    0 -0.00000000000E+00 -0.00000000000E+00 -0.50000000000E+02  0.50000000000E+02  0.00000000000E+00 0.  1.
         23    2    1    2    0    0  0.00000000000E+00  0.00000000000E+00  0.00000000000E+00  0.10000000000E+03  0.10000000000E+03 0.  0.
          5    1    3    3  501    0  0.10346589551E+02  0.22941395765E+02  0.42948229824E+02  0.50000000000E+02  0.47000000000E+01 0. -1.
         -5    1    3    3    0  501 -0.10346589551E+02 -0.22941395765E+02 -0.42948229824E+02  0.50000000000E+02  0.47000000000E+01 0.  1.
</event>
<event>
 5    1  0.8909620E-001  0.1000000E+03  0.7546771E-02  0.1163815E+00
         11   -1    0    0    0    0  0.00000000000E+00  0.00000000000E+00  0.50000000000E+02  0.50000000000E+02  0.00000000000E+00 0. -1.
        -11   -1    0    0    0    0 -0.00000000000E+00 -0.00000000000E+00 -0.50000000000E+02  0.50000000000E+02  0.00000000000E+00 0.  1.
         23    2    1    2    0    0  0.00000000000E+00  0.00000000000E+00  0.00000000000E+00  0.10000000000E+03  0.10000000000E+03 0.  0.
          5    1    3    3  501    0 -0.32087503754E+02  0.34679436569E+02  0.15672867705E+02  0.50000000000E+02  0.47000000000E+01 0. -1.
         -5    1    3    3    0  501  0.32087503754E+02 -0.34679436569E+02 -0.15672867705E+02  0.50000000000E+02  0.47000000000E+01 0.  1.
</event>
<event>
 5    1  0.8909620E-001  0.1000000E+03  0.7546771E-02  0.1163815E+00
         11   -1    0    0    0    0  0.00000000000E+00  0.00000000000E+00  0.50000000000E+02  0.50000000000E+02  0.00000000000E+00 0. -1.
        -11   -1    0    0    0    0 -0.00000000000E+00 -0.00000000000E+00 -0.50000000000E+02  0.50000000000E+02  0.00000000000E+00 0.  1.
         23    2    1    2    0    0  0.00000000000E+00  0.00000000000E+00  0.00000000000E+00  0.10000000000E+03  0.10000000000E+03 0.  0.
          5    1    3    3  501    0  0.45951675422E+02  0.19140342479E+02  0.28560135793E-01  0.50000000000E+02  0.47000000000E+01 0. -1.
         -5    1    3    3    0  501 -0.45951675422E+02 -0.19140342479E+02 -0.28560135793E-01  0.50000000000E+02  0.47000000000E+01 0.  1.
</event>
<event>
 5    1  0.8909620E-001  0.1000000E+03  0.7546771E-02  0.1163815E+00
         11   -1    0    0    0    0  0.00000000000E+00  0.00000000000E+00  0.50000000000E+02  0.50000000000E+02  0.00000000000E+00 0. -1.
        -11   -1    0    0    0    0 -0.00000000000E+00 -0.00000000000E+00 -0.50000000000E+02  0.50000000000E+02  0.00000000000E+00 0.  1.
         23    2    1    2    0    0  0.00000000000E+00  0.00000000000E+00  0.00000000000E+00  0.10000000000E+03  0.10000000000E+03 0.  0.
          5    1    3    3  501    0 -0.93533116287E+01  0.72395720766E+00  0.48886618287E+02  0.50000000000E+02  0.47000000000E+01 0. -1.
         -5    1    3    3    0  501  0.93533116287E+01 -0.72395720766E+00 -0.48886618287E+02  0.50000000000E+02  0.47000000000E+01 0.  1.
</event>
<event>
 5    1  0.8909620E-001  0.1000000E+03  0.7546771E-02  0.1163815E+00
         11   -1    0    0    0    0  0.00000000000E+00  0.00000000000E+00  0.50000000000E+02  0.50000000000E+02  0.00000000000E+00 0. -1.
        -11   -1    0    0    0    0 -0.00000000000E+00 -0.00000000000E+00 -0.50000000000E+02  0.50000000000E+02  0.00000000000E+00 0.  1.
         23    2    1    2    0    0  0.00000000000E+00  0.00000000000E+00  0.00000000000E+00  0.10000000000E+03  0.10000000000E+03 0.  0.
          5    1    3    3  501    0  0.21321092820E+02  0.33479970673E+02  0.30040182501E+02  0.50000000000E+02  0.47000000000E+01 0. -1.
         -5    1    3    3    0  501 -0.21321092820E+02 -0.33479970673E+02 -0.30040182501E+02  0.50000000000E+02  0.47000000000E+01 0.  1.
</event>
<event>
 5    1  0.8909620E-001  0.1000000E+03  0.7546771E-02  0.1163815E+00
         11   -1    0    0    0    0  0.00000000000E+00  0.00000000000E+00  0.50000000000E+02  0.50000000000E+02  0.00000000000E+00 0.  1.
        -11   -1    0    0    0    0 -0.00000000000E+00 -0.00000000000E+00 -0.50000000000E+02  0.50000000000E+02  0.00000000000E+00 0. -1.
         23    2    1    2    0    0  0.00000000000E+00  0.00000000000E+00  0.00000000000E+00  0.10000000000E+03  0.10000000000E+03 0.  0.
          5    1    3    3  501    0  0.52005493795E+01  0.52120060998E+01 -0.49231080412E+02  0.50000000000E+02  0.47000000000E+01 0. -1.
         -5    1    3    3    0  501 -0.52005493795E+01 -0.52120060998E+01  0.49231080412E+02  0.50000000000E+02  0.47000000000E+01 0.  1.
</event>
<event>
 5    1  0.8909620E-001  0.1000000E+03  0.7546771E-02  0.1163815E+00
         11   -1    0    0    0    0  0.00000000000E+00  0.00000000000E+00  0.50000000000E+02  0.50000000000E+02  0.00000000000E+00 0. -1.
        -11   -1    0    0    0    0 -0.00000000000E+00 -0.00000000000E+00 -0.50000000000E+02  0.50000000000E+02  0.00000000000E+00 0.  1.
         23    2    1    2    0    0  0.00000000000E+00  0.00000000000E+00  0.00000000000E+00  0.10000000000E+03  0.10000000000E+03 0.  0.
          5    1    3    3  501    0  0.19954885355E+02 -0.36101257909E+02  0.27864165659E+02  0.50000000000E+02  0.47000000000E+01 0. -1.
         -5    1    3    3    0  501 -0.19954885355E+02  0.36101257909E+02 -0.27864165659E+02  0.50000000000E+02  0.47000000000E+01 0.  1.
</event>
<event>
 5    1  0.8909620E-001  0.1000000E+03  0.7546771E-02  0.1163815E+00
         11   -1    0    0    0    0  0.00000000000E+00  0.00000000000E+00  0.50000000000E+02  0.50000000000E+02  0.00000000000E+00 0. -1.
        -11   -1    0    0    0    0 -0.00000000000E+00 -0.00000000000E+00 -0.50000000000E+02  0.50000000000E+02  0.00000000000E+00 0.  1.
         23    2    1    2    0    0  0.00000000000E+00  0.00000000000E+00  0.00000000000E+00  0.10000000000E+03  0.10000000000E+03 0.  0.
          5    1    3    3  501    0 -0.37021248178E+02  0.67804398753E+01  0.32578563787E+02  0.50000000000E+02  0.47000000000E+01 0. -1.
         -5    1    3    3    0  501  0.37021248178E+02 -0.67804398753E+01 -0.32578563787E+02  0.50000000000E+02  0.47000000000E+01 0.  1.
</event>
<event>
 5    1  0.8909620E-001  0.1000000E+03  0.7546771E-02  0.1163815E+00
         11   -1    0    0    0    0  0.00000000000E+00  0.00000000000E+00  0.50000000000E+02  0.50000000000E+02  0.00000000000E+00 0.  1.
        -11   -1    0    0    0    0 -0.00000000000E+00 -0.00000000000E+00 -0.50000000000E+02  0.50000000000E+02  0.00000000000E+00 0. -1.
         23    2    1    2    0    0  0.00000000000E+00  0.00000000000E+00  0.00000000000E+00  0.10000000000E+03  0.10000000000E+03 0.  0.
          5    1    3    3  501    0  0.16132934642E+02 -0.68174611804E+01 -0.46595714856E+02  0.50000000000E+02  0.47000000000E+01 0. -1.
         -5    1    3    3    0  501 -0.16132934642E+02  0.68174611804E+01  0.46595714856E+02  0.50000000000E+02  0.47000000000E+01 0.  1.
</event>
<event>
 5    1  0.8909620E-001  0.1000000E+03  0.7546771E-02  0.1163815E+00
         11   -1    0    0    0    0  0.00000000000E+00  0.00000000000E+00  0.50000000000E+02  0.50000000000E+02  0.00000000000E+00 0. -1.
        -11   -1    0    0    0    0 -0.00000000000E+00 -0.00000000000E+00 -0.50000000000E+02  0.50000000000E+02  0.00000000000E+00 0.  1.
         23    2    1    2    0    0  0.00000000000E+00  0.00000000000E+00  0.00000000000E+00  0.10000000000E+03  0.10000000000E+03 0.  0.
          5    1    3    3  501    0  0.53504428210E+01 -0.39327009567E+02  0.30044451736E+02  0.50000000000E+02  0.47000000000E+01 0. -1.
         -5    1    3    3    0  501 -0.53504428210E+01  0.39327009567E+02 -0.30044451736E+02  0.50000000000E+02  0.47000000000E+01 0.  1.
</event>
<event>
 5    1  0.8909620E-001  0.1000000E+03  0.7546771E-02  0.1163815E+00
         11   -1    0    0    0    0  0.00000000000E+00  0.00000000000E+00  0.50000000000E+02  0.50000000000E+02  0.00000000000E+00 0.  1.
        -11   -1    0    0    0    0 -0.00000000000E+00 -0.00000000000E+00 -0.50000000000E+02  0.50000000000E+02  0.00000000000E+00 0. -1.
         23    2    1    2    0    0  0.00000000000E+00  0.00000000000E+00  0.00000000000E+00  0.10000000000E+03  0.10000000000E+03 0.  0.
          5    1    3    3  501    0 -0.62805348062E+01  0.18294365568E+02 -0.45866993263E+02  0.50000000000E+02  0.47000000000E+01 0. -1.
         -5    1    3    3    0  501  0.62805348062E+01 -0.18294365568E+02  0.45866993263E+02  0.50000000000E+02  0.47000000000E+01 0.  1.
</event>
<event>
 5    1  0.8909620E-001  0.1000000E+03  0.7546771E-02  0.1163815E+00
         11   -1    0    0    0    0  0.00000000000E+00  0.00000000000E+00  0.50000000000E+02  0.50000000000E+02  0.00000000000E+00 0. -1.
        -11   -1    0    0    0    0 -0.00000000000E+00 -0.00000000000E+00 -0.50000000000E+02  0.50000000000E+02  0.00000000000E+00 0.  1.
         23    2    1    2    0    0  0.00000000000E+00  0.00000000000E+00  0.00000000000E+00  0.10000000000E+03  0.10000000000E+03 0.  0.
          5    1    3    3  501    0 -0.28019290150E+02  0.94397735735E+01  0.40046473682E+02  0.50000000000E+02  0.47000000000E+01 0. -1.
         -5    1    3    3    0  501  0.28019290150E+02 -0.94397735735E+01 -0.40046473682E+02  0.50000000000E+02  0.47000000000E+01 0.  1.
</event>
<event>
 5    1  0.8909620E-001  0.1000000E+03  0.7546771E-02  0.1163815E+00
         11   -1    0    0    0    0  0.00000000000E+00  0.00000000000E+00  0.50000000000E+02  0.50000000000E+02  0.00000000000E+00 0. -1.
        -11   -1    0    0    0    0 -0.00000000000E+00 -0.00000000000E+00 -0.50000000000E+02  0.50000000000E+02  0.00000000000E+00 0.  1.
         23    2    1    2    0    0  0.00000000000E+00  0.00000000000E+00  0.00000000000E+00  0.10000000000E+03  0.10000000000E+03 0.  0.
          5    1    3    3  501    0  0.13862645215E+02 -0.47667996321E+02 -0.36741249868E+01  0.50000000000E+02  0.47000000000E+01 0. -1.
         -5    1    3    3    0  501 -0.13862645215E+02  0.47667996321E+02  0.36741249868E+01  0.50000000000E+02  0.47000000000E+01 0.  1.
</event>
<event>
 5    1  0.8909620E-001  0.1000000E+03  0.7546771E-02  0.1163815E+00
         11   -1    0    0    0    0  0.00000000000E+00  0.00000000000E+00  0.50000000000E+02  0.50000000000E+02  0.00000000000E+00 0.  1.
        -11   -1    0    0    0    0 -0.00000000000E+00 -0.00000000000E+00 -0.50000000000E+02  0.50000000000E+02  0.00000000000E+00 0. -1.
         23    2    1    2    0    0  0.00000000000E+00  0.00000000000E+00  0.00000000000E+00  0.10000000000E+03  0.10000000000E+03 0.  0.
          5    1    3    3  501    0  0.32304886107E+02 -0.84645019734E+01 -0.36914178035E+02  0.50000000000E+02  0.47000000000E+01 0. -1.
         -5    1    3    3    0  501 -0.32304886107E+02  0.84645019734E+01  0.36914178035E+02  0.50000000000E+02  0.47000000000E+01 0.  1.
</event>
<event>
 5    1  0.8909620E-001  0.1000000E+03  0.7546771E-02  0.1163815E+00
         11   -1    0    0    0    0  0.00000000000E+00  0.00000000000E+00  0.50000000000E+02  0.50000000000E+02  0.00000000000E+00 0. -1.
        -11   -1    0    0    0    0 -0.00000000000E+00 -0.00000000000E+00 -0.50000000000E+02  0.50000000000E+02  0.00000000000E+00 0.  1.
         23    2    1    2    0    0  0.00000000000E+00  0.00000000000E+00  0.00000000000E+00  0.10000000000E+03  0.10000000000E+03 0.  0.
          5    1    3    3  501    0  0.43359659631E+02  0.24450239537E+02 -0.18895319942E+00  0.50000000000E+02  0.47000000000E+01 0. -1.
         -5    1    3    3    0  501 -0.43359659631E+02 -0.24450239537E+02  0.18895319942E+00  0.50000000000E+02  0.47000000000E+01 0.  1.
</event>
<event>
 5    1  0.8909620E-001  0.1000000E+03  0.7546771E-02  0.1163815E+00
         11   -1    0    0    0    0  0.00000000000E+00  0.00000000000E+00  0.50000000000E+02  0.50000000000E+02  0.00000000000E+00 0.  1.
        -11   -1    0    0    0    0 -0.00000000000E+00 -0.00000000000E+00 -0.50000000000E+02  0.50000000000E+02  0.00000000000E+00 0. -1.
         23    2    1    2    0    0  0.00000000000E+00  0.00000000000E+00  0.00000000000E+00  0.10000000000E+03  0.10000000000E+03 0.  0.
          5    1    3    3  501    0  0.14548072024E+02 -0.12279207351E+02 -0.45994398216E+02  0.50000000000E+02  0.47000000000E+01 0. -1.
         -5    1    3    3    0  501 -0.14548072024E+02  0.12279207351E+02  0.45994398216E+02  0.50000000000E+02  0.47000000000E+01 0.  1.
</event>
<event>
 5    1  0.8909620E-001  0.1000000E+03  0.7546771E-02  0.1163815E+00
         11   -1    0    0    0    0  0.00000000000E+00  0.00000000000E+00  0.50000000000E+02  0.50000000000E+02  0.00000000000E+00 0. -1.
        -11   -1    0    0    0    0 -0.00000000000E+00 -0.00000000000E+00 -0.50000000000E+02  0.50000000000E+02  0.00000000000E+00 0.  1.
         23    2    1    2    0    0  0.00000000000E+00  0.00000000000E+00  0.00000000000E+00  0.10000000000E+03  0.10000000000E+03 0.  0.
          5    1    3    3  501    0  0.31693135172E+02  0.32872904268E+02  0.19819872552E+02  0.50000000000E+02  0.47000000000E+01 0. -1.
         -5    1    3    3    0  501 -0.31693135172E+02 -0.32872904268E+02 -0.19819872552E+02  0.50000000000E+02  0.47000000000E+01 0.  1.
</event>
<event>
 5    1  0.8909620E-001  0.1000000E+03  0.7546771E-02  0.1163815E+00
         11   -1    0    0    0    0  0.00000000000E+00  0.00000000000E+00  0.50000000000E+02  0.50000000000E+02  0.00000000000E+00 0. -1.
        -11   -1    0    0    0    0 -0.00000000000E+00 -0.00000000000E+00 -0.50000000000E+02  0.50000000000E+02  0.00000000000E+00 0.  1.
         23    2    1    2    0    0  0.00000000000E+00  0.00000000000E+00  0.00000000000E+00  0.10000000000E+03  0.10000000000E+03 0.  0.
          5    1    3    3  501    0 -0.41327366635E+02  0.23396966366E+02 -0.14917799165E+02  0.50000000000E+02  0.47000000000E+01 0. -1.
         -5    1    3    3    0  501  0.41327366635E+02 -0.23396966366E+02  0.14917799165E+02  0.50000000000E+02  0.47000000000E+01 0.  1.
</event>
<event>
 5    1  0.8909620E-001  0.1000000E+03  0.7546771E-02  0.1163815E+00
         11   -1    0    0    0    0  0.00000000000E+00  0.00000000000E+00  0.50000000000E+02  0.50000000000E+02  0.00000000000E+00 0.  1.
        -11   -1    0    0    0    0 -0.00000000000E+00 -0.00000000000E+00 -0.50000000000E+02  0.50000000000E+02  0.00000000000E+00 0. -1.
         23    2    1    2    0    0  0.00000000000E+00  0.00000000000E+00  0.00000000000E+00  0.10000000000E+03  0.10000000000E+03 0.  0.
          5    1    3    3  501    0  0.18130105553E+02  0.18074310484E+02 -0.42691083064E+02  0.50000000000E+02  0.47000000000E+01 0. -1.
         -5    1    3    3    0  501 -0.18130105553E+02 -0.18074310484E+02  0.42691083064E+02  0.50000000000E+02  0.47000000000E+01 0.  1.
</event>
<event>
 5    1  0.8909620E-001  0.1000000E+03  0.7546771E-02  0.1163815E+00
         11   -1    0    0    0    0  0.00000000000E+00  0.00000000000E+00  0.50000000000E+02  0.50000000000E+02  0.00000000000E+00 0.  1.
        -11   -1    0    0    0    0 -0.00000000000E+00 -0.00000000000E+00 -0.50000000000E+02  0.50000000000E+02  0.00000000000E+00 0. -1.
         23    2    1    2    0    0  0.00000000000E+00  0.00000000000E+00  0.00000000000E+00  0.10000000000E+03  0.10000000000E+03 0.  0.
          5    1    3    3  501    0  0.77463328069E+01 -0.49171920954E+02  0.16284282819E+00  0.50000000000E+02  0.47000000000E+01 0. -1.
         -5    1    3    3    0  501 -0.77463328069E+01  0.49171920954E+02 -0.16284282819E+00  0.50000000000E+02  0.47000000000E+01 0.  1.
</event>
<event>
 5    1  0.8909620E-001  0.1000000E+03  0.7546771E-02  0.1163815E+00
         11   -1    0    0    0    0  0.00000000000E+00  0.00000000000E+00  0.50000000000E+02  0.50000000000E+02  0.00000000000E+00 0.  1.
        -11   -1    0    0    0    0 -0.00000000000E+00 -0.00000000000E+00 -0.50000000000E+02  0.50000000000E+02  0.00000000000E+00 0. -1.
         23    2    1    2    0    0  0.00000000000E+00  0.00000000000E+00  0.00000000000E+00  0.10000000000E+03  0.10000000000E+03 0.  0.
          5    1    3    3  501    0  0.24263856486E+02  0.40533807008E+02 -0.15690307769E+02  0.50000000000E+02  0.47000000000E+01 0. -1.
         -5    1    3    3    0  501 -0.24263856486E+02 -0.40533807008E+02  0.15690307769E+02  0.50000000000E+02  0.47000000000E+01 0.  1.
</event>
<event>
 5    1  0.8909620E-001  0.1000000E+03  0.7546771E-02  0.1163815E+00
         11   -1    0    0    0    0  0.00000000000E+00  0.00000000000E+00  0.50000000000E+02  0.50000000000E+02  0.00000000000E+00 0.  1.
        -11   -1    0    0    0    0 -0.00000000000E+00 -0.00000000000E+00 -0.50000000000E+02  0.50000000000E+02  0.00000000000E+00 0. -1.
         23    2    1    2    0    0  0.00000000000E+00  0.00000000000E+00  0.00000000000E+00  0.10000000000E+03  0.10000000000E+03 0.  0.
          5    1    3    3  501    0 -0.46132022590E+02  0.14964431771E+02 -0.11216607041E+02  0.50000000000E+02  0.47000000000E+01 0. -1.
         -5    1    3    3    0  501  0.46132022590E+02 -0.14964431771E+02  0.11216607041E+02  0.50000000000E+02  0.47000000000E+01 0.  1.
</event>
<event>
 5    1  0.8909620E-001  0.1000000E+03  0.7546771E-02  0.1163815E+00
         11   -1    0    0    0    0  0.00000000000E+00  0.00000000000E+00  0.50000000000E+02  0.50000000000E+02  0.00000000000E+00 0.  1.
        -11   -1    0    0    0    0 -0.00000000000E+00 -0.00000000000E+00 -0.50000000000E+02  0.50000000000E+02  0.00000000000E+00 0. -1.
         23    2    1    2    0    0  0.00000000000E+00  0.00000000000E+00  0.00000000000E+00  0.10000000000E+03  0.10000000000E+03 0.  0.
          5    1    3    3  501    0  0.35036659605E+02  0.27998710873E+02 -0.21596635692E+02  0.50000000000E+02  0.47000000000E+01 0. -1.
         -5    1    3    3    0  501 -0.35036659605E+02 -0.27998710873E+02  0.21596635692E+02  0.50000000000E+02  0.47000000000E+01 0.  1.
</event>
<event>
 5    1  0.8909620E-001  0.1000000E+03  0.7546771E-02  0.1163815E+00
         11   -1    0    0    0    0  0.00000000000E+00  0.00000000000E+00  0.50000000000E+02  0.50000000000E+02  0.00000000000E+00 0. -1.
        -11   -1    0    0    0    0 -0.00000000000E+00 -0.00000000000E+00 -0.50000000000E+02  0.50000000000E+02  0.00000000000E+00 0.  1.
         23    2    1    2    0    0  0.00000000000E+00  0.00000000000E+00  0.00000000000E+00  0.10000000000E+03  0.10000000000E+03 0.  0.
          5    1    3    3  501    0 -0.60619268942E+01  0.22179120994E+02  0.44150307295E+02  0.50000000000E+02  0.47000000000E+01 0. -1.
         -5    1    3    3    0  501  0.60619268942E+01 -0.22179120994E+02 -0.44150307295E+02  0.50000000000E+02  0.47000000000E+01 0.  1.
</event>
<event>
 5    1  0.8909620E-001  0.1000000E+03  0.7546771E-02  0.1163815E+00
         11   -1    0    0    0    0  0.00000000000E+00  0.00000000000E+00  0.50000000000E+02  0.50000000000E+02  0.00000000000E+00 0. -1.
        -11   -1    0    0    0    0 -0.00000000000E+00 -0.00000000000E+00 -0.50000000000E+02  0.50000000000E+02  0.00000000000E+00 0.  1.
         23    2    1    2    0    0  0.00000000000E+00  0.00000000000E+00  0.00000000000E+00  0.10000000000E+03  0.10000000000E+03 0.  0.
          5    1    3    3  501    0  0.10598683593E+01 -0.29869761816E+02  0.39806833686E+02  0.50000000000E+02  0.47000000000E+01 0. -1.
         -5    1    3    3    0  501 -0.10598683593E+01  0.29869761816E+02 -0.39806833686E+02  0.50000000000E+02  0.47000000000E+01 0.  1.
</event>
<event>
 5    1  0.8909620E-001  0.1000000E+03  0.7546771E-02  0.1163815E+00
         11   -1    0    0    0    0  0.00000000000E+00  0.00000000000E+00  0.50000000000E+02  0.50000000000E+02  0.00000000000E+00 0. -1.
        -11   -1    0    0    0    0 -0.00000000000E+00 -0.00000000000E+00 -0.50000000000E+02  0.50000000000E+02  0.00000000000E+00 0.  1.
         23    2    1    2    0    0  0.00000000000E+00  0.00000000000E+00  0.00000000000E+00  0.10000000000E+03  0.10000000000E+03 0.  0.
          5    1    3    3  501    0  0.32764160323E+02 -0.21131834017E+02  0.30949400470E+02  0.50000000000E+02  0.47000000000E+01 0. -1.
         -5    1    3    3    0  501 -0.32764160323E+02  0.21131834017E+02 -0.30949400470E+02  0.50000000000E+02  0.47000000000E+01 0.  1.
</event>
<event>
 5    1  0.8909620E-001  0.1000000E+03  0.7546771E-02  0.1163815E+00
         11   -1    0    0    0    0  0.00000000000E+00  0.00000000000E+00  0.50000000000E+02  0.50000000000E+02  0.00000000000E+00 0. -1.
        -11   -1    0    0    0    0 -0.00000000000E+00 -0.00000000000E+00 -0.50000000000E+02  0.50000000000E+02  0.00000000000E+00 0.  1.
         23    2    1    2    0    0  0.00000000000E+00  0.00000000000E+00  0.00000000000E+00  0.10000000000E+03  0.10000000000E+03 0.  0.
          5    1    3    3  501    0  0.26650173528E+02  0.49459190562E+01  0.41751839907E+02  0.50000000000E+02  0.47000000000E+01 0. -1.
         -5    1    3    3    0  501 -0.26650173528E+02 -0.49459190562E+01 -0.41751839907E+02  0.50000000000E+02  0.47000000000E+01 0.  1.
</event>
<event>
 5    1  0.8909620E-001  0.1000000E+03  0.7546771E-02  0.1163815E+00
         11   -1    0    0    0    0  0.00000000000E+00  0.00000000000E+00  0.50000000000E+02  0.50000000000E+02  0.00000000000E+00 0. -1.
        -11   -1    0    0    0    0 -0.00000000000E+00 -0.00000000000E+00 -0.50000000000E+02  0.50000000000E+02  0.00000000000E+00 0.  1.
         23    2    1    2    0    0  0.00000000000E+00  0.00000000000E+00  0.00000000000E+00  0.10000000000E+03  0.10000000000E+03 0.  0.
          5    1    3    3  501    0  0.21894126271E+02 -0.15581333397E+02  0.41902020051E+02  0.50000000000E+02  0.47000000000E+01 0. -1.
         -5    1    3    3    0  501 -0.21894126271E+02  0.15581333397E+02 -0.41902020051E+02  0.50000000000E+02  0.47000000000E+01 0.  1.
</event>
<event>
 5    1  0.8909620E-001  0.1000000E+03  0.7546771E-02  0.1163815E+00
         11   -1    0    0    0    0  0.00000000000E+00  0.00000000000E+00  0.50000000000E+02  0.50000000000E+02  0.00000000000E+00 0. -1.
        -11   -1    0    0    0    0 -0.00000000000E+00 -0.00000000000E+00 -0.50000000000E+02  0.50000000000E+02  0.00000000000E+00 0.  1.
         23    2    1    2    0    0  0.00000000000E+00  0.00000000000E+00  0.00000000000E+00  0.10000000000E+03  0.10000000000E+03 0.  0.
          5    1    3    3  501    0  0.38293540337E+02 -0.23129011681E+02  0.21830336395E+02  0.50000000000E+02  0.47000000000E+01 0. -1.
         -5    1    3    3    0  501 -0.38293540337E+02  0.23129011681E+02 -0.21830336395E+02  0.50000000000E+02  0.47000000000E+01 0.  1.
</event>
<event>
 5    1  0.8909620E-001  0.1000000E+03  0.7546771E-02  0.1163815E+00
         11   -1    0    0    0    0  0.00000000000E+00  0.00000000000E+00  0.50000000000E+02  0.50000000000E+02  0.00000000000E+00 0. -1.
        -11   -1    0    0    0    0 -0.00000000000E+00 -0.00000000000E+00 -0.50000000000E+02  0.50000000000E+02  0.00000000000E+00 0.  1.
         23    2    1    2    0    0  0.00000000000E+00  0.00000000000E+00  0.00000000000E+00  0.10000000000E+03  0.10000000000E+03 0.  0.
          5    1    3    3  501    0 -0.37714654776E+02 -0.16338257167E+02  0.28081598385E+02  0.50000000000E+02  0.47000000000E+01 0. -1.
         -5    1    3    3    0  501  0.37714654776E+02  0.16338257167E+02 -0.28081598385E+02  0.50000000000E+02  0.47000000000E+01 0.  1.
</event>
<event>
 5    1  0.8909620E-001  0.1000000E+03  0.7546771E-02  0.1163815E+00
         11   -1    0    0    0    0  0.00000000000E+00  0.00000000000E+00  0.50000000000E+02  0.50000000000E+02  0.00000000000E+00 0. -1.
        -11   -1    0    0    0    0 -0.00000000000E+00 -0.00000000000E+00 -0.50000000000E+02  0.50000000000E+02  0.00000000000E+00 0.  1.
         23    2    1    2    0    0  0.00000000000E+00  0.00000000000E+00  0.00000000000E+00  0.10000000000E+03  0.10000000000E+03 0.  0.
          5    1    3    3  501    0 -0.16970575186E+02  0.61408981467E+01  0.46391798282E+02  0.50000000000E+02  0.47000000000E+01 0. -1.
         -5    1    3    3    0  501  0.16970575186E+02 -0.61408981467E+01 -0.46391798282E+02  0.50000000000E+02  0.47000000000E+01 0.  1.
</event>
<event>
 5    1  0.8909620E-001  0.1000000E+03  0.7546771E-02  0.1163815E+00
         11   -1    0    0    0    0  0.00000000000E+00  0.00000000000E+00  0.50000000000E+02  0.50000000000E+02  0.00000000000E+00 0. -1.
        -11   -1    0    0    0    0 -0.00000000000E+00 -0.00000000000E+00 -0.50000000000E+02  0.50000000000E+02  0.00000000000E+00 0.  1.
         23    2    1    2    0    0  0.00000000000E+00  0.00000000000E+00  0.00000000000E+00  0.10000000000E+03  0.10000000000E+03 0.  0.
          5    1    3    3  501    0 -0.72165024199E+01 -0.48898641158E+02  0.58953359307E+01  0.50000000000E+02  0.47000000000E+01 0. -1.
         -5    1    3    3    0  501  0.72165024199E+01  0.48898641158E+02 -0.58953359307E+01  0.50000000000E+02  0.47000000000E+01 0.  1.
</event>
<event>
 5    1  0.8909620E-001  0.1000000E+03  0.7546771E-02  0.1163815E+00
         11   -1    0    0    0    0  0.00000000000E+00  0.00000000000E+00  0.50000000000E+02  0.50000000000E+02  0.00000000000E+00 0. -1.
        -11   -1    0    0    0    0 -0.00000000000E+00 -0.00000000000E+00 -0.50000000000E+02  0.50000000000E+02  0.00000000000E+00 0.  1.
         23    2    1    2    0    0  0.00000000000E+00  0.00000000000E+00  0.00000000000E+00  0.10000000000E+03  0.10000000000E+03 0.  0.
          5    1    3    3  501    0  0.59764062539E+01  0.12602995200E+02  0.47784485770E+02  0.50000000000E+02  0.47000000000E+01 0. -1.
         -5    1    3    3    0  501 -0.59764062539E+01 -0.12602995200E+02 -0.47784485770E+02  0.50000000000E+02  0.47000000000E+01 0.  1.
</event>
<event>
 5    1  0.8909620E-001  0.1000000E+03  0.7546771E-02  0.1163815E+00
         11   -1    0    0    0    0  0.00000000000E+00  0.00000000000E+00  0.50000000000E+02  0.50000000000E+02  0.00000000000E+00 0. -1.
        -11   -1    0    0    0    0 -0.00000000000E+00 -0.00000000000E+00 -0.50000000000E+02  0.50000000000E+02  0.00000000000E+00 0.  1.
         23    2    1    2    0    0  0.00000000000E+00  0.00000000000E+00  0.00000000000E+00  0.10000000000E+03  0.10000000000E+03 0.  0.
          5    1    3    3  501    0  0.45377480073E+02  0.18428526074E+02  0.88985239752E+01  0.50000000000E+02  0.47000000000E+01 0. -1.
         -5    1    3    3    0  501 -0.45377480073E+02 -0.18428526074E+02 -0.88985239752E+01  0.50000000000E+02  0.47000000000E+01 0.  1.
</event>
<event>
 5    1  0.8909620E-001  0.1000000E+03  0.7546771E-02  0.1163815E+00
         11   -1    0    0    0    0  0.00000000000E+00  0.00000000000E+00  0.50000000000E+02  0.50000000000E+02  0.00000000000E+00 0. -1.
        -11   -1    0    0    0    0 -0.00000000000E+00 -0.00000000000E+00 -0.50000000000E+02  0.50000000000E+02  0.00000000000E+00 0.  1.
         23    2    1    2    0    0  0.00000000000E+00  0.00000000000E+00  0.00000000000E+00  0.10000000000E+03  0.10000000000E+03 0.  0.
          5    1    3    3  501    0  0.24341537695E+02  0.45184055773E+01  0.43185455349E+02  0.50000000000E+02  0.47000000000E+01 0. -1.
         -5    1    3    3    0  501 -0.24341537695E+02 -0.45184055773E+01 -0.43185455349E+02  0.50000000000E+02  0.47000000000E+01 0.  1.
</event>
<event>
 5    1  0.8909620E-001  0.1000000E+03  0.7546771E-02  0.1163815E+00
         11   -1    0    0    0    0  0.00000000000E+00  0.00000000000E+00  0.50000000000E+02  0.50000000000E+02  0.00000000000E+00 0. -1.
        -11   -1    0    0    0    0 -0.00000000000E+00 -0.00000000000E+00 -0.50000000000E+02  0.50000000000E+02  0.00000000000E+00 0.  1.
         23    2    1    2    0    0  0.00000000000E+00  0.00000000000E+00  0.00000000000E+00  0.10000000000E+03  0.10000000000E+03 0.  0.
          5    1    3    3  501    0  0.41546408859E+02  0.18424346547E+02  0.20306387302E+02  0.50000000000E+02  0.47000000000E+01 0. -1.
         -5    1    3    3    0  501 -0.41546408859E+02 -0.18424346547E+02 -0.20306387302E+02  0.50000000000E+02  0.47000000000E+01 0.  1.
</event>
<event>
 5    1  0.8909620E-001  0.1000000E+03  0.7546771E-02  0.1163815E+00
         11   -1    0    0    0    0  0.00000000000E+00  0.00000000000E+00  0.50000000000E+02  0.50000000000E+02  0.00000000000E+00 0. -1.
        -11   -1    0    0    0    0 -0.00000000000E+00 -0.00000000000E+00 -0.50000000000E+02  0.50000000000E+02  0.00000000000E+00 0.  1.
         23    2    1    2    0    0  0.00000000000E+00  0.00000000000E+00  0.00000000000E+00  0.10000000000E+03  0.10000000000E+03 0.  0.
          5    1    3    3  501    0 -0.41570180825E+02 -0.25698485362E+02 -0.94561047094E+01  0.50000000000E+02  0.47000000000E+01 0. -1.
         -5    1    3    3    0  501  0.41570180825E+02  0.25698485362E+02  0.94561047094E+01  0.50000000000E+02  0.47000000000E+01 0.  1.
</event>
<event>
 5    1  0.8909620E-001  0.1000000E+03  0.7546771E-02  0.1163815E+00
         11   -1    0    0    0    0  0.00000000000E+00  0.00000000000E+00  0.50000000000E+02  0.50000000000E+02  0.00000000000E+00 0. -1.
        -11   -1    0    0    0    0 -0.00000000000E+00 -0.00000000000E+00 -0.50000000000E+02  0.50000000000E+02  0.00000000000E+00 0.  1.
         23    2    1    2    0    0  0.00000000000E+00  0.00000000000E+00  0.00000000000E+00  0.10000000000E+03  0.10000000000E+03 0.  0.
          5    1    3    3  501    0  0.40589250055E+02  0.24750760982E+02 -0.14758814681E+02  0.50000000000E+02  0.47000000000E+01 0. -1.
         -5    1    3    3    0  501 -0.40589250055E+02 -0.24750760982E+02  0.14758814681E+02  0.50000000000E+02  0.47000000000E+01 0.  1.
</event>
<event>
 5    1  0.8909620E-001  0.1000000E+03  0.7546771E-02  0.1163815E+00
         11   -1    0    0    0    0  0.00000000000E+00  0.00000000000E+00  0.50000000000E+02  0.50000000000E+02  0.00000000000E+00 0. -1.
        -11   -1    0    0    0    0 -0.00000000000E+00 -0.00000000000E+00 -0.50000000000E+02  0.50000000000E+02  0.00000000000E+00 0.  1.
         23    2    1    2    0    0  0.00000000000E+00  0.00000000000E+00  0.00000000000E+00  0.10000000000E+03  0.10000000000E+03 0.  0.
          5    1    3    3  501    0  0.33270594223E+02 -0.19223167444E+02  0.31645653626E+02  0.50000000000E+02  0.47000000000E+01 0. -1.
         -5    1    3    3    0  501 -0.33270594223E+02  0.19223167444E+02 -0.31645653626E+02  0.50000000000E+02  0.47000000000E+01 0.  1.
</event>
<event>
 5    1  0.8909620E-001  0.1000000E+03  0.7546771E-02  0.1163815E+00
         11   -1    0    0    0    0  0.00000000000E+00  0.00000000000E+00  0.50000000000E+02  0.50000000000E+02  0.00000000000E+00 0.  1.
        -11   -1    0    0    0    0 -0.00000000000E+00 -0.00000000000E+00 -0.50000000000E+02  0.50000000000E+02  0.00000000000E+00 0. -1.
         23    2    1    2    0    0  0.00000000000E+00  0.00000000000E+00  0.00000000000E+00  0.10000000000E+03  0.10000000000E+03 0.  0.
          5    1    3    3  501    0  0.18306534646E+02 -0.11809726324E+02 -0.44758364061E+02  0.50000000000E+02  0.47000000000E+01 0. -1.
         -5    1    3    3    0  501 -0.18306534646E+02  0.11809726324E+02  0.44758364061E+02  0.50000000000E+02  0.47000000000E+01 0.  1.
</event>
<event>
 5    1  0.8909620E-001  0.1000000E+03  0.7546771E-02  0.1163815E+00
         11   -1    0    0    0    0  0.00000000000E+00  0.00000000000E+00  0.50000000000E+02  0.50000000000E+02  0.00000000000E+00 0. -1.
        -11   -1    0    0    0    0 -0.00000000000E+00 -0.00000000000E+00 -0.50000000000E+02  0.50000000000E+02  0.00000000000E+00 0.  1.
         23    2    1    2    0    0  0.00000000000E+00  0.00000000000E+00  0.00000000000E+00  0.10000000000E+03  0.10000000000E+03 0.  0.
          5    1    3    3  501    0 -0.32418419430E+02  0.81562823651E+01 -0.36884022823E+02  0.50000000000E+02  0.47000000000E+01 0. -1.
         -5    1    3    3    0  501  0.32418419430E+02 -0.81562823651E+01  0.36884022823E+02  0.50000000000E+02  0.47000000000E+01 0.  1.
</event>
<event>
 5    1  0.8909620E-001  0.1000000E+03  0.7546771E-02  0.1163815E+00
         11   -1    0    0    0    0  0.00000000000E+00  0.00000000000E+00  0.50000000000E+02  0.50000000000E+02  0.00000000000E+00 0. -1.
        -11   -1    0    0    0    0 -0.00000000000E+00 -0.00000000000E+00 -0.50000000000E+02  0.50000000000E+02  0.00000000000E+00 0.  1.
         23    2    1    2    0    0  0.00000000000E+00  0.00000000000E+00  0.00000000000E+00  0.10000000000E+03  0.10000000000E+03 0.  0.
          5    1    3    3  501    0  0.40674183006E+02  0.13923655523E+02  0.25092880538E+02  0.50000000000E+02  0.47000000000E+01 0. -1.
         -5    1    3    3    0  501 -0.40674183006E+02 -0.13923655523E+02 -0.25092880538E+02  0.50000000000E+02  0.47000000000E+01 0.  1.
</event>
<event>
 5    1  0.8909620E-001  0.1000000E+03  0.7546771E-02  0.1163815E+00
         11   -1    0    0    0    0  0.00000000000E+00  0.00000000000E+00  0.50000000000E+02  0.50000000000E+02  0.00000000000E+00 0. -1.
        -11   -1    0    0    0    0 -0.00000000000E+00 -0.00000000000E+00 -0.50000000000E+02  0.50000000000E+02  0.00000000000E+00 0.  1.
         23    2    1    2    0    0  0.00000000000E+00  0.00000000000E+00  0.00000000000E+00  0.10000000000E+03  0.10000000000E+03 0.  0.
          5    1    3    3  501    0 -0.15663042074E+02 -0.24929636110E+02  0.40138414972E+02  0.50000000000E+02  0.47000000000E+01 0. -1.
         -5    1    3    3    0  501  0.15663042074E+02  0.24929636110E+02 -0.40138414972E+02  0.50000000000E+02  0.47000000000E+01 0.  1.
</event>
<event>
 5    1  0.8909620E-001  0.1000000E+03  0.7546771E-02  0.1163815E+00
         11   -1    0    0    0    0  0.00000000000E+00  0.00000000000E+00  0.50000000000E+02  0.50000000000E+02  0.00000000000E+00 0. -1.
        -11   -1    0    0    0    0 -0.00000000000E+00 -0.00000000000E+00 -0.50000000000E+02  0.50000000000E+02  0.00000000000E+00 0.  1.
         23    2    1    2    0    0  0.00000000000E+00  0.00000000000E+00  0.00000000000E+00  0.10000000000E+03  0.10000000000E+03 0.  0.
          5    1    3    3  501    0 -0.33985935902E+02  0.36350299685E+02  0.12336424463E+01  0.50000000000E+02  0.47000000000E+01 0. -1.
         -5    1    3    3    0  501  0.33985935902E+02 -0.36350299685E+02 -0.12336424463E+01  0.50000000000E+02  0.47000000000E+01 0.  1.
</event>
<event>
 5    1  0.8909620E-001  0.1000000E+03  0.7546771E-02  0.1163815E+00
         11   -1    0    0    0    0  0.00000000000E+00  0.00000000000E+00  0.50000000000E+02  0.50000000000E+02  0.00000000000E+00 0. -1.
        -11   -1    0    0    0    0 -0.00000000000E+00 -0.00000000000E+00 -0.50000000000E+02  0.50000000000E+02  0.00000000000E+00 0.  1.
         23    2    1    2    0    0  0.00000000000E+00  0.00000000000E+00  0.00000000000E+00  0.10000000000E+03  0.10000000000E+03 0.  0.
          5    1    3    3  501    0  0.18353110443E+02  0.45107697786E+02  0.10313531767E+02  0.50000000000E+02  0.47000000000E+01 0. -1.
         -5    1    3    3    0  501 -0.18353110443E+02 -0.45107697786E+02 -0.10313531767E+02  0.50000000000E+02  0.47000000000E+01 0.  1.
</event>
<event>
 5    1  0.8909620E-001  0.1000000E+03  0.7546771E-02  0.1163815E+00
         11   -1    0    0    0    0  0.00000000000E+00  0.00000000000E+00  0.50000000000E+02  0.50000000000E+02  0.00000000000E+00 0. -1.
        -11   -1    0    0    0    0 -0.00000000000E+00 -0.00000000000E+00 -0.50000000000E+02  0.50000000000E+02  0.00000000000E+00 0.  1.
         23    2    1    2    0    0  0.00000000000E+00  0.00000000000E+00  0.00000000000E+00  0.10000000000E+03  0.10000000000E+03 0.  0.
          5    1    3    3  501    0  0.31118631955E+02  0.27305778321E+02  0.27639377988E+02  0.50000000000E+02  0.47000000000E+01 0. -1.
         -5    1    3    3    0  501 -0.31118631955E+02 -0.27305778321E+02 -0.27639377988E+02  0.50000000000E+02  0.47000000000E+01 0.  1.
</event>
<event>
 5    1  0.8909620E-001  0.1000000E+03  0.7546771E-02  0.1163815E+00
         11   -1    0    0    0    0  0.00000000000E+00  0.00000000000E+00  0.50000000000E+02  0.50000000000E+02  0.00000000000E+00 0.  1.
        -11   -1    0    0    0    0 -0.00000000000E+00 -0.00000000000E+00 -0.50000000000E+02  0.50000000000E+02  0.00000000000E+00 0. -1.
         23    2    1    2    0    0  0.00000000000E+00  0.00000000000E+00  0.00000000000E+00  0.10000000000E+03  0.10000000000E+03 0.  0.
          5    1    3    3  501    0 -0.34869003441E+02 -0.51669716605E+01 -0.35147759571E+02  0.50000000000E+02  0.47000000000E+01 0. -1.
         -5    1    3    3    0  501  0.34869003441E+02  0.51669716605E+01  0.35147759571E+02  0.50000000000E+02  0.47000000000E+01 0.  1.
</event>
<event>
 5    1  0.8909620E-001  0.1000000E+03  0.7546771E-02  0.1163815E+00
         11   -1    0    0    0    0  0.00000000000E+00  0.00000000000E+00  0.50000000000E+02  0.50000000000E+02  0.00000000000E+00 0.  1.
        -11   -1    0    0    0    0 -0.00000000000E+00 -0.00000000000E+00 -0.50000000000E+02  0.50000000000E+02  0.00000000000E+00 0. -1.
         23    2    1    2    0    0  0.00000000000E+00  0.00000000000E+00  0.00000000000E+00  0.10000000000E+03  0.10000000000E+03 0.  0.
          5    1    3    3  501    0  0.11249710860E+02  0.43948490620E+02 -0.20491075564E+02  0.50000000000E+02  0.47000000000E+01 0.  1.
         -5    1    3    3    0  501 -0.11249710860E+02 -0.43948490620E+02  0.20491075564E+02  0.50000000000E+02  0.47000000000E+01 0. -1.
</event>
<event>
 5    1  0.8909620E-001  0.1000000E+03  0.7546771E-02  0.1163815E+00
         11   -1    0    0    0    0  0.00000000000E+00  0.00000000000E+00  0.50000000000E+02  0.50000000000E+02  0.00000000000E+00 0.  1.
        -11   -1    0    0    0    0 -0.00000000000E+00 -0.00000000000E+00 -0.50000000000E+02  0.50000000000E+02  0.00000000000E+00 0. -1.
         23    2    1    2    0    0  0.00000000000E+00  0.00000000000E+00  0.00000000000E+00  0.10000000000E+03  0.10000000000E+03 0.  0.
          5    1    3    3  501    0  0.81127652162E+01 -0.12774338543E+02 -0.47422666683E+02  0.50000000000E+02  0.47000000000E+01 0. -1.
         -5    1    3    3    0  501 -0.81127652162E+01  0.12774338543E+02  0.47422666683E+02  0.50000000000E+02  0.47000000000E+01 0.  1.
</event>
<event>
 5    1  0.8909620E-001  0.1000000E+03  0.7546771E-02  0.1163815E+00
         11   -1    0    0    0    0  0.00000000000E+00  0.00000000000E+00  0.50000000000E+02  0.50000000000E+02  0.00000000000E+00 0. -1.
        -11   -1    0    0    0    0 -0.00000000000E+00 -0.00000000000E+00 -0.50000000000E+02  0.50000000000E+02  0.00000000000E+00 0.  1.
         23    2    1    2    0    0  0.00000000000E+00  0.00000000000E+00  0.00000000000E+00  0.10000000000E+03  0.10000000000E+03 0.  0.
          5    1    3    3  501    0 -0.61993689365E+01  0.38507427492E+02  0.30929853746E+02  0.50000000000E+02  0.47000000000E+01 0. -1.
         -5    1    3    3    0  501  0.61993689365E+01 -0.38507427492E+02 -0.30929853746E+02  0.50000000000E+02  0.47000000000E+01 0.  1.
</event>
<event>
 5    1  0.8909620E-001  0.1000000E+03  0.7546771E-02  0.1163815E+00
         11   -1    0    0    0    0  0.00000000000E+00  0.00000000000E+00  0.50000000000E+02  0.50000000000E+02  0.00000000000E+00 0.  1.
        -11   -1    0    0    0    0 -0.00000000000E+00 -0.00000000000E+00 -0.50000000000E+02  0.50000000000E+02  0.00000000000E+00 0. -1.
         23    2    1    2    0    0  0.00000000000E+00  0.00000000000E+00  0.00000000000E+00  0.10000000000E+03  0.10000000000E+03 0.  0.
          5    1    3    3  501    0 -0.37651949486E+02  0.25887273587E+02 -0.19750690270E+02  0.50000000000E+02  0.47000000000E+01 0. -1.
         -5    1    3    3    0  501  0.37651949486E+02 -0.25887273587E+02  0.19750690270E+02  0.50000000000E+02  0.47000000000E+01 0.  1.
</event>
<event>
 5    1  0.8909620E-001  0.1000000E+03  0.7546771E-02  0.1163815E+00
         11   -1    0    0    0    0  0.00000000000E+00  0.00000000000E+00  0.50000000000E+02  0.50000000000E+02  0.00000000000E+00 0. -1.
        -11   -1    0    0    0    0 -0.00000000000E+00 -0.00000000000E+00 -0.50000000000E+02  0.50000000000E+02  0.00000000000E+00 0.  1.
         23    2    1    2    0    0  0.00000000000E+00  0.00000000000E+00  0.00000000000E+00  0.10000000000E+03  0.10000000000E+03 0.  0.
          5    1    3    3  501    0 -0.82997727849E+01 -0.74581517631E+01  0.48511851583E+02  0.50000000000E+02  0.47000000000E+01 0. -1.
         -5    1    3    3    0  501  0.82997727849E+01  0.74581517631E+01 -0.48511851583E+02  0.50000000000E+02  0.47000000000E+01 0.  1.
</event>
<event>
 5    1  0.8909620E-001  0.1000000E+03  0.7546771E-02  0.1163815E+00
         11   -1    0    0    0    0  0.00000000000E+00  0.00000000000E+00  0.50000000000E+02  0.50000000000E+02  0.00000000000E+00 0.  1.
        -11   -1    0    0    0    0 -0.00000000000E+00 -0.00000000000E+00 -0.50000000000E+02  0.50000000000E+02  0.00000000000E+00 0. -1.
         23    2    1    2    0    0  0.00000000000E+00  0.00000000000E+00  0.00000000000E+00  0.10000000000E+03  0.10000000000E+03 0.  0.
          5    1    3    3  501    0  0.18010663308E+02  0.31561202433E+02 -0.34020824625E+02  0.50000000000E+02  0.47000000000E+01 0. -1.
         -5    1    3    3    0  501 -0.18010663308E+02 -0.31561202433E+02  0.34020824625E+02  0.50000000000E+02  0.47000000000E+01 0.  1.
</event>
<event>
 5    1  0.8909620E-001  0.1000000E+03  0.7546771E-02  0.1163815E+00
         11   -1    0    0    0    0  0.00000000000E+00  0.00000000000E+00  0.50000000000E+02  0.50000000000E+02  0.00000000000E+00 0.  1.
        -11   -1    0    0    0    0 -0.00000000000E+00 -0.00000000000E+00 -0.50000000000E+02  0.50000000000E+02  0.00000000000E+00 0. -1.
         23    2    1    2    0    0  0.00000000000E+00  0.00000000000E+00  0.00000000000E+00  0.10000000000E+03  0.10000000000E+03 0.  0.
          5    1    3    3  501    0  0.23482198279E+02  0.28029422588E+02  0.33776439027E+02  0.50000000000E+02  0.47000000000E+01 0.  1.
         -5    1    3    3    0  501 -0.23482198279E+02 -0.28029422588E+02 -0.33776439027E+02  0.50000000000E+02  0.47000000000E+01 0. -1.
</event>
<event>
 5    1  0.8909620E-001  0.1000000E+03  0.7546771E-02  0.1163815E+00
         11   -1    0    0    0    0  0.00000000000E+00  0.00000000000E+00  0.50000000000E+02  0.50000000000E+02  0.00000000000E+00 0. -1.
        -11   -1    0    0    0    0 -0.00000000000E+00 -0.00000000000E+00 -0.50000000000E+02  0.50000000000E+02  0.00000000000E+00 0.  1.
         23    2    1    2    0    0  0.00000000000E+00  0.00000000000E+00  0.00000000000E+00  0.10000000000E+03  0.10000000000E+03 0.  0.
          5    1    3    3  501    0  0.19066460709E+02  0.45655130652E+02 -0.54762323871E+01  0.50000000000E+02  0.47000000000E+01 0. -1.
         -5    1    3    3    0  501 -0.19066460709E+02 -0.45655130652E+02  0.54762323871E+01  0.50000000000E+02  0.47000000000E+01 0.  1.
</event>
<event>
 5    1  0.8909620E-001  0.1000000E+03  0.7546771E-02  0.1163815E+00
         11   -1    0    0    0    0  0.00000000000E+00  0.00000000000E+00  0.50000000000E+02  0.50000000000E+02  0.00000000000E+00 0.  1.
        -11   -1    0    0    0    0 -0.00000000000E+00 -0.00000000000E+00 -0.50000000000E+02  0.50000000000E+02  0.00000000000E+00 0. -1.
         23    2    1    2    0    0  0.00000000000E+00  0.00000000000E+00  0.00000000000E+00  0.10000000000E+03  0.10000000000E+03 0.  0.
          5    1    3    3  501    0  0.59460695081E+01 -0.11497869987E+01 -0.49408827625E+02  0.50000000000E+02  0.47000000000E+01 0. -1.
         -5    1    3    3    0  501 -0.59460695081E+01  0.11497869987E+01  0.49408827625E+02  0.50000000000E+02  0.47000000000E+01 0.  1.
</event>
<event>
 5    1  0.8909620E-001  0.1000000E+03  0.7546771E-02  0.1163815E+00
         11   -1    0    0    0    0  0.00000000000E+00  0.00000000000E+00  0.50000000000E+02  0.50000000000E+02  0.00000000000E+00 0.  1.
        -11   -1    0    0    0    0 -0.00000000000E+00 -0.00000000000E+00 -0.50000000000E+02  0.50000000000E+02  0.00000000000E+00 0. -1.
         23    2    1    2    0    0  0.00000000000E+00  0.00000000000E+00  0.00000000000E+00  0.10000000000E+03  0.10000000000E+03 0.  0.
          5    1    3    3  501    0 -0.34362093508E+02  0.12113814779E+02  0.33917724294E+02  0.50000000000E+02  0.47000000000E+01 0. -1.
         -5    1    3    3    0  501  0.34362093508E+02 -0.12113814779E+02 -0.33917724294E+02  0.50000000000E+02  0.47000000000E+01 0.  1.
</event>
<event>
 5    1  0.8909620E-001  0.1000000E+03  0.7546771E-02  0.1163815E+00
         11   -1    0    0    0    0  0.00000000000E+00  0.00000000000E+00  0.50000000000E+02  0.50000000000E+02  0.00000000000E+00 0.  1.
        -11   -1    0    0    0    0 -0.00000000000E+00 -0.00000000000E+00 -0.50000000000E+02  0.50000000000E+02  0.00000000000E+00 0. -1.
         23    2    1    2    0    0  0.00000000000E+00  0.00000000000E+00  0.00000000000E+00  0.10000000000E+03  0.10000000000E+03 0.  0.
          5    1    3    3  501    0 -0.36448715398E+02  0.16791826455E+02 -0.29452261545E+02  0.50000000000E+02  0.47000000000E+01 0. -1.
         -5    1    3    3    0  501  0.36448715398E+02 -0.16791826455E+02  0.29452261545E+02  0.50000000000E+02  0.47000000000E+01 0.  1.
</event>
<event>
 5    1  0.8909620E-001  0.1000000E+03  0.7546771E-02  0.1163815E+00
         11   -1    0    0    0    0  0.00000000000E+00  0.00000000000E+00  0.50000000000E+02  0.50000000000E+02  0.00000000000E+00 0.  1.
        -11   -1    0    0    0    0 -0.00000000000E+00 -0.00000000000E+00 -0.50000000000E+02  0.50000000000E+02  0.00000000000E+00 0. -1.
         23    2    1    2    0    0  0.00000000000E+00  0.00000000000E+00  0.00000000000E+00  0.10000000000E+03  0.10000000000E+03 0.  0.
          5    1    3    3  501    0 -0.72999591052E+01  0.32522272202E+01 -0.49132917837E+02  0.50000000000E+02  0.47000000000E+01 0. -1.
         -5    1    3    3    0  501  0.72999591052E+01 -0.32522272202E+01  0.49132917837E+02  0.50000000000E+02  0.47000000000E+01 0.  1.
</event>
<event>
 5    1  0.8909620E-001  0.1000000E+03  0.7546771E-02  0.1163815E+00
         11   -1    0    0    0    0  0.00000000000E+00  0.00000000000E+00  0.50000000000E+02  0.50000000000E+02  0.00000000000E+00 0. -1.
        -11   -1    0    0    0    0 -0.00000000000E+00 -0.00000000000E+00 -0.50000000000E+02  0.50000000000E+02  0.00000000000E+00 0.  1.
         23    2    1    2    0    0  0.00000000000E+00  0.00000000000E+00  0.00000000000E+00  0.10000000000E+03  0.10000000000E+03 0.  0.
          5    1    3    3  501    0 -0.16110755874E+02 -0.28638538260E+02  0.37392347766E+02  0.50000000000E+02  0.47000000000E+01 0. -1.
         -5    1    3    3    0  501  0.16110755874E+02  0.28638538260E+02 -0.37392347766E+02  0.50000000000E+02  0.47000000000E+01 0.  1.
</event>
<event>
 5    1  0.8909620E-001  0.1000000E+03  0.7546771E-02  0.1163815E+00
         11   -1    0    0    0    0  0.00000000000E+00  0.00000000000E+00  0.50000000000E+02  0.50000000000E+02  0.00000000000E+00 0. -1.
        -11   -1    0    0    0    0 -0.00000000000E+00 -0.00000000000E+00 -0.50000000000E+02  0.50000000000E+02  0.00000000000E+00 0.  1.
         23    2    1    2    0    0  0.00000000000E+00  0.00000000000E+00  0.00000000000E+00  0.10000000000E+03  0.10000000000E+03 0.  0.
          5    1    3    3  501    0  0.30243744458E+02 -0.20358299548E+02  0.33893444214E+02  0.50000000000E+02  0.47000000000E+01 0. -1.
         -5    1    3    3    0  501 -0.30243744458E+02  0.20358299548E+02 -0.33893444214E+02  0.50000000000E+02  0.47000000000E+01 0.  1.
</event>
<event>
 5    1  0.8909620E-001  0.1000000E+03  0.7546771E-02  0.1163815E+00
         11   -1    0    0    0    0  0.00000000000E+00  0.00000000000E+00  0.50000000000E+02  0.50000000000E+02  0.00000000000E+00 0. -1.
        -11   -1    0    0    0    0 -0.00000000000E+00 -0.00000000000E+00 -0.50000000000E+02  0.50000000000E+02  0.00000000000E+00 0.  1.
         23    2    1    2    0    0  0.00000000000E+00  0.00000000000E+00  0.00000000000E+00  0.10000000000E+03  0.10000000000E+03 0.  0.
          5    1    3    3  501    0  0.32373548083E+02 -0.33211964163E+02 -0.18078407590E+02  0.50000000000E+02  0.47000000000E+01 0. -1.
         -5    1    3    3    0  501 -0.32373548083E+02  0.33211964163E+02  0.18078407590E+02  0.50000000000E+02  0.47000000000E+01 0.  1.
</event>
<event>
 5    1  0.8909620E-001  0.1000000E+03  0.7546771E-02  0.1163815E+00
         11   -1    0    0    0    0  0.00000000000E+00  0.00000000000E+00  0.50000000000E+02  0.50000000000E+02  0.00000000000E+00 0. -1.
        -11   -1    0    0    0    0 -0.00000000000E+00 -0.00000000000E+00 -0.50000000000E+02  0.50000000000E+02  0.00000000000E+00 0.  1.
         23    2    1    2    0    0  0.00000000000E+00  0.00000000000E+00  0.00000000000E+00  0.10000000000E+03  0.10000000000E+03 0.  0.
          5    1    3    3  501    0 -0.45898642132E+02 -0.18624934163E+02 -0.49332015808E+01  0.50000000000E+02  0.47000000000E+01 0. -1.
         -5    1    3    3    0  501  0.45898642132E+02  0.18624934163E+02  0.49332015808E+01  0.50000000000E+02  0.47000000000E+01 0.  1.
</event>
<event>
 5    1  0.8909620E-001  0.1000000E+03  0.7546771E-02  0.1163815E+00
         11   -1    0    0    0    0  0.00000000000E+00  0.00000000000E+00  0.50000000000E+02  0.50000000000E+02  0.00000000000E+00 0.  1.
        -11   -1    0    0    0    0 -0.00000000000E+00 -0.00000000000E+00 -0.50000000000E+02  0.50000000000E+02  0.00000000000E+00 0. -1.
         23    2    1    2    0    0  0.00000000000E+00  0.00000000000E+00  0.00000000000E+00  0.10000000000E+03  0.10000000000E+03 0.  0.
          5    1    3    3  501    0  0.80421476704E+01 -0.44665381027E+02 -0.20450858137E+02  0.50000000000E+02  0.47000000000E+01 0. -1.
         -5    1    3    3    0  501 -0.80421476704E+01  0.44665381027E+02  0.20450858137E+02  0.50000000000E+02  0.47000000000E+01 0.  1.
</event>
<event>
 5    1  0.8909620E-001  0.1000000E+03  0.7546771E-02  0.1163815E+00
         11   -1    0    0    0    0  0.00000000000E+00  0.00000000000E+00  0.50000000000E+02  0.50000000000E+02  0.00000000000E+00 0. -1.
        -11   -1    0    0    0    0 -0.00000000000E+00 -0.00000000000E+00 -0.50000000000E+02  0.50000000000E+02  0.00000000000E+00 0.  1.
         23    2    1    2    0    0  0.00000000000E+00  0.00000000000E+00  0.00000000000E+00  0.10000000000E+03  0.10000000000E+03 0.  0.
          5    1    3    3  501    0  0.17484299718E+02 -0.15099230561E+01  0.46582500961E+02  0.50000000000E+02  0.47000000000E+01 0. -1.
         -5    1    3    3    0  501 -0.17484299718E+02  0.15099230561E+01 -0.46582500961E+02  0.50000000000E+02  0.47000000000E+01 0.  1.
</event>
<event>
 5    1  0.8909620E-001  0.1000000E+03  0.7546771E-02  0.1163815E+00
         11   -1    0    0    0    0  0.00000000000E+00  0.00000000000E+00  0.50000000000E+02  0.50000000000E+02  0.00000000000E+00 0.  1.
        -11   -1    0    0    0    0 -0.00000000000E+00 -0.00000000000E+00 -0.50000000000E+02  0.50000000000E+02  0.00000000000E+00 0. -1.
         23    2    1    2    0    0  0.00000000000E+00  0.00000000000E+00  0.00000000000E+00  0.10000000000E+03  0.10000000000E+03 0.  0.
          5    1    3    3  501    0 -0.37759654487E+02 -0.14836615319E+02 -0.28844294737E+02  0.50000000000E+02  0.47000000000E+01 0. -1.
         -5    1    3    3    0  501  0.37759654487E+02  0.14836615319E+02  0.28844294737E+02  0.50000000000E+02  0.47000000000E+01 0.  1.
</event>
<event>
 5    1  0.8909620E-001  0.1000000E+03  0.7546771E-02  0.1163815E+00
         11   -1    0    0    0    0  0.00000000000E+00  0.00000000000E+00  0.50000000000E+02  0.50000000000E+02  0.00000000000E+00 0. -1.
        -11   -1    0    0    0    0 -0.00000000000E+00 -0.00000000000E+00 -0.50000000000E+02  0.50000000000E+02  0.00000000000E+00 0.  1.
         23    2    1    2    0    0  0.00000000000E+00  0.00000000000E+00  0.00000000000E+00  0.10000000000E+03  0.10000000000E+03 0.  0.
          5    1    3    3  501    0 -0.14936907773E+02  0.28574925270E+02  0.37924562384E+02  0.50000000000E+02  0.47000000000E+01 0. -1.
         -5    1    3    3    0  501  0.14936907773E+02 -0.28574925270E+02 -0.37924562384E+02  0.50000000000E+02  0.47000000000E+01 0.  1.
</event>
<event>
 5    1  0.8909620E-001  0.1000000E+03  0.7546771E-02  0.1163815E+00
         11   -1    0    0    0    0  0.00000000000E+00  0.00000000000E+00  0.50000000000E+02  0.50000000000E+02  0.00000000000E+00 0. -1.
        -11   -1    0    0    0    0 -0.00000000000E+00 -0.00000000000E+00 -0.50000000000E+02  0.50000000000E+02  0.00000000000E+00 0.  1.
         23    2    1    2    0    0  0.00000000000E+00  0.00000000000E+00  0.00000000000E+00  0.10000000000E+03  0.10000000000E+03 0.  0.
          5    1    3    3  501    0  0.32057030946E+01  0.49485906570E+02  0.43334188158E+01  0.50000000000E+02  0.47000000000E+01 0. -1.
         -5    1    3    3    0  501 -0.32057030946E+01 -0.49485906570E+02 -0.43334188158E+01  0.50000000000E+02  0.47000000000E+01 0.  1.
</event>
<event>
 5    1  0.8909620E-001  0.1000000E+03  0.7546771E-02  0.1163815E+00
         11   -1    0    0    0    0  0.00000000000E+00  0.00000000000E+00  0.50000000000E+02  0.50000000000E+02  0.00000000000E+00 0.  1.
        -11   -1    0    0    0    0 -0.00000000000E+00 -0.00000000000E+00 -0.50000000000E+02  0.50000000000E+02  0.00000000000E+00 0. -1.
         23    2    1    2    0    0  0.00000000000E+00  0.00000000000E+00  0.00000000000E+00  0.10000000000E+03  0.10000000000E+03 0.  0.
          5    1    3    3  501    0 -0.42336207874E+02 -0.32070753521E+00 -0.26181150654E+02  0.50000000000E+02  0.47000000000E+01 0. -1.
         -5    1    3    3    0  501  0.42336207874E+02  0.32070753521E+00  0.26181150654E+02  0.50000000000E+02  0.47000000000E+01 0.  1.
</event>
<event>
 5    1  0.8909620E-001  0.1000000E+03  0.7546771E-02  0.1163815E+00
         11   -1    0    0    0    0  0.00000000000E+00  0.00000000000E+00  0.50000000000E+02  0.50000000000E+02  0.00000000000E+00 0.  1.
        -11   -1    0    0    0    0 -0.00000000000E+00 -0.00000000000E+00 -0.50000000000E+02  0.50000000000E+02  0.00000000000E+00 0. -1.
         23    2    1    2    0    0  0.00000000000E+00  0.00000000000E+00  0.00000000000E+00  0.10000000000E+03  0.10000000000E+03 0.  0.
          5    1    3    3  501    0 -0.11363846765E+02 -0.22721724392E+01 -0.48410848155E+02  0.50000000000E+02  0.47000000000E+01 0. -1.
         -5    1    3    3    0  501  0.11363846765E+02  0.22721724392E+01  0.48410848155E+02  0.50000000000E+02  0.47000000000E+01 0.  1.
</event>
<event>
 5    1  0.8909620E-001  0.1000000E+03  0.7546771E-02  0.1163815E+00
         11   -1    0    0    0    0  0.00000000000E+00  0.00000000000E+00  0.50000000000E+02  0.50000000000E+02  0.00000000000E+00 0. -1.
        -11   -1    0    0    0    0 -0.00000000000E+00 -0.00000000000E+00 -0.50000000000E+02  0.50000000000E+02  0.00000000000E+00 0.  1.
         23    2    1    2    0    0  0.00000000000E+00  0.00000000000E+00  0.00000000000E+00  0.10000000000E+03  0.10000000000E+03 0.  0.
          5    1    3    3  501    0  0.22391533684E+02 -0.44458107696E+02 -0.76676998178E-01  0.50000000000E+02  0.47000000000E+01 0. -1.
         -5    1    3    3    0  501 -0.22391533684E+02  0.44458107696E+02  0.76676998178E-01  0.50000000000E+02  0.47000000000E+01 0.  1.
</event>
<event>
 5    1  0.8909620E-001  0.1000000E+03  0.7546771E-02  0.1163815E+00
         11   -1    0    0    0    0  0.00000000000E+00  0.00000000000E+00  0.50000000000E+02  0.50000000000E+02  0.00000000000E+00 0.  1.
        -11   -1    0    0    0    0 -0.00000000000E+00 -0.00000000000E+00 -0.50000000000E+02  0.50000000000E+02  0.00000000000E+00 0. -1.
         23    2    1    2    0    0  0.00000000000E+00  0.00000000000E+00  0.00000000000E+00  0.10000000000E+03  0.10000000000E+03 0.  0.
          5    1    3    3  501    0  0.27970800005E+02 -0.16758355350E+02 -0.37612522822E+02  0.50000000000E+02  0.47000000000E+01 0. -1.
         -5    1    3    3    0  501 -0.27970800005E+02  0.16758355350E+02  0.37612522822E+02  0.50000000000E+02  0.47000000000E+01 0.  1.
</event>
<event>
 5    1  0.8909620E-001  0.1000000E+03  0.7546771E-02  0.1163815E+00
         11   -1    0    0    0    0  0.00000000000E+00  0.00000000000E+00  0.50000000000E+02  0.50000000000E+02  0.00000000000E+00 0. -1.
        -11   -1    0    0    0    0 -0.00000000000E+00 -0.00000000000E+00 -0.50000000000E+02  0.50000000000E+02  0.00000000000E+00 0.  1.
         23    2    1    2    0    0  0.00000000000E+00  0.00000000000E+00  0.00000000000E+00  0.10000000000E+03  0.10000000000E+03 0.  0.
          5    1    3    3  501    0  0.16272159999E+02  0.24686137571E+02  0.40046490743E+02  0.50000000000E+02  0.47000000000E+01 0. -1.
         -5    1    3    3    0  501 -0.16272159999E+02 -0.24686137571E+02 -0.40046490743E+02  0.50000000000E+02  0.47000000000E+01 0.  1.
</event>
<event>
 5    1  0.8909620E-001  0.1000000E+03  0.7546771E-02  0.1163815E+00
         11   -1    0    0    0    0  0.00000000000E+00  0.00000000000E+00  0.50000000000E+02  0.50000000000E+02  0.00000000000E+00 0.  1.
        -11   -1    0    0    0    0 -0.00000000000E+00 -0.00000000000E+00 -0.50000000000E+02  0.50000000000E+02  0.00000000000E+00 0. -1.
         23    2    1    2    0    0  0.00000000000E+00  0.00000000000E+00  0.00000000000E+00  0.10000000000E+03  0.10000000000E+03 0.  0.
          5    1    3    3  501    0 -0.31793445246E+01  0.42039816834E+02  0.26466121154E+02  0.50000000000E+02  0.47000000000E+01 0. -1.
         -5    1    3    3    0  501  0.31793445246E+01 -0.42039816834E+02 -0.26466121154E+02  0.50000000000E+02  0.47000000000E+01 0.  1.
</event>
<event>
 5    1  0.8909620E-001  0.1000000E+03  0.7546771E-02  0.1163815E+00
         11   -1    0    0    0    0  0.00000000000E+00  0.00000000000E+00  0.50000000000E+02  0.50000000000E+02  0.00000000000E+00 0. -1.
        -11   -1    0    0    0    0 -0.00000000000E+00 -0.00000000000E+00 -0.50000000000E+02  0.50000000000E+02  0.00000000000E+00 0.  1.
         23    2    1    2    0    0  0.00000000000E+00  0.00000000000E+00  0.00000000000E+00  0.10000000000E+03  0.10000000000E+03 0.  0.
          5    1    3    3  501    0  0.16245171983E+02 -0.47028090938E+02 -0.15372214953E+01  0.50000000000E+02  0.47000000000E+01 0. -1.
         -5    1    3    3    0  501 -0.16245171983E+02  0.47028090938E+02  0.15372214953E+01  0.50000000000E+02  0.47000000000E+01 0.  1.
</event>
<event>
 5    1  0.8909620E-001  0.1000000E+03  0.7546771E-02  0.1163815E+00
         11   -1    0    0    0    0  0.00000000000E+00  0.00000000000E+00  0.50000000000E+02  0.50000000000E+02  0.00000000000E+00 0. -1.
        -11   -1    0    0    0    0 -0.00000000000E+00 -0.00000000000E+00 -0.50000000000E+02  0.50000000000E+02  0.00000000000E+00 0.  1.
         23    2    1    2    0    0  0.00000000000E+00  0.00000000000E+00  0.00000000000E+00  0.10000000000E+03  0.10000000000E+03 0.  0.
          5    1    3    3  501    0  0.88362272443E+01 -0.12226480480E+02  0.47437793616E+02  0.50000000000E+02  0.47000000000E+01 0. -1.
         -5    1    3    3    0  501 -0.88362272443E+01  0.12226480480E+02 -0.47437793616E+02  0.50000000000E+02  0.47000000000E+01 0.  1.
</event>
<event>
 5    1  0.8909620E-001  0.1000000E+03  0.7546771E-02  0.1163815E+00
         11   -1    0    0    0    0  0.00000000000E+00  0.00000000000E+00  0.50000000000E+02  0.50000000000E+02  0.00000000000E+00 0. -1.
        -11   -1    0    0    0    0 -0.00000000000E+00 -0.00000000000E+00 -0.50000000000E+02  0.50000000000E+02  0.00000000000E+00 0.  1.
         23    2    1    2    0    0  0.00000000000E+00  0.00000000000E+00  0.00000000000E+00  0.10000000000E+03  0.10000000000E+03 0.  0.
          5    1    3    3  501    0 -0.33232774215E+02  0.43582578727E+01  0.36803509429E+02  0.50000000000E+02  0.47000000000E+01 0. -1.
         -5    1    3    3    0  501  0.33232774215E+02 -0.43582578727E+01 -0.36803509429E+02  0.50000000000E+02  0.47000000000E+01 0.  1.
</event>
<event>
 5    1  0.8909620E-001  0.1000000E+03  0.7546771E-02  0.1163815E+00
         11   -1    0    0    0    0  0.00000000000E+00  0.00000000000E+00  0.50000000000E+02  0.50000000000E+02  0.00000000000E+00 0.  1.
        -11   -1    0    0    0    0 -0.00000000000E+00 -0.00000000000E+00 -0.50000000000E+02  0.50000000000E+02  0.00000000000E+00 0. -1.
         23    2    1    2    0    0  0.00000000000E+00  0.00000000000E+00  0.00000000000E+00  0.10000000000E+03  0.10000000000E+03 0.  0.
          5    1    3    3  501    0  0.16390983750E+02  0.30296128507E+02 -0.35935918649E+02  0.50000000000E+02  0.47000000000E+01 0. -1.
         -5    1    3    3    0  501 -0.16390983750E+02 -0.30296128507E+02  0.35935918649E+02  0.50000000000E+02  0.47000000000E+01 0.  1.
</event>
<event>
 5    1  0.8909620E-001  0.1000000E+03  0.7546771E-02  0.1163815E+00
         11   -1    0    0    0    0  0.00000000000E+00  0.00000000000E+00  0.50000000000E+02  0.50000000000E+02  0.00000000000E+00 0. -1.
        -11   -1    0    0    0    0 -0.00000000000E+00 -0.00000000000E+00 -0.50000000000E+02  0.50000000000E+02  0.00000000000E+00 0.  1.
         23    2    1    2    0    0  0.00000000000E+00  0.00000000000E+00  0.00000000000E+00  0.10000000000E+03  0.10000000000E+03 0.  0.
          5    1    3    3  501    0 -0.12471580866E+02 -0.48182202689E+02 -0.91924685652E+00  0.50000000000E+02  0.47000000000E+01 0. -1.
         -5    1    3    3    0  501  0.12471580866E+02  0.48182202689E+02  0.91924685652E+00  0.50000000000E+02  0.47000000000E+01 0.  1.
</event>
<event>
 5    1  0.8909620E-001  0.1000000E+03  0.7546771E-02  0.1163815E+00
         11   -1    0    0    0    0  0.00000000000E+00  0.00000000000E+00  0.50000000000E+02  0.50000000000E+02  0.00000000000E+00 0. -1.
        -11   -1    0    0    0    0 -0.00000000000E+00 -0.00000000000E+00 -0.50000000000E+02  0.50000000000E+02  0.00000000000E+00 0.  1.
         23    2    1    2    0    0  0.00000000000E+00  0.00000000000E+00  0.00000000000E+00  0.10000000000E+03  0.10000000000E+03 0.  0.
          5    1    3    3  501    0 -0.85348738910E+00 -0.41851903302E+02  0.26936958798E+02  0.50000000000E+02  0.47000000000E+01 0. -1.
         -5    1    3    3    0  501  0.85348738910E+00  0.41851903302E+02 -0.26936958798E+02  0.50000000000E+02  0.47000000000E+01 0.  1.
</event>
<event>
 5    1  0.8909620E-001  0.1000000E+03  0.7546771E-02  0.1163815E+00
         11   -1    0    0    0    0  0.00000000000E+00  0.00000000000E+00  0.50000000000E+02  0.50000000000E+02  0.00000000000E+00 0. -1.
        -11   -1    0    0    0    0 -0.00000000000E+00 -0.00000000000E+00 -0.50000000000E+02  0.50000000000E+02  0.00000000000E+00 0.  1.
         23    2    1    2    0    0  0.00000000000E+00  0.00000000000E+00  0.00000000000E+00  0.10000000000E+03  0.10000000000E+03 0.  0.
          5    1    3    3  501    0 -0.19175532762E+02  0.30597045037E+02  0.34264117941E+02  0.50000000000E+02  0.47000000000E+01 0. -1.
         -5    1    3    3    0  501  0.19175532762E+02 -0.30597045037E+02 -0.34264117941E+02  0.50000000000E+02  0.47000000000E+01 0.  1.
</event>
<event>
 5    1  0.8909620E-001  0.1000000E+03  0.7546771E-02  0.1163815E+00
         11   -1    0    0    0    0  0.00000000000E+00  0.00000000000E+00  0.50000000000E+02  0.50000000000E+02  0.00000000000E+00 0. -1.
        -11   -1    0    0    0    0 -0.00000000000E+00 -0.00000000000E+00 -0.50000000000E+02  0.50000000000E+02  0.00000000000E+00 0.  1.
         23    2    1    2    0    0  0.00000000000E+00  0.00000000000E+00  0.00000000000E+00  0.10000000000E+03  0.10000000000E+03 0.  0.
          5    1    3    3  501    0 -0.11417680117E+02 -0.18813059634E+02  0.44649920134E+02  0.50000000000E+02  0.47000000000E+01 0. -1.
         -5    1    3    3    0  501  0.11417680117E+02  0.18813059634E+02 -0.44649920134E+02  0.50000000000E+02  0.47000000000E+01 0.  1.
</event>
<event>
 5    1  0.8909620E-001  0.1000000E+03  0.7546771E-02  0.1163815E+00
         11   -1    0    0    0    0  0.00000000000E+00  0.00000000000E+00  0.50000000000E+02  0.50000000000E+02  0.00000000000E+00 0.  1.
        -11   -1    0    0    0    0 -0.00000000000E+00 -0.00000000000E+00 -0.50000000000E+02  0.50000000000E+02  0.00000000000E+00 0. -1.
         23    2    1    2    0    0  0.00000000000E+00  0.00000000000E+00  0.00000000000E+00  0.10000000000E+03  0.10000000000E+03 0.  0.
          5    1    3    3  501    0 -0.36482005988E+02 -0.42329195684E+01 -0.33601423050E+02  0.50000000000E+02  0.47000000000E+01 0. -1.
         -5    1    3    3    0  501  0.36482005988E+02  0.42329195684E+01  0.33601423050E+02  0.50000000000E+02  0.47000000000E+01 0.  1.
</event>
<event>
 5    1  0.8909620E-001  0.1000000E+03  0.7546771E-02  0.1163815E+00
         11   -1    0    0    0    0  0.00000000000E+00  0.00000000000E+00  0.50000000000E+02  0.50000000000E+02  0.00000000000E+00 0. -1.
        -11   -1    0    0    0    0 -0.00000000000E+00 -0.00000000000E+00 -0.50000000000E+02  0.50000000000E+02  0.00000000000E+00 0.  1.
         23    2    1    2    0    0  0.00000000000E+00  0.00000000000E+00  0.00000000000E+00  0.10000000000E+03  0.10000000000E+03 0.  0.
          5    1    3    3  501    0  0.20110232011E+02  0.16637174375E+02  0.42387415553E+02  0.50000000000E+02  0.47000000000E+01 0. -1.
         -5    1    3    3    0  501 -0.20110232011E+02 -0.16637174375E+02 -0.42387415553E+02  0.50000000000E+02  0.47000000000E+01 0.  1.
</event>
<event>
 5    1  0.8909620E-001  0.1000000E+03  0.7546771E-02  0.1163815E+00
         11   -1    0    0    0    0  0.00000000000E+00  0.00000000000E+00  0.50000000000E+02  0.50000000000E+02  0.00000000000E+00 0. -1.
        -11   -1    0    0    0    0 -0.00000000000E+00 -0.00000000000E+00 -0.50000000000E+02  0.50000000000E+02  0.00000000000E+00 0.  1.
         23    2    1    2    0    0  0.00000000000E+00  0.00000000000E+00  0.00000000000E+00  0.10000000000E+03  0.10000000000E+03 0.  0.
          5    1    3    3  501    0  0.24737750544E+01  0.11299784229E+02  0.48415961349E+02  0.50000000000E+02  0.47000000000E+01 0. -1.
         -5    1    3    3    0  501 -0.24737750544E+01 -0.11299784229E+02 -0.48415961349E+02  0.50000000000E+02  0.47000000000E+01 0.  1.
</event>
<event>
 5    1  0.8909620E-001  0.1000000E+03  0.7546771E-02  0.1163815E+00
         11   -1    0    0    0    0  0.00000000000E+00  0.00000000000E+00  0.50000000000E+02  0.50000000000E+02  0.00000000000E+00 0.  1.
        -11   -1    0    0    0    0 -0.00000000000E+00 -0.00000000000E+00 -0.50000000000E+02  0.50000000000E+02  0.00000000000E+00 0. -1.
         23    2    1    2    0    0  0.00000000000E+00  0.00000000000E+00  0.00000000000E+00  0.10000000000E+03  0.10000000000E+03 0.  0.
          5    1    3    3  501    0 -0.14781846768E+02 -0.47207787965E+02 -0.55526355504E+01  0.50000000000E+02  0.47000000000E+01 0. -1.
         -5    1    3    3    0  501  0.14781846768E+02  0.47207787965E+02  0.55526355504E+01  0.50000000000E+02  0.47000000000E+01 0.  1.
</event>
<event>
 5    1  0.8909620E-001  0.1000000E+03  0.7546771E-02  0.1163815E+00
         11   -1    0    0    0    0  0.00000000000E+00  0.00000000000E+00  0.50000000000E+02  0.50000000000E+02  0.00000000000E+00 0.  1.
        -11   -1    0    0    0    0 -0.00000000000E+00 -0.00000000000E+00 -0.50000000000E+02  0.50000000000E+02  0.00000000000E+00 0. -1.
         23    2    1    2    0    0  0.00000000000E+00  0.00000000000E+00  0.00000000000E+00  0.10000000000E+03  0.10000000000E+03 0.  0.
          5    1    3    3  501    0 -0.23532217881E+02 -0.15604172210E+02 -0.40995786750E+02  0.50000000000E+02  0.47000000000E+01 0. -1.
         -5    1    3    3    0  501  0.23532217881E+02  0.15604172210E+02  0.40995786750E+02  0.50000000000E+02  0.47000000000E+01 0.  1.
</event>
<event>
 5    1  0.8909620E-001  0.1000000E+03  0.7546771E-02  0.1163815E+00
         11   -1    0    0    0    0  0.00000000000E+00  0.00000000000E+00  0.50000000000E+02  0.50000000000E+02  0.00000000000E+00 0.  1.
        -11   -1    0    0    0    0 -0.00000000000E+00 -0.00000000000E+00 -0.50000000000E+02  0.50000000000E+02  0.00000000000E+00 0. -1.
         23    2    1    2    0    0  0.00000000000E+00  0.00000000000E+00  0.00000000000E+00  0.10000000000E+03  0.10000000000E+03 0.  0.
          5    1    3    3  501    0  0.44501484932E+02 -0.14676807111E+02 -0.16796403541E+02  0.50000000000E+02  0.47000000000E+01 0. -1.
         -5    1    3    3    0  501 -0.44501484932E+02  0.14676807111E+02  0.16796403541E+02  0.50000000000E+02  0.47000000000E+01 0.  1.
</event>
<event>
 5    1  0.8909620E-001  0.1000000E+03  0.7546771E-02  0.1163815E+00
         11   -1    0    0    0    0  0.00000000000E+00  0.00000000000E+00  0.50000000000E+02  0.50000000000E+02  0.00000000000E+00 0. -1.
        -11   -1    0    0    0    0 -0.00000000000E+00 -0.00000000000E+00 -0.50000000000E+02  0.50000000000E+02  0.00000000000E+00 0.  1.
         23    2    1    2    0    0  0.00000000000E+00  0.00000000000E+00  0.00000000000E+00  0.10000000000E+03  0.10000000000E+03 0.  0.
          5    1    3    3  501    0 -0.49164183969E+02  0.59309896770E+01  0.50612623025E+01  0.50000000000E+02  0.47000000000E+01 0. -1.
         -5    1    3    3    0  501  0.49164183969E+02 -0.59309896770E+01 -0.50612623025E+01  0.50000000000E+02  0.47000000000E+01 0.  1.
</event>
<event>
 5    1  0.8909620E-001  0.1000000E+03  0.7546771E-02  0.1163815E+00
         11   -1    0    0    0    0  0.00000000000E+00  0.00000000000E+00  0.50000000000E+02  0.50000000000E+02  0.00000000000E+00 0.  1.
        -11   -1    0    0    0    0 -0.00000000000E+00 -0.00000000000E+00 -0.50000000000E+02  0.50000000000E+02  0.00000000000E+00 0. -1.
         23    2    1    2    0    0  0.00000000000E+00  0.00000000000E+00  0.00000000000E+00  0.10000000000E+03  0.10000000000E+03 0.  0.
          5    1    3    3  501    0  0.45684149970E+02  0.17157960350E+02 -0.98220587522E+01  0.50000000000E+02  0.47000000000E+01 0. -1.
         -5    1    3    3    0  501 -0.45684149970E+02 -0.17157960350E+02  0.98220587522E+01  0.50000000000E+02  0.47000000000E+01 0.  1.
</event>
<event>
 5    1  0.8909620E-001  0.1000000E+03  0.7546771E-02  0.1163815E+00
         11   -1    0    0    0    0  0.00000000000E+00  0.00000000000E+00  0.50000000000E+02  0.50000000000E+02  0.00000000000E+00 0. -1.
        -11   -1    0    0    0    0 -0.00000000000E+00 -0.00000000000E+00 -0.50000000000E+02  0.50000000000E+02  0.00000000000E+00 0.  1.
         23    2    1    2    0    0  0.00000000000E+00  0.00000000000E+00  0.00000000000E+00  0.10000000000E+03  0.10000000000E+03 0.  0.
          5    1    3    3  501    0  0.33057808985E+02  0.16530355381E+02  0.33344244122E+02  0.50000000000E+02  0.47000000000E+01 0. -1.
         -5    1    3    3    0  501 -0.33057808985E+02 -0.16530355381E+02 -0.33344244122E+02  0.50000000000E+02  0.47000000000E+01 0.  1.
</event>
<event>
 5    1  0.8909620E-001  0.1000000E+03  0.7546771E-02  0.1163815E+00
         11   -1    0    0    0    0  0.00000000000E+00  0.00000000000E+00  0.50000000000E+02  0.50000000000E+02  0.00000000000E+00 0. -1.
        -11   -1    0    0    0    0 -0.00000000000E+00 -0.00000000000E+00 -0.50000000000E+02  0.50000000000E+02  0.00000000000E+00 0.  1.
         23    2    1    2    0    0  0.00000000000E+00  0.00000000000E+00  0.00000000000E+00  0.10000000000E+03  0.10000000000E+03 0.  0.
          5    1    3    3  501    0 -0.53881535334E+01  0.44135859125E+02  0.22380878911E+02  0.50000000000E+02  0.47000000000E+01 0. -1.
         -5    1    3    3    0  501  0.53881535334E+01 -0.44135859125E+02 -0.22380878911E+02  0.50000000000E+02  0.47000000000E+01 0.  1.
</event>
<event>
 5    1  0.8909620E-001  0.1000000E+03  0.7546771E-02  0.1163815E+00
         11   -1    0    0    0    0  0.00000000000E+00  0.00000000000E+00  0.50000000000E+02  0.50000000000E+02  0.00000000000E+00 0. -1.
        -11   -1    0    0    0    0 -0.00000000000E+00 -0.00000000000E+00 -0.50000000000E+02  0.50000000000E+02  0.00000000000E+00 0.  1.
         23    2    1    2    0    0  0.00000000000E+00  0.00000000000E+00  0.00000000000E+00  0.10000000000E+03  0.10000000000E+03 0.  0.
          5    1    3    3  501    0  0.47991147251E+02 -0.10511972565E+02 -0.80161223981E+01  0.50000000000E+02  0.47000000000E+01 0. -1.
         -5    1    3    3    0  501 -0.47991147251E+02  0.10511972565E+02  0.80161223981E+01  0.50000000000E+02  0.47000000000E+01 0.  1.
</event>
<event>
 5    1  0.8909620E-001  0.1000000E+03  0.7546771E-02  0.1163815E+00
         11   -1    0    0    0    0  0.00000000000E+00  0.00000000000E+00  0.50000000000E+02  0.50000000000E+02  0.00000000000E+00 0. -1.
        -11   -1    0    0    0    0 -0.00000000000E+00 -0.00000000000E+00 -0.50000000000E+02  0.50000000000E+02  0.00000000000E+00 0.  1.
         23    2    1    2    0    0  0.00000000000E+00  0.00000000000E+00  0.00000000000E+00  0.10000000000E+03  0.10000000000E+03 0.  0.
          5    1    3    3  501    0  0.31148097431E+02  0.20627439841E+02  0.32897032572E+02  0.50000000000E+02  0.47000000000E+01 0. -1.
         -5    1    3    3    0  501 -0.31148097431E+02 -0.20627439841E+02 -0.32897032572E+02  0.50000000000E+02  0.47000000000E+01 0.  1.
</event>
<event>
 5    1  0.8909620E-001  0.1000000E+03  0.7546771E-02  0.1163815E+00
         11   -1    0    0    0    0  0.00000000000E+00  0.00000000000E+00  0.50000000000E+02  0.50000000000E+02  0.00000000000E+00 0.  1.
        -11   -1    0    0    0    0 -0.00000000000E+00 -0.00000000000E+00 -0.50000000000E+02  0.50000000000E+02  0.00000000000E+00 0. -1.
         23    2    1    2    0    0  0.00000000000E+00  0.00000000000E+00  0.00000000000E+00  0.10000000000E+03  0.10000000000E+03 0.  0.
          5    1    3    3  501    0  0.40493778143E+02  0.24826725089E+02 -0.14892872557E+02  0.50000000000E+02  0.47000000000E+01 0. -1.
         -5    1    3    3    0  501 -0.40493778143E+02 -0.24826725089E+02  0.14892872557E+02  0.50000000000E+02  0.47000000000E+01 0.  1.
</event>
<event>
 5    1  0.8909620E-001  0.1000000E+03  0.7546771E-02  0.1163815E+00
         11   -1    0    0    0    0  0.00000000000E+00  0.00000000000E+00  0.50000000000E+02  0.50000000000E+02  0.00000000000E+00 0.  1.
        -11   -1    0    0    0    0 -0.00000000000E+00 -0.00000000000E+00 -0.50000000000E+02  0.50000000000E+02  0.00000000000E+00 0. -1.
         23    2    1    2    0    0  0.00000000000E+00  0.00000000000E+00  0.00000000000E+00  0.10000000000E+03  0.10000000000E+03 0.  0.
          5    1    3    3  501    0 -0.82923106450E+00  0.50680559986E+01 -0.49513000154E+02  0.50000000000E+02  0.47000000000E+01 0. -1.
         -5    1    3    3    0  501  0.82923106450E+00 -0.50680559986E+01  0.49513000154E+02  0.50000000000E+02  0.47000000000E+01 0.  1.
</event>
<event>
 5    1  0.8909620E-001  0.1000000E+03  0.7546771E-02  0.1163815E+00
         11   -1    0    0    0    0  0.00000000000E+00  0.00000000000E+00  0.50000000000E+02  0.50000000000E+02  0.00000000000E+00 0. -1.
        -11   -1    0    0    0    0 -0.00000000000E+00 -0.00000000000E+00 -0.50000000000E+02  0.50000000000E+02  0.00000000000E+00 0.  1.
         23    2    1    2    0    0  0.00000000000E+00  0.00000000000E+00  0.00000000000E+00  0.10000000000E+03  0.10000000000E+03 0.  0.
          5    1    3    3  501    0 -0.15157673399E+02 -0.13652551641E+02  0.45406637960E+02  0.50000000000E+02  0.47000000000E+01 0. -1.
         -5    1    3    3    0  501  0.15157673399E+02  0.13652551641E+02 -0.45406637960E+02  0.50000000000E+02  0.47000000000E+01 0.  1.
</event>
<event>
 5    1  0.8909620E-001  0.1000000E+03  0.7546771E-02  0.1163815E+00
         11   -1    0    0    0    0  0.00000000000E+00  0.00000000000E+00  0.50000000000E+02  0.50000000000E+02  0.00000000000E+00 0.  1.
        -11   -1    0    0    0    0 -0.00000000000E+00 -0.00000000000E+00 -0.50000000000E+02  0.50000000000E+02  0.00000000000E+00 0. -1.
         23    2    1    2    0    0  0.00000000000E+00  0.00000000000E+00  0.00000000000E+00  0.10000000000E+03  0.10000000000E+03 0.  0.
          5    1    3    3  501    0  0.29474357384E+02  0.30288100131E+02 -0.26302152901E+02  0.50000000000E+02  0.47000000000E+01 0. -1.
         -5    1    3    3    0  501 -0.29474357384E+02 -0.30288100131E+02  0.26302152901E+02  0.50000000000E+02  0.47000000000E+01 0.  1.
</event>
<event>
 5    1  0.8909620E-001  0.1000000E+03  0.7546771E-02  0.1163815E+00
         11   -1    0    0    0    0  0.00000000000E+00  0.00000000000E+00  0.50000000000E+02  0.50000000000E+02  0.00000000000E+00 0. -1.
        -11   -1    0    0    0    0 -0.00000000000E+00 -0.00000000000E+00 -0.50000000000E+02  0.50000000000E+02  0.00000000000E+00 0.  1.
         23    2    1    2    0    0  0.00000000000E+00  0.00000000000E+00  0.00000000000E+00  0.10000000000E+03  0.10000000000E+03 0.  0.
          5    1    3    3  501    0 -0.15615849526E+02  0.23609602277E+01  0.47206790935E+02  0.50000000000E+02  0.47000000000E+01 0. -1.
         -5    1    3    3    0  501  0.15615849526E+02 -0.23609602277E+01 -0.47206790935E+02  0.50000000000E+02  0.47000000000E+01 0.  1.
</event>
<event>
 5    1  0.8909620E-001  0.1000000E+03  0.7546771E-02  0.1163815E+00
         11   -1    0    0    0    0  0.00000000000E+00  0.00000000000E+00  0.50000000000E+02  0.50000000000E+02  0.00000000000E+00 0.  1.
        -11   -1    0    0    0    0 -0.00000000000E+00 -0.00000000000E+00 -0.50000000000E+02  0.50000000000E+02  0.00000000000E+00 0. -1.
         23    2    1    2    0    0  0.00000000000E+00  0.00000000000E+00  0.00000000000E+00  0.10000000000E+03  0.10000000000E+03 0.  0.
          5    1    3    3  501    0 -0.42038767988E+02  0.15174760221E+02  0.21917541795E+02  0.50000000000E+02  0.47000000000E+01 0. -1.
         -5    1    3    3    0  501  0.42038767988E+02 -0.15174760221E+02 -0.21917541795E+02  0.50000000000E+02  0.47000000000E+01 0.  1.
</event>
<event>
 5    1  0.8909620E-001  0.1000000E+03  0.7546771E-02  0.1163815E+00
         11   -1    0    0    0    0  0.00000000000E+00  0.00000000000E+00  0.50000000000E+02  0.50000000000E+02  0.00000000000E+00 0. -1.
        -11   -1    0    0    0    0 -0.00000000000E+00 -0.00000000000E+00 -0.50000000000E+02  0.50000000000E+02  0.00000000000E+00 0.  1.
         23    2    1    2    0    0  0.00000000000E+00  0.00000000000E+00  0.00000000000E+00  0.10000000000E+03  0.10000000000E+03 0.  0.
          5    1    3    3  501    0 -0.43435633328E+02  0.15081703895E+02 -0.19073488538E+02  0.50000000000E+02  0.47000000000E+01 0. -1.
         -5    1    3    3    0  501  0.43435633328E+02 -0.15081703895E+02  0.19073488538E+02  0.50000000000E+02  0.47000000000E+01 0.  1.
</event>
<event>
 5    1  0.8909620E-001  0.1000000E+03  0.7546771E-02  0.1163815E+00
         11   -1    0    0    0    0  0.00000000000E+00  0.00000000000E+00  0.50000000000E+02  0.50000000000E+02  0.00000000000E+00 0. -1.
        -11   -1    0    0    0    0 -0.00000000000E+00 -0.00000000000E+00 -0.50000000000E+02  0.50000000000E+02  0.00000000000E+00 0.  1.
         23    2    1    2    0    0  0.00000000000E+00  0.00000000000E+00  0.00000000000E+00  0.10000000000E+03  0.10000000000E+03 0.  0.
          5    1    3    3  501    0  0.31610104125E+02  0.16864517407E+02  0.34558636690E+02  0.50000000000E+02  0.47000000000E+01 0. -1.
         -5    1    3    3    0  501 -0.31610104125E+02 -0.16864517407E+02 -0.34558636690E+02  0.50000000000E+02  0.47000000000E+01 0.  1.
</event>
<event>
 5    1  0.8909620E-001  0.1000000E+03  0.7546771E-02  0.1163815E+00
         11   -1    0    0    0    0  0.00000000000E+00  0.00000000000E+00  0.50000000000E+02  0.50000000000E+02  0.00000000000E+00 0.  1.
        -11   -1    0    0    0    0 -0.00000000000E+00 -0.00000000000E+00 -0.50000000000E+02  0.50000000000E+02  0.00000000000E+00 0. -1.
         23    2    1    2    0    0  0.00000000000E+00  0.00000000000E+00  0.00000000000E+00  0.10000000000E+03  0.10000000000E+03 0.  0.
          5    1    3    3  501    0  0.54142932689E+01  0.33675835563E+02 -0.36256496349E+02  0.50000000000E+02  0.47000000000E+01 0. -1.
         -5    1    3    3    0  501 -0.54142932689E+01 -0.33675835563E+02  0.36256496349E+02  0.50000000000E+02  0.47000000000E+01 0.  1.
</event>
<event>
 5    1  0.8909620E-001  0.1000000E+03  0.7546771E-02  0.1163815E+00
         11   -1    0    0    0    0  0.00000000000E+00  0.00000000000E+00  0.50000000000E+02  0.50000000000E+02  0.00000000000E+00 0. -1.
        -11   -1    0    0    0    0 -0.00000000000E+00 -0.00000000000E+00 -0.50000000000E+02  0.50000000000E+02  0.00000000000E+00 0.  1.
         23    2    1    2    0    0  0.00000000000E+00  0.00000000000E+00  0.00000000000E+00  0.10000000000E+03  0.10000000000E+03 0.  0.
          5    1    3    3  501    0 -0.27103607100E+02 -0.17869477365E+02  0.37735742485E+02  0.50000000000E+02  0.47000000000E+01 0. -1.
         -5    1    3    3    0  501  0.27103607100E+02  0.17869477365E+02 -0.37735742485E+02  0.50000000000E+02  0.47000000000E+01 0.  1.
</event>
<event>
 5    1  0.8909620E-001  0.1000000E+03  0.7546771E-02  0.1163815E+00
         11   -1    0    0    0    0  0.00000000000E+00  0.00000000000E+00  0.50000000000E+02  0.50000000000E+02  0.00000000000E+00 0. -1.
        -11   -1    0    0    0    0 -0.00000000000E+00 -0.00000000000E+00 -0.50000000000E+02  0.50000000000E+02  0.00000000000E+00 0.  1.
         23    2    1    2    0    0  0.00000000000E+00  0.00000000000E+00  0.00000000000E+00  0.10000000000E+03  0.10000000000E+03 0.  0.
          5    1    3    3  501    0 -0.48668149047E+02 -0.97498783421E+01 -0.37763925488E+01  0.50000000000E+02  0.47000000000E+01 0. -1.
         -5    1    3    3    0  501  0.48668149047E+02  0.97498783421E+01  0.37763925488E+01  0.50000000000E+02  0.47000000000E+01 0.  1.
</event>
<event>
 5    1  0.8909620E-001  0.1000000E+03  0.7546771E-02  0.1163815E+00
         11   -1    0    0    0    0  0.00000000000E+00  0.00000000000E+00  0.50000000000E+02  0.50000000000E+02  0.00000000000E+00 0.  1.
        -11   -1    0    0    0    0 -0.00000000000E+00 -0.00000000000E+00 -0.50000000000E+02  0.50000000000E+02  0.00000000000E+00 0. -1.
         23    2    1    2    0    0  0.00000000000E+00  0.00000000000E+00  0.00000000000E+00  0.10000000000E+03  0.10000000000E+03 0.  0.
          5    1    3    3  501    0 -0.18834753312E+01 -0.30206584181E+02 -0.39521194223E+02  0.50000000000E+02  0.47000000000E+01 0. -1.
         -5    1    3    3    0  501  0.18834753312E+01  0.30206584181E+02  0.39521194223E+02  0.50000000000E+02  0.47000000000E+01 0.  1.
</event>
<event>
 5    1  0.8909620E-001  0.1000000E+03  0.7546771E-02  0.1163815E+00
         11   -1    0    0    0    0  0.00000000000E+00  0.00000000000E+00  0.50000000000E+02  0.50000000000E+02  0.00000000000E+00 0. -1.
        -11   -1    0    0    0    0 -0.00000000000E+00 -0.00000000000E+00 -0.50000000000E+02  0.50000000000E+02  0.00000000000E+00 0.  1.
         23    2    1    2    0    0  0.00000000000E+00  0.00000000000E+00  0.00000000000E+00  0.10000000000E+03  0.10000000000E+03 0.  0.
          5    1    3    3  501    0  0.41374050997E+01  0.47215517532E+02  0.15214689718E+02  0.50000000000E+02  0.47000000000E+01 0. -1.
         -5    1    3    3    0  501 -0.41374050997E+01 -0.47215517532E+02 -0.15214689718E+02  0.50000000000E+02  0.47000000000E+01 0.  1.
</event>
<event>
 5    1  0.8909620E-001  0.1000000E+03  0.7546771E-02  0.1163815E+00
         11   -1    0    0    0    0  0.00000000000E+00  0.00000000000E+00  0.50000000000E+02  0.50000000000E+02  0.00000000000E+00 0. -1.
        -11   -1    0    0    0    0 -0.00000000000E+00 -0.00000000000E+00 -0.50000000000E+02  0.50000000000E+02  0.00000000000E+00 0.  1.
         23    2    1    2    0    0  0.00000000000E+00  0.00000000000E+00  0.00000000000E+00  0.10000000000E+03  0.10000000000E+03 0.  0.
          5    1    3    3  501    0  0.27687434910E+02 -0.42519781652E+01  0.41148956606E+02  0.50000000000E+02  0.47000000000E+01 0. -1.
         -5    1    3    3    0  501 -0.27687434910E+02  0.42519781652E+01 -0.41148956606E+02  0.50000000000E+02  0.47000000000E+01 0.  1.
</event>
<event>
 5    1  0.8909620E-001  0.1000000E+03  0.7546771E-02  0.1163815E+00
         11   -1    0    0    0    0  0.00000000000E+00  0.00000000000E+00  0.50000000000E+02  0.50000000000E+02  0.00000000000E+00 0.  1.
        -11   -1    0    0    0    0 -0.00000000000E+00 -0.00000000000E+00 -0.50000000000E+02  0.50000000000E+02  0.00000000000E+00 0. -1.
         23    2    1    2    0    0  0.00000000000E+00  0.00000000000E+00  0.00000000000E+00  0.10000000000E+03  0.10000000000E+03 0.  0.
          5    1    3    3  501    0  0.42671058297E+02 -0.13949001154E+01 -0.25595801169E+02  0.50000000000E+02  0.47000000000E+01 0. -1.
         -5    1    3    3    0  501 -0.42671058297E+02  0.13949001154E+01  0.25595801169E+02  0.50000000000E+02  0.47000000000E+01 0.  1.
</event>
<event>
 5    1  0.8909620E-001  0.1000000E+03  0.7546771E-02  0.1163815E+00
         11   -1    0    0    0    0  0.00000000000E+00  0.00000000000E+00  0.50000000000E+02  0.50000000000E+02  0.00000000000E+00 0. -1.
        -11   -1    0    0    0    0 -0.00000000000E+00 -0.00000000000E+00 -0.50000000000E+02  0.50000000000E+02  0.00000000000E+00 0.  1.
         23    2    1    2    0    0  0.00000000000E+00  0.00000000000E+00  0.00000000000E+00  0.10000000000E+03  0.10000000000E+03 0.  0.
          5    1    3    3  501    0 -0.42170302342E+02  0.24273834423E+02  0.10505073194E+02  0.50000000000E+02  0.47000000000E+01 0. -1.
         -5    1    3    3    0  501  0.42170302342E+02 -0.24273834423E+02 -0.10505073194E+02  0.50000000000E+02  0.47000000000E+01 0.  1.
</event>
<event>
 5    1  0.8909620E-001  0.1000000E+03  0.7546771E-02  0.1163815E+00
         11   -1    0    0    0    0  0.00000000000E+00  0.00000000000E+00  0.50000000000E+02  0.50000000000E+02  0.00000000000E+00 0. -1.
        -11   -1    0    0    0    0 -0.00000000000E+00 -0.00000000000E+00 -0.50000000000E+02  0.50000000000E+02  0.00000000000E+00 0.  1.
         23    2    1    2    0    0  0.00000000000E+00  0.00000000000E+00  0.00000000000E+00  0.10000000000E+03  0.10000000000E+03 0.  0.
          5    1    3    3  501    0 -0.18109309774E+02 -0.25477041702E+02  0.38741234436E+02  0.50000000000E+02  0.47000000000E+01 0. -1.
         -5    1    3    3    0  501  0.18109309774E+02  0.25477041702E+02 -0.38741234436E+02  0.50000000000E+02  0.47000000000E+01 0.  1.
</event>
<event>
 5    1  0.8909620E-001  0.1000000E+03  0.7546771E-02  0.1163815E+00
         11   -1    0    0    0    0  0.00000000000E+00  0.00000000000E+00  0.50000000000E+02  0.50000000000E+02  0.00000000000E+00 0. -1.
        -11   -1    0    0    0    0 -0.00000000000E+00 -0.00000000000E+00 -0.50000000000E+02  0.50000000000E+02  0.00000000000E+00 0.  1.
         23    2    1    2    0    0  0.00000000000E+00  0.00000000000E+00  0.00000000000E+00  0.10000000000E+03  0.10000000000E+03 0.  0.
          5    1    3    3  501    0  0.35730575418E+02  0.29628410959E+02 -0.17983137778E+02  0.50000000000E+02  0.47000000000E+01 0. -1.
         -5    1    3    3    0  501 -0.35730575418E+02 -0.29628410959E+02  0.17983137778E+02  0.50000000000E+02  0.47000000000E+01 0.  1.
</event>
<event>
 5    1  0.8909620E-001  0.1000000E+03  0.7546771E-02  0.1163815E+00
         11   -1    0    0    0    0  0.00000000000E+00  0.00000000000E+00  0.50000000000E+02  0.50000000000E+02  0.00000000000E+00 0.  1.
        -11   -1    0    0    0    0 -0.00000000000E+00 -0.00000000000E+00 -0.50000000000E+02  0.50000000000E+02  0.00000000000E+00 0. -1.
         23    2    1    2    0    0  0.00000000000E+00  0.00000000000E+00  0.00000000000E+00  0.10000000000E+03  0.10000000000E+03 0.  0.
          5    1    3    3  501    0  0.66090431136E+00 -0.32484146658E+02 -0.37712775307E+02  0.50000000000E+02  0.47000000000E+01 0. -1.
         -5    1    3    3    0  501 -0.66090431136E+00  0.32484146658E+02  0.37712775307E+02  0.50000000000E+02  0.47000000000E+01 0.  1.
</event>
<event>
 5    1  0.8909620E-001  0.1000000E+03  0.7546771E-02  0.1163815E+00
         11   -1    0    0    0    0  0.00000000000E+00  0.00000000000E+00  0.50000000000E+02  0.50000000000E+02  0.00000000000E+00 0. -1.
        -11   -1    0    0    0    0 -0.00000000000E+00 -0.00000000000E+00 -0.50000000000E+02  0.50000000000E+02  0.00000000000E+00 0.  1.
         23    2    1    2    0    0  0.00000000000E+00  0.00000000000E+00  0.00000000000E+00  0.10000000000E+03  0.10000000000E+03 0.  0.
          5    1    3    3  501    0  0.45661273922E+02 -0.14504253927E+02  0.13512389939E+02  0.50000000000E+02  0.47000000000E+01 0. -1.
         -5    1    3    3    0  501 -0.45661273922E+02  0.14504253927E+02 -0.13512389939E+02  0.50000000000E+02  0.47000000000E+01 0.  1.
</event>
<event>
 5    1  0.8909620E-001  0.1000000E+03  0.7546771E-02  0.1163815E+00
         11   -1    0    0    0    0  0.00000000000E+00  0.00000000000E+00  0.50000000000E+02  0.50000000000E+02  0.00000000000E+00 0. -1.
        -11   -1    0    0    0    0 -0.00000000000E+00 -0.00000000000E+00 -0.50000000000E+02  0.50000000000E+02  0.00000000000E+00 0.  1.
         23    2    1    2    0    0  0.00000000000E+00  0.00000000000E+00  0.00000000000E+00  0.10000000000E+03  0.10000000000E+03 0.  0.
          5    1    3    3  501    0  0.25149116818E+01  0.12874040389E+02  0.48019207650E+02  0.50000000000E+02  0.47000000000E+01 0. -1.
         -5    1    3    3    0  501 -0.25149116818E+01 -0.12874040389E+02 -0.48019207650E+02  0.50000000000E+02  0.47000000000E+01 0.  1.
</event>
<event>
 5    1  0.8909620E-001  0.1000000E+03  0.7546771E-02  0.1163815E+00
         11   -1    0    0    0    0  0.00000000000E+00  0.00000000000E+00  0.50000000000E+02  0.50000000000E+02  0.00000000000E+00 0. -1.
        -11   -1    0    0    0    0 -0.00000000000E+00 -0.00000000000E+00 -0.50000000000E+02  0.50000000000E+02  0.00000000000E+00 0.  1.
         23    2    1    2    0    0  0.00000000000E+00  0.00000000000E+00  0.00000000000E+00  0.10000000000E+03  0.10000000000E+03 0.  0.
          5    1    3    3  501    0 -0.21168547752E+02  0.34735009397E+02  0.28692886021E+02  0.50000000000E+02  0.47000000000E+01 0. -1.
         -5    1    3    3    0  501  0.21168547752E+02 -0.34735009397E+02 -0.28692886021E+02  0.50000000000E+02  0.47000000000E+01 0.  1.
</event>
<event>
 5    1  0.8909620E-001  0.1000000E+03  0.7546771E-02  0.1163815E+00
         11   -1    0    0    0    0  0.00000000000E+00  0.00000000000E+00  0.50000000000E+02  0.50000000000E+02  0.00000000000E+00 0. -1.
        -11   -1    0    0    0    0 -0.00000000000E+00 -0.00000000000E+00 -0.50000000000E+02  0.50000000000E+02  0.00000000000E+00 0.  1.
         23    2    1    2    0    0  0.00000000000E+00  0.00000000000E+00  0.00000000000E+00  0.10000000000E+03  0.10000000000E+03 0.  0.
          5    1    3    3  501    0  0.19181952288E+02  0.99759090516E+01  0.44837974364E+02  0.50000000000E+02  0.47000000000E+01 0. -1.
         -5    1    3    3    0  501 -0.19181952288E+02 -0.99759090516E+01 -0.44837974364E+02  0.50000000000E+02  0.47000000000E+01 0.  1.
</event>
<event>
 5    1  0.8909620E-001  0.1000000E+03  0.7546771E-02  0.1163815E+00
         11   -1    0    0    0    0  0.00000000000E+00  0.00000000000E+00  0.50000000000E+02  0.50000000000E+02  0.00000000000E+00 0. -1.
        -11   -1    0    0    0    0 -0.00000000000E+00 -0.00000000000E+00 -0.50000000000E+02  0.50000000000E+02  0.00000000000E+00 0.  1.
         23    2    1    2    0    0  0.00000000000E+00  0.00000000000E+00  0.00000000000E+00  0.10000000000E+03  0.10000000000E+03 0.  0.
          5    1    3    3  501    0  0.22602053731E+02  0.35711608352E+02  0.26300916258E+02  0.50000000000E+02  0.47000000000E+01 0. -1.
         -5    1    3    3    0  501 -0.22602053731E+02 -0.35711608352E+02 -0.26300916258E+02  0.50000000000E+02  0.47000000000E+01 0.  1.
</event>
<event>
 5    1  0.8909620E-001  0.1000000E+03  0.7546771E-02  0.1163815E+00
         11   -1    0    0    0    0  0.00000000000E+00  0.00000000000E+00  0.50000000000E+02  0.50000000000E+02  0.00000000000E+00 0. -1.
        -11   -1    0    0    0    0 -0.00000000000E+00 -0.00000000000E+00 -0.50000000000E+02  0.50000000000E+02  0.00000000000E+00 0.  1.
         23    2    1    2    0    0  0.00000000000E+00  0.00000000000E+00  0.00000000000E+00  0.10000000000E+03  0.10000000000E+03 0.  0.
          5    1    3    3  501    0  0.35789046165E+02  0.49845846852E+01  0.34237524591E+02  0.50000000000E+02  0.47000000000E+01 0. -1.
         -5    1    3    3    0  501 -0.35789046165E+02 -0.49845846852E+01 -0.34237524591E+02  0.50000000000E+02  0.47000000000E+01 0.  1.
</event>
<event>
 5    1  0.8909620E-001  0.1000000E+03  0.7546771E-02  0.1163815E+00
         11   -1    0    0    0    0  0.00000000000E+00  0.00000000000E+00  0.50000000000E+02  0.50000000000E+02  0.00000000000E+00 0.  1.
        -11   -1    0    0    0    0 -0.00000000000E+00 -0.00000000000E+00 -0.50000000000E+02  0.50000000000E+02  0.00000000000E+00 0. -1.
         23    2    1    2    0    0  0.00000000000E+00  0.00000000000E+00  0.00000000000E+00  0.10000000000E+03  0.10000000000E+03 0.  0.
          5    1    3    3  501    0  0.73310015591E+01  0.33492664655E+02 -0.36088887908E+02  0.50000000000E+02  0.47000000000E+01 0. -1.
         -5    1    3    3    0  501 -0.73310015591E+01 -0.33492664655E+02  0.36088887908E+02  0.50000000000E+02  0.47000000000E+01 0.  1.
</event>
<event>
 5    1  0.8909620E-001  0.1000000E+03  0.7546771E-02  0.1163815E+00
         11   -1    0    0    0    0  0.00000000000E+00  0.00000000000E+00  0.50000000000E+02  0.50000000000E+02  0.00000000000E+00 0. -1.
        -11   -1    0    0    0    0 -0.00000000000E+00 -0.00000000000E+00 -0.50000000000E+02  0.50000000000E+02  0.00000000000E+00 0.  1.
         23    2    1    2    0    0  0.00000000000E+00  0.00000000000E+00  0.00000000000E+00  0.10000000000E+03  0.10000000000E+03 0.  0.
          5    1    3    3  501    0  0.15640148824E+02  0.32538800506E+02  0.34271302957E+02  0.50000000000E+02  0.47000000000E+01 0. -1.
         -5    1    3    3    0  501 -0.15640148824E+02 -0.32538800506E+02 -0.34271302957E+02  0.50000000000E+02  0.47000000000E+01 0.  1.
</event>
<event>
 5    1  0.8909620E-001  0.1000000E+03  0.7546771E-02  0.1163815E+00
         11   -1    0    0    0    0  0.00000000000E+00  0.00000000000E+00  0.50000000000E+02  0.50000000000E+02  0.00000000000E+00 0.  1.
        -11   -1    0    0    0    0 -0.00000000000E+00 -0.00000000000E+00 -0.50000000000E+02  0.50000000000E+02  0.00000000000E+00 0. -1.
         23    2    1    2    0    0  0.00000000000E+00  0.00000000000E+00  0.00000000000E+00  0.10000000000E+03  0.10000000000E+03 0.  0.
          5    1    3    3  501    0 -0.15513493747E+02  0.15250916584E+02 -0.44773329730E+02  0.50000000000E+02  0.47000000000E+01 0. -1.
         -5    1    3    3    0  501  0.15513493747E+02 -0.15250916584E+02  0.44773329730E+02  0.50000000000E+02  0.47000000000E+01 0.  1.
</event>
<event>
 5    1  0.8909620E-001  0.1000000E+03  0.7546771E-02  0.1163815E+00
         11   -1    0    0    0    0  0.00000000000E+00  0.00000000000E+00  0.50000000000E+02  0.50000000000E+02  0.00000000000E+00 0. -1.
        -11   -1    0    0    0    0 -0.00000000000E+00 -0.00000000000E+00 -0.50000000000E+02  0.50000000000E+02  0.00000000000E+00 0.  1.
         23    2    1    2    0    0  0.00000000000E+00  0.00000000000E+00  0.00000000000E+00  0.10000000000E+03  0.10000000000E+03 0.  0.
          5    1    3    3  501    0 -0.19759043844E+01  0.37490883360E+02  0.32686992318E+02  0.50000000000E+02  0.47000000000E+01 0. -1.
         -5    1    3    3    0  501  0.19759043844E+01 -0.37490883360E+02 -0.32686992318E+02  0.50000000000E+02  0.47000000000E+01 0.  1.
</event>
<event>
 5    1  0.8909620E-001  0.1000000E+03  0.7546771E-02  0.1163815E+00
         11   -1    0    0    0    0  0.00000000000E+00  0.00000000000E+00  0.50000000000E+02  0.50000000000E+02  0.00000000000E+00 0.  1.
        -11   -1    0    0    0    0 -0.00000000000E+00 -0.00000000000E+00 -0.50000000000E+02  0.50000000000E+02  0.00000000000E+00 0. -1.
         23    2    1    2    0    0  0.00000000000E+00  0.00000000000E+00  0.00000000000E+00  0.10000000000E+03  0.10000000000E+03 0.  0.
          5    1    3    3  501    0  0.32437688968E+02 -0.26366741586E+02 -0.27027787045E+02  0.50000000000E+02  0.47000000000E+01 0. -1.
         -5    1    3    3    0  501 -0.32437688968E+02  0.26366741586E+02  0.27027787045E+02  0.50000000000E+02  0.47000000000E+01 0.  1.
</event>
<event>
 5    1  0.8909620E-001  0.1000000E+03  0.7546771E-02  0.1163815E+00
         11   -1    0    0    0    0  0.00000000000E+00  0.00000000000E+00  0.50000000000E+02  0.50000000000E+02  0.00000000000E+00 0.  1.
        -11   -1    0    0    0    0 -0.00000000000E+00 -0.00000000000E+00 -0.50000000000E+02  0.50000000000E+02  0.00000000000E+00 0. -1.
         23    2    1    2    0    0  0.00000000000E+00  0.00000000000E+00  0.00000000000E+00  0.10000000000E+03  0.10000000000E+03 0.  0.
          5    1    3    3  501    0 -0.20193142753E+02  0.27841876386E+02 -0.35985787542E+02  0.50000000000E+02  0.47000000000E+01 0. -1.
         -5    1    3    3    0  501  0.20193142753E+02 -0.27841876386E+02  0.35985787542E+02  0.50000000000E+02  0.47000000000E+01 0.  1.
</event>
<event>
 5    1  0.8909620E-001  0.1000000E+03  0.7546771E-02  0.1163815E+00
         11   -1    0    0    0    0  0.00000000000E+00  0.00000000000E+00  0.50000000000E+02  0.50000000000E+02  0.00000000000E+00 0. -1.
        -11   -1    0    0    0    0 -0.00000000000E+00 -0.00000000000E+00 -0.50000000000E+02  0.50000000000E+02  0.00000000000E+00 0.  1.
         23    2    1    2    0    0  0.00000000000E+00  0.00000000000E+00  0.00000000000E+00  0.10000000000E+03  0.10000000000E+03 0.  0.
          5    1    3    3  501    0 -0.33988287413E+02 -0.18288941723E+02  0.31435981444E+02  0.50000000000E+02  0.47000000000E+01 0. -1.
         -5    1    3    3    0  501  0.33988287413E+02  0.18288941723E+02 -0.31435981444E+02  0.50000000000E+02  0.47000000000E+01 0.  1.
</event>
<event>
 5    1  0.8909620E-001  0.1000000E+03  0.7546771E-02  0.1163815E+00
         11   -1    0    0    0    0  0.00000000000E+00  0.00000000000E+00  0.50000000000E+02  0.50000000000E+02  0.00000000000E+00 0. -1.
        -11   -1    0    0    0    0 -0.00000000000E+00 -0.00000000000E+00 -0.50000000000E+02  0.50000000000E+02  0.00000000000E+00 0.  1.
         23    2    1    2    0    0  0.00000000000E+00  0.00000000000E+00  0.00000000000E+00  0.10000000000E+03  0.10000000000E+03 0.  0.
          5    1    3    3  501    0 -0.22270371537E+02 -0.15957362828E+02  0.41560836411E+02  0.50000000000E+02  0.47000000000E+01 0. -1.
         -5    1    3    3    0  501  0.22270371537E+02  0.15957362828E+02 -0.41560836411E+02  0.50000000000E+02  0.47000000000E+01 0.  1.
</event>
<event>
 5    1  0.8909620E-001  0.1000000E+03  0.7546771E-02  0.1163815E+00
         11   -1    0    0    0    0  0.00000000000E+00  0.00000000000E+00  0.50000000000E+02  0.50000000000E+02  0.00000000000E+00 0. -1.
        -11   -1    0    0    0    0 -0.00000000000E+00 -0.00000000000E+00 -0.50000000000E+02  0.50000000000E+02  0.00000000000E+00 0.  1.
         23    2    1    2    0    0  0.00000000000E+00  0.00000000000E+00  0.00000000000E+00  0.10000000000E+03  0.10000000000E+03 0.  0.
          5    1    3    3  501    0  0.15801528592E+02 -0.18564889358E+02  0.43400075775E+02  0.50000000000E+02  0.47000000000E+01 0. -1.
         -5    1    3    3    0  501 -0.15801528592E+02  0.18564889358E+02 -0.43400075775E+02  0.50000000000E+02  0.47000000000E+01 0.  1.
</event>
<event>
 5    1  0.8909620E-001  0.1000000E+03  0.7546771E-02  0.1163815E+00
         11   -1    0    0    0    0  0.00000000000E+00  0.00000000000E+00  0.50000000000E+02  0.50000000000E+02  0.00000000000E+00 0.  1.
        -11   -1    0    0    0    0 -0.00000000000E+00 -0.00000000000E+00 -0.50000000000E+02  0.50000000000E+02  0.00000000000E+00 0. -1.
         23    2    1    2    0    0  0.00000000000E+00  0.00000000000E+00  0.00000000000E+00  0.10000000000E+03  0.10000000000E+03 0.  0.
          5    1    3    3  501    0 -0.31521156410E+02  0.38472443792E+02  0.20488453408E+01  0.50000000000E+02  0.47000000000E+01 0. -1.
         -5    1    3    3    0  501  0.31521156410E+02 -0.38472443792E+02 -0.20488453408E+01  0.50000000000E+02  0.47000000000E+01 0.  1.
</event>
<event>
 5    1  0.8909620E-001  0.1000000E+03  0.7546771E-02  0.1163815E+00
         11   -1    0    0    0    0  0.00000000000E+00  0.00000000000E+00  0.50000000000E+02  0.50000000000E+02  0.00000000000E+00 0.  1.
        -11   -1    0    0    0    0 -0.00000000000E+00 -0.00000000000E+00 -0.50000000000E+02  0.50000000000E+02  0.00000000000E+00 0. -1.
         23    2    1    2    0    0  0.00000000000E+00  0.00000000000E+00  0.00000000000E+00  0.10000000000E+03  0.10000000000E+03 0.  0.
          5    1    3    3  501    0 -0.55895873605E+01  0.43329509633E+02 -0.23858334144E+02  0.50000000000E+02  0.47000000000E+01 0. -1.
         -5    1    3    3    0  501  0.55895873605E+01 -0.43329509633E+02  0.23858334144E+02  0.50000000000E+02  0.47000000000E+01 0.  1.
</event>
<event>
 5    1  0.8909620E-001  0.1000000E+03  0.7546771E-02  0.1163815E+00
         11   -1    0    0    0    0  0.00000000000E+00  0.00000000000E+00  0.50000000000E+02  0.50000000000E+02  0.00000000000E+00 0. -1.
        -11   -1    0    0    0    0 -0.00000000000E+00 -0.00000000000E+00 -0.50000000000E+02  0.50000000000E+02  0.00000000000E+00 0.  1.
         23    2    1    2    0    0  0.00000000000E+00  0.00000000000E+00  0.00000000000E+00  0.10000000000E+03  0.10000000000E+03 0.  0.
          5    1    3    3  501    0  0.62475823444E+01 -0.37164691093E+02  0.32521738127E+02  0.50000000000E+02  0.47000000000E+01 0. -1.
         -5    1    3    3    0  501 -0.62475823444E+01  0.37164691093E+02 -0.32521738127E+02  0.50000000000E+02  0.47000000000E+01 0.  1.
</event>
<event>
 5    1  0.8909620E-001  0.1000000E+03  0.7546771E-02  0.1163815E+00
         11   -1    0    0    0    0  0.00000000000E+00  0.00000000000E+00  0.50000000000E+02  0.50000000000E+02  0.00000000000E+00 0. -1.
        -11   -1    0    0    0    0 -0.00000000000E+00 -0.00000000000E+00 -0.50000000000E+02  0.50000000000E+02  0.00000000000E+00 0.  1.
         23    2    1    2    0    0  0.00000000000E+00  0.00000000000E+00  0.00000000000E+00  0.10000000000E+03  0.10000000000E+03 0.  0.
          5    1    3    3  501    0 -0.91675823066E+01  0.28120428878E+02  0.40038817595E+02  0.50000000000E+02  0.47000000000E+01 0. -1.
         -5    1    3    3    0  501  0.91675823066E+01 -0.28120428878E+02 -0.40038817595E+02  0.50000000000E+02  0.47000000000E+01 0.  1.
</event>
<event>
 5    1  0.8909620E-001  0.1000000E+03  0.7546771E-02  0.1163815E+00
         11   -1    0    0    0    0  0.00000000000E+00  0.00000000000E+00  0.50000000000E+02  0.50000000000E+02  0.00000000000E+00 0.  1.
        -11   -1    0    0    0    0 -0.00000000000E+00 -0.00000000000E+00 -0.50000000000E+02  0.50000000000E+02  0.00000000000E+00 0. -1.
         23    2    1    2    0    0  0.00000000000E+00  0.00000000000E+00  0.00000000000E+00  0.10000000000E+03  0.10000000000E+03 0.  0.
          5    1    3    3  501    0 -0.19670921509E+02  0.27868132405E+02 -0.36253717648E+02  0.50000000000E+02  0.47000000000E+01 0. -1.
         -5    1    3    3    0  501  0.19670921509E+02 -0.27868132405E+02  0.36253717648E+02  0.50000000000E+02  0.47000000000E+01 0.  1.
</event>
<event>
 5    1  0.8909620E-001  0.1000000E+03  0.7546771E-02  0.1163815E+00
         11   -1    0    0    0    0  0.00000000000E+00  0.00000000000E+00  0.50000000000E+02  0.50000000000E+02  0.00000000000E+00 0. -1.
        -11   -1    0    0    0    0 -0.00000000000E+00 -0.00000000000E+00 -0.50000000000E+02  0.50000000000E+02  0.00000000000E+00 0.  1.
         23    2    1    2    0    0  0.00000000000E+00  0.00000000000E+00  0.00000000000E+00  0.10000000000E+03  0.10000000000E+03 0.  0.
          5    1    3    3  501    0 -0.62219159292E+01 -0.43102154812E+02  0.24112279294E+02  0.50000000000E+02  0.47000000000E+01 0. -1.
         -5    1    3    3    0  501  0.62219159292E+01  0.43102154812E+02 -0.24112279294E+02  0.50000000000E+02  0.47000000000E+01 0.  1.
</event>
<event>
 5    1  0.8909620E-001  0.1000000E+03  0.7546771E-02  0.1163815E+00
         11   -1    0    0    0    0  0.00000000000E+00  0.00000000000E+00  0.50000000000E+02  0.50000000000E+02  0.00000000000E+00 0. -1.
        -11   -1    0    0    0    0 -0.00000000000E+00 -0.00000000000E+00 -0.50000000000E+02  0.50000000000E+02  0.00000000000E+00 0.  1.
         23    2    1    2    0    0  0.00000000000E+00  0.00000000000E+00  0.00000000000E+00  0.10000000000E+03  0.10000000000E+03 0.  0.
          5    1    3    3  501    0 -0.44079828822E+02  0.62058171756E+01  0.22279284643E+02  0.50000000000E+02  0.47000000000E+01 0. -1.
         -5    1    3    3    0  501  0.44079828822E+02 -0.62058171756E+01 -0.22279284643E+02  0.50000000000E+02  0.47000000000E+01 0.  1.
</event>
<event>
 5    1  0.8909620E-001  0.1000000E+03  0.7546771E-02  0.1163815E+00
         11   -1    0    0    0    0  0.00000000000E+00  0.00000000000E+00  0.50000000000E+02  0.50000000000E+02  0.00000000000E+00 0.  1.
        -11   -1    0    0    0    0 -0.00000000000E+00 -0.00000000000E+00 -0.50000000000E+02  0.50000000000E+02  0.00000000000E+00 0. -1.
         23    2    1    2    0    0  0.00000000000E+00  0.00000000000E+00  0.00000000000E+00  0.10000000000E+03  0.10000000000E+03 0.  0.
          5    1    3    3  501    0  0.35810589738E+01  0.28896592427E+02 -0.40374162069E+02  0.50000000000E+02  0.47000000000E+01 0. -1.
         -5    1    3    3    0  501 -0.35810589738E+01 -0.28896592427E+02  0.40374162069E+02  0.50000000000E+02  0.47000000000E+01 0.  1.
</event>
<event>
 5    1  0.8909620E-001  0.1000000E+03  0.7546771E-02  0.1163815E+00
         11   -1    0    0    0    0  0.00000000000E+00  0.00000000000E+00  0.50000000000E+02  0.50000000000E+02  0.00000000000E+00 0. -1.
        -11   -1    0    0    0    0 -0.00000000000E+00 -0.00000000000E+00 -0.50000000000E+02  0.50000000000E+02  0.00000000000E+00 0.  1.
         23    2    1    2    0    0  0.00000000000E+00  0.00000000000E+00  0.00000000000E+00  0.10000000000E+03  0.10000000000E+03 0.  0.
          5    1    3    3  501    0  0.24803112416E+02 -0.24605364368E+02  0.35458308742E+02  0.50000000000E+02  0.47000000000E+01 0. -1.
         -5    1    3    3    0  501 -0.24803112416E+02  0.24605364368E+02 -0.35458308742E+02  0.50000000000E+02  0.47000000000E+01 0.  1.
</event>
<event>
 5    1  0.8909620E-001  0.1000000E+03  0.7546771E-02  0.1163815E+00
         11   -1    0    0    0    0  0.00000000000E+00  0.00000000000E+00  0.50000000000E+02  0.50000000000E+02  0.00000000000E+00 0. -1.
        -11   -1    0    0    0    0 -0.00000000000E+00 -0.00000000000E+00 -0.50000000000E+02  0.50000000000E+02  0.00000000000E+00 0.  1.
         23    2    1    2    0    0  0.00000000000E+00  0.00000000000E+00  0.00000000000E+00  0.10000000000E+03  0.10000000000E+03 0.  0.
          5    1    3    3  501    0 -0.46716476651E+02  0.11795531055E+02  0.12503849664E+02  0.50000000000E+02  0.47000000000E+01 0. -1.
         -5    1    3    3    0  501  0.46716476651E+02 -0.11795531055E+02 -0.12503849664E+02  0.50000000000E+02  0.47000000000E+01 0.  1.
</event>
<event>
 5    1  0.8909620E-001  0.1000000E+03  0.7546771E-02  0.1163815E+00
         11   -1    0    0    0    0  0.00000000000E+00  0.00000000000E+00  0.50000000000E+02  0.50000000000E+02  0.00000000000E+00 0. -1.
        -11   -1    0    0    0    0 -0.00000000000E+00 -0.00000000000E+00 -0.50000000000E+02  0.50000000000E+02  0.00000000000E+00 0.  1.
         23    2    1    2    0    0  0.00000000000E+00  0.00000000000E+00  0.00000000000E+00  0.10000000000E+03  0.10000000000E+03 0.  0.
          5    1    3    3  501    0 -0.37150755385E+01  0.19973508398E+02  0.45444110466E+02  0.50000000000E+02  0.47000000000E+01 0. -1.
         -5    1    3    3    0  501  0.37150755385E+01 -0.19973508398E+02 -0.45444110466E+02  0.50000000000E+02  0.47000000000E+01 0.  1.
</event>
<event>
 5    1  0.8909620E-001  0.1000000E+03  0.7546771E-02  0.1163815E+00
         11   -1    0    0    0    0  0.00000000000E+00  0.00000000000E+00  0.50000000000E+02  0.50000000000E+02  0.00000000000E+00 0. -1.
        -11   -1    0    0    0    0 -0.00000000000E+00 -0.00000000000E+00 -0.50000000000E+02  0.50000000000E+02  0.00000000000E+00 0.  1.
         23    2    1    2    0    0  0.00000000000E+00  0.00000000000E+00  0.00000000000E+00  0.10000000000E+03  0.10000000000E+03 0.  0.
          5    1    3    3  501    0 -0.55904395852E+01  0.44861038474E+02  0.20836127574E+02  0.50000000000E+02  0.47000000000E+01 0. -1.
         -5    1    3    3    0  501  0.55904395852E+01 -0.44861038474E+02 -0.20836127574E+02  0.50000000000E+02  0.47000000000E+01 0.  1.
</event>
<event>
 5    1  0.8909620E-001  0.1000000E+03  0.7546771E-02  0.1163815E+00
         11   -1    0    0    0    0  0.00000000000E+00  0.00000000000E+00  0.50000000000E+02  0.50000000000E+02  0.00000000000E+00 0.  1.
        -11   -1    0    0    0    0 -0.00000000000E+00 -0.00000000000E+00 -0.50000000000E+02  0.50000000000E+02  0.00000000000E+00 0. -1.
         23    2    1    2    0    0  0.00000000000E+00  0.00000000000E+00  0.00000000000E+00  0.10000000000E+03  0.10000000000E+03 0.  0.
          5    1    3    3  501    0  0.17373244068E+02 -0.15110361916E+02  0.44133404053E+02  0.50000000000E+02  0.47000000000E+01 0.  1.
         -5    1    3    3    0  501 -0.17373244068E+02  0.15110361916E+02 -0.44133404053E+02  0.50000000000E+02  0.47000000000E+01 0. -1.
</event>
<event>
 5    1  0.8909620E-001  0.1000000E+03  0.7546771E-02  0.1163815E+00
         11   -1    0    0    0    0  0.00000000000E+00  0.00000000000E+00  0.50000000000E+02  0.50000000000E+02  0.00000000000E+00 0. -1.
        -11   -1    0    0    0    0 -0.00000000000E+00 -0.00000000000E+00 -0.50000000000E+02  0.50000000000E+02  0.00000000000E+00 0.  1.
         23    2    1    2    0    0  0.00000000000E+00  0.00000000000E+00  0.00000000000E+00  0.10000000000E+03  0.10000000000E+03 0.  0.
          5    1    3    3  501    0 -0.51582627818E+01  0.47612804041E+02  0.13576568653E+02  0.50000000000E+02  0.47000000000E+01 0. -1.
         -5    1    3    3    0  501  0.51582627818E+01 -0.47612804041E+02 -0.13576568653E+02  0.50000000000E+02  0.47000000000E+01 0.  1.
</event>
<event>
 5    1  0.8909620E-001  0.1000000E+03  0.7546771E-02  0.1163815E+00
         11   -1    0    0    0    0  0.00000000000E+00  0.00000000000E+00  0.50000000000E+02  0.50000000000E+02  0.00000000000E+00 0. -1.
        -11   -1    0    0    0    0 -0.00000000000E+00 -0.00000000000E+00 -0.50000000000E+02  0.50000000000E+02  0.00000000000E+00 0.  1.
         23    2    1    2    0    0  0.00000000000E+00  0.00000000000E+00  0.00000000000E+00  0.10000000000E+03  0.10000000000E+03 0.  0.
          5    1    3    3  501    0 -0.14638192805E+02  0.10848854064E+02  0.46324245022E+02  0.50000000000E+02  0.47000000000E+01 0. -1.
         -5    1    3    3    0  501  0.14638192805E+02 -0.10848854064E+02 -0.46324245022E+02  0.50000000000E+02  0.47000000000E+01 0.  1.
</event>
<event>
 5    1  0.8909620E-001  0.1000000E+03  0.7546771E-02  0.1163815E+00
         11   -1    0    0    0    0  0.00000000000E+00  0.00000000000E+00  0.50000000000E+02  0.50000000000E+02  0.00000000000E+00 0.  1.
        -11   -1    0    0    0    0 -0.00000000000E+00 -0.00000000000E+00 -0.50000000000E+02  0.50000000000E+02  0.00000000000E+00 0. -1.
         23    2    1    2    0    0  0.00000000000E+00  0.00000000000E+00  0.00000000000E+00  0.10000000000E+03  0.10000000000E+03 0.  0.
          5    1    3    3  501    0 -0.11065247143E+01  0.56532393009E+01 -0.49444175476E+02  0.50000000000E+02  0.47000000000E+01 0. -1.
         -5    1    3    3    0  501  0.11065247143E+01 -0.56532393009E+01  0.49444175476E+02  0.50000000000E+02  0.47000000000E+01 0.  1.
</event>
<event>
 5    1  0.8909620E-001  0.1000000E+03  0.7546771E-02  0.1163815E+00
         11   -1    0    0    0    0  0.00000000000E+00  0.00000000000E+00  0.50000000000E+02  0.50000000000E+02  0.00000000000E+00 0. -1.
        -11   -1    0    0    0    0 -0.00000000000E+00 -0.00000000000E+00 -0.50000000000E+02  0.50000000000E+02  0.00000000000E+00 0.  1.
         23    2    1    2    0    0  0.00000000000E+00  0.00000000000E+00  0.00000000000E+00  0.10000000000E+03  0.10000000000E+03 0.  0.
          5    1    3    3  501    0 -0.71820080467E+01  0.13329751503E+01  0.49239739415E+02  0.50000000000E+02  0.47000000000E+01 0. -1.
         -5    1    3    3    0  501  0.71820080467E+01 -0.13329751503E+01 -0.49239739415E+02  0.50000000000E+02  0.47000000000E+01 0.  1.
</event>
<event>
 5    1  0.8909620E-001  0.1000000E+03  0.7546771E-02  0.1163815E+00
         11   -1    0    0    0    0  0.00000000000E+00  0.00000000000E+00  0.50000000000E+02  0.50000000000E+02  0.00000000000E+00 0. -1.
        -11   -1    0    0    0    0 -0.00000000000E+00 -0.00000000000E+00 -0.50000000000E+02  0.50000000000E+02  0.00000000000E+00 0.  1.
         23    2    1    2    0    0  0.00000000000E+00  0.00000000000E+00  0.00000000000E+00  0.10000000000E+03  0.10000000000E+03 0.  0.
          5    1    3    3  501    0  0.42121079733E+02  0.24642843322E+01  0.26413101766E+02  0.50000000000E+02  0.47000000000E+01 0. -1.
         -5    1    3    3    0  501 -0.42121079733E+02 -0.24642843322E+01 -0.26413101766E+02  0.50000000000E+02  0.47000000000E+01 0.  1.
</event>
<event>
 5    1  0.8909620E-001  0.1000000E+03  0.7546771E-02  0.1163815E+00
         11   -1    0    0    0    0  0.00000000000E+00  0.00000000000E+00  0.50000000000E+02  0.50000000000E+02  0.00000000000E+00 0. -1.
        -11   -1    0    0    0    0 -0.00000000000E+00 -0.00000000000E+00 -0.50000000000E+02  0.50000000000E+02  0.00000000000E+00 0.  1.
         23    2    1    2    0    0  0.00000000000E+00  0.00000000000E+00  0.00000000000E+00  0.10000000000E+03  0.10000000000E+03 0.  0.
          5    1    3    3  501    0 -0.34856732415E+02 -0.29579678944E+02  0.19696720511E+02  0.50000000000E+02  0.47000000000E+01 0. -1.
         -5    1    3    3    0  501  0.34856732415E+02  0.29579678944E+02 -0.19696720511E+02  0.50000000000E+02  0.47000000000E+01 0.  1.
</event>
<event>
 5    1  0.8909620E-001  0.1000000E+03  0.7546771E-02  0.1163815E+00
         11   -1    0    0    0    0  0.00000000000E+00  0.00000000000E+00  0.50000000000E+02  0.50000000000E+02  0.00000000000E+00 0. -1.
        -11   -1    0    0    0    0 -0.00000000000E+00 -0.00000000000E+00 -0.50000000000E+02  0.50000000000E+02  0.00000000000E+00 0.  1.
         23    2    1    2    0    0  0.00000000000E+00  0.00000000000E+00  0.00000000000E+00  0.10000000000E+03  0.10000000000E+03 0.  0.
          5    1    3    3  501    0  0.31412374448E+02 -0.37251193201E+02  0.10174543557E+02  0.50000000000E+02  0.47000000000E+01 0. -1.
         -5    1    3    3    0  501 -0.31412374448E+02  0.37251193201E+02 -0.10174543557E+02  0.50000000000E+02  0.47000000000E+01 0.  1.
</event>
<event>
 5    1  0.8909620E-001  0.1000000E+03  0.7546771E-02  0.1163815E+00
         11   -1    0    0    0    0  0.00000000000E+00  0.00000000000E+00  0.50000000000E+02  0.50000000000E+02  0.00000000000E+00 0. -1.
        -11   -1    0    0    0    0 -0.00000000000E+00 -0.00000000000E+00 -0.50000000000E+02  0.50000000000E+02  0.00000000000E+00 0.  1.
         23    2    1    2    0    0  0.00000000000E+00  0.00000000000E+00  0.00000000000E+00  0.10000000000E+03  0.10000000000E+03 0.  0.
          5    1    3    3  501    0  0.13824179589E+02  0.27454355189E+02  0.39154315725E+02  0.50000000000E+02  0.47000000000E+01 0. -1.
         -5    1    3    3    0  501 -0.13824179589E+02 -0.27454355189E+02 -0.39154315725E+02  0.50000000000E+02  0.47000000000E+01 0.  1.
</event>
<event>
 5    1  0.8909620E-001  0.1000000E+03  0.7546771E-02  0.1163815E+00
         11   -1    0    0    0    0  0.00000000000E+00  0.00000000000E+00  0.50000000000E+02  0.50000000000E+02  0.00000000000E+00 0. -1.
        -11   -1    0    0    0    0 -0.00000000000E+00 -0.00000000000E+00 -0.50000000000E+02  0.50000000000E+02  0.00000000000E+00 0.  1.
         23    2    1    2    0    0  0.00000000000E+00  0.00000000000E+00  0.00000000000E+00  0.10000000000E+03  0.10000000000E+03 0.  0.
          5    1    3    3  501    0 -0.13597543276E+02  0.42867258176E+02  0.21340454383E+02  0.50000000000E+02  0.47000000000E+01 0. -1.
         -5    1    3    3    0  501  0.13597543276E+02 -0.42867258176E+02 -0.21340454383E+02  0.50000000000E+02  0.47000000000E+01 0.  1.
</event>
<event>
 5    1  0.8909620E-001  0.1000000E+03  0.7546771E-02  0.1163815E+00
         11   -1    0    0    0    0  0.00000000000E+00  0.00000000000E+00  0.50000000000E+02  0.50000000000E+02  0.00000000000E+00 0. -1.
        -11   -1    0    0    0    0 -0.00000000000E+00 -0.00000000000E+00 -0.50000000000E+02  0.50000000000E+02  0.00000000000E+00 0.  1.
         23    2    1    2    0    0  0.00000000000E+00  0.00000000000E+00  0.00000000000E+00  0.10000000000E+03  0.10000000000E+03 0.  0.
          5    1    3    3  501    0 -0.42519012408E+02  0.22050368742E+02  0.13558201288E+02  0.50000000000E+02  0.47000000000E+01 0. -1.
         -5    1    3    3    0  501  0.42519012408E+02 -0.22050368742E+02 -0.13558201288E+02  0.50000000000E+02  0.47000000000E+01 0.  1.
</event>
<event>
 5    1  0.8909620E-001  0.1000000E+03  0.7546771E-02  0.1163815E+00
         11   -1    0    0    0    0  0.00000000000E+00  0.00000000000E+00  0.50000000000E+02  0.50000000000E+02  0.00000000000E+00 0. -1.
        -11   -1    0    0    0    0 -0.00000000000E+00 -0.00000000000E+00 -0.50000000000E+02  0.50000000000E+02  0.00000000000E+00 0.  1.
         23    2    1    2    0    0  0.00000000000E+00  0.00000000000E+00  0.00000000000E+00  0.10000000000E+03  0.10000000000E+03 0.  0.
          5    1    3    3  501    0  0.32884516437E+02 -0.11596213950E+02  0.35525292409E+02  0.50000000000E+02  0.47000000000E+01 0. -1.
         -5    1    3    3    0  501 -0.32884516437E+02  0.11596213950E+02 -0.35525292409E+02  0.50000000000E+02  0.47000000000E+01 0.  1.
</event>
<event>
 5    1  0.8909620E-001  0.1000000E+03  0.7546771E-02  0.1163815E+00
         11   -1    0    0    0    0  0.00000000000E+00  0.00000000000E+00  0.50000000000E+02  0.50000000000E+02  0.00000000000E+00 0.  1.
        -11   -1    0    0    0    0 -0.00000000000E+00 -0.00000000000E+00 -0.50000000000E+02  0.50000000000E+02  0.00000000000E+00 0. -1.
         23    2    1    2    0    0  0.00000000000E+00  0.00000000000E+00  0.00000000000E+00  0.10000000000E+03  0.10000000000E+03 0.  0.
          5    1    3    3  501    0  0.47643571765E+02 -0.79415198854E+01 -0.12038784463E+02  0.50000000000E+02  0.47000000000E+01 0. -1.
         -5    1    3    3    0  501 -0.47643571765E+02  0.79415198854E+01  0.12038784463E+02  0.50000000000E+02  0.47000000000E+01 0.  1.
</event>
<event>
 5    1  0.8909620E-001  0.1000000E+03  0.7546771E-02  0.1163815E+00
         11   -1    0    0    0    0  0.00000000000E+00  0.00000000000E+00  0.50000000000E+02  0.50000000000E+02  0.00000000000E+00 0. -1.
        -11   -1    0    0    0    0 -0.00000000000E+00 -0.00000000000E+00 -0.50000000000E+02  0.50000000000E+02  0.00000000000E+00 0.  1.
         23    2    1    2    0    0  0.00000000000E+00  0.00000000000E+00  0.00000000000E+00  0.10000000000E+03  0.10000000000E+03 0.  0.
          5    1    3    3  501    0  0.22138644684E+02 -0.40970979969E+02  0.17583208238E+02  0.50000000000E+02  0.47000000000E+01 0. -1.
         -5    1    3    3    0  501 -0.22138644684E+02  0.40970979969E+02 -0.17583208238E+02  0.50000000000E+02  0.47000000000E+01 0.  1.
</event>
<event>
 5    1  0.8909620E-001  0.1000000E+03  0.7546771E-02  0.1163815E+00
         11   -1    0    0    0    0  0.00000000000E+00  0.00000000000E+00  0.50000000000E+02  0.50000000000E+02  0.00000000000E+00 0. -1.
        -11   -1    0    0    0    0 -0.00000000000E+00 -0.00000000000E+00 -0.50000000000E+02  0.50000000000E+02  0.00000000000E+00 0.  1.
         23    2    1    2    0    0  0.00000000000E+00  0.00000000000E+00  0.00000000000E+00  0.10000000000E+03  0.10000000000E+03 0.  0.
          5    1    3    3  501    0  0.24596622163E+02  0.43276930638E+02  0.15314273355E+00  0.50000000000E+02  0.47000000000E+01 0. -1.
         -5    1    3    3    0  501 -0.24596622163E+02 -0.43276930638E+02 -0.15314273355E+00  0.50000000000E+02  0.47000000000E+01 0.  1.
</event>
<event>
 5    1  0.8909620E-001  0.1000000E+03  0.7546771E-02  0.1163815E+00
         11   -1    0    0    0    0  0.00000000000E+00  0.00000000000E+00  0.50000000000E+02  0.50000000000E+02  0.00000000000E+00 0. -1.
        -11   -1    0    0    0    0 -0.00000000000E+00 -0.00000000000E+00 -0.50000000000E+02  0.50000000000E+02  0.00000000000E+00 0.  1.
         23    2    1    2    0    0  0.00000000000E+00  0.00000000000E+00  0.00000000000E+00  0.10000000000E+03  0.10000000000E+03 0.  0.
          5    1    3    3  501    0 -0.22982722280E+02  0.43966168362E+02  0.40841787613E+01  0.50000000000E+02  0.47000000000E+01 0. -1.
         -5    1    3    3    0  501  0.22982722280E+02 -0.43966168362E+02 -0.40841787613E+01  0.50000000000E+02  0.47000000000E+01 0.  1.
</event>
<event>
 5    1  0.8909620E-001  0.1000000E+03  0.7546771E-02  0.1163815E+00
         11   -1    0    0    0    0  0.00000000000E+00  0.00000000000E+00  0.50000000000E+02  0.50000000000E+02  0.00000000000E+00 0. -1.
        -11   -1    0    0    0    0 -0.00000000000E+00 -0.00000000000E+00 -0.50000000000E+02  0.50000000000E+02  0.00000000000E+00 0.  1.
         23    2    1    2    0    0  0.00000000000E+00  0.00000000000E+00  0.00000000000E+00  0.10000000000E+03  0.10000000000E+03 0.  0.
          5    1    3    3  501    0  0.29214222563E+02 -0.38929086414E+02  0.10438650823E+02  0.50000000000E+02  0.47000000000E+01 0. -1.
         -5    1    3    3    0  501 -0.29214222563E+02  0.38929086414E+02 -0.10438650823E+02  0.50000000000E+02  0.47000000000E+01 0.  1.
</event>
<event>
 5    1  0.8909620E-001  0.1000000E+03  0.7546771E-02  0.1163815E+00
         11   -1    0    0    0    0  0.00000000000E+00  0.00000000000E+00  0.50000000000E+02  0.50000000000E+02  0.00000000000E+00 0. -1.
        -11   -1    0    0    0    0 -0.00000000000E+00 -0.00000000000E+00 -0.50000000000E+02  0.50000000000E+02  0.00000000000E+00 0.  1.
         23    2    1    2    0    0  0.00000000000E+00  0.00000000000E+00  0.00000000000E+00  0.10000000000E+03  0.10000000000E+03 0.  0.
          5    1    3    3  501    0 -0.32293602618E+02 -0.13289083236E+01  0.37858515985E+02  0.50000000000E+02  0.47000000000E+01 0. -1.
         -5    1    3    3    0  501  0.32293602618E+02  0.13289083236E+01 -0.37858515985E+02  0.50000000000E+02  0.47000000000E+01 0.  1.
</event>
<event>
 5    1  0.8909620E-001  0.1000000E+03  0.7546771E-02  0.1163815E+00
         11   -1    0    0    0    0  0.00000000000E+00  0.00000000000E+00  0.50000000000E+02  0.50000000000E+02  0.00000000000E+00 0. -1.
        -11   -1    0    0    0    0 -0.00000000000E+00 -0.00000000000E+00 -0.50000000000E+02  0.50000000000E+02  0.00000000000E+00 0.  1.
         23    2    1    2    0    0  0.00000000000E+00  0.00000000000E+00  0.00000000000E+00  0.10000000000E+03  0.10000000000E+03 0.  0.
          5    1    3    3  501    0 -0.52499211749E+01 -0.47809058647E+02  0.12831299192E+02  0.50000000000E+02  0.47000000000E+01 0. -1.
         -5    1    3    3    0  501  0.52499211749E+01  0.47809058647E+02 -0.12831299192E+02  0.50000000000E+02  0.47000000000E+01 0.  1.
</event>
<event>
 5    1  0.8909620E-001  0.1000000E+03  0.7546771E-02  0.1163815E+00
         11   -1    0    0    0    0  0.00000000000E+00  0.00000000000E+00  0.50000000000E+02  0.50000000000E+02  0.00000000000E+00 0.  1.
        -11   -1    0    0    0    0 -0.00000000000E+00 -0.00000000000E+00 -0.50000000000E+02  0.50000000000E+02  0.00000000000E+00 0. -1.
         23    2    1    2    0    0  0.00000000000E+00  0.00000000000E+00  0.00000000000E+00  0.10000000000E+03  0.10000000000E+03 0.  0.
          5    1    3    3  501    0  0.12328389144E+02 -0.44385085002E+02 -0.18864915861E+02  0.50000000000E+02  0.47000000000E+01 0. -1.
         -5    1    3    3    0  501 -0.12328389144E+02  0.44385085002E+02  0.18864915861E+02  0.50000000000E+02  0.47000000000E+01 0.  1.
</event>
<event>
 5    1  0.8909620E-001  0.1000000E+03  0.7546771E-02  0.1163815E+00
         11   -1    0    0    0    0  0.00000000000E+00  0.00000000000E+00  0.50000000000E+02  0.50000000000E+02  0.00000000000E+00 0.  1.
        -11   -1    0    0    0    0 -0.00000000000E+00 -0.00000000000E+00 -0.50000000000E+02  0.50000000000E+02  0.00000000000E+00 0. -1.
         23    2    1    2    0    0  0.00000000000E+00  0.00000000000E+00  0.00000000000E+00  0.10000000000E+03  0.10000000000E+03 0.  0.
          5    1    3    3  501    0 -0.33351184723E+02 -0.19322574737E+02 -0.31499945764E+02  0.50000000000E+02  0.47000000000E+01 0. -1.
         -5    1    3    3    0  501  0.33351184723E+02  0.19322574737E+02  0.31499945764E+02  0.50000000000E+02  0.47000000000E+01 0.  1.
</event>
<event>
 5    1  0.8909620E-001  0.1000000E+03  0.7546771E-02  0.1163815E+00
         11   -1    0    0    0    0  0.00000000000E+00  0.00000000000E+00  0.50000000000E+02  0.50000000000E+02  0.00000000000E+00 0. -1.
        -11   -1    0    0    0    0 -0.00000000000E+00 -0.00000000000E+00 -0.50000000000E+02  0.50000000000E+02  0.00000000000E+00 0.  1.
         23    2    1    2    0    0  0.00000000000E+00  0.00000000000E+00  0.00000000000E+00  0.10000000000E+03  0.10000000000E+03 0.  0.
          5    1    3    3  501    0 -0.24397873858E+02  0.18664931039E+01  0.43349393937E+02  0.50000000000E+02  0.47000000000E+01 0. -1.
         -5    1    3    3    0  501  0.24397873858E+02 -0.18664931039E+01 -0.43349393937E+02  0.50000000000E+02  0.47000000000E+01 0.  1.
</event>
<event>
 5    1  0.8909620E-001  0.1000000E+03  0.7546771E-02  0.1163815E+00
         11   -1    0    0    0    0  0.00000000000E+00  0.00000000000E+00  0.50000000000E+02  0.50000000000E+02  0.00000000000E+00 0. -1.
        -11   -1    0    0    0    0 -0.00000000000E+00 -0.00000000000E+00 -0.50000000000E+02  0.50000000000E+02  0.00000000000E+00 0.  1.
         23    2    1    2    0    0  0.00000000000E+00  0.00000000000E+00  0.00000000000E+00  0.10000000000E+03  0.10000000000E+03 0.  0.
          5    1    3    3  501    0 -0.29853653788E+02  0.12865259763E+02  0.37698202168E+02  0.50000000000E+02  0.47000000000E+01 0. -1.
         -5    1    3    3    0  501  0.29853653788E+02 -0.12865259763E+02 -0.37698202168E+02  0.50000000000E+02  0.47000000000E+01 0.  1.
</event>
<event>
 5    1  0.8909620E-001  0.1000000E+03  0.7546771E-02  0.1163815E+00
         11   -1    0    0    0    0  0.00000000000E+00  0.00000000000E+00  0.50000000000E+02  0.50000000000E+02  0.00000000000E+00 0. -1.
        -11   -1    0    0    0    0 -0.00000000000E+00 -0.00000000000E+00 -0.50000000000E+02  0.50000000000E+02  0.00000000000E+00 0.  1.
         23    2    1    2    0    0  0.00000000000E+00  0.00000000000E+00  0.00000000000E+00  0.10000000000E+03  0.10000000000E+03 0.  0.
          5    1    3    3  501    0 -0.29348245418E+01 -0.22508618097E+02  0.44301906463E+02  0.50000000000E+02  0.47000000000E+01 0. -1.
         -5    1    3    3    0  501  0.29348245418E+01  0.22508618097E+02 -0.44301906463E+02  0.50000000000E+02  0.47000000000E+01 0.  1.
</event>
<event>
 5    1  0.8909620E-001  0.1000000E+03  0.7546771E-02  0.1163815E+00
         11   -1    0    0    0    0  0.00000000000E+00  0.00000000000E+00  0.50000000000E+02  0.50000000000E+02  0.00000000000E+00 0.  1.
        -11   -1    0    0    0    0 -0.00000000000E+00 -0.00000000000E+00 -0.50000000000E+02  0.50000000000E+02  0.00000000000E+00 0. -1.
         23    2    1    2    0    0  0.00000000000E+00  0.00000000000E+00  0.00000000000E+00  0.10000000000E+03  0.10000000000E+03 0.  0.
          5    1    3    3  501    0 -0.42459468070E+02 -0.10784224990E+02 -0.23639036838E+02  0.50000000000E+02  0.47000000000E+01 0.  1.
         -5    1    3    3    0  501  0.42459468070E+02  0.10784224990E+02  0.23639036838E+02  0.50000000000E+02  0.47000000000E+01 0.  1.
</event>
<event>
 5    1  0.8909620E-001  0.1000000E+03  0.7546771E-02  0.1163815E+00
         11   -1    0    0    0    0  0.00000000000E+00  0.00000000000E+00  0.50000000000E+02  0.50000000000E+02  0.00000000000E+00 0.  1.
        -11   -1    0    0    0    0 -0.00000000000E+00 -0.00000000000E+00 -0.50000000000E+02  0.50000000000E+02  0.00000000000E+00 0. -1.
         23    2    1    2    0    0  0.00000000000E+00  0.00000000000E+00  0.00000000000E+00  0.10000000000E+03  0.10000000000E+03 0.  0.
          5    1    3    3  501    0 -0.43738711068E+02 -0.68874158573E+01 -0.22746398769E+02  0.50000000000E+02  0.47000000000E+01 0. -1.
         -5    1    3    3    0  501  0.43738711068E+02  0.68874158573E+01  0.22746398769E+02  0.50000000000E+02  0.47000000000E+01 0.  1.
</event>
<event>
 5    1  0.8909620E-001  0.1000000E+03  0.7546771E-02  0.1163815E+00
         11   -1    0    0    0    0  0.00000000000E+00  0.00000000000E+00  0.50000000000E+02  0.50000000000E+02  0.00000000000E+00 0.  1.
        -11   -1    0    0    0    0 -0.00000000000E+00 -0.00000000000E+00 -0.50000000000E+02  0.50000000000E+02  0.00000000000E+00 0. -1.
         23    2    1    2    0    0  0.00000000000E+00  0.00000000000E+00  0.00000000000E+00  0.10000000000E+03  0.10000000000E+03 0.  0.
          5    1    3    3  501    0  0.13152580981E+02  0.21728936794E+02 -0.42810897203E+02  0.50000000000E+02  0.47000000000E+01 0. -1.
         -5    1    3    3    0  501 -0.13152580981E+02 -0.21728936794E+02  0.42810897203E+02  0.50000000000E+02  0.47000000000E+01 0.  1.
</event>
<event>
 5    1  0.8909620E-001  0.1000000E+03  0.7546771E-02  0.1163815E+00
         11   -1    0    0    0    0  0.00000000000E+00  0.00000000000E+00  0.50000000000E+02  0.50000000000E+02  0.00000000000E+00 0.  1.
        -11   -1    0    0    0    0 -0.00000000000E+00 -0.00000000000E+00 -0.50000000000E+02  0.50000000000E+02  0.00000000000E+00 0. -1.
         23    2    1    2    0    0  0.00000000000E+00  0.00000000000E+00  0.00000000000E+00  0.10000000000E+03  0.10000000000E+03 0.  0.
          5    1    3    3  501    0 -0.91398691579E+01  0.38068814358E+02 -0.30743099472E+02  0.50000000000E+02  0.47000000000E+01 0. -1.
         -5    1    3    3    0  501  0.91398691579E+01 -0.38068814358E+02  0.30743099472E+02  0.50000000000E+02  0.47000000000E+01 0.  1.
</event>
<event>
 5    1  0.8909620E-001  0.1000000E+03  0.7546771E-02  0.1163815E+00
         11   -1    0    0    0    0  0.00000000000E+00  0.00000000000E+00  0.50000000000E+02  0.50000000000E+02  0.00000000000E+00 0. -1.
        -11   -1    0    0    0    0 -0.00000000000E+00 -0.00000000000E+00 -0.50000000000E+02  0.50000000000E+02  0.00000000000E+00 0.  1.
         23    2    1    2    0    0  0.00000000000E+00  0.00000000000E+00  0.00000000000E+00  0.10000000000E+03  0.10000000000E+03 0.  0.
          5    1    3    3  501    0  0.16549186553E+02  0.30872300713E+01  0.46845527374E+02  0.50000000000E+02  0.47000000000E+01 0. -1.
         -5    1    3    3    0  501 -0.16549186553E+02 -0.30872300713E+01 -0.46845527374E+02  0.50000000000E+02  0.47000000000E+01 0.  1.
</event>
<event>
 5    1  0.8909620E-001  0.1000000E+03  0.7546771E-02  0.1163815E+00
         11   -1    0    0    0    0  0.00000000000E+00  0.00000000000E+00  0.50000000000E+02  0.50000000000E+02  0.00000000000E+00 0. -1.
        -11   -1    0    0    0    0 -0.00000000000E+00 -0.00000000000E+00 -0.50000000000E+02  0.50000000000E+02  0.00000000000E+00 0.  1.
         23    2    1    2    0    0  0.00000000000E+00  0.00000000000E+00  0.00000000000E+00  0.10000000000E+03  0.10000000000E+03 0.  0.
          5    1    3    3  501    0 -0.28806821972E+02 -0.23751706339E+02 -0.32923144653E+02  0.50000000000E+02  0.47000000000E+01 0. -1.
         -5    1    3    3    0  501  0.28806821972E+02  0.23751706339E+02  0.32923144653E+02  0.50000000000E+02  0.47000000000E+01 0.  1.
</event>
<event>
 5    1  0.8909620E-001  0.1000000E+03  0.7546771E-02  0.1163815E+00
         11   -1    0    0    0    0  0.00000000000E+00  0.00000000000E+00  0.50000000000E+02  0.50000000000E+02  0.00000000000E+00 0. -1.
        -11   -1    0    0    0    0 -0.00000000000E+00 -0.00000000000E+00 -0.50000000000E+02  0.50000000000E+02  0.00000000000E+00 0.  1.
         23    2    1    2    0    0  0.00000000000E+00  0.00000000000E+00  0.00000000000E+00  0.10000000000E+03  0.10000000000E+03 0.  0.
          5    1    3    3  501    0 -0.85203536091E+01 -0.44666464883E+02  0.20253900593E+02  0.50000000000E+02  0.47000000000E+01 0. -1.
         -5    1    3    3    0  501  0.85203536091E+01  0.44666464883E+02 -0.20253900593E+02  0.50000000000E+02  0.47000000000E+01 0.  1.
</event>
<event>
 5    1  0.8909620E-001  0.1000000E+03  0.7546771E-02  0.1163815E+00
         11   -1    0    0    0    0  0.00000000000E+00  0.00000000000E+00  0.50000000000E+02  0.50000000000E+02  0.00000000000E+00 0. -1.
        -11   -1    0    0    0    0 -0.00000000000E+00 -0.00000000000E+00 -0.50000000000E+02  0.50000000000E+02  0.00000000000E+00 0.  1.
         23    2    1    2    0    0  0.00000000000E+00  0.00000000000E+00  0.00000000000E+00  0.10000000000E+03  0.10000000000E+03 0.  0.
          5    1    3    3  501    0  0.22981213794E+01 -0.21172394617E+02  0.44992869928E+02  0.50000000000E+02  0.47000000000E+01 0. -1.
         -5    1    3    3    0  501 -0.22981213794E+01  0.21172394617E+02 -0.44992869928E+02  0.50000000000E+02  0.47000000000E+01 0.  1.
</event>
<event>
 5    1  0.8909620E-001  0.1000000E+03  0.7546771E-02  0.1163815E+00
         11   -1    0    0    0    0  0.00000000000E+00  0.00000000000E+00  0.50000000000E+02  0.50000000000E+02  0.00000000000E+00 0.  1.
        -11   -1    0    0    0    0 -0.00000000000E+00 -0.00000000000E+00 -0.50000000000E+02  0.50000000000E+02  0.00000000000E+00 0. -1.
         23    2    1    2    0    0  0.00000000000E+00  0.00000000000E+00  0.00000000000E+00  0.10000000000E+03  0.10000000000E+03 0.  0.
          5    1    3    3  501    0 -0.18835621218E+02 -0.18978196049E+02 -0.41987586833E+02  0.50000000000E+02  0.47000000000E+01 0. -1.
         -5    1    3    3    0  501  0.18835621218E+02  0.18978196049E+02  0.41987586833E+02  0.50000000000E+02  0.47000000000E+01 0.  1.
</event>
<event>
 5    1  0.8909620E-001  0.1000000E+03  0.7546771E-02  0.1163815E+00
         11   -1    0    0    0    0  0.00000000000E+00  0.00000000000E+00  0.50000000000E+02  0.50000000000E+02  0.00000000000E+00 0.  1.
        -11   -1    0    0    0    0 -0.00000000000E+00 -0.00000000000E+00 -0.50000000000E+02  0.50000000000E+02  0.00000000000E+00 0. -1.
         23    2    1    2    0    0  0.00000000000E+00  0.00000000000E+00  0.00000000000E+00  0.10000000000E+03  0.10000000000E+03 0.  0.
          5    1    3    3  501    0  0.27077028506E+00  0.10103551773E+02 -0.48741716476E+02  0.50000000000E+02  0.47000000000E+01 0. -1.
         -5    1    3    3    0  501 -0.27077028506E+00 -0.10103551773E+02  0.48741716476E+02  0.50000000000E+02  0.47000000000E+01 0.  1.
</event>
<event>
 5    1  0.8909620E-001  0.1000000E+03  0.7546771E-02  0.1163815E+00
         11   -1    0    0    0    0  0.00000000000E+00  0.00000000000E+00  0.50000000000E+02  0.50000000000E+02  0.00000000000E+00 0. -1.
        -11   -1    0    0    0    0 -0.00000000000E+00 -0.00000000000E+00 -0.50000000000E+02  0.50000000000E+02  0.00000000000E+00 0.  1.
         23    2    1    2    0    0  0.00000000000E+00  0.00000000000E+00  0.00000000000E+00  0.10000000000E+03  0.10000000000E+03 0.  0.
          5    1    3    3  501    0 -0.23274428068E+02  0.43885759968E+02  0.32017292416E+01  0.50000000000E+02  0.47000000000E+01 0. -1.
         -5    1    3    3    0  501  0.23274428068E+02 -0.43885759968E+02 -0.32017292416E+01  0.50000000000E+02  0.47000000000E+01 0.  1.
</event>
<event>
 5    1  0.8909620E-001  0.1000000E+03  0.7546771E-02  0.1163815E+00
         11   -1    0    0    0    0  0.00000000000E+00  0.00000000000E+00  0.50000000000E+02  0.50000000000E+02  0.00000000000E+00 0. -1.
        -11   -1    0    0    0    0 -0.00000000000E+00 -0.00000000000E+00 -0.50000000000E+02  0.50000000000E+02  0.00000000000E+00 0.  1.
         23    2    1    2    0    0  0.00000000000E+00  0.00000000000E+00  0.00000000000E+00  0.10000000000E+03  0.10000000000E+03 0.  0.
          5    1    3    3  501    0 -0.58216880962E+01 -0.46548712597E+02  0.16650384479E+02  0.50000000000E+02  0.47000000000E+01 0. -1.
         -5    1    3    3    0  501  0.58216880962E+01  0.46548712597E+02 -0.16650384479E+02  0.50000000000E+02  0.47000000000E+01 0.  1.
</event>
<event>
 5    1  0.8909620E-001  0.1000000E+03  0.7546771E-02  0.1163815E+00
         11   -1    0    0    0    0  0.00000000000E+00  0.00000000000E+00  0.50000000000E+02  0.50000000000E+02  0.00000000000E+00 0.  1.
        -11   -1    0    0    0    0 -0.00000000000E+00 -0.00000000000E+00 -0.50000000000E+02  0.50000000000E+02  0.00000000000E+00 0. -1.
         23    2    1    2    0    0  0.00000000000E+00  0.00000000000E+00  0.00000000000E+00  0.10000000000E+03  0.10000000000E+03 0.  0.
          5    1    3    3  501    0 -0.27405780098E+02 -0.28255359143E+02 -0.30470771190E+02  0.50000000000E+02  0.47000000000E+01 0. -1.
         -5    1    3    3    0  501  0.27405780098E+02  0.28255359143E+02  0.30470771190E+02  0.50000000000E+02  0.47000000000E+01 0.  1.
</event>
<event>
 5    1  0.8909620E-001  0.1000000E+03  0.7546771E-02  0.1163815E+00
         11   -1    0    0    0    0  0.00000000000E+00  0.00000000000E+00  0.50000000000E+02  0.50000000000E+02  0.00000000000E+00 0. -1.
        -11   -1    0    0    0    0 -0.00000000000E+00 -0.00000000000E+00 -0.50000000000E+02  0.50000000000E+02  0.00000000000E+00 0.  1.
         23    2    1    2    0    0  0.00000000000E+00  0.00000000000E+00  0.00000000000E+00  0.10000000000E+03  0.10000000000E+03 0.  0.
          5    1    3    3  501    0 -0.18089999867E+02 -0.45524055084E-01  0.46375207087E+02  0.50000000000E+02  0.47000000000E+01 0. -1.
         -5    1    3    3    0  501  0.18089999867E+02  0.45524055084E-01 -0.46375207087E+02  0.50000000000E+02  0.47000000000E+01 0.  1.
</event>
<event>
 5    1  0.8909620E-001  0.1000000E+03  0.7546771E-02  0.1163815E+00
         11   -1    0    0    0    0  0.00000000000E+00  0.00000000000E+00  0.50000000000E+02  0.50000000000E+02  0.00000000000E+00 0.  1.
        -11   -1    0    0    0    0 -0.00000000000E+00 -0.00000000000E+00 -0.50000000000E+02  0.50000000000E+02  0.00000000000E+00 0. -1.
         23    2    1    2    0    0  0.00000000000E+00  0.00000000000E+00  0.00000000000E+00  0.10000000000E+03  0.10000000000E+03 0.  0.
          5    1    3    3  501    0  0.83773188243E+01 -0.46272483976E+02 -0.16327515304E+02  0.50000000000E+02  0.47000000000E+01 0. -1.
         -5    1    3    3    0  501 -0.83773188243E+01  0.46272483976E+02  0.16327515304E+02  0.50000000000E+02  0.47000000000E+01 0.  1.
</event>
<event>
 5    1  0.8909620E-001  0.1000000E+03  0.7546771E-02  0.1163815E+00
         11   -1    0    0    0    0  0.00000000000E+00  0.00000000000E+00  0.50000000000E+02  0.50000000000E+02  0.00000000000E+00 0.  1.
        -11   -1    0    0    0    0 -0.00000000000E+00 -0.00000000000E+00 -0.50000000000E+02  0.50000000000E+02  0.00000000000E+00 0. -1.
         23    2    1    2    0    0  0.00000000000E+00  0.00000000000E+00  0.00000000000E+00  0.10000000000E+03  0.10000000000E+03 0.  0.
          5    1    3    3  501    0  0.36647784027E+02  0.10747828125E+02 -0.31927012332E+02  0.50000000000E+02  0.47000000000E+01 0. -1.
         -5    1    3    3    0  501 -0.36647784027E+02 -0.10747828125E+02  0.31927012332E+02  0.50000000000E+02  0.47000000000E+01 0.  1.
</event>
<event>
 5    1  0.8909620E-001  0.1000000E+03  0.7546771E-02  0.1163815E+00
         11   -1    0    0    0    0  0.00000000000E+00  0.00000000000E+00  0.50000000000E+02  0.50000000000E+02  0.00000000000E+00 0.  1.
        -11   -1    0    0    0    0 -0.00000000000E+00 -0.00000000000E+00 -0.50000000000E+02  0.50000000000E+02  0.00000000000E+00 0. -1.
         23    2    1    2    0    0  0.00000000000E+00  0.00000000000E+00  0.00000000000E+00  0.10000000000E+03  0.10000000000E+03 0.  0.
          5    1    3    3  501    0 -0.42721328734E+02  0.18697957680E+02 -0.17412192562E+02  0.50000000000E+02  0.47000000000E+01 0. -1.
         -5    1    3    3    0  501  0.42721328734E+02 -0.18697957680E+02  0.17412192562E+02  0.50000000000E+02  0.47000000000E+01 0.  1.
</event>
<event>
 5    1  0.8909620E-001  0.1000000E+03  0.7546771E-02  0.1163815E+00
         11   -1    0    0    0    0  0.00000000000E+00  0.00000000000E+00  0.50000000000E+02  0.50000000000E+02  0.00000000000E+00 0.  1.
        -11   -1    0    0    0    0 -0.00000000000E+00 -0.00000000000E+00 -0.50000000000E+02  0.50000000000E+02  0.00000000000E+00 0. -1.
         23    2    1    2    0    0  0.00000000000E+00  0.00000000000E+00  0.00000000000E+00  0.10000000000E+03  0.10000000000E+03 0.  0.
          5    1    3    3  501    0  0.45386769692E+02  0.67925761730E+01 -0.19282428422E+02  0.50000000000E+02  0.47000000000E+01 0. -1.
         -5    1    3    3    0  501 -0.45386769692E+02 -0.67925761730E+01  0.19282428422E+02  0.50000000000E+02  0.47000000000E+01 0.  1.
</event>
<event>
 5    1  0.8909620E-001  0.1000000E+03  0.7546771E-02  0.1163815E+00
         11   -1    0    0    0    0  0.00000000000E+00  0.00000000000E+00  0.50000000000E+02  0.50000000000E+02  0.00000000000E+00 0. -1.
        -11   -1    0    0    0    0 -0.00000000000E+00 -0.00000000000E+00 -0.50000000000E+02  0.50000000000E+02  0.00000000000E+00 0.  1.
         23    2    1    2    0    0  0.00000000000E+00  0.00000000000E+00  0.00000000000E+00  0.10000000000E+03  0.10000000000E+03 0.  0.
          5    1    3    3  501    0  0.43987073340E+02 -0.68761513395E+01  0.22265801619E+02  0.50000000000E+02  0.47000000000E+01 0. -1.
         -5    1    3    3    0  501 -0.43987073340E+02  0.68761513395E+01 -0.22265801619E+02  0.50000000000E+02  0.47000000000E+01 0.  1.
</event>
<event>
 5    1  0.8909620E-001  0.1000000E+03  0.7546771E-02  0.1163815E+00
         11   -1    0    0    0    0  0.00000000000E+00  0.00000000000E+00  0.50000000000E+02  0.50000000000E+02  0.00000000000E+00 0.  1.
        -11   -1    0    0    0    0 -0.00000000000E+00 -0.00000000000E+00 -0.50000000000E+02  0.50000000000E+02  0.00000000000E+00 0. -1.
         23    2    1    2    0    0  0.00000000000E+00  0.00000000000E+00  0.00000000000E+00  0.10000000000E+03  0.10000000000E+03 0.  0.
          5    1    3    3  501    0 -0.12273389340E+02 -0.29396727280E+02 -0.38250573059E+02  0.50000000000E+02  0.47000000000E+01 0. -1.
         -5    1    3    3    0  501  0.12273389340E+02  0.29396727280E+02  0.38250573059E+02  0.50000000000E+02  0.47000000000E+01 0.  1.
</event>
<event>
 5    1  0.8909620E-001  0.1000000E+03  0.7546771E-02  0.1163815E+00
         11   -1    0    0    0    0  0.00000000000E+00  0.00000000000E+00  0.50000000000E+02  0.50000000000E+02  0.00000000000E+00 0. -1.
        -11   -1    0    0    0    0 -0.00000000000E+00 -0.00000000000E+00 -0.50000000000E+02  0.50000000000E+02  0.00000000000E+00 0.  1.
         23    2    1    2    0    0  0.00000000000E+00  0.00000000000E+00  0.00000000000E+00  0.10000000000E+03  0.10000000000E+03 0.  0.
          5    1    3    3  501    0  0.13311966763E+02  0.87183893304E+01  0.47166632574E+02  0.50000000000E+02  0.47000000000E+01 0. -1.
         -5    1    3    3    0  501 -0.13311966763E+02 -0.87183893304E+01 -0.47166632574E+02  0.50000000000E+02  0.47000000000E+01 0.  1.
</event>
<event>
 5    1  0.8909620E-001  0.1000000E+03  0.7546771E-02  0.1163815E+00
         11   -1    0    0    0    0  0.00000000000E+00  0.00000000000E+00  0.50000000000E+02  0.50000000000E+02  0.00000000000E+00 0. -1.
        -11   -1    0    0    0    0 -0.00000000000E+00 -0.00000000000E+00 -0.50000000000E+02  0.50000000000E+02  0.00000000000E+00 0.  1.
         23    2    1    2    0    0  0.00000000000E+00  0.00000000000E+00  0.00000000000E+00  0.10000000000E+03  0.10000000000E+03 0.  0.
          5    1    3    3  501    0  0.16220658314E+02 -0.38953611403E+02  0.26408642573E+02  0.50000000000E+02  0.47000000000E+01 0. -1.
         -5    1    3    3    0  501 -0.16220658314E+02  0.38953611403E+02 -0.26408642573E+02  0.50000000000E+02  0.47000000000E+01 0.  1.
</event>
<event>
 5    1  0.8909620E-001  0.1000000E+03  0.7546771E-02  0.1163815E+00
         11   -1    0    0    0    0  0.00000000000E+00  0.00000000000E+00  0.50000000000E+02  0.50000000000E+02  0.00000000000E+00 0.  1.
        -11   -1    0    0    0    0 -0.00000000000E+00 -0.00000000000E+00 -0.50000000000E+02  0.50000000000E+02  0.00000000000E+00 0. -1.
         23    2    1    2    0    0  0.00000000000E+00  0.00000000000E+00  0.00000000000E+00  0.10000000000E+03  0.10000000000E+03 0.  0.
          5    1    3    3  501    0  0.21653824787E+02 -0.18675713892E+02 -0.40746037632E+02  0.50000000000E+02  0.47000000000E+01 0. -1.
         -5    1    3    3    0  501 -0.21653824787E+02  0.18675713892E+02  0.40746037632E+02  0.50000000000E+02  0.47000000000E+01 0.  1.
</event>
<event>
 5    1  0.8909620E-001  0.1000000E+03  0.7546771E-02  0.1163815E+00
         11   -1    0    0    0    0  0.00000000000E+00  0.00000000000E+00  0.50000000000E+02  0.50000000000E+02  0.00000000000E+00 0. -1.
        -11   -1    0    0    0    0 -0.00000000000E+00 -0.00000000000E+00 -0.50000000000E+02  0.50000000000E+02  0.00000000000E+00 0.  1.
         23    2    1    2    0    0  0.00000000000E+00  0.00000000000E+00  0.00000000000E+00  0.10000000000E+03  0.10000000000E+03 0.  0.
          5    1    3    3  501    0  0.17197277526E+02 -0.17608303054E+02  0.43267901605E+02  0.50000000000E+02  0.47000000000E+01 0. -1.
         -5    1    3    3    0  501 -0.17197277526E+02  0.17608303054E+02 -0.43267901605E+02  0.50000000000E+02  0.47000000000E+01 0.  1.
</event>
<event>
 5    1  0.8909620E-001  0.1000000E+03  0.7546771E-02  0.1163815E+00
         11   -1    0    0    0    0  0.00000000000E+00  0.00000000000E+00  0.50000000000E+02  0.50000000000E+02  0.00000000000E+00 0.  1.
        -11   -1    0    0    0    0 -0.00000000000E+00 -0.00000000000E+00 -0.50000000000E+02  0.50000000000E+02  0.00000000000E+00 0. -1.
         23    2    1    2    0    0  0.00000000000E+00  0.00000000000E+00  0.00000000000E+00  0.10000000000E+03  0.10000000000E+03 0.  0.
          5    1    3    3  501    0  0.69964935401E+01  0.47663437982E+02 -0.12536177962E+02  0.50000000000E+02  0.47000000000E+01 0. -1.
         -5    1    3    3    0  501 -0.69964935401E+01 -0.47663437982E+02  0.12536177962E+02  0.50000000000E+02  0.47000000000E+01 0.  1.
</event>
<event>
 5    1  0.8909620E-001  0.1000000E+03  0.7546771E-02  0.1163815E+00
         11   -1    0    0    0    0  0.00000000000E+00  0.00000000000E+00  0.50000000000E+02  0.50000000000E+02  0.00000000000E+00 0. -1.
        -11   -1    0    0    0    0 -0.00000000000E+00 -0.00000000000E+00 -0.50000000000E+02  0.50000000000E+02  0.00000000000E+00 0.  1.
         23    2    1    2    0    0  0.00000000000E+00  0.00000000000E+00  0.00000000000E+00  0.10000000000E+03  0.10000000000E+03 0.  0.
          5    1    3    3  501    0 -0.78810974184E+01 -0.46422465922E+02  0.16147846951E+02  0.50000000000E+02  0.47000000000E+01 0. -1.
         -5    1    3    3    0  501  0.78810974184E+01  0.46422465922E+02 -0.16147846951E+02  0.50000000000E+02  0.47000000000E+01 0.  1.
</event>
<event>
 5    1  0.8909620E-001  0.1000000E+03  0.7546771E-02  0.1163815E+00
         11   -1    0    0    0    0  0.00000000000E+00  0.00000000000E+00  0.50000000000E+02  0.50000000000E+02  0.00000000000E+00 0. -1.
        -11   -1    0    0    0    0 -0.00000000000E+00 -0.00000000000E+00 -0.50000000000E+02  0.50000000000E+02  0.00000000000E+00 0.  1.
         23    2    1    2    0    0  0.00000000000E+00  0.00000000000E+00  0.00000000000E+00  0.10000000000E+03  0.10000000000E+03 0.  0.
          5    1    3    3  501    0 -0.43478947882E+01  0.39532938494E+02  0.29935807739E+02  0.50000000000E+02  0.47000000000E+01 0. -1.
         -5    1    3    3    0  501  0.43478947882E+01 -0.39532938494E+02 -0.29935807739E+02  0.50000000000E+02  0.47000000000E+01 0.  1.
</event>
<event>
 5    1  0.8909620E-001  0.1000000E+03  0.7546771E-02  0.1163815E+00
         11   -1    0    0    0    0  0.00000000000E+00  0.00000000000E+00  0.50000000000E+02  0.50000000000E+02  0.00000000000E+00 0. -1.
        -11   -1    0    0    0    0 -0.00000000000E+00 -0.00000000000E+00 -0.50000000000E+02  0.50000000000E+02  0.00000000000E+00 0.  1.
         23    2    1    2    0    0  0.00000000000E+00  0.00000000000E+00  0.00000000000E+00  0.10000000000E+03  0.10000000000E+03 0.  0.
          5    1    3    3  501    0 -0.35833957285E+02 -0.30257995816E+02  0.16682062058E+02  0.50000000000E+02  0.47000000000E+01 0. -1.
         -5    1    3    3    0  501  0.35833957285E+02  0.30257995816E+02 -0.16682062058E+02  0.50000000000E+02  0.47000000000E+01 0.  1.
</event>
<event>
 5    1  0.8909620E-001  0.1000000E+03  0.7546771E-02  0.1163815E+00
         11   -1    0    0    0    0  0.00000000000E+00  0.00000000000E+00  0.50000000000E+02  0.50000000000E+02  0.00000000000E+00 0. -1.
        -11   -1    0    0    0    0 -0.00000000000E+00 -0.00000000000E+00 -0.50000000000E+02  0.50000000000E+02  0.00000000000E+00 0.  1.
         23    2    1    2    0    0  0.00000000000E+00  0.00000000000E+00  0.00000000000E+00  0.10000000000E+03  0.10000000000E+03 0.  0.
          5    1    3    3  501    0 -0.77326901438E+01  0.20270373246E+02  0.44802092268E+02  0.50000000000E+02  0.47000000000E+01 0. -1.
         -5    1    3    3    0  501  0.77326901438E+01 -0.20270373246E+02 -0.44802092268E+02  0.50000000000E+02  0.47000000000E+01 0.  1.
</event>
<event>
 5    1  0.8909620E-001  0.1000000E+03  0.7546771E-02  0.1163815E+00
         11   -1    0    0    0    0  0.00000000000E+00  0.00000000000E+00  0.50000000000E+02  0.50000000000E+02  0.00000000000E+00 0. -1.
        -11   -1    0    0    0    0 -0.00000000000E+00 -0.00000000000E+00 -0.50000000000E+02  0.50000000000E+02  0.00000000000E+00 0.  1.
         23    2    1    2    0    0  0.00000000000E+00  0.00000000000E+00  0.00000000000E+00  0.10000000000E+03  0.10000000000E+03 0.  0.
          5    1    3    3  501    0  0.38607169159E+02  0.28284928198E+02 -0.13687926299E+02  0.50000000000E+02  0.47000000000E+01 0. -1.
         -5    1    3    3    0  501 -0.38607169159E+02 -0.28284928198E+02  0.13687926299E+02  0.50000000000E+02  0.47000000000E+01 0.  1.
</event>
<event>
 5    1  0.8909620E-001  0.1000000E+03  0.7546771E-02  0.1163815E+00
         11   -1    0    0    0    0  0.00000000000E+00  0.00000000000E+00  0.50000000000E+02  0.50000000000E+02  0.00000000000E+00 0. -1.
        -11   -1    0    0    0    0 -0.00000000000E+00 -0.00000000000E+00 -0.50000000000E+02  0.50000000000E+02  0.00000000000E+00 0.  1.
         23    2    1    2    0    0  0.00000000000E+00  0.00000000000E+00  0.00000000000E+00  0.10000000000E+03  0.10000000000E+03 0.  0.
          5    1    3    3  501    0  0.21764325491E+02  0.25156280304E+02  0.37032225118E+02  0.50000000000E+02  0.47000000000E+01 0. -1.
         -5    1    3    3    0  501 -0.21764325491E+02 -0.25156280304E+02 -0.37032225118E+02  0.50000000000E+02  0.47000000000E+01 0.  1.
</event>
<event>
 5    1  0.8909620E-001  0.1000000E+03  0.7546771E-02  0.1163815E+00
         11   -1    0    0    0    0  0.00000000000E+00  0.00000000000E+00  0.50000000000E+02  0.50000000000E+02  0.00000000000E+00 0.  1.
        -11   -1    0    0    0    0 -0.00000000000E+00 -0.00000000000E+00 -0.50000000000E+02  0.50000000000E+02  0.00000000000E+00 0. -1.
         23    2    1    2    0    0  0.00000000000E+00  0.00000000000E+00  0.00000000000E+00  0.10000000000E+03  0.10000000000E+03 0.  0.
          5    1    3    3  501    0 -0.35418395459E+02 -0.30104089362E+02 -0.17809858697E+02  0.50000000000E+02  0.47000000000E+01 0. -1.
         -5    1    3    3    0  501  0.35418395459E+02  0.30104089362E+02  0.17809858697E+02  0.50000000000E+02  0.47000000000E+01 0.  1.
</event>
<event>
 5    1  0.8909620E-001  0.1000000E+03  0.7546771E-02  0.1163815E+00
         11   -1    0    0    0    0  0.00000000000E+00  0.00000000000E+00  0.50000000000E+02  0.50000000000E+02  0.00000000000E+00 0.  1.
        -11   -1    0    0    0    0 -0.00000000000E+00 -0.00000000000E+00 -0.50000000000E+02  0.50000000000E+02  0.00000000000E+00 0. -1.
         23    2    1    2    0    0  0.00000000000E+00  0.00000000000E+00  0.00000000000E+00  0.10000000000E+03  0.10000000000E+03 0.  0.
          5    1    3    3  501    0 -0.40461245164E+02  0.46197656568E+01 -0.28626131506E+02  0.50000000000E+02  0.47000000000E+01 0. -1.
         -5    1    3    3    0  501  0.40461245164E+02 -0.46197656568E+01  0.28626131506E+02  0.50000000000E+02  0.47000000000E+01 0.  1.
</event>
<event>
 5    1  0.8909620E-001  0.1000000E+03  0.7546771E-02  0.1163815E+00
         11   -1    0    0    0    0  0.00000000000E+00  0.00000000000E+00  0.50000000000E+02  0.50000000000E+02  0.00000000000E+00 0.  1.
        -11   -1    0    0    0    0 -0.00000000000E+00 -0.00000000000E+00 -0.50000000000E+02  0.50000000000E+02  0.00000000000E+00 0. -1.
         23    2    1    2    0    0  0.00000000000E+00  0.00000000000E+00  0.00000000000E+00  0.10000000000E+03  0.10000000000E+03 0.  0.
          5    1    3    3  501    0 -0.38079531893E+00 -0.43561908395E+02 -0.24085786927E+02  0.50000000000E+02  0.47000000000E+01 0. -1.
         -5    1    3    3    0  501  0.38079531893E+00  0.43561908395E+02  0.24085786927E+02  0.50000000000E+02  0.47000000000E+01 0.  1.
</event>
<event>
 5    1  0.8909620E-001  0.1000000E+03  0.7546771E-02  0.1163815E+00
         11   -1    0    0    0    0  0.00000000000E+00  0.00000000000E+00  0.50000000000E+02  0.50000000000E+02  0.00000000000E+00 0. -1.
        -11   -1    0    0    0    0 -0.00000000000E+00 -0.00000000000E+00 -0.50000000000E+02  0.50000000000E+02  0.00000000000E+00 0.  1.
         23    2    1    2    0    0  0.00000000000E+00  0.00000000000E+00  0.00000000000E+00  0.10000000000E+03  0.10000000000E+03 0.  0.
          5    1    3    3  501    0  0.10829223116E+02 -0.36543429309E+01  0.48448774024E+02  0.50000000000E+02  0.47000000000E+01 0. -1.
         -5    1    3    3    0  501 -0.10829223116E+02  0.36543429309E+01 -0.48448774024E+02  0.50000000000E+02  0.47000000000E+01 0.  1.
</event>
<event>
 5    1  0.8909620E-001  0.1000000E+03  0.7546771E-02  0.1163815E+00
         11   -1    0    0    0    0  0.00000000000E+00  0.00000000000E+00  0.50000000000E+02  0.50000000000E+02  0.00000000000E+00 0. -1.
        -11   -1    0    0    0    0 -0.00000000000E+00 -0.00000000000E+00 -0.50000000000E+02  0.50000000000E+02  0.00000000000E+00 0.  1.
         23    2    1    2    0    0  0.00000000000E+00  0.00000000000E+00  0.00000000000E+00  0.10000000000E+03  0.10000000000E+03 0.  0.
          5    1    3    3  501    0 -0.34482552075E+02  0.18464709007E+02  0.30788278998E+02  0.50000000000E+02  0.47000000000E+01 0. -1.
         -5    1    3    3    0  501  0.34482552075E+02 -0.18464709007E+02 -0.30788278998E+02  0.50000000000E+02  0.47000000000E+01 0.  1.
</event>
<event>
 5    1  0.8909620E-001  0.1000000E+03  0.7546771E-02  0.1163815E+00
         11   -1    0    0    0    0  0.00000000000E+00  0.00000000000E+00  0.50000000000E+02  0.50000000000E+02  0.00000000000E+00 0. -1.
        -11   -1    0    0    0    0 -0.00000000000E+00 -0.00000000000E+00 -0.50000000000E+02  0.50000000000E+02  0.00000000000E+00 0.  1.
         23    2    1    2    0    0  0.00000000000E+00  0.00000000000E+00  0.00000000000E+00  0.10000000000E+03  0.10000000000E+03 0.  0.
          5    1    3    3  501    0 -0.83044851611E+01  0.42684912054E+02  0.24226923229E+02  0.50000000000E+02  0.47000000000E+01 0. -1.
         -5    1    3    3    0  501  0.83044851611E+01 -0.42684912054E+02 -0.24226923229E+02  0.50000000000E+02  0.47000000000E+01 0.  1.
</event>
<event>
 5    1  0.8909620E-001  0.1000000E+03  0.7546771E-02  0.1163815E+00
         11   -1    0    0    0    0  0.00000000000E+00  0.00000000000E+00  0.50000000000E+02  0.50000000000E+02  0.00000000000E+00 0. -1.
        -11   -1    0    0    0    0 -0.00000000000E+00 -0.00000000000E+00 -0.50000000000E+02  0.50000000000E+02  0.00000000000E+00 0.  1.
         23    2    1    2    0    0  0.00000000000E+00  0.00000000000E+00  0.00000000000E+00  0.10000000000E+03  0.10000000000E+03 0.  0.
          5    1    3    3  501    0  0.38828420071E+02 -0.28159258395E+02  0.13316154154E+02  0.50000000000E+02  0.47000000000E+01 0. -1.
         -5    1    3    3    0  501 -0.38828420071E+02  0.28159258395E+02 -0.13316154154E+02  0.50000000000E+02  0.47000000000E+01 0.  1.
</event>
<event>
 5    1  0.8909620E-001  0.1000000E+03  0.7546771E-02  0.1163815E+00
         11   -1    0    0    0    0  0.00000000000E+00  0.00000000000E+00  0.50000000000E+02  0.50000000000E+02  0.00000000000E+00 0.  1.
        -11   -1    0    0    0    0 -0.00000000000E+00 -0.00000000000E+00 -0.50000000000E+02  0.50000000000E+02  0.00000000000E+00 0. -1.
         23    2    1    2    0    0  0.00000000000E+00  0.00000000000E+00  0.00000000000E+00  0.10000000000E+03  0.10000000000E+03 0.  0.
          5    1    3    3  501    0  0.29774197554E+02 -0.30866824915E+02 -0.25271451871E+02  0.50000000000E+02  0.47000000000E+01 0. -1.
         -5    1    3    3    0  501 -0.29774197554E+02  0.30866824915E+02  0.25271451871E+02  0.50000000000E+02  0.47000000000E+01 0.  1.
</event>
<event>
 5    1  0.8909620E-001  0.1000000E+03  0.7546771E-02  0.1163815E+00
         11   -1    0    0    0    0  0.00000000000E+00  0.00000000000E+00  0.50000000000E+02  0.50000000000E+02  0.00000000000E+00 0. -1.
        -11   -1    0    0    0    0 -0.00000000000E+00 -0.00000000000E+00 -0.50000000000E+02  0.50000000000E+02  0.00000000000E+00 0.  1.
         23    2    1    2    0    0  0.00000000000E+00  0.00000000000E+00  0.00000000000E+00  0.10000000000E+03  0.10000000000E+03 0.  0.
          5    1    3    3  501    0  0.33804544886E+02 -0.82712522612E+01  0.35591419346E+02  0.50000000000E+02  0.47000000000E+01 0. -1.
         -5    1    3    3    0  501 -0.33804544886E+02  0.82712522612E+01 -0.35591419346E+02  0.50000000000E+02  0.47000000000E+01 0.  1.
</event>
<event>
 5    1  0.8909620E-001  0.1000000E+03  0.7546771E-02  0.1163815E+00
         11   -1    0    0    0    0  0.00000000000E+00  0.00000000000E+00  0.50000000000E+02  0.50000000000E+02  0.00000000000E+00 0.  1.
        -11   -1    0    0    0    0 -0.00000000000E+00 -0.00000000000E+00 -0.50000000000E+02  0.50000000000E+02  0.00000000000E+00 0. -1.
         23    2    1    2    0    0  0.00000000000E+00  0.00000000000E+00  0.00000000000E+00  0.10000000000E+03  0.10000000000E+03 0.  0.
          5    1    3    3  501    0  0.31390281680E+02 -0.33482336746E+02 -0.19274162553E+02  0.50000000000E+02  0.47000000000E+01 0. -1.
         -5    1    3    3    0  501 -0.31390281680E+02  0.33482336746E+02  0.19274162553E+02  0.50000000000E+02  0.47000000000E+01 0.  1.
</event>
<event>
 5    1  0.8909620E-001  0.1000000E+03  0.7546771E-02  0.1163815E+00
         11   -1    0    0    0    0  0.00000000000E+00  0.00000000000E+00  0.50000000000E+02  0.50000000000E+02  0.00000000000E+00 0. -1.
        -11   -1    0    0    0    0 -0.00000000000E+00 -0.00000000000E+00 -0.50000000000E+02  0.50000000000E+02  0.00000000000E+00 0.  1.
         23    2    1    2    0    0  0.00000000000E+00  0.00000000000E+00  0.00000000000E+00  0.10000000000E+03  0.10000000000E+03 0.  0.
          5    1    3    3  501    0 -0.18536265797E+02  0.24265507274E+02  0.39312873299E+02  0.50000000000E+02  0.47000000000E+01 0. -1.
         -5    1    3    3    0  501  0.18536265797E+02 -0.24265507274E+02 -0.39312873299E+02  0.50000000000E+02  0.47000000000E+01 0.  1.
</event>
<event>
 5    1  0.8909620E-001  0.1000000E+03  0.7546771E-02  0.1163815E+00
         11   -1    0    0    0    0  0.00000000000E+00  0.00000000000E+00  0.50000000000E+02  0.50000000000E+02  0.00000000000E+00 0. -1.
        -11   -1    0    0    0    0 -0.00000000000E+00 -0.00000000000E+00 -0.50000000000E+02  0.50000000000E+02  0.00000000000E+00 0.  1.
         23    2    1    2    0    0  0.00000000000E+00  0.00000000000E+00  0.00000000000E+00  0.10000000000E+03  0.10000000000E+03 0.  0.
          5    1    3    3  501    0 -0.38755575066E+02 -0.84444461701E+00  0.31228229450E+02  0.50000000000E+02  0.47000000000E+01 0. -1.
         -5    1    3    3    0  501  0.38755575066E+02  0.84444461701E+00 -0.31228229450E+02  0.50000000000E+02  0.47000000000E+01 0.  1.
</event>
<event>
 5    1  0.8909620E-001  0.1000000E+03  0.7546771E-02  0.1163815E+00
         11   -1    0    0    0    0  0.00000000000E+00  0.00000000000E+00  0.50000000000E+02  0.50000000000E+02  0.00000000000E+00 0. -1.
        -11   -1    0    0    0    0 -0.00000000000E+00 -0.00000000000E+00 -0.50000000000E+02  0.50000000000E+02  0.00000000000E+00 0.  1.
         23    2    1    2    0    0  0.00000000000E+00  0.00000000000E+00  0.00000000000E+00  0.10000000000E+03  0.10000000000E+03 0.  0.
          5    1    3    3  501    0  0.13587035591E+02  0.18124324862E+02  0.44326192168E+02  0.50000000000E+02  0.47000000000E+01 0. -1.
         -5    1    3    3    0  501 -0.13587035591E+02 -0.18124324862E+02 -0.44326192168E+02  0.50000000000E+02  0.47000000000E+01 0.  1.
</event>
<event>
 5    1  0.8909620E-001  0.1000000E+03  0.7546771E-02  0.1163815E+00
         11   -1    0    0    0    0  0.00000000000E+00  0.00000000000E+00  0.50000000000E+02  0.50000000000E+02  0.00000000000E+00 0. -1.
        -11   -1    0    0    0    0 -0.00000000000E+00 -0.00000000000E+00 -0.50000000000E+02  0.50000000000E+02  0.00000000000E+00 0.  1.
         23    2    1    2    0    0  0.00000000000E+00  0.00000000000E+00  0.00000000000E+00  0.10000000000E+03  0.10000000000E+03 0.  0.
          5    1    3    3  501    0 -0.35820505939E+02 -0.25545903747E+02  0.23285363558E+02  0.50000000000E+02  0.47000000000E+01 0. -1.
         -5    1    3    3    0  501  0.35820505939E+02  0.25545903747E+02 -0.23285363558E+02  0.50000000000E+02  0.47000000000E+01 0.  1.
</event>
<event>
 5    1  0.8909620E-001  0.1000000E+03  0.7546771E-02  0.1163815E+00
         11   -1    0    0    0    0  0.00000000000E+00  0.00000000000E+00  0.50000000000E+02  0.50000000000E+02  0.00000000000E+00 0. -1.
        -11   -1    0    0    0    0 -0.00000000000E+00 -0.00000000000E+00 -0.50000000000E+02  0.50000000000E+02  0.00000000000E+00 0.  1.
         23    2    1    2    0    0  0.00000000000E+00  0.00000000000E+00  0.00000000000E+00  0.10000000000E+03  0.10000000000E+03 0.  0.
          5    1    3    3  501    0 -0.50151232216E+01  0.22828543597E+02  0.43950155134E+02  0.50000000000E+02  0.47000000000E+01 0. -1.
         -5    1    3    3    0  501  0.50151232216E+01 -0.22828543597E+02 -0.43950155134E+02  0.50000000000E+02  0.47000000000E+01 0.  1.
</event>
<event>
 5    1  0.8909620E-001  0.1000000E+03  0.7546771E-02  0.1163815E+00
         11   -1    0    0    0    0  0.00000000000E+00  0.00000000000E+00  0.50000000000E+02  0.50000000000E+02  0.00000000000E+00 0. -1.
        -11   -1    0    0    0    0 -0.00000000000E+00 -0.00000000000E+00 -0.50000000000E+02  0.50000000000E+02  0.00000000000E+00 0.  1.
         23    2    1    2    0    0  0.00000000000E+00  0.00000000000E+00  0.00000000000E+00  0.10000000000E+03  0.10000000000E+03 0.  0.
          5    1    3    3  501    0 -0.22641527327E+02  0.30276921586E+01  0.44227868143E+02  0.50000000000E+02  0.47000000000E+01 0. -1.
         -5    1    3    3    0  501  0.22641527327E+02 -0.30276921586E+01 -0.44227868143E+02  0.50000000000E+02  0.47000000000E+01 0.  1.
</event>
<event>
 5    1  0.8909620E-001  0.1000000E+03  0.7546771E-02  0.1163815E+00
         11   -1    0    0    0    0  0.00000000000E+00  0.00000000000E+00  0.50000000000E+02  0.50000000000E+02  0.00000000000E+00 0. -1.
        -11   -1    0    0    0    0 -0.00000000000E+00 -0.00000000000E+00 -0.50000000000E+02  0.50000000000E+02  0.00000000000E+00 0.  1.
         23    2    1    2    0    0  0.00000000000E+00  0.00000000000E+00  0.00000000000E+00  0.10000000000E+03  0.10000000000E+03 0.  0.
          5    1    3    3  501    0  0.48304059023E+02  0.47896408665E+01 -0.11031193148E+02  0.50000000000E+02  0.47000000000E+01 0. -1.
         -5    1    3    3    0  501 -0.48304059023E+02 -0.47896408665E+01  0.11031193148E+02  0.50000000000E+02  0.47000000000E+01 0.  1.
</event>
<event>
 5    1  0.8909620E-001  0.1000000E+03  0.7546771E-02  0.1163815E+00
         11   -1    0    0    0    0  0.00000000000E+00  0.00000000000E+00  0.50000000000E+02  0.50000000000E+02  0.00000000000E+00 0.  1.
        -11   -1    0    0    0    0 -0.00000000000E+00 -0.00000000000E+00 -0.50000000000E+02  0.50000000000E+02  0.00000000000E+00 0. -1.
         23    2    1    2    0    0  0.00000000000E+00  0.00000000000E+00  0.00000000000E+00  0.10000000000E+03  0.10000000000E+03 0.  0.
          5    1    3    3  501    0  0.18124562747E+01  0.30558958582E+02 -0.39252707583E+02  0.50000000000E+02  0.47000000000E+01 0. -1.
         -5    1    3    3    0  501 -0.18124562747E+01 -0.30558958582E+02  0.39252707583E+02  0.50000000000E+02  0.47000000000E+01 0.  1.
</event>
<event>
 5    1  0.8909620E-001  0.1000000E+03  0.7546771E-02  0.1163815E+00
         11   -1    0    0    0    0  0.00000000000E+00  0.00000000000E+00  0.50000000000E+02  0.50000000000E+02  0.00000000000E+00 0. -1.
        -11   -1    0    0    0    0 -0.00000000000E+00 -0.00000000000E+00 -0.50000000000E+02  0.50000000000E+02  0.00000000000E+00 0.  1.
         23    2    1    2    0    0  0.00000000000E+00  0.00000000000E+00  0.00000000000E+00  0.10000000000E+03  0.10000000000E+03 0.  0.
          5    1    3    3  501    0 -0.11493215912E+02  0.19101134929E+02  0.44508006386E+02  0.50000000000E+02  0.47000000000E+01 0. -1.
         -5    1    3    3    0  501  0.11493215912E+02 -0.19101134929E+02 -0.44508006386E+02  0.50000000000E+02  0.47000000000E+01 0.  1.
</event>
<event>
 5    1  0.8909620E-001  0.1000000E+03  0.7546771E-02  0.1163815E+00
         11   -1    0    0    0    0  0.00000000000E+00  0.00000000000E+00  0.50000000000E+02  0.50000000000E+02  0.00000000000E+00 0. -1.
        -11   -1    0    0    0    0 -0.00000000000E+00 -0.00000000000E+00 -0.50000000000E+02  0.50000000000E+02  0.00000000000E+00 0.  1.
         23    2    1    2    0    0  0.00000000000E+00  0.00000000000E+00  0.00000000000E+00  0.10000000000E+03  0.10000000000E+03 0.  0.
          5    1    3    3  501    0  0.12991689979E+02  0.18230966743E+02  0.44460744968E+02  0.50000000000E+02  0.47000000000E+01 0. -1.
         -5    1    3    3    0  501 -0.12991689979E+02 -0.18230966743E+02 -0.44460744968E+02  0.50000000000E+02  0.47000000000E+01 0.  1.
</event>
<event>
 5    1  0.8909620E-001  0.1000000E+03  0.7546771E-02  0.1163815E+00
         11   -1    0    0    0    0  0.00000000000E+00  0.00000000000E+00  0.50000000000E+02  0.50000000000E+02  0.00000000000E+00 0. -1.
        -11   -1    0    0    0    0 -0.00000000000E+00 -0.00000000000E+00 -0.50000000000E+02  0.50000000000E+02  0.00000000000E+00 0.  1.
         23    2    1    2    0    0  0.00000000000E+00  0.00000000000E+00  0.00000000000E+00  0.10000000000E+03  0.10000000000E+03 0.  0.
          5    1    3    3  501    0 -0.32127083674E+02 -0.12078542640E+02  0.36053700258E+02  0.50000000000E+02  0.47000000000E+01 0. -1.
         -5    1    3    3    0  501  0.32127083674E+02  0.12078542640E+02 -0.36053700258E+02  0.50000000000E+02  0.47000000000E+01 0.  1.
</event>
<event>
 5    1  0.8909620E-001  0.1000000E+03  0.7546771E-02  0.1163815E+00
         11   -1    0    0    0    0  0.00000000000E+00  0.00000000000E+00  0.50000000000E+02  0.50000000000E+02  0.00000000000E+00 0.  1.
        -11   -1    0    0    0    0 -0.00000000000E+00 -0.00000000000E+00 -0.50000000000E+02  0.50000000000E+02  0.00000000000E+00 0. -1.
         23    2    1    2    0    0  0.00000000000E+00  0.00000000000E+00  0.00000000000E+00  0.10000000000E+03  0.10000000000E+03 0.  0.
          5    1    3    3  501    0  0.31233464637E+02 -0.37762415442E+02 -0.87396033492E+01  0.50000000000E+02  0.47000000000E+01 0. -1.
         -5    1    3    3    0  501 -0.31233464637E+02  0.37762415442E+02  0.87396033492E+01  0.50000000000E+02  0.47000000000E+01 0.  1.
</event>
<event>
 5    1  0.8909620E-001  0.1000000E+03  0.7546771E-02  0.1163815E+00
         11   -1    0    0    0    0  0.00000000000E+00  0.00000000000E+00  0.50000000000E+02  0.50000000000E+02  0.00000000000E+00 0.  1.
        -11   -1    0    0    0    0 -0.00000000000E+00 -0.00000000000E+00 -0.50000000000E+02  0.50000000000E+02  0.00000000000E+00 0. -1.
         23    2    1    2    0    0  0.00000000000E+00  0.00000000000E+00  0.00000000000E+00  0.10000000000E+03  0.10000000000E+03 0.  0.
          5    1    3    3  501    0 -0.13850452137E+01 -0.38286446747E+02 -0.31782694116E+02  0.50000000000E+02  0.47000000000E+01 0. -1.
         -5    1    3    3    0  501  0.13850452137E+01  0.38286446747E+02  0.31782694116E+02  0.50000000000E+02  0.47000000000E+01 0.  1.
</event>
<event>
 5    1  0.8909620E-001  0.1000000E+03  0.7546771E-02  0.1163815E+00
         11   -1    0    0    0    0  0.00000000000E+00  0.00000000000E+00  0.50000000000E+02  0.50000000000E+02  0.00000000000E+00 0. -1.
        -11   -1    0    0    0    0 -0.00000000000E+00 -0.00000000000E+00 -0.50000000000E+02  0.50000000000E+02  0.00000000000E+00 0.  1.
         23    2    1    2    0    0  0.00000000000E+00  0.00000000000E+00  0.00000000000E+00  0.10000000000E+03  0.10000000000E+03 0.  0.
          5    1    3    3  501    0  0.30833649535E+01 -0.20686668155E+02  0.45171502313E+02  0.50000000000E+02  0.47000000000E+01 0. -1.
         -5    1    3    3    0  501 -0.30833649535E+01  0.20686668155E+02 -0.45171502313E+02  0.50000000000E+02  0.47000000000E+01 0.  1.
</event>
<event>
 5    1  0.8909620E-001  0.1000000E+03  0.7546771E-02  0.1163815E+00
         11   -1    0    0    0    0  0.00000000000E+00  0.00000000000E+00  0.50000000000E+02  0.50000000000E+02  0.00000000000E+00 0.  1.
        -11   -1    0    0    0    0 -0.00000000000E+00 -0.00000000000E+00 -0.50000000000E+02  0.50000000000E+02  0.00000000000E+00 0. -1.
         23    2    1    2    0    0  0.00000000000E+00  0.00000000000E+00  0.00000000000E+00  0.10000000000E+03  0.10000000000E+03 0.  0.
          5    1    3    3  501    0  0.25399307313E+02  0.14878973524E+02 -0.40142263699E+02  0.50000000000E+02  0.47000000000E+01 0. -1.
         -5    1    3    3    0  501 -0.25399307313E+02 -0.14878973524E+02  0.40142263699E+02  0.50000000000E+02  0.47000000000E+01 0.  1.
</event>
<event>
 5    1  0.8909620E-001  0.1000000E+03  0.7546771E-02  0.1163815E+00
         11   -1    0    0    0    0  0.00000000000E+00  0.00000000000E+00  0.50000000000E+02  0.50000000000E+02  0.00000000000E+00 0. -1.
        -11   -1    0    0    0    0 -0.00000000000E+00 -0.00000000000E+00 -0.50000000000E+02  0.50000000000E+02  0.00000000000E+00 0.  1.
         23    2    1    2    0    0  0.00000000000E+00  0.00000000000E+00  0.00000000000E+00  0.10000000000E+03  0.10000000000E+03 0.  0.
          5    1    3    3  501    0 -0.43552877070E+02  0.13381670018E+02  0.20049633575E+02  0.50000000000E+02  0.47000000000E+01 0. -1.
         -5    1    3    3    0  501  0.43552877070E+02 -0.13381670018E+02 -0.20049633575E+02  0.50000000000E+02  0.47000000000E+01 0.  1.
</event>
<event>
 5    1  0.8909620E-001  0.1000000E+03  0.7546771E-02  0.1163815E+00
         11   -1    0    0    0    0  0.00000000000E+00  0.00000000000E+00  0.50000000000E+02  0.50000000000E+02  0.00000000000E+00 0.  1.
        -11   -1    0    0    0    0 -0.00000000000E+00 -0.00000000000E+00 -0.50000000000E+02  0.50000000000E+02  0.00000000000E+00 0. -1.
         23    2    1    2    0    0  0.00000000000E+00  0.00000000000E+00  0.00000000000E+00  0.10000000000E+03  0.10000000000E+03 0.  0.
          5    1    3    3  501    0  0.15408149215E+02 -0.44867305209E+02 -0.15080578935E+02  0.50000000000E+02  0.47000000000E+01 0. -1.
         -5    1    3    3    0  501 -0.15408149215E+02  0.44867305209E+02  0.15080578935E+02  0.50000000000E+02  0.47000000000E+01 0.  1.
</event>
<event>
 5    1  0.8909620E-001  0.1000000E+03  0.7546771E-02  0.1163815E+00
         11   -1    0    0    0    0  0.00000000000E+00  0.00000000000E+00  0.50000000000E+02  0.50000000000E+02  0.00000000000E+00 0. -1.
        -11   -1    0    0    0    0 -0.00000000000E+00 -0.00000000000E+00 -0.50000000000E+02  0.50000000000E+02  0.00000000000E+00 0.  1.
         23    2    1    2    0    0  0.00000000000E+00  0.00000000000E+00  0.00000000000E+00  0.10000000000E+03  0.10000000000E+03 0.  0.
          5    1    3    3  501    0 -0.28188164602E+01 -0.19245524052E+02  0.45821109521E+02  0.50000000000E+02  0.47000000000E+01 0. -1.
         -5    1    3    3    0  501  0.28188164602E+01  0.19245524052E+02 -0.45821109521E+02  0.50000000000E+02  0.47000000000E+01 0.  1.
</event>
<event>
 5    1  0.8909620E-001  0.1000000E+03  0.7546771E-02  0.1163815E+00
         11   -1    0    0    0    0  0.00000000000E+00  0.00000000000E+00  0.50000000000E+02  0.50000000000E+02  0.00000000000E+00 0. -1.
        -11   -1    0    0    0    0 -0.00000000000E+00 -0.00000000000E+00 -0.50000000000E+02  0.50000000000E+02  0.00000000000E+00 0.  1.
         23    2    1    2    0    0  0.00000000000E+00  0.00000000000E+00  0.00000000000E+00  0.10000000000E+03  0.10000000000E+03 0.  0.
          5    1    3    3  501    0 -0.11524189043E+02  0.40149025323E+02  0.27076905888E+02  0.50000000000E+02  0.47000000000E+01 0. -1.
         -5    1    3    3    0  501  0.11524189043E+02 -0.40149025323E+02 -0.27076905888E+02  0.50000000000E+02  0.47000000000E+01 0.  1.
</event>
<event>
 5    1  0.8909620E-001  0.1000000E+03  0.7546771E-02  0.1163815E+00
         11   -1    0    0    0    0  0.00000000000E+00  0.00000000000E+00  0.50000000000E+02  0.50000000000E+02  0.00000000000E+00 0.  1.
        -11   -1    0    0    0    0 -0.00000000000E+00 -0.00000000000E+00 -0.50000000000E+02  0.50000000000E+02  0.00000000000E+00 0. -1.
         23    2    1    2    0    0  0.00000000000E+00  0.00000000000E+00  0.00000000000E+00  0.10000000000E+03  0.10000000000E+03 0.  0.
          5    1    3    3  501    0 -0.10493539038E+02  0.18204959828E+02 -0.45126212738E+02  0.50000000000E+02  0.47000000000E+01 0. -1.
         -5    1    3    3    0  501  0.10493539038E+02 -0.18204959828E+02  0.45126212738E+02  0.50000000000E+02  0.47000000000E+01 0.  1.
</event>
<event>
 5    1  0.8909620E-001  0.1000000E+03  0.7546771E-02  0.1163815E+00
         11   -1    0    0    0    0  0.00000000000E+00  0.00000000000E+00  0.50000000000E+02  0.50000000000E+02  0.00000000000E+00 0. -1.
        -11   -1    0    0    0    0 -0.00000000000E+00 -0.00000000000E+00 -0.50000000000E+02  0.50000000000E+02  0.00000000000E+00 0.  1.
         23    2    1    2    0    0  0.00000000000E+00  0.00000000000E+00  0.00000000000E+00  0.10000000000E+03  0.10000000000E+03 0.  0.
          5    1    3    3  501    0  0.38532645567E+02 -0.18609303105E+01  0.31459214294E+02  0.50000000000E+02  0.47000000000E+01 0. -1.
         -5    1    3    3    0  501 -0.38532645567E+02  0.18609303105E+01 -0.31459214294E+02  0.50000000000E+02  0.47000000000E+01 0.  1.
</event>
<event>
 5    1  0.8909620E-001  0.1000000E+03  0.7546771E-02  0.1163815E+00
         11   -1    0    0    0    0  0.00000000000E+00  0.00000000000E+00  0.50000000000E+02  0.50000000000E+02  0.00000000000E+00 0.  1.
        -11   -1    0    0    0    0 -0.00000000000E+00 -0.00000000000E+00 -0.50000000000E+02  0.50000000000E+02  0.00000000000E+00 0. -1.
         23    2    1    2    0    0  0.00000000000E+00  0.00000000000E+00  0.00000000000E+00  0.10000000000E+03  0.10000000000E+03 0.  0.
          5    1    3    3  501    0 -0.34236993716E+02 -0.23242705763E+01 -0.36060172317E+02  0.50000000000E+02  0.47000000000E+01 0. -1.
         -5    1    3    3    0  501  0.34236993716E+02  0.23242705763E+01  0.36060172317E+02  0.50000000000E+02  0.47000000000E+01 0.  1.
</event>
<event>
 5    1  0.8909620E-001  0.1000000E+03  0.7546771E-02  0.1163815E+00
         11   -1    0    0    0    0  0.00000000000E+00  0.00000000000E+00  0.50000000000E+02  0.50000000000E+02  0.00000000000E+00 0. -1.
        -11   -1    0    0    0    0 -0.00000000000E+00 -0.00000000000E+00 -0.50000000000E+02  0.50000000000E+02  0.00000000000E+00 0.  1.
         23    2    1    2    0    0  0.00000000000E+00  0.00000000000E+00  0.00000000000E+00  0.10000000000E+03  0.10000000000E+03 0.  0.
          5    1    3    3  501    0 -0.29736473572E+02 -0.28971597412E+02  0.27464498591E+02  0.50000000000E+02  0.47000000000E+01 0. -1.
         -5    1    3    3    0  501  0.29736473572E+02  0.28971597412E+02 -0.27464498591E+02  0.50000000000E+02  0.47000000000E+01 0.  1.
</event>
<event>
 5    1  0.8909620E-001  0.1000000E+03  0.7546771E-02  0.1163815E+00
         11   -1    0    0    0    0  0.00000000000E+00  0.00000000000E+00  0.50000000000E+02  0.50000000000E+02  0.00000000000E+00 0. -1.
        -11   -1    0    0    0    0 -0.00000000000E+00 -0.00000000000E+00 -0.50000000000E+02  0.50000000000E+02  0.00000000000E+00 0.  1.
         23    2    1    2    0    0  0.00000000000E+00  0.00000000000E+00  0.00000000000E+00  0.10000000000E+03  0.10000000000E+03 0.  0.
          5    1    3    3  501    0  0.43921153268E+02 -0.20738940678E+02  0.10896725892E+02  0.50000000000E+02  0.47000000000E+01 0. -1.
         -5    1    3    3    0  501 -0.43921153268E+02  0.20738940678E+02 -0.10896725892E+02  0.50000000000E+02  0.47000000000E+01 0.  1.
</event>
<event>
 5    1  0.8909620E-001  0.1000000E+03  0.7546771E-02  0.1163815E+00
         11   -1    0    0    0    0  0.00000000000E+00  0.00000000000E+00  0.50000000000E+02  0.50000000000E+02  0.00000000000E+00 0. -1.
        -11   -1    0    0    0    0 -0.00000000000E+00 -0.00000000000E+00 -0.50000000000E+02  0.50000000000E+02  0.00000000000E+00 0.  1.
         23    2    1    2    0    0  0.00000000000E+00  0.00000000000E+00  0.00000000000E+00  0.10000000000E+03  0.10000000000E+03 0.  0.
          5    1    3    3  501    0 -0.22645752389E+02  0.44296750250E+02  0.16964127085E+01  0.50000000000E+02  0.47000000000E+01 0. -1.
         -5    1    3    3    0  501  0.22645752389E+02 -0.44296750250E+02 -0.16964127085E+01  0.50000000000E+02  0.47000000000E+01 0.  1.
</event>
<event>
 5    1  0.8909620E-001  0.1000000E+03  0.7546771E-02  0.1163815E+00
         11   -1    0    0    0    0  0.00000000000E+00  0.00000000000E+00  0.50000000000E+02  0.50000000000E+02  0.00000000000E+00 0.  1.
        -11   -1    0    0    0    0 -0.00000000000E+00 -0.00000000000E+00 -0.50000000000E+02  0.50000000000E+02  0.00000000000E+00 0. -1.
         23    2    1    2    0    0  0.00000000000E+00  0.00000000000E+00  0.00000000000E+00  0.10000000000E+03  0.10000000000E+03 0.  0.
          5    1    3    3  501    0 -0.95414406384E+01 -0.15200593326E+00 -0.48855376416E+02  0.50000000000E+02  0.47000000000E+01 0. -1.
         -5    1    3    3    0  501  0.95414406384E+01  0.15200593326E+00  0.48855376416E+02  0.50000000000E+02  0.47000000000E+01 0.  1.
</event>
<event>
 5    1  0.8909620E-001  0.1000000E+03  0.7546771E-02  0.1163815E+00
         11   -1    0    0    0    0  0.00000000000E+00  0.00000000000E+00  0.50000000000E+02  0.50000000000E+02  0.00000000000E+00 0. -1.
        -11   -1    0    0    0    0 -0.00000000000E+00 -0.00000000000E+00 -0.50000000000E+02  0.50000000000E+02  0.00000000000E+00 0.  1.
         23    2    1    2    0    0  0.00000000000E+00  0.00000000000E+00  0.00000000000E+00  0.10000000000E+03  0.10000000000E+03 0.  0.
          5    1    3    3  501    0  0.16594438815E+02  0.21728851667E+02  0.41597975980E+02  0.50000000000E+02  0.47000000000E+01 0. -1.
         -5    1    3    3    0  501 -0.16594438815E+02 -0.21728851667E+02 -0.41597975980E+02  0.50000000000E+02  0.47000000000E+01 0.  1.
</event>
<event>
 5    1  0.8909620E-001  0.1000000E+03  0.7546771E-02  0.1163815E+00
         11   -1    0    0    0    0  0.00000000000E+00  0.00000000000E+00  0.50000000000E+02  0.50000000000E+02  0.00000000000E+00 0.  1.
        -11   -1    0    0    0    0 -0.00000000000E+00 -0.00000000000E+00 -0.50000000000E+02  0.50000000000E+02  0.00000000000E+00 0. -1.
         23    2    1    2    0    0  0.00000000000E+00  0.00000000000E+00  0.00000000000E+00  0.10000000000E+03  0.10000000000E+03 0.  0.
          5    1    3    3  501    0 -0.43151860261E+02  0.19893571130E+02  0.14834850309E+02  0.50000000000E+02  0.47000000000E+01 0. -1.
         -5    1    3    3    0  501  0.43151860261E+02 -0.19893571130E+02 -0.14834850309E+02  0.50000000000E+02  0.47000000000E+01 0.  1.
</event>
<event>
 5    1  0.8909620E-001  0.1000000E+03  0.7546771E-02  0.1163815E+00
         11   -1    0    0    0    0  0.00000000000E+00  0.00000000000E+00  0.50000000000E+02  0.50000000000E+02  0.00000000000E+00 0.  1.
        -11   -1    0    0    0    0 -0.00000000000E+00 -0.00000000000E+00 -0.50000000000E+02  0.50000000000E+02  0.00000000000E+00 0. -1.
         23    2    1    2    0    0  0.00000000000E+00  0.00000000000E+00  0.00000000000E+00  0.10000000000E+03  0.10000000000E+03 0.  0.
          5    1    3    3  501    0 -0.37208219656E+02 -0.32403167100E+02  0.65949338081E+01  0.50000000000E+02  0.47000000000E+01 0. -1.
         -5    1    3    3    0  501  0.37208219656E+02  0.32403167100E+02 -0.65949338081E+01  0.50000000000E+02  0.47000000000E+01 0.  1.
</event>
<event>
 5    1  0.8909620E-001  0.1000000E+03  0.7546771E-02  0.1163815E+00
         11   -1    0    0    0    0  0.00000000000E+00  0.00000000000E+00  0.50000000000E+02  0.50000000000E+02  0.00000000000E+00 0.  1.
        -11   -1    0    0    0    0 -0.00000000000E+00 -0.00000000000E+00 -0.50000000000E+02  0.50000000000E+02  0.00000000000E+00 0. -1.
         23    2    1    2    0    0  0.00000000000E+00  0.00000000000E+00  0.00000000000E+00  0.10000000000E+03  0.10000000000E+03 0.  0.
          5    1    3    3  501    0 -0.43216723756E+02 -0.11978051637E+02 -0.21604422389E+02  0.50000000000E+02  0.47000000000E+01 0. -1.
         -5    1    3    3    0  501  0.43216723756E+02  0.11978051637E+02  0.21604422389E+02  0.50000000000E+02  0.47000000000E+01 0.  1.
</event>
<event>
 5    1  0.8909620E-001  0.1000000E+03  0.7546771E-02  0.1163815E+00
         11   -1    0    0    0    0  0.00000000000E+00  0.00000000000E+00  0.50000000000E+02  0.50000000000E+02  0.00000000000E+00 0.  1.
        -11   -1    0    0    0    0 -0.00000000000E+00 -0.00000000000E+00 -0.50000000000E+02  0.50000000000E+02  0.00000000000E+00 0. -1.
         23    2    1    2    0    0  0.00000000000E+00  0.00000000000E+00  0.00000000000E+00  0.10000000000E+03  0.10000000000E+03 0.  0.
          5    1    3    3  501    0  0.12305063937E+02  0.25064969331E+02 -0.41209740523E+02  0.50000000000E+02  0.47000000000E+01 0. -1.
         -5    1    3    3    0  501 -0.12305063937E+02 -0.25064969331E+02  0.41209740523E+02  0.50000000000E+02  0.47000000000E+01 0.  1.
</event>
<event>
 5    1  0.8909620E-001  0.1000000E+03  0.7546771E-02  0.1163815E+00
         11   -1    0    0    0    0  0.00000000000E+00  0.00000000000E+00  0.50000000000E+02  0.50000000000E+02  0.00000000000E+00 0. -1.
        -11   -1    0    0    0    0 -0.00000000000E+00 -0.00000000000E+00 -0.50000000000E+02  0.50000000000E+02  0.00000000000E+00 0.  1.
         23    2    1    2    0    0  0.00000000000E+00  0.00000000000E+00  0.00000000000E+00  0.10000000000E+03  0.10000000000E+03 0.  0.
          5    1    3    3  501    0  0.42617088388E+02 -0.35765193042E+01  0.25473560548E+02  0.50000000000E+02  0.47000000000E+01 0. -1.
         -5    1    3    3    0  501 -0.42617088388E+02  0.35765193042E+01 -0.25473560548E+02  0.50000000000E+02  0.47000000000E+01 0.  1.
</event>
<event>
 5    1  0.8909620E-001  0.1000000E+03  0.7546771E-02  0.1163815E+00
         11   -1    0    0    0    0  0.00000000000E+00  0.00000000000E+00  0.50000000000E+02  0.50000000000E+02  0.00000000000E+00 0. -1.
        -11   -1    0    0    0    0 -0.00000000000E+00 -0.00000000000E+00 -0.50000000000E+02  0.50000000000E+02  0.00000000000E+00 0.  1.
         23    2    1    2    0    0  0.00000000000E+00  0.00000000000E+00  0.00000000000E+00  0.10000000000E+03  0.10000000000E+03 0.  0.
          5    1    3    3  501    0  0.12682420248E+01  0.18046777825E+02  0.46374727733E+02  0.50000000000E+02  0.47000000000E+01 0. -1.
         -5    1    3    3    0  501 -0.12682420248E+01 -0.18046777825E+02 -0.46374727733E+02  0.50000000000E+02  0.47000000000E+01 0.  1.
</event>
<event>
 5    1  0.8909620E-001  0.1000000E+03  0.7546771E-02  0.1163815E+00
         11   -1    0    0    0    0  0.00000000000E+00  0.00000000000E+00  0.50000000000E+02  0.50000000000E+02  0.00000000000E+00 0. -1.
        -11   -1    0    0    0    0 -0.00000000000E+00 -0.00000000000E+00 -0.50000000000E+02  0.50000000000E+02  0.00000000000E+00 0.  1.
         23    2    1    2    0    0  0.00000000000E+00  0.00000000000E+00  0.00000000000E+00  0.10000000000E+03  0.10000000000E+03 0.  0.
          5    1    3    3  501    0  0.24983960813E+02  0.36865584054E+02  0.22240512909E+02  0.50000000000E+02  0.47000000000E+01 0. -1.
         -5    1    3    3    0  501 -0.24983960813E+02 -0.36865584054E+02 -0.22240512909E+02  0.50000000000E+02  0.47000000000E+01 0.  1.
</event>
<event>
 5    1  0.8909620E-001  0.1000000E+03  0.7546771E-02  0.1163815E+00
         11   -1    0    0    0    0  0.00000000000E+00  0.00000000000E+00  0.50000000000E+02  0.50000000000E+02  0.00000000000E+00 0. -1.
        -11   -1    0    0    0    0 -0.00000000000E+00 -0.00000000000E+00 -0.50000000000E+02  0.50000000000E+02  0.00000000000E+00 0.  1.
         23    2    1    2    0    0  0.00000000000E+00  0.00000000000E+00  0.00000000000E+00  0.10000000000E+03  0.10000000000E+03 0.  0.
          5    1    3    3  501    0 -0.40699694904E+02 -0.17619257786E+02  0.22605454868E+02  0.50000000000E+02  0.47000000000E+01 0. -1.
         -5    1    3    3    0  501  0.40699694904E+02  0.17619257786E+02 -0.22605454868E+02  0.50000000000E+02  0.47000000000E+01 0.  1.
</event>
<event>
 5    1  0.8909620E-001  0.1000000E+03  0.7546771E-02  0.1163815E+00
         11   -1    0    0    0    0  0.00000000000E+00  0.00000000000E+00  0.50000000000E+02  0.50000000000E+02  0.00000000000E+00 0.  1.
        -11   -1    0    0    0    0 -0.00000000000E+00 -0.00000000000E+00 -0.50000000000E+02  0.50000000000E+02  0.00000000000E+00 0. -1.
         23    2    1    2    0    0  0.00000000000E+00  0.00000000000E+00  0.00000000000E+00  0.10000000000E+03  0.10000000000E+03 0.  0.
          5    1    3    3  501    0 -0.19954991353E+02 -0.45465995873E+02 -0.35428151835E+01  0.50000000000E+02  0.47000000000E+01 0. -1.
         -5    1    3    3    0  501  0.19954991353E+02  0.45465995873E+02  0.35428151835E+01  0.50000000000E+02  0.47000000000E+01 0.  1.
</event>
<event>
 5    1  0.8909620E-001  0.1000000E+03  0.7546771E-02  0.1163815E+00
         11   -1    0    0    0    0  0.00000000000E+00  0.00000000000E+00  0.50000000000E+02  0.50000000000E+02  0.00000000000E+00 0.  1.
        -11   -1    0    0    0    0 -0.00000000000E+00 -0.00000000000E+00 -0.50000000000E+02  0.50000000000E+02  0.00000000000E+00 0. -1.
         23    2    1    2    0    0  0.00000000000E+00  0.00000000000E+00  0.00000000000E+00  0.10000000000E+03  0.10000000000E+03 0.  0.
          5    1    3    3  501    0 -0.32044400830E+02 -0.34251994280E+02 -0.16669351015E+02  0.50000000000E+02  0.47000000000E+01 0. -1.
         -5    1    3    3    0  501  0.32044400830E+02  0.34251994280E+02  0.16669351015E+02  0.50000000000E+02  0.47000000000E+01 0.  1.
</event>
<event>
 5    1  0.8909620E-001  0.1000000E+03  0.7546771E-02  0.1163815E+00
         11   -1    0    0    0    0  0.00000000000E+00  0.00000000000E+00  0.50000000000E+02  0.50000000000E+02  0.00000000000E+00 0.  1.
        -11   -1    0    0    0    0 -0.00000000000E+00 -0.00000000000E+00 -0.50000000000E+02  0.50000000000E+02  0.00000000000E+00 0. -1.
         23    2    1    2    0    0  0.00000000000E+00  0.00000000000E+00  0.00000000000E+00  0.10000000000E+03  0.10000000000E+03 0.  0.
          5    1    3    3  501    0 -0.40305661738E+02 -0.80993275844E+01  0.28067143148E+02  0.50000000000E+02  0.47000000000E+01 0. -1.
         -5    1    3    3    0  501  0.40305661738E+02  0.80993275844E+01 -0.28067143148E+02  0.50000000000E+02  0.47000000000E+01 0.  1.
</event>
<event>
 5    1  0.8909620E-001  0.1000000E+03  0.7546771E-02  0.1163815E+00
         11   -1    0    0    0    0  0.00000000000E+00  0.00000000000E+00  0.50000000000E+02  0.50000000000E+02  0.00000000000E+00 0. -1.
        -11   -1    0    0    0    0 -0.00000000000E+00 -0.00000000000E+00 -0.50000000000E+02  0.50000000000E+02  0.00000000000E+00 0.  1.
         23    2    1    2    0    0  0.00000000000E+00  0.00000000000E+00  0.00000000000E+00  0.10000000000E+03  0.10000000000E+03 0.  0.
          5    1    3    3  501    0 -0.33650790472E+02  0.23938705864E+02  0.27793392420E+02  0.50000000000E+02  0.47000000000E+01 0. -1.
         -5    1    3    3    0  501  0.33650790472E+02 -0.23938705864E+02 -0.27793392420E+02  0.50000000000E+02  0.47000000000E+01 0.  1.
</event>
<event>
 5    1  0.8909620E-001  0.1000000E+03  0.7546771E-02  0.1163815E+00
         11   -1    0    0    0    0  0.00000000000E+00  0.00000000000E+00  0.50000000000E+02  0.50000000000E+02  0.00000000000E+00 0. -1.
        -11   -1    0    0    0    0 -0.00000000000E+00 -0.00000000000E+00 -0.50000000000E+02  0.50000000000E+02  0.00000000000E+00 0.  1.
         23    2    1    2    0    0  0.00000000000E+00  0.00000000000E+00  0.00000000000E+00  0.10000000000E+03  0.10000000000E+03 0.  0.
          5    1    3    3  501    0 -0.23468487204E+02  0.71416524523E+01  0.43314396090E+02  0.50000000000E+02  0.47000000000E+01 0. -1.
         -5    1    3    3    0  501  0.23468487204E+02 -0.71416524523E+01 -0.43314396090E+02  0.50000000000E+02  0.47000000000E+01 0.  1.
</event>
<event>
 5    1  0.8909620E-001  0.1000000E+03  0.7546771E-02  0.1163815E+00
         11   -1    0    0    0    0  0.00000000000E+00  0.00000000000E+00  0.50000000000E+02  0.50000000000E+02  0.00000000000E+00 0.  1.
        -11   -1    0    0    0    0 -0.00000000000E+00 -0.00000000000E+00 -0.50000000000E+02  0.50000000000E+02  0.00000000000E+00 0. -1.
         23    2    1    2    0    0  0.00000000000E+00  0.00000000000E+00  0.00000000000E+00  0.10000000000E+03  0.10000000000E+03 0.  0.
          5    1    3    3  501    0 -0.74977473355E+00 -0.13471401453E+02 -0.47915229111E+02  0.50000000000E+02  0.47000000000E+01 0. -1.
         -5    1    3    3    0  501  0.74977473355E+00  0.13471401453E+02  0.47915229111E+02  0.50000000000E+02  0.47000000000E+01 0.  1.
</event>
<event>
 5    1  0.8909620E-001  0.1000000E+03  0.7546771E-02  0.1163815E+00
         11   -1    0    0    0    0  0.00000000000E+00  0.00000000000E+00  0.50000000000E+02  0.50000000000E+02  0.00000000000E+00 0.  1.
        -11   -1    0    0    0    0 -0.00000000000E+00 -0.00000000000E+00 -0.50000000000E+02  0.50000000000E+02  0.00000000000E+00 0. -1.
         23    2    1    2    0    0  0.00000000000E+00  0.00000000000E+00  0.00000000000E+00  0.10000000000E+03  0.10000000000E+03 0.  0.
          5    1    3    3  501    0 -0.66360255625E-01  0.36596140695E+02 -0.33743563573E+02  0.50000000000E+02  0.47000000000E+01 0. -1.
         -5    1    3    3    0  501  0.66360255625E-01 -0.36596140695E+02  0.33743563573E+02  0.50000000000E+02  0.47000000000E+01 0.  1.
</event>
<event>
 5    1  0.8909620E-001  0.1000000E+03  0.7546771E-02  0.1163815E+00
         11   -1    0    0    0    0  0.00000000000E+00  0.00000000000E+00  0.50000000000E+02  0.50000000000E+02  0.00000000000E+00 0.  1.
        -11   -1    0    0    0    0 -0.00000000000E+00 -0.00000000000E+00 -0.50000000000E+02  0.50000000000E+02  0.00000000000E+00 0. -1.
         23    2    1    2    0    0  0.00000000000E+00  0.00000000000E+00  0.00000000000E+00  0.10000000000E+03  0.10000000000E+03 0.  0.
          5    1    3    3  501    0  0.13687655114E+02  0.39674480566E+02 -0.26767399749E+02  0.50000000000E+02  0.47000000000E+01 0. -1.
         -5    1    3    3    0  501 -0.13687655114E+02 -0.39674480566E+02  0.26767399749E+02  0.50000000000E+02  0.47000000000E+01 0.  1.
</event>
<event>
 5    1  0.8909620E-001  0.1000000E+03  0.7546771E-02  0.1163815E+00
         11   -1    0    0    0    0  0.00000000000E+00  0.00000000000E+00  0.50000000000E+02  0.50000000000E+02  0.00000000000E+00 0. -1.
        -11   -1    0    0    0    0 -0.00000000000E+00 -0.00000000000E+00 -0.50000000000E+02  0.50000000000E+02  0.00000000000E+00 0.  1.
         23    2    1    2    0    0  0.00000000000E+00  0.00000000000E+00  0.00000000000E+00  0.10000000000E+03  0.10000000000E+03 0.  0.
          5    1    3    3  501    0 -0.17177904206E+02  0.37032282651E+02  0.28485779764E+02  0.50000000000E+02  0.47000000000E+01 0. -1.
         -5    1    3    3    0  501  0.17177904206E+02 -0.37032282651E+02 -0.28485779764E+02  0.50000000000E+02  0.47000000000E+01 0.  1.
</event>
<event>
 5    1  0.8909620E-001  0.1000000E+03  0.7546771E-02  0.1163815E+00
         11   -1    0    0    0    0  0.00000000000E+00  0.00000000000E+00  0.50000000000E+02  0.50000000000E+02  0.00000000000E+00 0. -1.
        -11   -1    0    0    0    0 -0.00000000000E+00 -0.00000000000E+00 -0.50000000000E+02  0.50000000000E+02  0.00000000000E+00 0.  1.
         23    2    1    2    0    0  0.00000000000E+00  0.00000000000E+00  0.00000000000E+00  0.10000000000E+03  0.10000000000E+03 0.  0.
          5    1    3    3  501    0 -0.48519671973E+02 -0.62289990636E+01  0.92168868014E+01  0.50000000000E+02  0.47000000000E+01 0. -1.
         -5    1    3    3    0  501  0.48519671973E+02  0.62289990636E+01 -0.92168868014E+01  0.50000000000E+02  0.47000000000E+01 0.  1.
</event>
<event>
 5    1  0.8909620E-001  0.1000000E+03  0.7546771E-02  0.1163815E+00
         11   -1    0    0    0    0  0.00000000000E+00  0.00000000000E+00  0.50000000000E+02  0.50000000000E+02  0.00000000000E+00 0.  1.
        -11   -1    0    0    0    0 -0.00000000000E+00 -0.00000000000E+00 -0.50000000000E+02  0.50000000000E+02  0.00000000000E+00 0. -1.
         23    2    1    2    0    0  0.00000000000E+00  0.00000000000E+00  0.00000000000E+00  0.10000000000E+03  0.10000000000E+03 0.  0.
          5    1    3    3  501    0  0.33901830158E+02 -0.73381547715E+01  0.35703324726E+02  0.50000000000E+02  0.47000000000E+01 0.  1.
         -5    1    3    3    0  501 -0.33901830158E+02  0.73381547715E+01 -0.35703324726E+02  0.50000000000E+02  0.47000000000E+01 0. -1.
</event>
<event>
 5    1  0.8909620E-001  0.1000000E+03  0.7546771E-02  0.1163815E+00
         11   -1    0    0    0    0  0.00000000000E+00  0.00000000000E+00  0.50000000000E+02  0.50000000000E+02  0.00000000000E+00 0. -1.
        -11   -1    0    0    0    0 -0.00000000000E+00 -0.00000000000E+00 -0.50000000000E+02  0.50000000000E+02  0.00000000000E+00 0.  1.
         23    2    1    2    0    0  0.00000000000E+00  0.00000000000E+00  0.00000000000E+00  0.10000000000E+03  0.10000000000E+03 0.  0.
          5    1    3    3  501    0  0.46057312973E+02 -0.18074289100E+02 -0.54730243220E+01  0.50000000000E+02  0.47000000000E+01 0. -1.
         -5    1    3    3    0  501 -0.46057312973E+02  0.18074289100E+02  0.54730243220E+01  0.50000000000E+02  0.47000000000E+01 0.  1.
</event>
<event>
 5    1  0.8909620E-001  0.1000000E+03  0.7546771E-02  0.1163815E+00
         11   -1    0    0    0    0  0.00000000000E+00  0.00000000000E+00  0.50000000000E+02  0.50000000000E+02  0.00000000000E+00 0. -1.
        -11   -1    0    0    0    0 -0.00000000000E+00 -0.00000000000E+00 -0.50000000000E+02  0.50000000000E+02  0.00000000000E+00 0.  1.
         23    2    1    2    0    0  0.00000000000E+00  0.00000000000E+00  0.00000000000E+00  0.10000000000E+03  0.10000000000E+03 0.  0.
          5    1    3    3  501    0 -0.33742749505E+02 -0.28542321307E+02  0.22905736186E+02  0.50000000000E+02  0.47000000000E+01 0. -1.
         -5    1    3    3    0  501  0.33742749505E+02  0.28542321307E+02 -0.22905736186E+02  0.50000000000E+02  0.47000000000E+01 0.  1.
</event>
<event>
 5    1  0.8909620E-001  0.1000000E+03  0.7546771E-02  0.1163815E+00
         11   -1    0    0    0    0  0.00000000000E+00  0.00000000000E+00  0.50000000000E+02  0.50000000000E+02  0.00000000000E+00 0. -1.
        -11   -1    0    0    0    0 -0.00000000000E+00 -0.00000000000E+00 -0.50000000000E+02  0.50000000000E+02  0.00000000000E+00 0.  1.
         23    2    1    2    0    0  0.00000000000E+00  0.00000000000E+00  0.00000000000E+00  0.10000000000E+03  0.10000000000E+03 0.  0.
          5    1    3    3  501    0  0.26155537162E+02 -0.41791147707E+02  0.68773431688E+01  0.50000000000E+02  0.47000000000E+01 0. -1.
         -5    1    3    3    0  501 -0.26155537162E+02  0.41791147707E+02 -0.68773431688E+01  0.50000000000E+02  0.47000000000E+01 0.  1.
</event>
<event>
 5    1  0.8909620E-001  0.1000000E+03  0.7546771E-02  0.1163815E+00
         11   -1    0    0    0    0  0.00000000000E+00  0.00000000000E+00  0.50000000000E+02  0.50000000000E+02  0.00000000000E+00 0. -1.
        -11   -1    0    0    0    0 -0.00000000000E+00 -0.00000000000E+00 -0.50000000000E+02  0.50000000000E+02  0.00000000000E+00 0.  1.
         23    2    1    2    0    0  0.00000000000E+00  0.00000000000E+00  0.00000000000E+00  0.10000000000E+03  0.10000000000E+03 0.  0.
          5    1    3    3  501    0  0.88158146300E+01  0.48420660944E+02 -0.74586195889E+01  0.50000000000E+02  0.47000000000E+01 0. -1.
         -5    1    3    3    0  501 -0.88158146300E+01 -0.48420660944E+02  0.74586195889E+01  0.50000000000E+02  0.47000000000E+01 0.  1.
</event>
<event>
 5    1  0.8909620E-001  0.1000000E+03  0.7546771E-02  0.1163815E+00
         11   -1    0    0    0    0  0.00000000000E+00  0.00000000000E+00  0.50000000000E+02  0.50000000000E+02  0.00000000000E+00 0.  1.
        -11   -1    0    0    0    0 -0.00000000000E+00 -0.00000000000E+00 -0.50000000000E+02  0.50000000000E+02  0.00000000000E+00 0. -1.
         23    2    1    2    0    0  0.00000000000E+00  0.00000000000E+00  0.00000000000E+00  0.10000000000E+03  0.10000000000E+03 0.  0.
          5    1    3    3  501    0  0.41320935549E+02 -0.25625602648E+02 -0.10668588204E+02  0.50000000000E+02  0.47000000000E+01 0. -1.
         -5    1    3    3    0  501 -0.41320935549E+02  0.25625602648E+02  0.10668588204E+02  0.50000000000E+02  0.47000000000E+01 0.  1.
</event>
<event>
 5    1  0.8909620E-001  0.1000000E+03  0.7546771E-02  0.1163815E+00
         11   -1    0    0    0    0  0.00000000000E+00  0.00000000000E+00  0.50000000000E+02  0.50000000000E+02  0.00000000000E+00 0. -1.
        -11   -1    0    0    0    0 -0.00000000000E+00 -0.00000000000E+00 -0.50000000000E+02  0.50000000000E+02  0.00000000000E+00 0.  1.
         23    2    1    2    0    0  0.00000000000E+00  0.00000000000E+00  0.00000000000E+00  0.10000000000E+03  0.10000000000E+03 0.  0.
          5    1    3    3  501    0 -0.20546187932E+02 -0.23548006478E+01  0.45279344909E+02  0.50000000000E+02  0.47000000000E+01 0. -1.
         -5    1    3    3    0  501  0.20546187932E+02  0.23548006478E+01 -0.45279344909E+02  0.50000000000E+02  0.47000000000E+01 0.  1.
</event>
<event>
 5    1  0.8909620E-001  0.1000000E+03  0.7546771E-02  0.1163815E+00
         11   -1    0    0    0    0  0.00000000000E+00  0.00000000000E+00  0.50000000000E+02  0.50000000000E+02  0.00000000000E+00 0.  1.
        -11   -1    0    0    0    0 -0.00000000000E+00 -0.00000000000E+00 -0.50000000000E+02  0.50000000000E+02  0.00000000000E+00 0. -1.
         23    2    1    2    0    0  0.00000000000E+00  0.00000000000E+00  0.00000000000E+00  0.10000000000E+03  0.10000000000E+03 0.  0.
          5    1    3    3  501    0 -0.64520965076E+00 -0.49020849962E+02 -0.86284398047E+01  0.50000000000E+02  0.47000000000E+01 0. -1.
         -5    1    3    3    0  501  0.64520965076E+00  0.49020849962E+02  0.86284398047E+01  0.50000000000E+02  0.47000000000E+01 0.  1.
</event>
<event>
 5    1  0.8909620E-001  0.1000000E+03  0.7546771E-02  0.1163815E+00
         11   -1    0    0    0    0  0.00000000000E+00  0.00000000000E+00  0.50000000000E+02  0.50000000000E+02  0.00000000000E+00 0. -1.
        -11   -1    0    0    0    0 -0.00000000000E+00 -0.00000000000E+00 -0.50000000000E+02  0.50000000000E+02  0.00000000000E+00 0.  1.
         23    2    1    2    0    0  0.00000000000E+00  0.00000000000E+00  0.00000000000E+00  0.10000000000E+03  0.10000000000E+03 0.  0.
          5    1    3    3  501    0  0.12616231225E+01 -0.38858041378E+02  0.31086507160E+02  0.50000000000E+02  0.47000000000E+01 0. -1.
         -5    1    3    3    0  501 -0.12616231225E+01  0.38858041378E+02 -0.31086507160E+02  0.50000000000E+02  0.47000000000E+01 0.  1.
</event>
<event>
 5    1  0.8909620E-001  0.1000000E+03  0.7546771E-02  0.1163815E+00
         11   -1    0    0    0    0  0.00000000000E+00  0.00000000000E+00  0.50000000000E+02  0.50000000000E+02  0.00000000000E+00 0. -1.
        -11   -1    0    0    0    0 -0.00000000000E+00 -0.00000000000E+00 -0.50000000000E+02  0.50000000000E+02  0.00000000000E+00 0.  1.
         23    2    1    2    0    0  0.00000000000E+00  0.00000000000E+00  0.00000000000E+00  0.10000000000E+03  0.10000000000E+03 0.  0.
          5    1    3    3  501    0 -0.40548138411E+02 -0.21745584795E+02  0.18997052752E+02  0.50000000000E+02  0.47000000000E+01 0. -1.
         -5    1    3    3    0  501  0.40548138411E+02  0.21745584795E+02 -0.18997052752E+02  0.50000000000E+02  0.47000000000E+01 0.  1.
</event>
<event>
 5    1  0.8909620E-001  0.1000000E+03  0.7546771E-02  0.1163815E+00
         11   -1    0    0    0    0  0.00000000000E+00  0.00000000000E+00  0.50000000000E+02  0.50000000000E+02  0.00000000000E+00 0. -1.
        -11   -1    0    0    0    0 -0.00000000000E+00 -0.00000000000E+00 -0.50000000000E+02  0.50000000000E+02  0.00000000000E+00 0.  1.
         23    2    1    2    0    0  0.00000000000E+00  0.00000000000E+00  0.00000000000E+00  0.10000000000E+03  0.10000000000E+03 0.  0.
          5    1    3    3  501    0 -0.11220844536E+02 -0.22286714468E+02  0.43073251632E+02  0.50000000000E+02  0.47000000000E+01 0. -1.
         -5    1    3    3    0  501  0.11220844536E+02  0.22286714468E+02 -0.43073251632E+02  0.50000000000E+02  0.47000000000E+01 0.  1.
</event>
<event>
 5    1  0.8909620E-001  0.1000000E+03  0.7546771E-02  0.1163815E+00
         11   -1    0    0    0    0  0.00000000000E+00  0.00000000000E+00  0.50000000000E+02  0.50000000000E+02  0.00000000000E+00 0. -1.
        -11   -1    0    0    0    0 -0.00000000000E+00 -0.00000000000E+00 -0.50000000000E+02  0.50000000000E+02  0.00000000000E+00 0.  1.
         23    2    1    2    0    0  0.00000000000E+00  0.00000000000E+00  0.00000000000E+00  0.10000000000E+03  0.10000000000E+03 0.  0.
          5    1    3    3  501    0  0.30151323657E+02 -0.16147811100E+02  0.36167055153E+02  0.50000000000E+02  0.47000000000E+01 0. -1.
         -5    1    3    3    0  501 -0.30151323657E+02  0.16147811100E+02 -0.36167055153E+02  0.50000000000E+02  0.47000000000E+01 0.  1.
</event>
<event>
 5    1  0.8909620E-001  0.1000000E+03  0.7546771E-02  0.1163815E+00
         11   -1    0    0    0    0  0.00000000000E+00  0.00000000000E+00  0.50000000000E+02  0.50000000000E+02  0.00000000000E+00 0. -1.
        -11   -1    0    0    0    0 -0.00000000000E+00 -0.00000000000E+00 -0.50000000000E+02  0.50000000000E+02  0.00000000000E+00 0.  1.
         23    2    1    2    0    0  0.00000000000E+00  0.00000000000E+00  0.00000000000E+00  0.10000000000E+03  0.10000000000E+03 0.  0.
          5    1    3    3  501    0  0.31292840217E+02  0.13578474428E+02  0.36253181700E+02  0.50000000000E+02  0.47000000000E+01 0. -1.
         -5    1    3    3    0  501 -0.31292840217E+02 -0.13578474428E+02 -0.36253181700E+02  0.50000000000E+02  0.47000000000E+01 0.  1.
</event>
<event>
 5    1  0.8909620E-001  0.1000000E+03  0.7546771E-02  0.1163815E+00
         11   -1    0    0    0    0  0.00000000000E+00  0.00000000000E+00  0.50000000000E+02  0.50000000000E+02  0.00000000000E+00 0. -1.
        -11   -1    0    0    0    0 -0.00000000000E+00 -0.00000000000E+00 -0.50000000000E+02  0.50000000000E+02  0.00000000000E+00 0.  1.
         23    2    1    2    0    0  0.00000000000E+00  0.00000000000E+00  0.00000000000E+00  0.10000000000E+03  0.10000000000E+03 0.  0.
          5    1    3    3  501    0  0.38747308565E+02 -0.29385721138E+01  0.31111426726E+02  0.50000000000E+02  0.47000000000E+01 0. -1.
         -5    1    3    3    0  501 -0.38747308565E+02  0.29385721138E+01 -0.31111426726E+02  0.50000000000E+02  0.47000000000E+01 0.  1.
</event>
<event>
 5    1  0.8909620E-001  0.1000000E+03  0.7546771E-02  0.1163815E+00
         11   -1    0    0    0    0  0.00000000000E+00  0.00000000000E+00  0.50000000000E+02  0.50000000000E+02  0.00000000000E+00 0.  1.
        -11   -1    0    0    0    0 -0.00000000000E+00 -0.00000000000E+00 -0.50000000000E+02  0.50000000000E+02  0.00000000000E+00 0. -1.
         23    2    1    2    0    0  0.00000000000E+00  0.00000000000E+00  0.00000000000E+00  0.10000000000E+03  0.10000000000E+03 0.  0.
          5    1    3    3  501    0  0.43967515912E+02  0.20807751705E+02 -0.10573788987E+02  0.50000000000E+02  0.47000000000E+01 0. -1.
         -5    1    3    3    0  501 -0.43967515912E+02 -0.20807751705E+02  0.10573788987E+02  0.50000000000E+02  0.47000000000E+01 0.  1.
</event>
<event>
 5    1  0.8909620E-001  0.1000000E+03  0.7546771E-02  0.1163815E+00
         11   -1    0    0    0    0  0.00000000000E+00  0.00000000000E+00  0.50000000000E+02  0.50000000000E+02  0.00000000000E+00 0. -1.
        -11   -1    0    0    0    0 -0.00000000000E+00 -0.00000000000E+00 -0.50000000000E+02  0.50000000000E+02  0.00000000000E+00 0.  1.
         23    2    1    2    0    0  0.00000000000E+00  0.00000000000E+00  0.00000000000E+00  0.10000000000E+03  0.10000000000E+03 0.  0.
          5    1    3    3  501    0 -0.30408803496E+01  0.99762852389E+01  0.48673779179E+02  0.50000000000E+02  0.47000000000E+01 0. -1.
         -5    1    3    3    0  501  0.30408803496E+01 -0.99762852389E+01 -0.48673779179E+02  0.50000000000E+02  0.47000000000E+01 0.  1.
</event>
<event>
 5    1  0.8909620E-001  0.1000000E+03  0.7546771E-02  0.1163815E+00
         11   -1    0    0    0    0  0.00000000000E+00  0.00000000000E+00  0.50000000000E+02  0.50000000000E+02  0.00000000000E+00 0. -1.
        -11   -1    0    0    0    0 -0.00000000000E+00 -0.00000000000E+00 -0.50000000000E+02  0.50000000000E+02  0.00000000000E+00 0.  1.
         23    2    1    2    0    0  0.00000000000E+00  0.00000000000E+00  0.00000000000E+00  0.10000000000E+03  0.10000000000E+03 0.  0.
          5    1    3    3  501    0  0.28391639562E+02  0.19681693060E+02  0.35839304699E+02  0.50000000000E+02  0.47000000000E+01 0. -1.
         -5    1    3    3    0  501 -0.28391639562E+02 -0.19681693060E+02 -0.35839304699E+02  0.50000000000E+02  0.47000000000E+01 0.  1.
</event>
<event>
 5    1  0.8909620E-001  0.1000000E+03  0.7546771E-02  0.1163815E+00
         11   -1    0    0    0    0  0.00000000000E+00  0.00000000000E+00  0.50000000000E+02  0.50000000000E+02  0.00000000000E+00 0.  1.
        -11   -1    0    0    0    0 -0.00000000000E+00 -0.00000000000E+00 -0.50000000000E+02  0.50000000000E+02  0.00000000000E+00 0. -1.
         23    2    1    2    0    0  0.00000000000E+00  0.00000000000E+00  0.00000000000E+00  0.10000000000E+03  0.10000000000E+03 0.  0.
          5    1    3    3  501    0 -0.29624656651E+01 -0.16976339308E+01 -0.49661371671E+02  0.50000000000E+02  0.47000000000E+01 0. -1.
         -5    1    3    3    0  501  0.29624656651E+01  0.16976339308E+01  0.49661371671E+02  0.50000000000E+02  0.47000000000E+01 0.  1.
</event>
<event>
 5    1  0.8909620E-001  0.1000000E+03  0.7546771E-02  0.1163815E+00
         11   -1    0    0    0    0  0.00000000000E+00  0.00000000000E+00  0.50000000000E+02  0.50000000000E+02  0.00000000000E+00 0. -1.
        -11   -1    0    0    0    0 -0.00000000000E+00 -0.00000000000E+00 -0.50000000000E+02  0.50000000000E+02  0.00000000000E+00 0.  1.
         23    2    1    2    0    0  0.00000000000E+00  0.00000000000E+00  0.00000000000E+00  0.10000000000E+03  0.10000000000E+03 0.  0.
          5    1    3    3  501    0  0.45851110509E+01 -0.48940728421E+02  0.78544164836E+01  0.50000000000E+02  0.47000000000E+01 0. -1.
         -5    1    3    3    0  501 -0.45851110509E+01  0.48940728421E+02 -0.78544164836E+01  0.50000000000E+02  0.47000000000E+01 0.  1.
</event>
<event>
 5    1  0.8909620E-001  0.1000000E+03  0.7546771E-02  0.1163815E+00
         11   -1    0    0    0    0  0.00000000000E+00  0.00000000000E+00  0.50000000000E+02  0.50000000000E+02  0.00000000000E+00 0.  1.
        -11   -1    0    0    0    0 -0.00000000000E+00 -0.00000000000E+00 -0.50000000000E+02  0.50000000000E+02  0.00000000000E+00 0. -1.
         23    2    1    2    0    0  0.00000000000E+00  0.00000000000E+00  0.00000000000E+00  0.10000000000E+03  0.10000000000E+03 0.  0.
          5    1    3    3  501    0  0.31831264594E+02 -0.37059375563E+02 -0.95542282370E+01  0.50000000000E+02  0.47000000000E+01 0. -1.
         -5    1    3    3    0  501 -0.31831264594E+02  0.37059375563E+02  0.95542282370E+01  0.50000000000E+02  0.47000000000E+01 0.  1.
</event>
<event>
 5    1  0.8909620E-001  0.1000000E+03  0.7546771E-02  0.1163815E+00
         11   -1    0    0    0    0  0.00000000000E+00  0.00000000000E+00  0.50000000000E+02  0.50000000000E+02  0.00000000000E+00 0.  1.
        -11   -1    0    0    0    0 -0.00000000000E+00 -0.00000000000E+00 -0.50000000000E+02  0.50000000000E+02  0.00000000000E+00 0. -1.
         23    2    1    2    0    0  0.00000000000E+00  0.00000000000E+00  0.00000000000E+00  0.10000000000E+03  0.10000000000E+03 0.  0.
          5    1    3    3  501    0  0.36433024019E+02 -0.29078358384E+01  0.33794811016E+02  0.50000000000E+02  0.47000000000E+01 0.  1.
         -5    1    3    3    0  501 -0.36433024019E+02  0.29078358384E+01 -0.33794811016E+02  0.50000000000E+02  0.47000000000E+01 0. -1.
</event>
<event>
 5    1  0.8909620E-001  0.1000000E+03  0.7546771E-02  0.1163815E+00
         11   -1    0    0    0    0  0.00000000000E+00  0.00000000000E+00  0.50000000000E+02  0.50000000000E+02  0.00000000000E+00 0. -1.
        -11   -1    0    0    0    0 -0.00000000000E+00 -0.00000000000E+00 -0.50000000000E+02  0.50000000000E+02  0.00000000000E+00 0.  1.
         23    2    1    2    0    0  0.00000000000E+00  0.00000000000E+00  0.00000000000E+00  0.10000000000E+03  0.10000000000E+03 0.  0.
          5    1    3    3  501    0  0.15944396532E+02 -0.38000158895E+02  0.27922645705E+02  0.50000000000E+02  0.47000000000E+01 0. -1.
         -5    1    3    3    0  501 -0.15944396532E+02  0.38000158895E+02 -0.27922645705E+02  0.50000000000E+02  0.47000000000E+01 0.  1.
</event>
<event>
 5    1  0.8909620E-001  0.1000000E+03  0.7546771E-02  0.1163815E+00
         11   -1    0    0    0    0  0.00000000000E+00  0.00000000000E+00  0.50000000000E+02  0.50000000000E+02  0.00000000000E+00 0.  1.
        -11   -1    0    0    0    0 -0.00000000000E+00 -0.00000000000E+00 -0.50000000000E+02  0.50000000000E+02  0.00000000000E+00 0. -1.
         23    2    1    2    0    0  0.00000000000E+00  0.00000000000E+00  0.00000000000E+00  0.10000000000E+03  0.10000000000E+03 0.  0.
          5    1    3    3  501    0 -0.21959203344E+02  0.19797911683E+02 -0.40046798642E+02  0.50000000000E+02  0.47000000000E+01 0. -1.
         -5    1    3    3    0  501  0.21959203344E+02 -0.19797911683E+02  0.40046798642E+02  0.50000000000E+02  0.47000000000E+01 0.  1.
</event>
<event>
 5    1  0.8909620E-001  0.1000000E+03  0.7546771E-02  0.1163815E+00
         11   -1    0    0    0    0  0.00000000000E+00  0.00000000000E+00  0.50000000000E+02  0.50000000000E+02  0.00000000000E+00 0.  1.
        -11   -1    0    0    0    0 -0.00000000000E+00 -0.00000000000E+00 -0.50000000000E+02  0.50000000000E+02  0.00000000000E+00 0. -1.
         23    2    1    2    0    0  0.00000000000E+00  0.00000000000E+00  0.00000000000E+00  0.10000000000E+03  0.10000000000E+03 0.  0.
          5    1    3    3  501    0 -0.49530384646E+02 -0.49233317053E+01 -0.64171777210E+00  0.50000000000E+02  0.47000000000E+01 0. -1.
         -5    1    3    3    0  501  0.49530384646E+02  0.49233317053E+01  0.64171777210E+00  0.50000000000E+02  0.47000000000E+01 0.  1.
</event>
<event>
 5    1  0.8909620E-001  0.1000000E+03  0.7546771E-02  0.1163815E+00
         11   -1    0    0    0    0  0.00000000000E+00  0.00000000000E+00  0.50000000000E+02  0.50000000000E+02  0.00000000000E+00 0. -1.
        -11   -1    0    0    0    0 -0.00000000000E+00 -0.00000000000E+00 -0.50000000000E+02  0.50000000000E+02  0.00000000000E+00 0.  1.
         23    2    1    2    0    0  0.00000000000E+00  0.00000000000E+00  0.00000000000E+00  0.10000000000E+03  0.10000000000E+03 0.  0.
          5    1    3    3  501    0  0.48884010045E+02 -0.52932951001E+00  0.93799452105E+01  0.50000000000E+02  0.47000000000E+01 0. -1.
         -5    1    3    3    0  501 -0.48884010045E+02  0.52932951001E+00 -0.93799452105E+01  0.50000000000E+02  0.47000000000E+01 0.  1.
</event>
<event>
 5    1  0.8909620E-001  0.1000000E+03  0.7546771E-02  0.1163815E+00
         11   -1    0    0    0    0  0.00000000000E+00  0.00000000000E+00  0.50000000000E+02  0.50000000000E+02  0.00000000000E+00 0. -1.
        -11   -1    0    0    0    0 -0.00000000000E+00 -0.00000000000E+00 -0.50000000000E+02  0.50000000000E+02  0.00000000000E+00 0.  1.
         23    2    1    2    0    0  0.00000000000E+00  0.00000000000E+00  0.00000000000E+00  0.10000000000E+03  0.10000000000E+03 0.  0.
          5    1    3    3  501    0 -0.21782488760E+02 -0.30429510490E+02  0.32824961153E+02  0.50000000000E+02  0.47000000000E+01 0. -1.
         -5    1    3    3    0  501  0.21782488760E+02  0.30429510490E+02 -0.32824961153E+02  0.50000000000E+02  0.47000000000E+01 0.  1.
</event>
<event>
 5    1  0.8909620E-001  0.1000000E+03  0.7546771E-02  0.1163815E+00
         11   -1    0    0    0    0  0.00000000000E+00  0.00000000000E+00  0.50000000000E+02  0.50000000000E+02  0.00000000000E+00 0. -1.
        -11   -1    0    0    0    0 -0.00000000000E+00 -0.00000000000E+00 -0.50000000000E+02  0.50000000000E+02  0.00000000000E+00 0.  1.
         23    2    1    2    0    0  0.00000000000E+00  0.00000000000E+00  0.00000000000E+00  0.10000000000E+03  0.10000000000E+03 0.  0.
          5    1    3    3  501    0  0.61109635049E+01 -0.27886632499E+02  0.40778693614E+02  0.50000000000E+02  0.47000000000E+01 0. -1.
         -5    1    3    3    0  501 -0.61109635049E+01  0.27886632499E+02 -0.40778693614E+02  0.50000000000E+02  0.47000000000E+01 0.  1.
</event>
<event>
 5    1  0.8909620E-001  0.1000000E+03  0.7546771E-02  0.1163815E+00
         11   -1    0    0    0    0  0.00000000000E+00  0.00000000000E+00  0.50000000000E+02  0.50000000000E+02  0.00000000000E+00 0.  1.
        -11   -1    0    0    0    0 -0.00000000000E+00 -0.00000000000E+00 -0.50000000000E+02  0.50000000000E+02  0.00000000000E+00 0. -1.
         23    2    1    2    0    0  0.00000000000E+00  0.00000000000E+00  0.00000000000E+00  0.10000000000E+03  0.10000000000E+03 0.  0.
          5    1    3    3  501    0 -0.43416952837E+02 -0.16266568052E+02 -0.18118415222E+02  0.50000000000E+02  0.47000000000E+01 0. -1.
         -5    1    3    3    0  501  0.43416952837E+02  0.16266568052E+02  0.18118415222E+02  0.50000000000E+02  0.47000000000E+01 0.  1.
</event>
<event>
 5    1  0.8909620E-001  0.1000000E+03  0.7546771E-02  0.1163815E+00
         11   -1    0    0    0    0  0.00000000000E+00  0.00000000000E+00  0.50000000000E+02  0.50000000000E+02  0.00000000000E+00 0. -1.
        -11   -1    0    0    0    0 -0.00000000000E+00 -0.00000000000E+00 -0.50000000000E+02  0.50000000000E+02  0.00000000000E+00 0.  1.
         23    2    1    2    0    0  0.00000000000E+00  0.00000000000E+00  0.00000000000E+00  0.10000000000E+03  0.10000000000E+03 0.  0.
          5    1    3    3  501    0 -0.67387744926E+01 -0.48133927444E+02  0.10752857627E+02  0.50000000000E+02  0.47000000000E+01 0. -1.
         -5    1    3    3    0  501  0.67387744926E+01  0.48133927444E+02 -0.10752857627E+02  0.50000000000E+02  0.47000000000E+01 0.  1.
</event>
<event>
 5    1  0.8909620E-001  0.1000000E+03  0.7546771E-02  0.1163815E+00
         11   -1    0    0    0    0  0.00000000000E+00  0.00000000000E+00  0.50000000000E+02  0.50000000000E+02  0.00000000000E+00 0. -1.
        -11   -1    0    0    0    0 -0.00000000000E+00 -0.00000000000E+00 -0.50000000000E+02  0.50000000000E+02  0.00000000000E+00 0.  1.
         23    2    1    2    0    0  0.00000000000E+00  0.00000000000E+00  0.00000000000E+00  0.10000000000E+03  0.10000000000E+03 0.  0.
          5    1    3    3  501    0  0.46367234083E+02  0.81502716493E+01  0.16172899417E+02  0.50000000000E+02  0.47000000000E+01 0. -1.
         -5    1    3    3    0  501 -0.46367234083E+02 -0.81502716493E+01 -0.16172899417E+02  0.50000000000E+02  0.47000000000E+01 0.  1.
</event>
<event>
 5    1  0.8909620E-001  0.1000000E+03  0.7546771E-02  0.1163815E+00
         11   -1    0    0    0    0  0.00000000000E+00  0.00000000000E+00  0.50000000000E+02  0.50000000000E+02  0.00000000000E+00 0. -1.
        -11   -1    0    0    0    0 -0.00000000000E+00 -0.00000000000E+00 -0.50000000000E+02  0.50000000000E+02  0.00000000000E+00 0.  1.
         23    2    1    2    0    0  0.00000000000E+00  0.00000000000E+00  0.00000000000E+00  0.10000000000E+03  0.10000000000E+03 0.  0.
          5    1    3    3  501    0  0.44936864052E+02  0.96403935908E+01 -0.19122004618E+02  0.50000000000E+02  0.47000000000E+01 0. -1.
         -5    1    3    3    0  501 -0.44936864052E+02 -0.96403935908E+01  0.19122004618E+02  0.50000000000E+02  0.47000000000E+01 0.  1.
</event>
<event>
 5    1  0.8909620E-001  0.1000000E+03  0.7546771E-02  0.1163815E+00
         11   -1    0    0    0    0  0.00000000000E+00  0.00000000000E+00  0.50000000000E+02  0.50000000000E+02  0.00000000000E+00 0.  1.
        -11   -1    0    0    0    0 -0.00000000000E+00 -0.00000000000E+00 -0.50000000000E+02  0.50000000000E+02  0.00000000000E+00 0. -1.
         23    2    1    2    0    0  0.00000000000E+00  0.00000000000E+00  0.00000000000E+00  0.10000000000E+03  0.10000000000E+03 0.  0.
          5    1    3    3  501    0  0.27273881251E+01 -0.47813873184E+02 -0.13575893531E+02  0.50000000000E+02  0.47000000000E+01 0. -1.
         -5    1    3    3    0  501 -0.27273881251E+01  0.47813873184E+02  0.13575893531E+02  0.50000000000E+02  0.47000000000E+01 0.  1.
</event>
<event>
 5    1  0.8909620E-001  0.1000000E+03  0.7546771E-02  0.1163815E+00
         11   -1    0    0    0    0  0.00000000000E+00  0.00000000000E+00  0.50000000000E+02  0.50000000000E+02  0.00000000000E+00 0. -1.
        -11   -1    0    0    0    0 -0.00000000000E+00 -0.00000000000E+00 -0.50000000000E+02  0.50000000000E+02  0.00000000000E+00 0.  1.
         23    2    1    2    0    0  0.00000000000E+00  0.00000000000E+00  0.00000000000E+00  0.10000000000E+03  0.10000000000E+03 0.  0.
          5    1    3    3  501    0 -0.38168908320E+02  0.20341166815E+02  0.24643079561E+02  0.50000000000E+02  0.47000000000E+01 0. -1.
         -5    1    3    3    0  501  0.38168908320E+02 -0.20341166815E+02 -0.24643079561E+02  0.50000000000E+02  0.47000000000E+01 0.  1.
</event>
<event>
 5    1  0.8909620E-001  0.1000000E+03  0.7546771E-02  0.1163815E+00
         11   -1    0    0    0    0  0.00000000000E+00  0.00000000000E+00  0.50000000000E+02  0.50000000000E+02  0.00000000000E+00 0. -1.
        -11   -1    0    0    0    0 -0.00000000000E+00 -0.00000000000E+00 -0.50000000000E+02  0.50000000000E+02  0.00000000000E+00 0.  1.
         23    2    1    2    0    0  0.00000000000E+00  0.00000000000E+00  0.00000000000E+00  0.10000000000E+03  0.10000000000E+03 0.  0.
          5    1    3    3  501    0  0.30331170386E+02 -0.27359526268E+02  0.28449717493E+02  0.50000000000E+02  0.47000000000E+01 0. -1.
         -5    1    3    3    0  501 -0.30331170386E+02  0.27359526268E+02 -0.28449717493E+02  0.50000000000E+02  0.47000000000E+01 0.  1.
</event>
<event>
 5    1  0.8909620E-001  0.1000000E+03  0.7546771E-02  0.1163815E+00
         11   -1    0    0    0    0  0.00000000000E+00  0.00000000000E+00  0.50000000000E+02  0.50000000000E+02  0.00000000000E+00 0. -1.
        -11   -1    0    0    0    0 -0.00000000000E+00 -0.00000000000E+00 -0.50000000000E+02  0.50000000000E+02  0.00000000000E+00 0.  1.
         23    2    1    2    0    0  0.00000000000E+00  0.00000000000E+00  0.00000000000E+00  0.10000000000E+03  0.10000000000E+03 0.  0.
          5    1    3    3  501    0  0.39686668281E+02  0.18292290719E+02  0.23838424046E+02  0.50000000000E+02  0.47000000000E+01 0. -1.
         -5    1    3    3    0  501 -0.39686668281E+02 -0.18292290719E+02 -0.23838424046E+02  0.50000000000E+02  0.47000000000E+01 0.  1.
</event>
<event>
 5    1  0.8909620E-001  0.1000000E+03  0.7546771E-02  0.1163815E+00
         11   -1    0    0    0    0  0.00000000000E+00  0.00000000000E+00  0.50000000000E+02  0.50000000000E+02  0.00000000000E+00 0. -1.
        -11   -1    0    0    0    0 -0.00000000000E+00 -0.00000000000E+00 -0.50000000000E+02  0.50000000000E+02  0.00000000000E+00 0.  1.
         23    2    1    2    0    0  0.00000000000E+00  0.00000000000E+00  0.00000000000E+00  0.10000000000E+03  0.10000000000E+03 0.  0.
          5    1    3    3  501    0  0.13057728493E+02  0.23768307970E+02  0.41742942671E+02  0.50000000000E+02  0.47000000000E+01 0. -1.
         -5    1    3    3    0  501 -0.13057728493E+02 -0.23768307970E+02 -0.41742942671E+02  0.50000000000E+02  0.47000000000E+01 0.  1.
</event>
<event>
 5    1  0.8909620E-001  0.1000000E+03  0.7546771E-02  0.1163815E+00
         11   -1    0    0    0    0  0.00000000000E+00  0.00000000000E+00  0.50000000000E+02  0.50000000000E+02  0.00000000000E+00 0. -1.
        -11   -1    0    0    0    0 -0.00000000000E+00 -0.00000000000E+00 -0.50000000000E+02  0.50000000000E+02  0.00000000000E+00 0.  1.
         23    2    1    2    0    0  0.00000000000E+00  0.00000000000E+00  0.00000000000E+00  0.10000000000E+03  0.10000000000E+03 0.  0.
          5    1    3    3  501    0 -0.48617140940E+02 -0.29220385681E+01  0.10283253252E+02  0.50000000000E+02  0.47000000000E+01 0. -1.
         -5    1    3    3    0  501  0.48617140940E+02  0.29220385681E+01 -0.10283253252E+02  0.50000000000E+02  0.47000000000E+01 0.  1.
</event>
<event>
 5    1  0.8909620E-001  0.1000000E+03  0.7546771E-02  0.1163815E+00
         11   -1    0    0    0    0  0.00000000000E+00  0.00000000000E+00  0.50000000000E+02  0.50000000000E+02  0.00000000000E+00 0.  1.
        -11   -1    0    0    0    0 -0.00000000000E+00 -0.00000000000E+00 -0.50000000000E+02  0.50000000000E+02  0.00000000000E+00 0. -1.
         23    2    1    2    0    0  0.00000000000E+00  0.00000000000E+00  0.00000000000E+00  0.10000000000E+03  0.10000000000E+03 0.  0.
          5    1    3    3  501    0 -0.37540189227E+01  0.46878518503E+02 -0.16316306105E+02  0.50000000000E+02  0.47000000000E+01 0. -1.
         -5    1    3    3    0  501  0.37540189227E+01 -0.46878518503E+02  0.16316306105E+02  0.50000000000E+02  0.47000000000E+01 0.  1.
</event>
<event>
 5    1  0.8909620E-001  0.1000000E+03  0.7546771E-02  0.1163815E+00
         11   -1    0    0    0    0  0.00000000000E+00  0.00000000000E+00  0.50000000000E+02  0.50000000000E+02  0.00000000000E+00 0.  1.
        -11   -1    0    0    0    0 -0.00000000000E+00 -0.00000000000E+00 -0.50000000000E+02  0.50000000000E+02  0.00000000000E+00 0. -1.
         23    2    1    2    0    0  0.00000000000E+00  0.00000000000E+00  0.00000000000E+00  0.10000000000E+03  0.10000000000E+03 0.  0.
          5    1    3    3  501    0  0.44964288687E+02  0.18843443803E+02 -0.10052232015E+02  0.50000000000E+02  0.47000000000E+01 0. -1.
         -5    1    3    3    0  501 -0.44964288687E+02 -0.18843443803E+02  0.10052232015E+02  0.50000000000E+02  0.47000000000E+01 0.  1.
</event>
<event>
 5    1  0.8909620E-001  0.1000000E+03  0.7546771E-02  0.1163815E+00
         11   -1    0    0    0    0  0.00000000000E+00  0.00000000000E+00  0.50000000000E+02  0.50000000000E+02  0.00000000000E+00 0.  1.
        -11   -1    0    0    0    0 -0.00000000000E+00 -0.00000000000E+00 -0.50000000000E+02  0.50000000000E+02  0.00000000000E+00 0. -1.
         23    2    1    2    0    0  0.00000000000E+00  0.00000000000E+00  0.00000000000E+00  0.10000000000E+03  0.10000000000E+03 0.  0.
          5    1    3    3  501    0  0.22139824383E+02 -0.30839734225E+02 -0.32197033546E+02  0.50000000000E+02  0.47000000000E+01 0. -1.
         -5    1    3    3    0  501 -0.22139824383E+02  0.30839734225E+02  0.32197033546E+02  0.50000000000E+02  0.47000000000E+01 0.  1.
</event>
<event>
 5    1  0.8909620E-001  0.1000000E+03  0.7546771E-02  0.1163815E+00
         11   -1    0    0    0    0  0.00000000000E+00  0.00000000000E+00  0.50000000000E+02  0.50000000000E+02  0.00000000000E+00 0. -1.
        -11   -1    0    0    0    0 -0.00000000000E+00 -0.00000000000E+00 -0.50000000000E+02  0.50000000000E+02  0.00000000000E+00 0.  1.
         23    2    1    2    0    0  0.00000000000E+00  0.00000000000E+00  0.00000000000E+00  0.10000000000E+03  0.10000000000E+03 0.  0.
          5    1    3    3  501    0  0.49435550497E+02 -0.32777771771E+01 -0.48262328842E+01  0.50000000000E+02  0.47000000000E+01 0. -1.
         -5    1    3    3    0  501 -0.49435550497E+02  0.32777771771E+01  0.48262328842E+01  0.50000000000E+02  0.47000000000E+01 0.  1.
</event>
<event>
 5    1  0.8909620E-001  0.1000000E+03  0.7546771E-02  0.1163815E+00
         11   -1    0    0    0    0  0.00000000000E+00  0.00000000000E+00  0.50000000000E+02  0.50000000000E+02  0.00000000000E+00 0. -1.
        -11   -1    0    0    0    0 -0.00000000000E+00 -0.00000000000E+00 -0.50000000000E+02  0.50000000000E+02  0.00000000000E+00 0.  1.
         23    2    1    2    0    0  0.00000000000E+00  0.00000000000E+00  0.00000000000E+00  0.10000000000E+03  0.10000000000E+03 0.  0.
          5    1    3    3  501    0 -0.14431144532E+02 -0.34736215353E+02  0.32604407838E+02  0.50000000000E+02  0.47000000000E+01 0. -1.
         -5    1    3    3    0  501  0.14431144532E+02  0.34736215353E+02 -0.32604407838E+02  0.50000000000E+02  0.47000000000E+01 0.  1.
</event>
<event>
 5    1  0.8909620E-001  0.1000000E+03  0.7546771E-02  0.1163815E+00
         11   -1    0    0    0    0  0.00000000000E+00  0.00000000000E+00  0.50000000000E+02  0.50000000000E+02  0.00000000000E+00 0. -1.
        -11   -1    0    0    0    0 -0.00000000000E+00 -0.00000000000E+00 -0.50000000000E+02  0.50000000000E+02  0.00000000000E+00 0.  1.
         23    2    1    2    0    0  0.00000000000E+00  0.00000000000E+00  0.00000000000E+00  0.10000000000E+03  0.10000000000E+03 0.  0.
          5    1    3    3  501    0 -0.17208680206E+02 -0.30243636687E+02  0.35596260556E+02  0.50000000000E+02  0.47000000000E+01 0. -1.
         -5    1    3    3    0  501  0.17208680206E+02  0.30243636687E+02 -0.35596260556E+02  0.50000000000E+02  0.47000000000E+01 0.  1.
</event>
<event>
 5    1  0.8909620E-001  0.1000000E+03  0.7546771E-02  0.1163815E+00
         11   -1    0    0    0    0  0.00000000000E+00  0.00000000000E+00  0.50000000000E+02  0.50000000000E+02  0.00000000000E+00 0. -1.
        -11   -1    0    0    0    0 -0.00000000000E+00 -0.00000000000E+00 -0.50000000000E+02  0.50000000000E+02  0.00000000000E+00 0.  1.
         23    2    1    2    0    0  0.00000000000E+00  0.00000000000E+00  0.00000000000E+00  0.10000000000E+03  0.10000000000E+03 0.  0.
          5    1    3    3  501    0 -0.42468117163E+02  0.25723217177E+02 -0.35616179924E+01  0.50000000000E+02  0.47000000000E+01 0. -1.
         -5    1    3    3    0  501  0.42468117163E+02 -0.25723217177E+02  0.35616179924E+01  0.50000000000E+02  0.47000000000E+01 0.  1.
</event>
<event>
 5    1  0.8909620E-001  0.1000000E+03  0.7546771E-02  0.1163815E+00
         11   -1    0    0    0    0  0.00000000000E+00  0.00000000000E+00  0.50000000000E+02  0.50000000000E+02  0.00000000000E+00 0. -1.
        -11   -1    0    0    0    0 -0.00000000000E+00 -0.00000000000E+00 -0.50000000000E+02  0.50000000000E+02  0.00000000000E+00 0.  1.
         23    2    1    2    0    0  0.00000000000E+00  0.00000000000E+00  0.00000000000E+00  0.10000000000E+03  0.10000000000E+03 0.  0.
          5    1    3    3  501    0  0.16536600837E+02 -0.19897649697E+02  0.42526866441E+02  0.50000000000E+02  0.47000000000E+01 0. -1.
         -5    1    3    3    0  501 -0.16536600837E+02  0.19897649697E+02 -0.42526866441E+02  0.50000000000E+02  0.47000000000E+01 0.  1.
</event>
<event>
 5    1  0.8909620E-001  0.1000000E+03  0.7546771E-02  0.1163815E+00
         11   -1    0    0    0    0  0.00000000000E+00  0.00000000000E+00  0.50000000000E+02  0.50000000000E+02  0.00000000000E+00 0.  1.
        -11   -1    0    0    0    0 -0.00000000000E+00 -0.00000000000E+00 -0.50000000000E+02  0.50000000000E+02  0.00000000000E+00 0. -1.
         23    2    1    2    0    0  0.00000000000E+00  0.00000000000E+00  0.00000000000E+00  0.10000000000E+03  0.10000000000E+03 0.  0.
          5    1    3    3  501    0 -0.20952974139E+01 -0.38946293600E+02 -0.30930663484E+02  0.50000000000E+02  0.47000000000E+01 0. -1.
         -5    1    3    3    0  501  0.20952974139E+01  0.38946293600E+02  0.30930663484E+02  0.50000000000E+02  0.47000000000E+01 0.  1.
</event>
<event>
 5    1  0.8909620E-001  0.1000000E+03  0.7546771E-02  0.1163815E+00
         11   -1    0    0    0    0  0.00000000000E+00  0.00000000000E+00  0.50000000000E+02  0.50000000000E+02  0.00000000000E+00 0. -1.
        -11   -1    0    0    0    0 -0.00000000000E+00 -0.00000000000E+00 -0.50000000000E+02  0.50000000000E+02  0.00000000000E+00 0.  1.
         23    2    1    2    0    0  0.00000000000E+00  0.00000000000E+00  0.00000000000E+00  0.10000000000E+03  0.10000000000E+03 0.  0.
          5    1    3    3  501    0  0.33889366866E+02  0.84896861047E+00  0.36451338326E+02  0.50000000000E+02  0.47000000000E+01 0. -1.
         -5    1    3    3    0  501 -0.33889366866E+02 -0.84896861047E+00 -0.36451338326E+02  0.50000000000E+02  0.47000000000E+01 0.  1.
</event>
<event>
 5    1  0.8909620E-001  0.1000000E+03  0.7546771E-02  0.1163815E+00
         11   -1    0    0    0    0  0.00000000000E+00  0.00000000000E+00  0.50000000000E+02  0.50000000000E+02  0.00000000000E+00 0. -1.
        -11   -1    0    0    0    0 -0.00000000000E+00 -0.00000000000E+00 -0.50000000000E+02  0.50000000000E+02  0.00000000000E+00 0.  1.
         23    2    1    2    0    0  0.00000000000E+00  0.00000000000E+00  0.00000000000E+00  0.10000000000E+03  0.10000000000E+03 0.  0.
          5    1    3    3  501    0 -0.91120241601E+01 -0.22913353795E+02  0.43241868988E+02  0.50000000000E+02  0.47000000000E+01 0. -1.
         -5    1    3    3    0  501  0.91120241601E+01  0.22913353795E+02 -0.43241868988E+02  0.50000000000E+02  0.47000000000E+01 0.  1.
</event>
<event>
 5    1  0.8909620E-001  0.1000000E+03  0.7546771E-02  0.1163815E+00
         11   -1    0    0    0    0  0.00000000000E+00  0.00000000000E+00  0.50000000000E+02  0.50000000000E+02  0.00000000000E+00 0. -1.
        -11   -1    0    0    0    0 -0.00000000000E+00 -0.00000000000E+00 -0.50000000000E+02  0.50000000000E+02  0.00000000000E+00 0.  1.
         23    2    1    2    0    0  0.00000000000E+00  0.00000000000E+00  0.00000000000E+00  0.10000000000E+03  0.10000000000E+03 0.  0.
          5    1    3    3  501    0 -0.33785708227E+02  0.18367776301E+02  0.31607921687E+02  0.50000000000E+02  0.47000000000E+01 0. -1.
         -5    1    3    3    0  501  0.33785708227E+02 -0.18367776301E+02 -0.31607921687E+02  0.50000000000E+02  0.47000000000E+01 0.  1.
</event>
<event>
 5    1  0.8909620E-001  0.1000000E+03  0.7546771E-02  0.1163815E+00
         11   -1    0    0    0    0  0.00000000000E+00  0.00000000000E+00  0.50000000000E+02  0.50000000000E+02  0.00000000000E+00 0. -1.
        -11   -1    0    0    0    0 -0.00000000000E+00 -0.00000000000E+00 -0.50000000000E+02  0.50000000000E+02  0.00000000000E+00 0.  1.
         23    2    1    2    0    0  0.00000000000E+00  0.00000000000E+00  0.00000000000E+00  0.10000000000E+03  0.10000000000E+03 0.  0.
          5    1    3    3  501    0  0.11838104552E+02  0.30366165606E+02  0.37625327467E+02  0.50000000000E+02  0.47000000000E+01 0. -1.
         -5    1    3    3    0  501 -0.11838104552E+02 -0.30366165606E+02 -0.37625327467E+02  0.50000000000E+02  0.47000000000E+01 0.  1.
</event>
<event>
 5    1  0.8909620E-001  0.1000000E+03  0.7546771E-02  0.1163815E+00
         11   -1    0    0    0    0  0.00000000000E+00  0.00000000000E+00  0.50000000000E+02  0.50000000000E+02  0.00000000000E+00 0.  1.
        -11   -1    0    0    0    0 -0.00000000000E+00 -0.00000000000E+00 -0.50000000000E+02  0.50000000000E+02  0.00000000000E+00 0. -1.
         23    2    1    2    0    0  0.00000000000E+00  0.00000000000E+00  0.00000000000E+00  0.10000000000E+03  0.10000000000E+03 0.  0.
          5    1    3    3  501    0 -0.20244608853E+02  0.94312524750E+01  0.44487271091E+02  0.50000000000E+02  0.47000000000E+01 0.  1.
         -5    1    3    3    0  501  0.20244608853E+02 -0.94312524750E+01 -0.44487271091E+02  0.50000000000E+02  0.47000000000E+01 0. -1.
</event>
<event>
 5    1  0.8909620E-001  0.1000000E+03  0.7546771E-02  0.1163815E+00
         11   -1    0    0    0    0  0.00000000000E+00  0.00000000000E+00  0.50000000000E+02  0.50000000000E+02  0.00000000000E+00 0.  1.
        -11   -1    0    0    0    0 -0.00000000000E+00 -0.00000000000E+00 -0.50000000000E+02  0.50000000000E+02  0.00000000000E+00 0. -1.
         23    2    1    2    0    0  0.00000000000E+00  0.00000000000E+00  0.00000000000E+00  0.10000000000E+03  0.10000000000E+03 0.  0.
          5    1    3    3  501    0  0.28716239916E+02 -0.30776251548E+02 -0.26572728609E+02  0.50000000000E+02  0.47000000000E+01 0. -1.
         -5    1    3    3    0  501 -0.28716239916E+02  0.30776251548E+02  0.26572728609E+02  0.50000000000E+02  0.47000000000E+01 0.  1.
</event>
<event>
 5    1  0.8909620E-001  0.1000000E+03  0.7546771E-02  0.1163815E+00
         11   -1    0    0    0    0  0.00000000000E+00  0.00000000000E+00  0.50000000000E+02  0.50000000000E+02  0.00000000000E+00 0. -1.
        -11   -1    0    0    0    0 -0.00000000000E+00 -0.00000000000E+00 -0.50000000000E+02  0.50000000000E+02  0.00000000000E+00 0.  1.
         23    2    1    2    0    0  0.00000000000E+00  0.00000000000E+00  0.00000000000E+00  0.10000000000E+03  0.10000000000E+03 0.  0.
          5    1    3    3  501    0  0.31689397684E+02 -0.16401604235E+02 -0.34708492519E+02  0.50000000000E+02  0.47000000000E+01 0.  1.
         -5    1    3    3    0  501 -0.31689397684E+02  0.16401604235E+02  0.34708492519E+02  0.50000000000E+02  0.47000000000E+01 0. -1.
</event>
<event>
 5    1  0.8909620E-001  0.1000000E+03  0.7546771E-02  0.1163815E+00
         11   -1    0    0    0    0  0.00000000000E+00  0.00000000000E+00  0.50000000000E+02  0.50000000000E+02  0.00000000000E+00 0.  1.
        -11   -1    0    0    0    0 -0.00000000000E+00 -0.00000000000E+00 -0.50000000000E+02  0.50000000000E+02  0.00000000000E+00 0. -1.
         23    2    1    2    0    0  0.00000000000E+00  0.00000000000E+00  0.00000000000E+00  0.10000000000E+03  0.10000000000E+03 0.  0.
          5    1    3    3  501    0  0.13975186604E+02 -0.29981526609E+02 -0.37198282509E+02  0.50000000000E+02  0.47000000000E+01 0. -1.
         -5    1    3    3    0  501 -0.13975186604E+02  0.29981526609E+02  0.37198282509E+02  0.50000000000E+02  0.47000000000E+01 0.  1.
</event>
<event>
 5    1  0.8909620E-001  0.1000000E+03  0.7546771E-02  0.1163815E+00
         11   -1    0    0    0    0  0.00000000000E+00  0.00000000000E+00  0.50000000000E+02  0.50000000000E+02  0.00000000000E+00 0. -1.
        -11   -1    0    0    0    0 -0.00000000000E+00 -0.00000000000E+00 -0.50000000000E+02  0.50000000000E+02  0.00000000000E+00 0.  1.
         23    2    1    2    0    0  0.00000000000E+00  0.00000000000E+00  0.00000000000E+00  0.10000000000E+03  0.10000000000E+03 0.  0.
          5    1    3    3  501    0 -0.91151714706E+01 -0.45952401092E+02  0.16828561524E+02  0.50000000000E+02  0.47000000000E+01 0. -1.
         -5    1    3    3    0  501  0.91151714706E+01  0.45952401092E+02 -0.16828561524E+02  0.50000000000E+02  0.47000000000E+01 0.  1.
</event>
<event>
 5    1  0.8909620E-001  0.1000000E+03  0.7546771E-02  0.1163815E+00
         11   -1    0    0    0    0  0.00000000000E+00  0.00000000000E+00  0.50000000000E+02  0.50000000000E+02  0.00000000000E+00 0. -1.
        -11   -1    0    0    0    0 -0.00000000000E+00 -0.00000000000E+00 -0.50000000000E+02  0.50000000000E+02  0.00000000000E+00 0.  1.
         23    2    1    2    0    0  0.00000000000E+00  0.00000000000E+00  0.00000000000E+00  0.10000000000E+03  0.10000000000E+03 0.  0.
          5    1    3    3  501    0  0.19922345816E+02  0.45604655871E+01  0.45389561474E+02  0.50000000000E+02  0.47000000000E+01 0. -1.
         -5    1    3    3    0  501 -0.19922345816E+02 -0.45604655871E+01 -0.45389561474E+02  0.50000000000E+02  0.47000000000E+01 0.  1.
</event>
<event>
 5    1  0.8909620E-001  0.1000000E+03  0.7546771E-02  0.1163815E+00
         11   -1    0    0    0    0  0.00000000000E+00  0.00000000000E+00  0.50000000000E+02  0.50000000000E+02  0.00000000000E+00 0. -1.
        -11   -1    0    0    0    0 -0.00000000000E+00 -0.00000000000E+00 -0.50000000000E+02  0.50000000000E+02  0.00000000000E+00 0.  1.
         23    2    1    2    0    0  0.00000000000E+00  0.00000000000E+00  0.00000000000E+00  0.10000000000E+03  0.10000000000E+03 0.  0.
          5    1    3    3  501    0  0.10525154124E+02  0.20525962056E+02  0.44111404561E+02  0.50000000000E+02  0.47000000000E+01 0. -1.
         -5    1    3    3    0  501 -0.10525154124E+02 -0.20525962056E+02 -0.44111404561E+02  0.50000000000E+02  0.47000000000E+01 0.  1.
</event>
<event>
 5    1  0.8909620E-001  0.1000000E+03  0.7546771E-02  0.1163815E+00
         11   -1    0    0    0    0  0.00000000000E+00  0.00000000000E+00  0.50000000000E+02  0.50000000000E+02  0.00000000000E+00 0. -1.
        -11   -1    0    0    0    0 -0.00000000000E+00 -0.00000000000E+00 -0.50000000000E+02  0.50000000000E+02  0.00000000000E+00 0.  1.
         23    2    1    2    0    0  0.00000000000E+00  0.00000000000E+00  0.00000000000E+00  0.10000000000E+03  0.10000000000E+03 0.  0.
          5    1    3    3  501    0  0.21254477569E+02  0.25879292180E+02  0.36829599774E+02  0.50000000000E+02  0.47000000000E+01 0. -1.
         -5    1    3    3    0  501 -0.21254477569E+02 -0.25879292180E+02 -0.36829599774E+02  0.50000000000E+02  0.47000000000E+01 0.  1.
</event>
<event>
 5    1  0.8909620E-001  0.1000000E+03  0.7546771E-02  0.1163815E+00
         11   -1    0    0    0    0  0.00000000000E+00  0.00000000000E+00  0.50000000000E+02  0.50000000000E+02  0.00000000000E+00 0. -1.
        -11   -1    0    0    0    0 -0.00000000000E+00 -0.00000000000E+00 -0.50000000000E+02  0.50000000000E+02  0.00000000000E+00 0.  1.
         23    2    1    2    0    0  0.00000000000E+00  0.00000000000E+00  0.00000000000E+00  0.10000000000E+03  0.10000000000E+03 0.  0.
          5    1    3    3  501    0 -0.26084896002E+02 -0.41225807476E+02 -0.98955039551E+01  0.50000000000E+02  0.47000000000E+01 0. -1.
         -5    1    3    3    0  501  0.26084896002E+02  0.41225807476E+02  0.98955039551E+01  0.50000000000E+02  0.47000000000E+01 0.  1.
</event>
<event>
 5    1  0.8909620E-001  0.1000000E+03  0.7546771E-02  0.1163815E+00
         11   -1    0    0    0    0  0.00000000000E+00  0.00000000000E+00  0.50000000000E+02  0.50000000000E+02  0.00000000000E+00 0.  1.
        -11   -1    0    0    0    0 -0.00000000000E+00 -0.00000000000E+00 -0.50000000000E+02  0.50000000000E+02  0.00000000000E+00 0. -1.
         23    2    1    2    0    0  0.00000000000E+00  0.00000000000E+00  0.00000000000E+00  0.10000000000E+03  0.10000000000E+03 0.  0.
          5    1    3    3  501    0  0.30630281941E+02  0.15188083885E+02 -0.36180352902E+02  0.50000000000E+02  0.47000000000E+01 0. -1.
         -5    1    3    3    0  501 -0.30630281941E+02 -0.15188083885E+02  0.36180352902E+02  0.50000000000E+02  0.47000000000E+01 0.  1.
</event>
<event>
 5    1  0.8909620E-001  0.1000000E+03  0.7546771E-02  0.1163815E+00
         11   -1    0    0    0    0  0.00000000000E+00  0.00000000000E+00  0.50000000000E+02  0.50000000000E+02  0.00000000000E+00 0. -1.
        -11   -1    0    0    0    0 -0.00000000000E+00 -0.00000000000E+00 -0.50000000000E+02  0.50000000000E+02  0.00000000000E+00 0.  1.
         23    2    1    2    0    0  0.00000000000E+00  0.00000000000E+00  0.00000000000E+00  0.10000000000E+03  0.10000000000E+03 0.  0.
          5    1    3    3  501    0  0.21637028065E+02  0.34917841920E+02 -0.28115713260E+02  0.50000000000E+02  0.47000000000E+01 0. -1.
         -5    1    3    3    0  501 -0.21637028065E+02 -0.34917841920E+02  0.28115713260E+02  0.50000000000E+02  0.47000000000E+01 0.  1.
</event>
<event>
 5    1  0.8909620E-001  0.1000000E+03  0.7546771E-02  0.1163815E+00
         11   -1    0    0    0    0  0.00000000000E+00  0.00000000000E+00  0.50000000000E+02  0.50000000000E+02  0.00000000000E+00 0. -1.
        -11   -1    0    0    0    0 -0.00000000000E+00 -0.00000000000E+00 -0.50000000000E+02  0.50000000000E+02  0.00000000000E+00 0.  1.
         23    2    1    2    0    0  0.00000000000E+00  0.00000000000E+00  0.00000000000E+00  0.10000000000E+03  0.10000000000E+03 0.  0.
          5    1    3    3  501    0 -0.73044687660E+01  0.23258042532E+02  0.43400670428E+02  0.50000000000E+02  0.47000000000E+01 0. -1.
         -5    1    3    3    0  501  0.73044687660E+01 -0.23258042532E+02 -0.43400670428E+02  0.50000000000E+02  0.47000000000E+01 0.  1.
</event>
<event>
 5    1  0.8909620E-001  0.1000000E+03  0.7546771E-02  0.1163815E+00
         11   -1    0    0    0    0  0.00000000000E+00  0.00000000000E+00  0.50000000000E+02  0.50000000000E+02  0.00000000000E+00 0. -1.
        -11   -1    0    0    0    0 -0.00000000000E+00 -0.00000000000E+00 -0.50000000000E+02  0.50000000000E+02  0.00000000000E+00 0.  1.
         23    2    1    2    0    0  0.00000000000E+00  0.00000000000E+00  0.00000000000E+00  0.10000000000E+03  0.10000000000E+03 0.  0.
          5    1    3    3  501    0 -0.49346527140E+02 -0.41880428478E+01  0.50289716958E+01  0.50000000000E+02  0.47000000000E+01 0. -1.
         -5    1    3    3    0  501  0.49346527140E+02  0.41880428478E+01 -0.50289716958E+01  0.50000000000E+02  0.47000000000E+01 0.  1.
</event>
<event>
 5    1  0.8909620E-001  0.1000000E+03  0.7546771E-02  0.1163815E+00
         11   -1    0    0    0    0  0.00000000000E+00  0.00000000000E+00  0.50000000000E+02  0.50000000000E+02  0.00000000000E+00 0. -1.
        -11   -1    0    0    0    0 -0.00000000000E+00 -0.00000000000E+00 -0.50000000000E+02  0.50000000000E+02  0.00000000000E+00 0.  1.
         23    2    1    2    0    0  0.00000000000E+00  0.00000000000E+00  0.00000000000E+00  0.10000000000E+03  0.10000000000E+03 0.  0.
          5    1    3    3  501    0 -0.17040479784E+02  0.89390248225E+01  0.45908886765E+02  0.50000000000E+02  0.47000000000E+01 0. -1.
         -5    1    3    3    0  501  0.17040479784E+02 -0.89390248225E+01 -0.45908886765E+02  0.50000000000E+02  0.47000000000E+01 0.  1.
</event>
<event>
 5    1  0.8909620E-001  0.1000000E+03  0.7546771E-02  0.1163815E+00
         11   -1    0    0    0    0  0.00000000000E+00  0.00000000000E+00  0.50000000000E+02  0.50000000000E+02  0.00000000000E+00 0.  1.
        -11   -1    0    0    0    0 -0.00000000000E+00 -0.00000000000E+00 -0.50000000000E+02  0.50000000000E+02  0.00000000000E+00 0. -1.
         23    2    1    2    0    0  0.00000000000E+00  0.00000000000E+00  0.00000000000E+00  0.10000000000E+03  0.10000000000E+03 0.  0.
          5    1    3    3  501    0 -0.28814205403E+02  0.29736252517E+02 -0.27629818190E+02  0.50000000000E+02  0.47000000000E+01 0. -1.
         -5    1    3    3    0  501  0.28814205403E+02 -0.29736252517E+02  0.27629818190E+02  0.50000000000E+02  0.47000000000E+01 0.  1.
</event>
<event>
 5    1  0.8909620E-001  0.1000000E+03  0.7546771E-02  0.1163815E+00
         11   -1    0    0    0    0  0.00000000000E+00  0.00000000000E+00  0.50000000000E+02  0.50000000000E+02  0.00000000000E+00 0. -1.
        -11   -1    0    0    0    0 -0.00000000000E+00 -0.00000000000E+00 -0.50000000000E+02  0.50000000000E+02  0.00000000000E+00 0.  1.
         23    2    1    2    0    0  0.00000000000E+00  0.00000000000E+00  0.00000000000E+00  0.10000000000E+03  0.10000000000E+03 0.  0.
          5    1    3    3  501    0 -0.13691017854E+02 -0.25091767037E+02  0.40753763716E+02  0.50000000000E+02  0.47000000000E+01 0. -1.
         -5    1    3    3    0  501  0.13691017854E+02  0.25091767037E+02 -0.40753763716E+02  0.50000000000E+02  0.47000000000E+01 0.  1.
</event>
<event>
 5    1  0.8909620E-001  0.1000000E+03  0.7546771E-02  0.1163815E+00
         11   -1    0    0    0    0  0.00000000000E+00  0.00000000000E+00  0.50000000000E+02  0.50000000000E+02  0.00000000000E+00 0. -1.
        -11   -1    0    0    0    0 -0.00000000000E+00 -0.00000000000E+00 -0.50000000000E+02  0.50000000000E+02  0.00000000000E+00 0.  1.
         23    2    1    2    0    0  0.00000000000E+00  0.00000000000E+00  0.00000000000E+00  0.10000000000E+03  0.10000000000E+03 0.  0.
          5    1    3    3  501    0 -0.25814499310E+02 -0.41377019787E+02 -0.99731569178E+01  0.50000000000E+02  0.47000000000E+01 0. -1.
         -5    1    3    3    0  501  0.25814499310E+02  0.41377019787E+02  0.99731569178E+01  0.50000000000E+02  0.47000000000E+01 0.  1.
</event>
<event>
 5    1  0.8909620E-001  0.1000000E+03  0.7546771E-02  0.1163815E+00
         11   -1    0    0    0    0  0.00000000000E+00  0.00000000000E+00  0.50000000000E+02  0.50000000000E+02  0.00000000000E+00 0.  1.
        -11   -1    0    0    0    0 -0.00000000000E+00 -0.00000000000E+00 -0.50000000000E+02  0.50000000000E+02  0.00000000000E+00 0. -1.
         23    2    1    2    0    0  0.00000000000E+00  0.00000000000E+00  0.00000000000E+00  0.10000000000E+03  0.10000000000E+03 0.  0.
          5    1    3    3  501    0  0.29990706993E+02 -0.39177424320E+02 -0.66027962025E+01  0.50000000000E+02  0.47000000000E+01 0. -1.
         -5    1    3    3    0  501 -0.29990706993E+02  0.39177424320E+02  0.66027962025E+01  0.50000000000E+02  0.47000000000E+01 0.  1.
</event>
<event>
 5    1  0.8909620E-001  0.1000000E+03  0.7546771E-02  0.1163815E+00
         11   -1    0    0    0    0  0.00000000000E+00  0.00000000000E+00  0.50000000000E+02  0.50000000000E+02  0.00000000000E+00 0.  1.
        -11   -1    0    0    0    0 -0.00000000000E+00 -0.00000000000E+00 -0.50000000000E+02  0.50000000000E+02  0.00000000000E+00 0. -1.
         23    2    1    2    0    0  0.00000000000E+00  0.00000000000E+00  0.00000000000E+00  0.10000000000E+03  0.10000000000E+03 0.  0.
          5    1    3    3  501    0 -0.43446190223E+01 -0.32721760707E+02 -0.37260175278E+02  0.50000000000E+02  0.47000000000E+01 0. -1.
         -5    1    3    3    0  501  0.43446190223E+01  0.32721760707E+02  0.37260175278E+02  0.50000000000E+02  0.47000000000E+01 0.  1.
</event>
<event>
 5    1  0.8909620E-001  0.1000000E+03  0.7546771E-02  0.1163815E+00
         11   -1    0    0    0    0  0.00000000000E+00  0.00000000000E+00  0.50000000000E+02  0.50000000000E+02  0.00000000000E+00 0. -1.
        -11   -1    0    0    0    0 -0.00000000000E+00 -0.00000000000E+00 -0.50000000000E+02  0.50000000000E+02  0.00000000000E+00 0.  1.
         23    2    1    2    0    0  0.00000000000E+00  0.00000000000E+00  0.00000000000E+00  0.10000000000E+03  0.10000000000E+03 0.  0.
          5    1    3    3  501    0  0.26092155545E+02  0.37250790125E+02  0.20235811179E+02  0.50000000000E+02  0.47000000000E+01 0. -1.
         -5    1    3    3    0  501 -0.26092155545E+02 -0.37250790125E+02 -0.20235811179E+02  0.50000000000E+02  0.47000000000E+01 0.  1.
</event>
<event>
 5    1  0.8909620E-001  0.1000000E+03  0.7546771E-02  0.1163815E+00
         11   -1    0    0    0    0  0.00000000000E+00  0.00000000000E+00  0.50000000000E+02  0.50000000000E+02  0.00000000000E+00 0. -1.
        -11   -1    0    0    0    0 -0.00000000000E+00 -0.00000000000E+00 -0.50000000000E+02  0.50000000000E+02  0.00000000000E+00 0.  1.
         23    2    1    2    0    0  0.00000000000E+00  0.00000000000E+00  0.00000000000E+00  0.10000000000E+03  0.10000000000E+03 0.  0.
          5    1    3    3  501    0  0.17170084588E+02 -0.44758849087E+02 -0.13406849879E+02  0.50000000000E+02  0.47000000000E+01 0. -1.
         -5    1    3    3    0  501 -0.17170084588E+02  0.44758849087E+02  0.13406849879E+02  0.50000000000E+02  0.47000000000E+01 0.  1.
</event>
<event>
 5    1  0.8909620E-001  0.1000000E+03  0.7546771E-02  0.1163815E+00
         11   -1    0    0    0    0  0.00000000000E+00  0.00000000000E+00  0.50000000000E+02  0.50000000000E+02  0.00000000000E+00 0. -1.
        -11   -1    0    0    0    0 -0.00000000000E+00 -0.00000000000E+00 -0.50000000000E+02  0.50000000000E+02  0.00000000000E+00 0.  1.
         23    2    1    2    0    0  0.00000000000E+00  0.00000000000E+00  0.00000000000E+00  0.10000000000E+03  0.10000000000E+03 0.  0.
          5    1    3    3  501    0 -0.25863442668E+02  0.27207514881E+02  0.32691642163E+02  0.50000000000E+02  0.47000000000E+01 0. -1.
         -5    1    3    3    0  501  0.25863442668E+02 -0.27207514881E+02 -0.32691642163E+02  0.50000000000E+02  0.47000000000E+01 0.  1.
</event>
<event>
 5    1  0.8909620E-001  0.1000000E+03  0.7546771E-02  0.1163815E+00
         11   -1    0    0    0    0  0.00000000000E+00  0.00000000000E+00  0.50000000000E+02  0.50000000000E+02  0.00000000000E+00 0. -1.
        -11   -1    0    0    0    0 -0.00000000000E+00 -0.00000000000E+00 -0.50000000000E+02  0.50000000000E+02  0.00000000000E+00 0.  1.
         23    2    1    2    0    0  0.00000000000E+00  0.00000000000E+00  0.00000000000E+00  0.10000000000E+03  0.10000000000E+03 0.  0.
          5    1    3    3  501    0  0.12565190099E+02 -0.47780802126E+02  0.60844840334E+01  0.50000000000E+02  0.47000000000E+01 0. -1.
         -5    1    3    3    0  501 -0.12565190099E+02  0.47780802126E+02 -0.60844840334E+01  0.50000000000E+02  0.47000000000E+01 0.  1.
</event>
<event>
 5    1  0.8909620E-001  0.1000000E+03  0.7546771E-02  0.1163815E+00
         11   -1    0    0    0    0  0.00000000000E+00  0.00000000000E+00  0.50000000000E+02  0.50000000000E+02  0.00000000000E+00 0. -1.
        -11   -1    0    0    0    0 -0.00000000000E+00 -0.00000000000E+00 -0.50000000000E+02  0.50000000000E+02  0.00000000000E+00 0.  1.
         23    2    1    2    0    0  0.00000000000E+00  0.00000000000E+00  0.00000000000E+00  0.10000000000E+03  0.10000000000E+03 0.  0.
          5    1    3    3  501    0  0.10532932287E+02 -0.26248086469E+02  0.40963462917E+02  0.50000000000E+02  0.47000000000E+01 0. -1.
         -5    1    3    3    0  501 -0.10532932287E+02  0.26248086469E+02 -0.40963462917E+02  0.50000000000E+02  0.47000000000E+01 0.  1.
</event>
<event>
 5    1  0.8909620E-001  0.1000000E+03  0.7546771E-02  0.1163815E+00
         11   -1    0    0    0    0  0.00000000000E+00  0.00000000000E+00  0.50000000000E+02  0.50000000000E+02  0.00000000000E+00 0.  1.
        -11   -1    0    0    0    0 -0.00000000000E+00 -0.00000000000E+00 -0.50000000000E+02  0.50000000000E+02  0.00000000000E+00 0. -1.
         23    2    1    2    0    0  0.00000000000E+00  0.00000000000E+00  0.00000000000E+00  0.10000000000E+03  0.10000000000E+03 0.  0.
          5    1    3    3  501    0 -0.29217381536E+02 -0.32656339285E+01 -0.40169518932E+02  0.50000000000E+02  0.47000000000E+01 0. -1.
         -5    1    3    3    0  501  0.29217381536E+02  0.32656339285E+01  0.40169518932E+02  0.50000000000E+02  0.47000000000E+01 0.  1.
</event>
<event>
 5    1  0.8909620E-001  0.1000000E+03  0.7546771E-02  0.1163815E+00
         11   -1    0    0    0    0  0.00000000000E+00  0.00000000000E+00  0.50000000000E+02  0.50000000000E+02  0.00000000000E+00 0. -1.
        -11   -1    0    0    0    0 -0.00000000000E+00 -0.00000000000E+00 -0.50000000000E+02  0.50000000000E+02  0.00000000000E+00 0.  1.
         23    2    1    2    0    0  0.00000000000E+00  0.00000000000E+00  0.00000000000E+00  0.10000000000E+03  0.10000000000E+03 0.  0.
          5    1    3    3  501    0 -0.34539895377E+02 -0.35173444847E+02  0.69090089729E+01  0.50000000000E+02  0.47000000000E+01 0. -1.
         -5    1    3    3    0  501  0.34539895377E+02  0.35173444847E+02 -0.69090089729E+01  0.50000000000E+02  0.47000000000E+01 0.  1.
</event>
<event>
 5    1  0.8909620E-001  0.1000000E+03  0.7546771E-02  0.1163815E+00
         11   -1    0    0    0    0  0.00000000000E+00  0.00000000000E+00  0.50000000000E+02  0.50000000000E+02  0.00000000000E+00 0.  1.
        -11   -1    0    0    0    0 -0.00000000000E+00 -0.00000000000E+00 -0.50000000000E+02  0.50000000000E+02  0.00000000000E+00 0. -1.
         23    2    1    2    0    0  0.00000000000E+00  0.00000000000E+00  0.00000000000E+00  0.10000000000E+03  0.10000000000E+03 0.  0.
          5    1    3    3  501    0 -0.84396838739E+01  0.33524633294E+02 -0.35815928001E+02  0.50000000000E+02  0.47000000000E+01 0. -1.
         -5    1    3    3    0  501  0.84396838739E+01 -0.33524633294E+02  0.35815928001E+02  0.50000000000E+02  0.47000000000E+01 0.  1.
</event>
<event>
 5    1  0.8909620E-001  0.1000000E+03  0.7546771E-02  0.1163815E+00
         11   -1    0    0    0    0  0.00000000000E+00  0.00000000000E+00  0.50000000000E+02  0.50000000000E+02  0.00000000000E+00 0.  1.
        -11   -1    0    0    0    0 -0.00000000000E+00 -0.00000000000E+00 -0.50000000000E+02  0.50000000000E+02  0.00000000000E+00 0. -1.
         23    2    1    2    0    0  0.00000000000E+00  0.00000000000E+00  0.00000000000E+00  0.10000000000E+03  0.10000000000E+03 0.  0.
          5    1    3    3  501    0 -0.13620460604E+02  0.44446899862E+02 -0.17800734412E+02  0.50000000000E+02  0.47000000000E+01 0. -1.
         -5    1    3    3    0  501  0.13620460604E+02 -0.44446899862E+02  0.17800734412E+02  0.50000000000E+02  0.47000000000E+01 0.  1.
</event>
<event>
 5    1  0.8909620E-001  0.1000000E+03  0.7546771E-02  0.1163815E+00
         11   -1    0    0    0    0  0.00000000000E+00  0.00000000000E+00  0.50000000000E+02  0.50000000000E+02  0.00000000000E+00 0. -1.
        -11   -1    0    0    0    0 -0.00000000000E+00 -0.00000000000E+00 -0.50000000000E+02  0.50000000000E+02  0.00000000000E+00 0.  1.
         23    2    1    2    0    0  0.00000000000E+00  0.00000000000E+00  0.00000000000E+00  0.10000000000E+03  0.10000000000E+03 0.  0.
          5    1    3    3  501    0  0.17380077769E+02  0.19399884237E+02  0.42420365254E+02  0.50000000000E+02  0.47000000000E+01 0. -1.
         -5    1    3    3    0  501 -0.17380077769E+02 -0.19399884237E+02 -0.42420365254E+02  0.50000000000E+02  0.47000000000E+01 0.  1.
</event>
<event>
 5    1  0.8909620E-001  0.1000000E+03  0.7546771E-02  0.1163815E+00
         11   -1    0    0    0    0  0.00000000000E+00  0.00000000000E+00  0.50000000000E+02  0.50000000000E+02  0.00000000000E+00 0. -1.
        -11   -1    0    0    0    0 -0.00000000000E+00 -0.00000000000E+00 -0.50000000000E+02  0.50000000000E+02  0.00000000000E+00 0.  1.
         23    2    1    2    0    0  0.00000000000E+00  0.00000000000E+00  0.00000000000E+00  0.10000000000E+03  0.10000000000E+03 0.  0.
          5    1    3    3  501    0 -0.20292097812E+02  0.45442477637E+02 -0.10592415137E+01  0.50000000000E+02  0.47000000000E+01 0. -1.
         -5    1    3    3    0  501  0.20292097812E+02 -0.45442477637E+02  0.10592415137E+01  0.50000000000E+02  0.47000000000E+01 0.  1.
</event>
<event>
 5    1  0.8909620E-001  0.1000000E+03  0.7546771E-02  0.1163815E+00
         11   -1    0    0    0    0  0.00000000000E+00  0.00000000000E+00  0.50000000000E+02  0.50000000000E+02  0.00000000000E+00 0.  1.
        -11   -1    0    0    0    0 -0.00000000000E+00 -0.00000000000E+00 -0.50000000000E+02  0.50000000000E+02  0.00000000000E+00 0. -1.
         23    2    1    2    0    0  0.00000000000E+00  0.00000000000E+00  0.00000000000E+00  0.10000000000E+03  0.10000000000E+03 0.  0.
          5    1    3    3  501    0  0.78931129104E+01  0.20427332507E+02 -0.44702716419E+02  0.50000000000E+02  0.47000000000E+01 0. -1.
         -5    1    3    3    0  501 -0.78931129104E+01 -0.20427332507E+02  0.44702716419E+02  0.50000000000E+02  0.47000000000E+01 0.  1.
</event>
<event>
 5    1  0.8909620E-001  0.1000000E+03  0.7546771E-02  0.1163815E+00
         11   -1    0    0    0    0  0.00000000000E+00  0.00000000000E+00  0.50000000000E+02  0.50000000000E+02  0.00000000000E+00 0. -1.
        -11   -1    0    0    0    0 -0.00000000000E+00 -0.00000000000E+00 -0.50000000000E+02  0.50000000000E+02  0.00000000000E+00 0.  1.
         23    2    1    2    0    0  0.00000000000E+00  0.00000000000E+00  0.00000000000E+00  0.10000000000E+03  0.10000000000E+03 0.  0.
          5    1    3    3  501    0 -0.20120948331E+02  0.73347065305E+01  0.44936171604E+02  0.50000000000E+02  0.47000000000E+01 0. -1.
         -5    1    3    3    0  501  0.20120948331E+02 -0.73347065305E+01 -0.44936171604E+02  0.50000000000E+02  0.47000000000E+01 0.  1.
</event>
<event>
 5    1  0.8909620E-001  0.1000000E+03  0.7546771E-02  0.1163815E+00
         11   -1    0    0    0    0  0.00000000000E+00  0.00000000000E+00  0.50000000000E+02  0.50000000000E+02  0.00000000000E+00 0.  1.
        -11   -1    0    0    0    0 -0.00000000000E+00 -0.00000000000E+00 -0.50000000000E+02  0.50000000000E+02  0.00000000000E+00 0. -1.
         23    2    1    2    0    0  0.00000000000E+00  0.00000000000E+00  0.00000000000E+00  0.10000000000E+03  0.10000000000E+03 0.  0.
          5    1    3    3  501    0 -0.28663286129E+02  0.33099837406E+02 -0.23679670437E+02  0.50000000000E+02  0.47000000000E+01 0. -1.
         -5    1    3    3    0  501  0.28663286129E+02 -0.33099837406E+02  0.23679670437E+02  0.50000000000E+02  0.47000000000E+01 0.  1.
</event>
<event>
 5    1  0.8909620E-001  0.1000000E+03  0.7546771E-02  0.1163815E+00
         11   -1    0    0    0    0  0.00000000000E+00  0.00000000000E+00  0.50000000000E+02  0.50000000000E+02  0.00000000000E+00 0.  1.
        -11   -1    0    0    0    0 -0.00000000000E+00 -0.00000000000E+00 -0.50000000000E+02  0.50000000000E+02  0.00000000000E+00 0. -1.
         23    2    1    2    0    0  0.00000000000E+00  0.00000000000E+00  0.00000000000E+00  0.10000000000E+03  0.10000000000E+03 0.  0.
          5    1    3    3  501    0  0.16291396911E+02 -0.31058204672E+01 -0.46934574313E+02  0.50000000000E+02  0.47000000000E+01 0. -1.
         -5    1    3    3    0  501 -0.16291396911E+02  0.31058204672E+01  0.46934574313E+02  0.50000000000E+02  0.47000000000E+01 0.  1.
</event>
<event>
 5    1  0.8909620E-001  0.1000000E+03  0.7546771E-02  0.1163815E+00
         11   -1    0    0    0    0  0.00000000000E+00  0.00000000000E+00  0.50000000000E+02  0.50000000000E+02  0.00000000000E+00 0. -1.
        -11   -1    0    0    0    0 -0.00000000000E+00 -0.00000000000E+00 -0.50000000000E+02  0.50000000000E+02  0.00000000000E+00 0.  1.
         23    2    1    2    0    0  0.00000000000E+00  0.00000000000E+00  0.00000000000E+00  0.10000000000E+03  0.10000000000E+03 0.  0.
          5    1    3    3  501    0  0.24999836216E+01 -0.96244033058E+01  0.48775310792E+02  0.50000000000E+02  0.47000000000E+01 0. -1.
         -5    1    3    3    0  501 -0.24999836216E+01  0.96244033058E+01 -0.48775310792E+02  0.50000000000E+02  0.47000000000E+01 0.  1.
</event>
<event>
 5    1  0.8909620E-001  0.1000000E+03  0.7546771E-02  0.1163815E+00
         11   -1    0    0    0    0  0.00000000000E+00  0.00000000000E+00  0.50000000000E+02  0.50000000000E+02  0.00000000000E+00 0. -1.
        -11   -1    0    0    0    0 -0.00000000000E+00 -0.00000000000E+00 -0.50000000000E+02  0.50000000000E+02  0.00000000000E+00 0.  1.
         23    2    1    2    0    0  0.00000000000E+00  0.00000000000E+00  0.00000000000E+00  0.10000000000E+03  0.10000000000E+03 0.  0.
          5    1    3    3  501    0 -0.22069821445E+02 -0.14168191572E+02  0.42309518184E+02  0.50000000000E+02  0.47000000000E+01 0. -1.
         -5    1    3    3    0  501  0.22069821445E+02  0.14168191572E+02 -0.42309518184E+02  0.50000000000E+02  0.47000000000E+01 0.  1.
</event>
<event>
 5    1  0.8909620E-001  0.1000000E+03  0.7546771E-02  0.1163815E+00
         11   -1    0    0    0    0  0.00000000000E+00  0.00000000000E+00  0.50000000000E+02  0.50000000000E+02  0.00000000000E+00 0.  1.
        -11   -1    0    0    0    0 -0.00000000000E+00 -0.00000000000E+00 -0.50000000000E+02  0.50000000000E+02  0.00000000000E+00 0. -1.
         23    2    1    2    0    0  0.00000000000E+00  0.00000000000E+00  0.00000000000E+00  0.10000000000E+03  0.10000000000E+03 0.  0.
          5    1    3    3  501    0  0.68917082973E+01  0.49066010735E+02 -0.47896709012E+01  0.50000000000E+02  0.47000000000E+01 0. -1.
         -5    1    3    3    0  501 -0.68917082973E+01 -0.49066010735E+02  0.47896709012E+01  0.50000000000E+02  0.47000000000E+01 0.  1.
</event>
<event>
 5    1  0.8909620E-001  0.1000000E+03  0.7546771E-02  0.1163815E+00
         11   -1    0    0    0    0  0.00000000000E+00  0.00000000000E+00  0.50000000000E+02  0.50000000000E+02  0.00000000000E+00 0. -1.
        -11   -1    0    0    0    0 -0.00000000000E+00 -0.00000000000E+00 -0.50000000000E+02  0.50000000000E+02  0.00000000000E+00 0.  1.
         23    2    1    2    0    0  0.00000000000E+00  0.00000000000E+00  0.00000000000E+00  0.10000000000E+03  0.10000000000E+03 0.  0.
          5    1    3    3  501    0 -0.18227698837E+02  0.37169106711E+02  0.27642693455E+02  0.50000000000E+02  0.47000000000E+01 0. -1.
         -5    1    3    3    0  501  0.18227698837E+02 -0.37169106711E+02 -0.27642693455E+02  0.50000000000E+02  0.47000000000E+01 0.  1.
</event>
<event>
 5    1  0.8909620E-001  0.1000000E+03  0.7546771E-02  0.1163815E+00
         11   -1    0    0    0    0  0.00000000000E+00  0.00000000000E+00  0.50000000000E+02  0.50000000000E+02  0.00000000000E+00 0. -1.
        -11   -1    0    0    0    0 -0.00000000000E+00 -0.00000000000E+00 -0.50000000000E+02  0.50000000000E+02  0.00000000000E+00 0.  1.
         23    2    1    2    0    0  0.00000000000E+00  0.00000000000E+00  0.00000000000E+00  0.10000000000E+03  0.10000000000E+03 0.  0.
          5    1    3    3  501    0  0.45051273910E+02 -0.18053153949E+02  0.11062384535E+02  0.50000000000E+02  0.47000000000E+01 0. -1.
         -5    1    3    3    0  501 -0.45051273910E+02  0.18053153949E+02 -0.11062384535E+02  0.50000000000E+02  0.47000000000E+01 0.  1.
</event>
<event>
 5    1  0.8909620E-001  0.1000000E+03  0.7546771E-02  0.1163815E+00
         11   -1    0    0    0    0  0.00000000000E+00  0.00000000000E+00  0.50000000000E+02  0.50000000000E+02  0.00000000000E+00 0. -1.
        -11   -1    0    0    0    0 -0.00000000000E+00 -0.00000000000E+00 -0.50000000000E+02  0.50000000000E+02  0.00000000000E+00 0.  1.
         23    2    1    2    0    0  0.00000000000E+00  0.00000000000E+00  0.00000000000E+00  0.10000000000E+03  0.10000000000E+03 0.  0.
          5    1    3    3  501    0  0.37804670103E+02 -0.24800611232E+02  0.20824183079E+02  0.50000000000E+02  0.47000000000E+01 0. -1.
         -5    1    3    3    0  501 -0.37804670103E+02  0.24800611232E+02 -0.20824183079E+02  0.50000000000E+02  0.47000000000E+01 0.  1.
</event>
<event>
 5    1  0.8909620E-001  0.1000000E+03  0.7546771E-02  0.1163815E+00
         11   -1    0    0    0    0  0.00000000000E+00  0.00000000000E+00  0.50000000000E+02  0.50000000000E+02  0.00000000000E+00 0.  1.
        -11   -1    0    0    0    0 -0.00000000000E+00 -0.00000000000E+00 -0.50000000000E+02  0.50000000000E+02  0.00000000000E+00 0. -1.
         23    2    1    2    0    0  0.00000000000E+00  0.00000000000E+00  0.00000000000E+00  0.10000000000E+03  0.10000000000E+03 0.  0.
          5    1    3    3  501    0 -0.39100121856E+02 -0.28922704526E+02 -0.10609789525E+02  0.50000000000E+02  0.47000000000E+01 0. -1.
         -5    1    3    3    0  501  0.39100121856E+02  0.28922704526E+02  0.10609789525E+02  0.50000000000E+02  0.47000000000E+01 0.  1.
</event>
<event>
 5    1  0.8909620E-001  0.1000000E+03  0.7546771E-02  0.1163815E+00
         11   -1    0    0    0    0  0.00000000000E+00  0.00000000000E+00  0.50000000000E+02  0.50000000000E+02  0.00000000000E+00 0. -1.
        -11   -1    0    0    0    0 -0.00000000000E+00 -0.00000000000E+00 -0.50000000000E+02  0.50000000000E+02  0.00000000000E+00 0.  1.
         23    2    1    2    0    0  0.00000000000E+00  0.00000000000E+00  0.00000000000E+00  0.10000000000E+03  0.10000000000E+03 0.  0.
          5    1    3    3  501    0  0.64594042748E+01  0.22129083507E+02  0.44119040782E+02  0.50000000000E+02  0.47000000000E+01 0. -1.
         -5    1    3    3    0  501 -0.64594042748E+01 -0.22129083507E+02 -0.44119040782E+02  0.50000000000E+02  0.47000000000E+01 0.  1.
</event>
<event>
 5    1  0.8909620E-001  0.1000000E+03  0.7546771E-02  0.1163815E+00
         11   -1    0    0    0    0  0.00000000000E+00  0.00000000000E+00  0.50000000000E+02  0.50000000000E+02  0.00000000000E+00 0. -1.
        -11   -1    0    0    0    0 -0.00000000000E+00 -0.00000000000E+00 -0.50000000000E+02  0.50000000000E+02  0.00000000000E+00 0.  1.
         23    2    1    2    0    0  0.00000000000E+00  0.00000000000E+00  0.00000000000E+00  0.10000000000E+03  0.10000000000E+03 0.  0.
          5    1    3    3  501    0 -0.35093118122E+02  0.11229153111E+02  0.33470721248E+02  0.50000000000E+02  0.47000000000E+01 0. -1.
         -5    1    3    3    0  501  0.35093118122E+02 -0.11229153111E+02 -0.33470721248E+02  0.50000000000E+02  0.47000000000E+01 0.  1.
</event>
<event>
 5    1  0.8909620E-001  0.1000000E+03  0.7546771E-02  0.1163815E+00
         11   -1    0    0    0    0  0.00000000000E+00  0.00000000000E+00  0.50000000000E+02  0.50000000000E+02  0.00000000000E+00 0.  1.
        -11   -1    0    0    0    0 -0.00000000000E+00 -0.00000000000E+00 -0.50000000000E+02  0.50000000000E+02  0.00000000000E+00 0. -1.
         23    2    1    2    0    0  0.00000000000E+00  0.00000000000E+00  0.00000000000E+00  0.10000000000E+03  0.10000000000E+03 0.  0.
          5    1    3    3  501    0 -0.82433760353E+01 -0.48482033926E+02 -0.77103267056E+01  0.50000000000E+02  0.47000000000E+01 0.  1.
         -5    1    3    3    0  501  0.82433760353E+01  0.48482033926E+02  0.77103267056E+01  0.50000000000E+02  0.47000000000E+01 0. -1.
</event>
<event>
 5    1  0.8909620E-001  0.1000000E+03  0.7546771E-02  0.1163815E+00
         11   -1    0    0    0    0  0.00000000000E+00  0.00000000000E+00  0.50000000000E+02  0.50000000000E+02  0.00000000000E+00 0. -1.
        -11   -1    0    0    0    0 -0.00000000000E+00 -0.00000000000E+00 -0.50000000000E+02  0.50000000000E+02  0.00000000000E+00 0.  1.
         23    2    1    2    0    0  0.00000000000E+00  0.00000000000E+00  0.00000000000E+00  0.10000000000E+03  0.10000000000E+03 0.  0.
          5    1    3    3  501    0 -0.42970756897E+02 -0.24964389243E+02  0.28641441050E+01  0.50000000000E+02  0.47000000000E+01 0. -1.
         -5    1    3    3    0  501  0.42970756897E+02  0.24964389243E+02 -0.28641441050E+01  0.50000000000E+02  0.47000000000E+01 0.  1.
</event>
<event>
 5    1  0.8909620E-001  0.1000000E+03  0.7546771E-02  0.1163815E+00
         11   -1    0    0    0    0  0.00000000000E+00  0.00000000000E+00  0.50000000000E+02  0.50000000000E+02  0.00000000000E+00 0.  1.
        -11   -1    0    0    0    0 -0.00000000000E+00 -0.00000000000E+00 -0.50000000000E+02  0.50000000000E+02  0.00000000000E+00 0. -1.
         23    2    1    2    0    0  0.00000000000E+00  0.00000000000E+00  0.00000000000E+00  0.10000000000E+03  0.10000000000E+03 0.  0.
          5    1    3    3  501    0  0.42192675610E+02 -0.11470314763E+01 -0.26388869692E+02  0.50000000000E+02  0.47000000000E+01 0. -1.
         -5    1    3    3    0  501 -0.42192675610E+02  0.11470314763E+01  0.26388869692E+02  0.50000000000E+02  0.47000000000E+01 0.  1.
</event>
<event>
 5    1  0.8909620E-001  0.1000000E+03  0.7546771E-02  0.1163815E+00
         11   -1    0    0    0    0  0.00000000000E+00  0.00000000000E+00  0.50000000000E+02  0.50000000000E+02  0.00000000000E+00 0. -1.
        -11   -1    0    0    0    0 -0.00000000000E+00 -0.00000000000E+00 -0.50000000000E+02  0.50000000000E+02  0.00000000000E+00 0.  1.
         23    2    1    2    0    0  0.00000000000E+00  0.00000000000E+00  0.00000000000E+00  0.10000000000E+03  0.10000000000E+03 0.  0.
          5    1    3    3  501    0  0.49061109951E+02 -0.71811830606E+01  0.43986475419E+01  0.50000000000E+02  0.47000000000E+01 0. -1.
         -5    1    3    3    0  501 -0.49061109951E+02  0.71811830606E+01 -0.43986475419E+01  0.50000000000E+02  0.47000000000E+01 0.  1.
</event>
<event>
 5    1  0.8909620E-001  0.1000000E+03  0.7546771E-02  0.1163815E+00
         11   -1    0    0    0    0  0.00000000000E+00  0.00000000000E+00  0.50000000000E+02  0.50000000000E+02  0.00000000000E+00 0. -1.
        -11   -1    0    0    0    0 -0.00000000000E+00 -0.00000000000E+00 -0.50000000000E+02  0.50000000000E+02  0.00000000000E+00 0.  1.
         23    2    1    2    0    0  0.00000000000E+00  0.00000000000E+00  0.00000000000E+00  0.10000000000E+03  0.10000000000E+03 0.  0.
          5    1    3    3  501    0 -0.10865954008E+01  0.11083517619E+02  0.48516852202E+02  0.50000000000E+02  0.47000000000E+01 0. -1.
         -5    1    3    3    0  501  0.10865954008E+01 -0.11083517619E+02 -0.48516852202E+02  0.50000000000E+02  0.47000000000E+01 0.  1.
</event>
<event>
 5    1  0.8909620E-001  0.1000000E+03  0.7546771E-02  0.1163815E+00
         11   -1    0    0    0    0  0.00000000000E+00  0.00000000000E+00  0.50000000000E+02  0.50000000000E+02  0.00000000000E+00 0. -1.
        -11   -1    0    0    0    0 -0.00000000000E+00 -0.00000000000E+00 -0.50000000000E+02  0.50000000000E+02  0.00000000000E+00 0.  1.
         23    2    1    2    0    0  0.00000000000E+00  0.00000000000E+00  0.00000000000E+00  0.10000000000E+03  0.10000000000E+03 0.  0.
          5    1    3    3  501    0  0.29669729912E+02  0.31070593072E+02  0.25144291064E+02  0.50000000000E+02  0.47000000000E+01 0. -1.
         -5    1    3    3    0  501 -0.29669729912E+02 -0.31070593072E+02 -0.25144291064E+02  0.50000000000E+02  0.47000000000E+01 0.  1.
</event>
<event>
 5    1  0.8909620E-001  0.1000000E+03  0.7546771E-02  0.1163815E+00
         11   -1    0    0    0    0  0.00000000000E+00  0.00000000000E+00  0.50000000000E+02  0.50000000000E+02  0.00000000000E+00 0. -1.
        -11   -1    0    0    0    0 -0.00000000000E+00 -0.00000000000E+00 -0.50000000000E+02  0.50000000000E+02  0.00000000000E+00 0.  1.
         23    2    1    2    0    0  0.00000000000E+00  0.00000000000E+00  0.00000000000E+00  0.10000000000E+03  0.10000000000E+03 0.  0.
          5    1    3    3  501    0 -0.30699296178E+02 -0.39060709516E+02 -0.31183627474E+01  0.50000000000E+02  0.47000000000E+01 0. -1.
         -5    1    3    3    0  501  0.30699296178E+02  0.39060709516E+02  0.31183627474E+01  0.50000000000E+02  0.47000000000E+01 0.  1.
</event>
<event>
 5    1  0.8909620E-001  0.1000000E+03  0.7546771E-02  0.1163815E+00
         11   -1    0    0    0    0  0.00000000000E+00  0.00000000000E+00  0.50000000000E+02  0.50000000000E+02  0.00000000000E+00 0. -1.
        -11   -1    0    0    0    0 -0.00000000000E+00 -0.00000000000E+00 -0.50000000000E+02  0.50000000000E+02  0.00000000000E+00 0.  1.
         23    2    1    2    0    0  0.00000000000E+00  0.00000000000E+00  0.00000000000E+00  0.10000000000E+03  0.10000000000E+03 0.  0.
          5    1    3    3  501    0 -0.78858762202E+01  0.35658459297E+02  0.33825984640E+02  0.50000000000E+02  0.47000000000E+01 0. -1.
         -5    1    3    3    0  501  0.78858762202E+01 -0.35658459297E+02 -0.33825984640E+02  0.50000000000E+02  0.47000000000E+01 0.  1.
</event>
<event>
 5    1  0.8909620E-001  0.1000000E+03  0.7546771E-02  0.1163815E+00
         11   -1    0    0    0    0  0.00000000000E+00  0.00000000000E+00  0.50000000000E+02  0.50000000000E+02  0.00000000000E+00 0. -1.
        -11   -1    0    0    0    0 -0.00000000000E+00 -0.00000000000E+00 -0.50000000000E+02  0.50000000000E+02  0.00000000000E+00 0.  1.
         23    2    1    2    0    0  0.00000000000E+00  0.00000000000E+00  0.00000000000E+00  0.10000000000E+03  0.10000000000E+03 0.  0.
          5    1    3    3  501    0 -0.15733930640E+02  0.18639777693E+02  0.43392535236E+02  0.50000000000E+02  0.47000000000E+01 0. -1.
         -5    1    3    3    0  501  0.15733930640E+02 -0.18639777693E+02 -0.43392535236E+02  0.50000000000E+02  0.47000000000E+01 0.  1.
</event>
<event>
 5    1  0.8909620E-001  0.1000000E+03  0.7546771E-02  0.1163815E+00
         11   -1    0    0    0    0  0.00000000000E+00  0.00000000000E+00  0.50000000000E+02  0.50000000000E+02  0.00000000000E+00 0. -1.
        -11   -1    0    0    0    0 -0.00000000000E+00 -0.00000000000E+00 -0.50000000000E+02  0.50000000000E+02  0.00000000000E+00 0.  1.
         23    2    1    2    0    0  0.00000000000E+00  0.00000000000E+00  0.00000000000E+00  0.10000000000E+03  0.10000000000E+03 0.  0.
          5    1    3    3  501    0  0.21500375233E+01  0.26757512722E+02  0.41920434773E+02  0.50000000000E+02  0.47000000000E+01 0. -1.
         -5    1    3    3    0  501 -0.21500375233E+01 -0.26757512722E+02 -0.41920434773E+02  0.50000000000E+02  0.47000000000E+01 0.  1.
</event>
<event>
 5    1  0.8909620E-001  0.1000000E+03  0.7546771E-02  0.1163815E+00
         11   -1    0    0    0    0  0.00000000000E+00  0.00000000000E+00  0.50000000000E+02  0.50000000000E+02  0.00000000000E+00 0. -1.
        -11   -1    0    0    0    0 -0.00000000000E+00 -0.00000000000E+00 -0.50000000000E+02  0.50000000000E+02  0.00000000000E+00 0.  1.
         23    2    1    2    0    0  0.00000000000E+00  0.00000000000E+00  0.00000000000E+00  0.10000000000E+03  0.10000000000E+03 0.  0.
          5    1    3    3  501    0  0.27269279117E+02  0.71844613720E+01  0.41020481850E+02  0.50000000000E+02  0.47000000000E+01 0. -1.
         -5    1    3    3    0  501 -0.27269279117E+02 -0.71844613720E+01 -0.41020481850E+02  0.50000000000E+02  0.47000000000E+01 0.  1.
</event>
<event>
 5    1  0.8909620E-001  0.1000000E+03  0.7546771E-02  0.1163815E+00
         11   -1    0    0    0    0  0.00000000000E+00  0.00000000000E+00  0.50000000000E+02  0.50000000000E+02  0.00000000000E+00 0.  1.
        -11   -1    0    0    0    0 -0.00000000000E+00 -0.00000000000E+00 -0.50000000000E+02  0.50000000000E+02  0.00000000000E+00 0. -1.
         23    2    1    2    0    0  0.00000000000E+00  0.00000000000E+00  0.00000000000E+00  0.10000000000E+03  0.10000000000E+03 0.  0.
          5    1    3    3  501    0 -0.37545722990E+02 -0.29785971817E+02 -0.13454537082E+02  0.50000000000E+02  0.47000000000E+01 0. -1.
         -5    1    3    3    0  501  0.37545722990E+02  0.29785971817E+02  0.13454537082E+02  0.50000000000E+02  0.47000000000E+01 0.  1.
</event>
<event>
 5    1  0.8909620E-001  0.1000000E+03  0.7546771E-02  0.1163815E+00
         11   -1    0    0    0    0  0.00000000000E+00  0.00000000000E+00  0.50000000000E+02  0.50000000000E+02  0.00000000000E+00 0. -1.
        -11   -1    0    0    0    0 -0.00000000000E+00 -0.00000000000E+00 -0.50000000000E+02  0.50000000000E+02  0.00000000000E+00 0.  1.
         23    2    1    2    0    0  0.00000000000E+00  0.00000000000E+00  0.00000000000E+00  0.10000000000E+03  0.10000000000E+03 0.  0.
          5    1    3    3  501    0 -0.11841062676E+02  0.42619449501E+02  0.22831595628E+02  0.50000000000E+02  0.47000000000E+01 0. -1.
         -5    1    3    3    0  501  0.11841062676E+02 -0.42619449501E+02 -0.22831595628E+02  0.50000000000E+02  0.47000000000E+01 0.  1.
</event>
<event>
 5    1  0.8909620E-001  0.1000000E+03  0.7546771E-02  0.1163815E+00
         11   -1    0    0    0    0  0.00000000000E+00  0.00000000000E+00  0.50000000000E+02  0.50000000000E+02  0.00000000000E+00 0. -1.
        -11   -1    0    0    0    0 -0.00000000000E+00 -0.00000000000E+00 -0.50000000000E+02  0.50000000000E+02  0.00000000000E+00 0.  1.
         23    2    1    2    0    0  0.00000000000E+00  0.00000000000E+00  0.00000000000E+00  0.10000000000E+03  0.10000000000E+03 0.  0.
          5    1    3    3  501    0  0.69928368686E+01  0.30814097826E+02  0.38464290032E+02  0.50000000000E+02  0.47000000000E+01 0. -1.
         -5    1    3    3    0  501 -0.69928368686E+01 -0.30814097826E+02 -0.38464290032E+02  0.50000000000E+02  0.47000000000E+01 0.  1.
</event>
<event>
 5    1  0.8909620E-001  0.1000000E+03  0.7546771E-02  0.1163815E+00
         11   -1    0    0    0    0  0.00000000000E+00  0.00000000000E+00  0.50000000000E+02  0.50000000000E+02  0.00000000000E+00 0. -1.
        -11   -1    0    0    0    0 -0.00000000000E+00 -0.00000000000E+00 -0.50000000000E+02  0.50000000000E+02  0.00000000000E+00 0.  1.
         23    2    1    2    0    0  0.00000000000E+00  0.00000000000E+00  0.00000000000E+00  0.10000000000E+03  0.10000000000E+03 0.  0.
          5    1    3    3  501    0 -0.17208708013E+02 -0.41940198419E+02 -0.20561860935E+02  0.50000000000E+02  0.47000000000E+01 0. -1.
         -5    1    3    3    0  501  0.17208708013E+02  0.41940198419E+02  0.20561860935E+02  0.50000000000E+02  0.47000000000E+01 0.  1.
</event>
<event>
 5    1  0.8909620E-001  0.1000000E+03  0.7546771E-02  0.1163815E+00
         11   -1    0    0    0    0  0.00000000000E+00  0.00000000000E+00  0.50000000000E+02  0.50000000000E+02  0.00000000000E+00 0. -1.
        -11   -1    0    0    0    0 -0.00000000000E+00 -0.00000000000E+00 -0.50000000000E+02  0.50000000000E+02  0.00000000000E+00 0.  1.
         23    2    1    2    0    0  0.00000000000E+00  0.00000000000E+00  0.00000000000E+00  0.10000000000E+03  0.10000000000E+03 0.  0.
          5    1    3    3  501    0 -0.25410102387E+01  0.17510551529E+01  0.49682864982E+02  0.50000000000E+02  0.47000000000E+01 0. -1.
         -5    1    3    3    0  501  0.25410102387E+01 -0.17510551529E+01 -0.49682864982E+02  0.50000000000E+02  0.47000000000E+01 0.  1.
</event>
<event>
 5    1  0.8909620E-001  0.1000000E+03  0.7546771E-02  0.1163815E+00
         11   -1    0    0    0    0  0.00000000000E+00  0.00000000000E+00  0.50000000000E+02  0.50000000000E+02  0.00000000000E+00 0. -1.
        -11   -1    0    0    0    0 -0.00000000000E+00 -0.00000000000E+00 -0.50000000000E+02  0.50000000000E+02  0.00000000000E+00 0.  1.
         23    2    1    2    0    0  0.00000000000E+00  0.00000000000E+00  0.00000000000E+00  0.10000000000E+03  0.10000000000E+03 0.  0.
          5    1    3    3  501    0  0.32408810068E+02  0.63876863525E+01  0.37239448076E+02  0.50000000000E+02  0.47000000000E+01 0. -1.
         -5    1    3    3    0  501 -0.32408810068E+02 -0.63876863525E+01 -0.37239448076E+02  0.50000000000E+02  0.47000000000E+01 0.  1.
</event>
<event>
 5    1  0.8909620E-001  0.1000000E+03  0.7546771E-02  0.1163815E+00
         11   -1    0    0    0    0  0.00000000000E+00  0.00000000000E+00  0.50000000000E+02  0.50000000000E+02  0.00000000000E+00 0. -1.
        -11   -1    0    0    0    0 -0.00000000000E+00 -0.00000000000E+00 -0.50000000000E+02  0.50000000000E+02  0.00000000000E+00 0.  1.
         23    2    1    2    0    0  0.00000000000E+00  0.00000000000E+00  0.00000000000E+00  0.10000000000E+03  0.10000000000E+03 0.  0.
          5    1    3    3  501    0  0.25231367085E+00  0.19771188741E+02  0.45683108843E+02  0.50000000000E+02  0.47000000000E+01 0. -1.
         -5    1    3    3    0  501 -0.25231367085E+00 -0.19771188741E+02 -0.45683108843E+02  0.50000000000E+02  0.47000000000E+01 0.  1.
</event>
<event>
 5    1  0.8909620E-001  0.1000000E+03  0.7546771E-02  0.1163815E+00
         11   -1    0    0    0    0  0.00000000000E+00  0.00000000000E+00  0.50000000000E+02  0.50000000000E+02  0.00000000000E+00 0. -1.
        -11   -1    0    0    0    0 -0.00000000000E+00 -0.00000000000E+00 -0.50000000000E+02  0.50000000000E+02  0.00000000000E+00 0.  1.
         23    2    1    2    0    0  0.00000000000E+00  0.00000000000E+00  0.00000000000E+00  0.10000000000E+03  0.10000000000E+03 0.  0.
          5    1    3    3  501    0 -0.54025471463E+01 -0.11707057565E+02  0.48079801242E+02  0.50000000000E+02  0.47000000000E+01 0. -1.
         -5    1    3    3    0  501  0.54025471463E+01  0.11707057565E+02 -0.48079801242E+02  0.50000000000E+02  0.47000000000E+01 0.  1.
</event>
<event>
 5    1  0.8909620E-001  0.1000000E+03  0.7546771E-02  0.1163815E+00
         11   -1    0    0    0    0  0.00000000000E+00  0.00000000000E+00  0.50000000000E+02  0.50000000000E+02  0.00000000000E+00 0. -1.
        -11   -1    0    0    0    0 -0.00000000000E+00 -0.00000000000E+00 -0.50000000000E+02  0.50000000000E+02  0.00000000000E+00 0.  1.
         23    2    1    2    0    0  0.00000000000E+00  0.00000000000E+00  0.00000000000E+00  0.10000000000E+03  0.10000000000E+03 0.  0.
          5    1    3    3  501    0  0.32549081032E+02  0.30200175109E+02  0.22503705192E+02  0.50000000000E+02  0.47000000000E+01 0. -1.
         -5    1    3    3    0  501 -0.32549081032E+02 -0.30200175109E+02 -0.22503705192E+02  0.50000000000E+02  0.47000000000E+01 0.  1.
</event>
<event>
 5    1  0.8909620E-001  0.1000000E+03  0.7546771E-02  0.1163815E+00
         11   -1    0    0    0    0  0.00000000000E+00  0.00000000000E+00  0.50000000000E+02  0.50000000000E+02  0.00000000000E+00 0.  1.
        -11   -1    0    0    0    0 -0.00000000000E+00 -0.00000000000E+00 -0.50000000000E+02  0.50000000000E+02  0.00000000000E+00 0. -1.
         23    2    1    2    0    0  0.00000000000E+00  0.00000000000E+00  0.00000000000E+00  0.10000000000E+03  0.10000000000E+03 0.  0.
          5    1    3    3  501    0  0.12394013003E+02 -0.45052073898E+01 -0.48000016126E+02  0.50000000000E+02  0.47000000000E+01 0. -1.
         -5    1    3    3    0  501 -0.12394013003E+02  0.45052073898E+01  0.48000016126E+02  0.50000000000E+02  0.47000000000E+01 0.  1.
</event>
<event>
 5    1  0.8909620E-001  0.1000000E+03  0.7546771E-02  0.1163815E+00
         11   -1    0    0    0    0  0.00000000000E+00  0.00000000000E+00  0.50000000000E+02  0.50000000000E+02  0.00000000000E+00 0. -1.
        -11   -1    0    0    0    0 -0.00000000000E+00 -0.00000000000E+00 -0.50000000000E+02  0.50000000000E+02  0.00000000000E+00 0.  1.
         23    2    1    2    0    0  0.00000000000E+00  0.00000000000E+00  0.00000000000E+00  0.10000000000E+03  0.10000000000E+03 0.  0.
          5    1    3    3  501    0 -0.28096301143E+02  0.34322759641E+02  0.22593274060E+02  0.50000000000E+02  0.47000000000E+01 0. -1.
         -5    1    3    3    0  501  0.28096301143E+02 -0.34322759641E+02 -0.22593274060E+02  0.50000000000E+02  0.47000000000E+01 0.  1.
</event>
<event>
 5    1  0.8909620E-001  0.1000000E+03  0.7546771E-02  0.1163815E+00
         11   -1    0    0    0    0  0.00000000000E+00  0.00000000000E+00  0.50000000000E+02  0.50000000000E+02  0.00000000000E+00 0. -1.
        -11   -1    0    0    0    0 -0.00000000000E+00 -0.00000000000E+00 -0.50000000000E+02  0.50000000000E+02  0.00000000000E+00 0.  1.
         23    2    1    2    0    0  0.00000000000E+00  0.00000000000E+00  0.00000000000E+00  0.10000000000E+03  0.10000000000E+03 0.  0.
          5    1    3    3  501    0 -0.15337163506E+02 -0.30032649292E+02  0.36615862575E+02  0.50000000000E+02  0.47000000000E+01 0. -1.
         -5    1    3    3    0  501  0.15337163506E+02  0.30032649292E+02 -0.36615862575E+02  0.50000000000E+02  0.47000000000E+01 0.  1.
</event>
<event>
 5    1  0.8909620E-001  0.1000000E+03  0.7546771E-02  0.1163815E+00
         11   -1    0    0    0    0  0.00000000000E+00  0.00000000000E+00  0.50000000000E+02  0.50000000000E+02  0.00000000000E+00 0.  1.
        -11   -1    0    0    0    0 -0.00000000000E+00 -0.00000000000E+00 -0.50000000000E+02  0.50000000000E+02  0.00000000000E+00 0. -1.
         23    2    1    2    0    0  0.00000000000E+00  0.00000000000E+00  0.00000000000E+00  0.10000000000E+03  0.10000000000E+03 0.  0.
          5    1    3    3  501    0  0.45005047951E+02 -0.23494043250E+01 -0.21140859922E+02  0.50000000000E+02  0.47000000000E+01 0. -1.
         -5    1    3    3    0  501 -0.45005047951E+02  0.23494043250E+01  0.21140859922E+02  0.50000000000E+02  0.47000000000E+01 0.  1.
</event>
<event>
 5    1  0.8909620E-001  0.1000000E+03  0.7546771E-02  0.1163815E+00
         11   -1    0    0    0    0  0.00000000000E+00  0.00000000000E+00  0.50000000000E+02  0.50000000000E+02  0.00000000000E+00 0. -1.
        -11   -1    0    0    0    0 -0.00000000000E+00 -0.00000000000E+00 -0.50000000000E+02  0.50000000000E+02  0.00000000000E+00 0.  1.
         23    2    1    2    0    0  0.00000000000E+00  0.00000000000E+00  0.00000000000E+00  0.10000000000E+03  0.10000000000E+03 0.  0.
          5    1    3    3  501    0  0.46832007400E+02  0.90723123523E+01  0.14225548547E+02  0.50000000000E+02  0.47000000000E+01 0. -1.
         -5    1    3    3    0  501 -0.46832007400E+02 -0.90723123523E+01 -0.14225548547E+02  0.50000000000E+02  0.47000000000E+01 0.  1.
</event>
<event>
 5    1  0.8909620E-001  0.1000000E+03  0.7546771E-02  0.1163815E+00
         11   -1    0    0    0    0  0.00000000000E+00  0.00000000000E+00  0.50000000000E+02  0.50000000000E+02  0.00000000000E+00 0. -1.
        -11   -1    0    0    0    0 -0.00000000000E+00 -0.00000000000E+00 -0.50000000000E+02  0.50000000000E+02  0.00000000000E+00 0.  1.
         23    2    1    2    0    0  0.00000000000E+00  0.00000000000E+00  0.00000000000E+00  0.10000000000E+03  0.10000000000E+03 0.  0.
          5    1    3    3  501    0  0.16083199869E+02  0.29996040512E+02  0.36324622993E+02  0.50000000000E+02  0.47000000000E+01 0. -1.
         -5    1    3    3    0  501 -0.16083199869E+02 -0.29996040512E+02 -0.36324622993E+02  0.50000000000E+02  0.47000000000E+01 0.  1.
</event>
<event>
 5    1  0.8909620E-001  0.1000000E+03  0.7546771E-02  0.1163815E+00
         11   -1    0    0    0    0  0.00000000000E+00  0.00000000000E+00  0.50000000000E+02  0.50000000000E+02  0.00000000000E+00 0.  1.
        -11   -1    0    0    0    0 -0.00000000000E+00 -0.00000000000E+00 -0.50000000000E+02  0.50000000000E+02  0.00000000000E+00 0. -1.
         23    2    1    2    0    0  0.00000000000E+00  0.00000000000E+00  0.00000000000E+00  0.10000000000E+03  0.10000000000E+03 0.  0.
          5    1    3    3  501    0 -0.23555916193E+02  0.12094442926E+02 -0.42151551129E+02  0.50000000000E+02  0.47000000000E+01 0. -1.
         -5    1    3    3    0  501  0.23555916193E+02 -0.12094442926E+02  0.42151551129E+02  0.50000000000E+02  0.47000000000E+01 0.  1.
</event>
<event>
 5    1  0.8909620E-001  0.1000000E+03  0.7546771E-02  0.1163815E+00
         11   -1    0    0    0    0  0.00000000000E+00  0.00000000000E+00  0.50000000000E+02  0.50000000000E+02  0.00000000000E+00 0. -1.
        -11   -1    0    0    0    0 -0.00000000000E+00 -0.00000000000E+00 -0.50000000000E+02  0.50000000000E+02  0.00000000000E+00 0.  1.
         23    2    1    2    0    0  0.00000000000E+00  0.00000000000E+00  0.00000000000E+00  0.10000000000E+03  0.10000000000E+03 0.  0.
          5    1    3    3  501    0 -0.57378254160E+01  0.18463053194E+02  0.45870502790E+02  0.50000000000E+02  0.47000000000E+01 0. -1.
         -5    1    3    3    0  501  0.57378254160E+01 -0.18463053194E+02 -0.45870502790E+02  0.50000000000E+02  0.47000000000E+01 0.  1.
</event>
<event>
 5    1  0.8909620E-001  0.1000000E+03  0.7546771E-02  0.1163815E+00
         11   -1    0    0    0    0  0.00000000000E+00  0.00000000000E+00  0.50000000000E+02  0.50000000000E+02  0.00000000000E+00 0. -1.
        -11   -1    0    0    0    0 -0.00000000000E+00 -0.00000000000E+00 -0.50000000000E+02  0.50000000000E+02  0.00000000000E+00 0.  1.
         23    2    1    2    0    0  0.00000000000E+00  0.00000000000E+00  0.00000000000E+00  0.10000000000E+03  0.10000000000E+03 0.  0.
          5    1    3    3  501    0 -0.29744158888E+02  0.17127529403E+02  0.36053332004E+02  0.50000000000E+02  0.47000000000E+01 0. -1.
         -5    1    3    3    0  501  0.29744158888E+02 -0.17127529403E+02 -0.36053332004E+02  0.50000000000E+02  0.47000000000E+01 0.  1.
</event>
<event>
 5    1  0.8909620E-001  0.1000000E+03  0.7546771E-02  0.1163815E+00
         11   -1    0    0    0    0  0.00000000000E+00  0.00000000000E+00  0.50000000000E+02  0.50000000000E+02  0.00000000000E+00 0.  1.
        -11   -1    0    0    0    0 -0.00000000000E+00 -0.00000000000E+00 -0.50000000000E+02  0.50000000000E+02  0.00000000000E+00 0. -1.
         23    2    1    2    0    0  0.00000000000E+00  0.00000000000E+00  0.00000000000E+00  0.10000000000E+03  0.10000000000E+03 0.  0.
          5    1    3    3  501    0  0.40681000724E+02  0.28686351525E+02  0.24375447800E+00  0.50000000000E+02  0.47000000000E+01 0.  1.
         -5    1    3    3    0  501 -0.40681000724E+02 -0.28686351525E+02 -0.24375447800E+00  0.50000000000E+02  0.47000000000E+01 0. -1.
</event>
<event>
 5    1  0.8909620E-001  0.1000000E+03  0.7546771E-02  0.1163815E+00
         11   -1    0    0    0    0  0.00000000000E+00  0.00000000000E+00  0.50000000000E+02  0.50000000000E+02  0.00000000000E+00 0. -1.
        -11   -1    0    0    0    0 -0.00000000000E+00 -0.00000000000E+00 -0.50000000000E+02  0.50000000000E+02  0.00000000000E+00 0.  1.
         23    2    1    2    0    0  0.00000000000E+00  0.00000000000E+00  0.00000000000E+00  0.10000000000E+03  0.10000000000E+03 0.  0.
          5    1    3    3  501    0 -0.42421445200E+01  0.48299267934E+02  0.11273638584E+02  0.50000000000E+02  0.47000000000E+01 0. -1.
         -5    1    3    3    0  501  0.42421445200E+01 -0.48299267934E+02 -0.11273638584E+02  0.50000000000E+02  0.47000000000E+01 0.  1.
</event>
<event>
 5    1  0.8909620E-001  0.1000000E+03  0.7546771E-02  0.1163815E+00
         11   -1    0    0    0    0  0.00000000000E+00  0.00000000000E+00  0.50000000000E+02  0.50000000000E+02  0.00000000000E+00 0.  1.
        -11   -1    0    0    0    0 -0.00000000000E+00 -0.00000000000E+00 -0.50000000000E+02  0.50000000000E+02  0.00000000000E+00 0. -1.
         23    2    1    2    0    0  0.00000000000E+00  0.00000000000E+00  0.00000000000E+00  0.10000000000E+03  0.10000000000E+03 0.  0.
          5    1    3    3  501    0 -0.21257854972E+02 -0.68516644559E+01 -0.44486720448E+02  0.50000000000E+02  0.47000000000E+01 0. -1.
         -5    1    3    3    0  501  0.21257854972E+02  0.68516644559E+01  0.44486720448E+02  0.50000000000E+02  0.47000000000E+01 0.  1.
</event>
<event>
 5    1  0.8909620E-001  0.1000000E+03  0.7546771E-02  0.1163815E+00
         11   -1    0    0    0    0  0.00000000000E+00  0.00000000000E+00  0.50000000000E+02  0.50000000000E+02  0.00000000000E+00 0. -1.
        -11   -1    0    0    0    0 -0.00000000000E+00 -0.00000000000E+00 -0.50000000000E+02  0.50000000000E+02  0.00000000000E+00 0.  1.
         23    2    1    2    0    0  0.00000000000E+00  0.00000000000E+00  0.00000000000E+00  0.10000000000E+03  0.10000000000E+03 0.  0.
          5    1    3    3  501    0 -0.32922645074E+02 -0.47658163194E+01  0.37031019918E+02  0.50000000000E+02  0.47000000000E+01 0. -1.
         -5    1    3    3    0  501  0.32922645074E+02  0.47658163194E+01 -0.37031019918E+02  0.50000000000E+02  0.47000000000E+01 0.  1.
</event>
<event>
 5    1  0.8909620E-001  0.1000000E+03  0.7546771E-02  0.1163815E+00
         11   -1    0    0    0    0  0.00000000000E+00  0.00000000000E+00  0.50000000000E+02  0.50000000000E+02  0.00000000000E+00 0. -1.
        -11   -1    0    0    0    0 -0.00000000000E+00 -0.00000000000E+00 -0.50000000000E+02  0.50000000000E+02  0.00000000000E+00 0.  1.
         23    2    1    2    0    0  0.00000000000E+00  0.00000000000E+00  0.00000000000E+00  0.10000000000E+03  0.10000000000E+03 0.  0.
          5    1    3    3  501    0 -0.63018269964E+01 -0.30089844978E+02  0.39150966855E+02  0.50000000000E+02  0.47000000000E+01 0. -1.
         -5    1    3    3    0  501  0.63018269964E+01  0.30089844978E+02 -0.39150966855E+02  0.50000000000E+02  0.47000000000E+01 0.  1.
</event>
<event>
 5    1  0.8909620E-001  0.1000000E+03  0.7546771E-02  0.1163815E+00
         11   -1    0    0    0    0  0.00000000000E+00  0.00000000000E+00  0.50000000000E+02  0.50000000000E+02  0.00000000000E+00 0.  1.
        -11   -1    0    0    0    0 -0.00000000000E+00 -0.00000000000E+00 -0.50000000000E+02  0.50000000000E+02  0.00000000000E+00 0. -1.
         23    2    1    2    0    0  0.00000000000E+00  0.00000000000E+00  0.00000000000E+00  0.10000000000E+03  0.10000000000E+03 0.  0.
          5    1    3    3  501    0  0.49067288501E+02 -0.61599725630E+00  0.83625203434E+01  0.50000000000E+02  0.47000000000E+01 0. -1.
         -5    1    3    3    0  501 -0.49067288501E+02  0.61599725630E+00 -0.83625203434E+01  0.50000000000E+02  0.47000000000E+01 0.  1.
</event>
<event>
 5    1  0.8909620E-001  0.1000000E+03  0.7546771E-02  0.1163815E+00
         11   -1    0    0    0    0  0.00000000000E+00  0.00000000000E+00  0.50000000000E+02  0.50000000000E+02  0.00000000000E+00 0. -1.
        -11   -1    0    0    0    0 -0.00000000000E+00 -0.00000000000E+00 -0.50000000000E+02  0.50000000000E+02  0.00000000000E+00 0.  1.
         23    2    1    2    0    0  0.00000000000E+00  0.00000000000E+00  0.00000000000E+00  0.10000000000E+03  0.10000000000E+03 0.  0.
          5    1    3    3  501    0  0.35886520177E+02  0.34025785902E+02 -0.56845020263E+01  0.50000000000E+02  0.47000000000E+01 0. -1.
         -5    1    3    3    0  501 -0.35886520177E+02 -0.34025785902E+02  0.56845020263E+01  0.50000000000E+02  0.47000000000E+01 0.  1.
</event>
<event>
 5    1  0.8909620E-001  0.1000000E+03  0.7546771E-02  0.1163815E+00
         11   -1    0    0    0    0  0.00000000000E+00  0.00000000000E+00  0.50000000000E+02  0.50000000000E+02  0.00000000000E+00 0. -1.
        -11   -1    0    0    0    0 -0.00000000000E+00 -0.00000000000E+00 -0.50000000000E+02  0.50000000000E+02  0.00000000000E+00 0.  1.
         23    2    1    2    0    0  0.00000000000E+00  0.00000000000E+00  0.00000000000E+00  0.10000000000E+03  0.10000000000E+03 0.  0.
          5    1    3    3  501    0 -0.33519747971E+02  0.21146093608E+02 -0.30119416014E+02  0.50000000000E+02  0.47000000000E+01 0.  1.
         -5    1    3    3    0  501  0.33519747971E+02 -0.21146093608E+02  0.30119416014E+02  0.50000000000E+02  0.47000000000E+01 0. -1.
</event>
<event>
 5    1  0.8909620E-001  0.1000000E+03  0.7546771E-02  0.1163815E+00
         11   -1    0    0    0    0  0.00000000000E+00  0.00000000000E+00  0.50000000000E+02  0.50000000000E+02  0.00000000000E+00 0. -1.
        -11   -1    0    0    0    0 -0.00000000000E+00 -0.00000000000E+00 -0.50000000000E+02  0.50000000000E+02  0.00000000000E+00 0.  1.
         23    2    1    2    0    0  0.00000000000E+00  0.00000000000E+00  0.00000000000E+00  0.10000000000E+03  0.10000000000E+03 0.  0.
          5    1    3    3  501    0  0.29811250576E+02  0.25949716124E+02  0.30262378826E+02  0.50000000000E+02  0.47000000000E+01 0. -1.
         -5    1    3    3    0  501 -0.29811250576E+02 -0.25949716124E+02 -0.30262378826E+02  0.50000000000E+02  0.47000000000E+01 0.  1.
</event>
<event>
 5    1  0.8909620E-001  0.1000000E+03  0.7546771E-02  0.1163815E+00
         11   -1    0    0    0    0  0.00000000000E+00  0.00000000000E+00  0.50000000000E+02  0.50000000000E+02  0.00000000000E+00 0. -1.
        -11   -1    0    0    0    0 -0.00000000000E+00 -0.00000000000E+00 -0.50000000000E+02  0.50000000000E+02  0.00000000000E+00 0.  1.
         23    2    1    2    0    0  0.00000000000E+00  0.00000000000E+00  0.00000000000E+00  0.10000000000E+03  0.10000000000E+03 0.  0.
          5    1    3    3  501    0 -0.15388797302E+02  0.19382156592E+02  0.43190588366E+02  0.50000000000E+02  0.47000000000E+01 0. -1.
         -5    1    3    3    0  501  0.15388797302E+02 -0.19382156592E+02 -0.43190588366E+02  0.50000000000E+02  0.47000000000E+01 0.  1.
</event>
<event>
 5    1  0.8909620E-001  0.1000000E+03  0.7546771E-02  0.1163815E+00
         11   -1    0    0    0    0  0.00000000000E+00  0.00000000000E+00  0.50000000000E+02  0.50000000000E+02  0.00000000000E+00 0. -1.
        -11   -1    0    0    0    0 -0.00000000000E+00 -0.00000000000E+00 -0.50000000000E+02  0.50000000000E+02  0.00000000000E+00 0.  1.
         23    2    1    2    0    0  0.00000000000E+00  0.00000000000E+00  0.00000000000E+00  0.10000000000E+03  0.10000000000E+03 0.  0.
          5    1    3    3  501    0  0.47251784353E+02  0.21368822793E+00  0.15656730590E+02  0.50000000000E+02  0.47000000000E+01 0. -1.
         -5    1    3    3    0  501 -0.47251784353E+02 -0.21368822793E+00 -0.15656730590E+02  0.50000000000E+02  0.47000000000E+01 0.  1.
</event>
<event>
 5    1  0.8909620E-001  0.1000000E+03  0.7546771E-02  0.1163815E+00
         11   -1    0    0    0    0  0.00000000000E+00  0.00000000000E+00  0.50000000000E+02  0.50000000000E+02  0.00000000000E+00 0. -1.
        -11   -1    0    0    0    0 -0.00000000000E+00 -0.00000000000E+00 -0.50000000000E+02  0.50000000000E+02  0.00000000000E+00 0.  1.
         23    2    1    2    0    0  0.00000000000E+00  0.00000000000E+00  0.00000000000E+00  0.10000000000E+03  0.10000000000E+03 0.  0.
          5    1    3    3  501    0  0.21164216707E+02  0.38844501148E+02  0.22827410317E+02  0.50000000000E+02  0.47000000000E+01 0. -1.
         -5    1    3    3    0  501 -0.21164216707E+02 -0.38844501148E+02 -0.22827410317E+02  0.50000000000E+02  0.47000000000E+01 0.  1.
</event>
<event>
 5    1  0.8909620E-001  0.1000000E+03  0.7546771E-02  0.1163815E+00
         11   -1    0    0    0    0  0.00000000000E+00  0.00000000000E+00  0.50000000000E+02  0.50000000000E+02  0.00000000000E+00 0. -1.
        -11   -1    0    0    0    0 -0.00000000000E+00 -0.00000000000E+00 -0.50000000000E+02  0.50000000000E+02  0.00000000000E+00 0.  1.
         23    2    1    2    0    0  0.00000000000E+00  0.00000000000E+00  0.00000000000E+00  0.10000000000E+03  0.10000000000E+03 0.  0.
          5    1    3    3  501    0 -0.36123906300E+02 -0.19189853454E+01  0.34194895655E+02  0.50000000000E+02  0.47000000000E+01 0. -1.
         -5    1    3    3    0  501  0.36123906300E+02  0.19189853454E+01 -0.34194895655E+02  0.50000000000E+02  0.47000000000E+01 0.  1.
</event>
<event>
 5    1  0.8909620E-001  0.1000000E+03  0.7546771E-02  0.1163815E+00
         11   -1    0    0    0    0  0.00000000000E+00  0.00000000000E+00  0.50000000000E+02  0.50000000000E+02  0.00000000000E+00 0. -1.
        -11   -1    0    0    0    0 -0.00000000000E+00 -0.00000000000E+00 -0.50000000000E+02  0.50000000000E+02  0.00000000000E+00 0.  1.
         23    2    1    2    0    0  0.00000000000E+00  0.00000000000E+00  0.00000000000E+00  0.10000000000E+03  0.10000000000E+03 0.  0.
          5    1    3    3  501    0 -0.27361611414E+02  0.40661471602E+02  0.87118854449E+01  0.50000000000E+02  0.47000000000E+01 0. -1.
         -5    1    3    3    0  501  0.27361611414E+02 -0.40661471602E+02 -0.87118854449E+01  0.50000000000E+02  0.47000000000E+01 0.  1.
</event>
<event>
 5    1  0.8909620E-001  0.1000000E+03  0.7546771E-02  0.1163815E+00
         11   -1    0    0    0    0  0.00000000000E+00  0.00000000000E+00  0.50000000000E+02  0.50000000000E+02  0.00000000000E+00 0. -1.
        -11   -1    0    0    0    0 -0.00000000000E+00 -0.00000000000E+00 -0.50000000000E+02  0.50000000000E+02  0.00000000000E+00 0.  1.
         23    2    1    2    0    0  0.00000000000E+00  0.00000000000E+00  0.00000000000E+00  0.10000000000E+03  0.10000000000E+03 0.  0.
          5    1    3    3  501    0  0.23004409618E+02 -0.42570890733E+02 -0.11680171244E+02  0.50000000000E+02  0.47000000000E+01 0. -1.
         -5    1    3    3    0  501 -0.23004409618E+02  0.42570890733E+02  0.11680171244E+02  0.50000000000E+02  0.47000000000E+01 0.  1.
</event>
<event>
 5    1  0.8909620E-001  0.1000000E+03  0.7546771E-02  0.1163815E+00
         11   -1    0    0    0    0  0.00000000000E+00  0.00000000000E+00  0.50000000000E+02  0.50000000000E+02  0.00000000000E+00 0.  1.
        -11   -1    0    0    0    0 -0.00000000000E+00 -0.00000000000E+00 -0.50000000000E+02  0.50000000000E+02  0.00000000000E+00 0. -1.
         23    2    1    2    0    0  0.00000000000E+00  0.00000000000E+00  0.00000000000E+00  0.10000000000E+03  0.10000000000E+03 0.  0.
          5    1    3    3  501    0 -0.31459353482E+02  0.26810017267E+01 -0.38484169580E+02  0.50000000000E+02  0.47000000000E+01 0. -1.
         -5    1    3    3    0  501  0.31459353482E+02 -0.26810017267E+01  0.38484169580E+02  0.50000000000E+02  0.47000000000E+01 0.  1.
</event>
<event>
 5    1  0.8909620E-001  0.1000000E+03  0.7546771E-02  0.1163815E+00
         11   -1    0    0    0    0  0.00000000000E+00  0.00000000000E+00  0.50000000000E+02  0.50000000000E+02  0.00000000000E+00 0. -1.
        -11   -1    0    0    0    0 -0.00000000000E+00 -0.00000000000E+00 -0.50000000000E+02  0.50000000000E+02  0.00000000000E+00 0.  1.
         23    2    1    2    0    0  0.00000000000E+00  0.00000000000E+00  0.00000000000E+00  0.10000000000E+03  0.10000000000E+03 0.  0.
          5    1    3    3  501    0 -0.55188994322E+01  0.43987450585E+02  0.22639698321E+02  0.50000000000E+02  0.47000000000E+01 0. -1.
         -5    1    3    3    0  501  0.55188994322E+01 -0.43987450585E+02 -0.22639698321E+02  0.50000000000E+02  0.47000000000E+01 0.  1.
</event>
<event>
 5    1  0.8909620E-001  0.1000000E+03  0.7546771E-02  0.1163815E+00
         11   -1    0    0    0    0  0.00000000000E+00  0.00000000000E+00  0.50000000000E+02  0.50000000000E+02  0.00000000000E+00 0. -1.
        -11   -1    0    0    0    0 -0.00000000000E+00 -0.00000000000E+00 -0.50000000000E+02  0.50000000000E+02  0.00000000000E+00 0.  1.
         23    2    1    2    0    0  0.00000000000E+00  0.00000000000E+00  0.00000000000E+00  0.10000000000E+03  0.10000000000E+03 0.  0.
          5    1    3    3  501    0 -0.31196183107E+02  0.36090038501E+02 -0.14220312251E+02  0.50000000000E+02  0.47000000000E+01 0. -1.
         -5    1    3    3    0  501  0.31196183107E+02 -0.36090038501E+02  0.14220312251E+02  0.50000000000E+02  0.47000000000E+01 0.  1.
</event>
<event>
 5    1  0.8909620E-001  0.1000000E+03  0.7546771E-02  0.1163815E+00
         11   -1    0    0    0    0  0.00000000000E+00  0.00000000000E+00  0.50000000000E+02  0.50000000000E+02  0.00000000000E+00 0. -1.
        -11   -1    0    0    0    0 -0.00000000000E+00 -0.00000000000E+00 -0.50000000000E+02  0.50000000000E+02  0.00000000000E+00 0.  1.
         23    2    1    2    0    0  0.00000000000E+00  0.00000000000E+00  0.00000000000E+00  0.10000000000E+03  0.10000000000E+03 0.  0.
          5    1    3    3  501    0  0.33745002116E+02 -0.34268363397E+02  0.12839941679E+02  0.50000000000E+02  0.47000000000E+01 0. -1.
         -5    1    3    3    0  501 -0.33745002116E+02  0.34268363397E+02 -0.12839941679E+02  0.50000000000E+02  0.47000000000E+01 0.  1.
</event>
<event>
 5    1  0.8909620E-001  0.1000000E+03  0.7546771E-02  0.1163815E+00
         11   -1    0    0    0    0  0.00000000000E+00  0.00000000000E+00  0.50000000000E+02  0.50000000000E+02  0.00000000000E+00 0.  1.
        -11   -1    0    0    0    0 -0.00000000000E+00 -0.00000000000E+00 -0.50000000000E+02  0.50000000000E+02  0.00000000000E+00 0. -1.
         23    2    1    2    0    0  0.00000000000E+00  0.00000000000E+00  0.00000000000E+00  0.10000000000E+03  0.10000000000E+03 0.  0.
          5    1    3    3  501    0  0.36107993426E+01  0.49644182864E+02 -0.57204537159E+00  0.50000000000E+02  0.47000000000E+01 0. -1.
         -5    1    3    3    0  501 -0.36107993426E+01 -0.49644182864E+02  0.57204537159E+00  0.50000000000E+02  0.47000000000E+01 0.  1.
</event>
<event>
 5    1  0.8909620E-001  0.1000000E+03  0.7546771E-02  0.1163815E+00
         11   -1    0    0    0    0  0.00000000000E+00  0.00000000000E+00  0.50000000000E+02  0.50000000000E+02  0.00000000000E+00 0. -1.
        -11   -1    0    0    0    0 -0.00000000000E+00 -0.00000000000E+00 -0.50000000000E+02  0.50000000000E+02  0.00000000000E+00 0.  1.
         23    2    1    2    0    0  0.00000000000E+00  0.00000000000E+00  0.00000000000E+00  0.10000000000E+03  0.10000000000E+03 0.  0.
          5    1    3    3  501    0  0.19323789620E+01  0.40391837466E+02  0.29028871450E+02  0.50000000000E+02  0.47000000000E+01 0. -1.
         -5    1    3    3    0  501 -0.19323789620E+01 -0.40391837466E+02 -0.29028871450E+02  0.50000000000E+02  0.47000000000E+01 0.  1.
</event>
<event>
 5    1  0.8909620E-001  0.1000000E+03  0.7546771E-02  0.1163815E+00
         11   -1    0    0    0    0  0.00000000000E+00  0.00000000000E+00  0.50000000000E+02  0.50000000000E+02  0.00000000000E+00 0. -1.
        -11   -1    0    0    0    0 -0.00000000000E+00 -0.00000000000E+00 -0.50000000000E+02  0.50000000000E+02  0.00000000000E+00 0.  1.
         23    2    1    2    0    0  0.00000000000E+00  0.00000000000E+00  0.00000000000E+00  0.10000000000E+03  0.10000000000E+03 0.  0.
          5    1    3    3  501    0 -0.14609805592E+02  0.46437599156E+02 -0.10392928617E+02  0.50000000000E+02  0.47000000000E+01 0. -1.
         -5    1    3    3    0  501  0.14609805592E+02 -0.46437599156E+02  0.10392928617E+02  0.50000000000E+02  0.47000000000E+01 0.  1.
</event>
<event>
 5    1  0.8909620E-001  0.1000000E+03  0.7546771E-02  0.1163815E+00
         11   -1    0    0    0    0  0.00000000000E+00  0.00000000000E+00  0.50000000000E+02  0.50000000000E+02  0.00000000000E+00 0. -1.
        -11   -1    0    0    0    0 -0.00000000000E+00 -0.00000000000E+00 -0.50000000000E+02  0.50000000000E+02  0.00000000000E+00 0.  1.
         23    2    1    2    0    0  0.00000000000E+00  0.00000000000E+00  0.00000000000E+00  0.10000000000E+03  0.10000000000E+03 0.  0.
          5    1    3    3  501    0  0.29694788593E+02 -0.27114856566E+02  0.29341337458E+02  0.50000000000E+02  0.47000000000E+01 0. -1.
         -5    1    3    3    0  501 -0.29694788593E+02  0.27114856566E+02 -0.29341337458E+02  0.50000000000E+02  0.47000000000E+01 0.  1.
</event>
<event>
 5    1  0.8909620E-001  0.1000000E+03  0.7546771E-02  0.1163815E+00
         11   -1    0    0    0    0  0.00000000000E+00  0.00000000000E+00  0.50000000000E+02  0.50000000000E+02  0.00000000000E+00 0. -1.
        -11   -1    0    0    0    0 -0.00000000000E+00 -0.00000000000E+00 -0.50000000000E+02  0.50000000000E+02  0.00000000000E+00 0.  1.
         23    2    1    2    0    0  0.00000000000E+00  0.00000000000E+00  0.00000000000E+00  0.10000000000E+03  0.10000000000E+03 0.  0.
          5    1    3    3  501    0  0.13248539740E+02  0.46825418391E+02  0.10476945511E+02  0.50000000000E+02  0.47000000000E+01 0. -1.
         -5    1    3    3    0  501 -0.13248539740E+02 -0.46825418391E+02 -0.10476945511E+02  0.50000000000E+02  0.47000000000E+01 0.  1.
</event>
<event>
 5    1  0.8909620E-001  0.1000000E+03  0.7546771E-02  0.1163815E+00
         11   -1    0    0    0    0  0.00000000000E+00  0.00000000000E+00  0.50000000000E+02  0.50000000000E+02  0.00000000000E+00 0. -1.
        -11   -1    0    0    0    0 -0.00000000000E+00 -0.00000000000E+00 -0.50000000000E+02  0.50000000000E+02  0.00000000000E+00 0.  1.
         23    2    1    2    0    0  0.00000000000E+00  0.00000000000E+00  0.00000000000E+00  0.10000000000E+03  0.10000000000E+03 0.  0.
          5    1    3    3  501    0 -0.24129600077E+02  0.42994986548E+02  0.68632012834E+01  0.50000000000E+02  0.47000000000E+01 0. -1.
         -5    1    3    3    0  501  0.24129600077E+02 -0.42994986548E+02 -0.68632012834E+01  0.50000000000E+02  0.47000000000E+01 0.  1.
</event>
<event>
 5    1  0.8909620E-001  0.1000000E+03  0.7546771E-02  0.1163815E+00
         11   -1    0    0    0    0  0.00000000000E+00  0.00000000000E+00  0.50000000000E+02  0.50000000000E+02  0.00000000000E+00 0. -1.
        -11   -1    0    0    0    0 -0.00000000000E+00 -0.00000000000E+00 -0.50000000000E+02  0.50000000000E+02  0.00000000000E+00 0.  1.
         23    2    1    2    0    0  0.00000000000E+00  0.00000000000E+00  0.00000000000E+00  0.10000000000E+03  0.10000000000E+03 0.  0.
          5    1    3    3  501    0 -0.11108641302E+02  0.20023414357E+02  0.44199219064E+02  0.50000000000E+02  0.47000000000E+01 0. -1.
         -5    1    3    3    0  501  0.11108641302E+02 -0.20023414357E+02 -0.44199219064E+02  0.50000000000E+02  0.47000000000E+01 0.  1.
</event>
<event>
 5    1  0.8909620E-001  0.1000000E+03  0.7546771E-02  0.1163815E+00
         11   -1    0    0    0    0  0.00000000000E+00  0.00000000000E+00  0.50000000000E+02  0.50000000000E+02  0.00000000000E+00 0. -1.
        -11   -1    0    0    0    0 -0.00000000000E+00 -0.00000000000E+00 -0.50000000000E+02  0.50000000000E+02  0.00000000000E+00 0.  1.
         23    2    1    2    0    0  0.00000000000E+00  0.00000000000E+00  0.00000000000E+00  0.10000000000E+03  0.10000000000E+03 0.  0.
          5    1    3    3  501    0  0.53920970866E+01 -0.41413480570E+02  0.27087984718E+02  0.50000000000E+02  0.47000000000E+01 0. -1.
         -5    1    3    3    0  501 -0.53920970866E+01  0.41413480570E+02 -0.27087984718E+02  0.50000000000E+02  0.47000000000E+01 0.  1.
</event>
<event>
 5    1  0.8909620E-001  0.1000000E+03  0.7546771E-02  0.1163815E+00
         11   -1    0    0    0    0  0.00000000000E+00  0.00000000000E+00  0.50000000000E+02  0.50000000000E+02  0.00000000000E+00 0. -1.
        -11   -1    0    0    0    0 -0.00000000000E+00 -0.00000000000E+00 -0.50000000000E+02  0.50000000000E+02  0.00000000000E+00 0.  1.
         23    2    1    2    0    0  0.00000000000E+00  0.00000000000E+00  0.00000000000E+00  0.10000000000E+03  0.10000000000E+03 0.  0.
          5    1    3    3  501    0 -0.10961232303E+01 -0.15120569959E+02  0.47413889083E+02  0.50000000000E+02  0.47000000000E+01 0. -1.
         -5    1    3    3    0  501  0.10961232303E+01  0.15120569959E+02 -0.47413889083E+02  0.50000000000E+02  0.47000000000E+01 0.  1.
</event>
<event>
 5    1  0.8909620E-001  0.1000000E+03  0.7546771E-02  0.1163815E+00
         11   -1    0    0    0    0  0.00000000000E+00  0.00000000000E+00  0.50000000000E+02  0.50000000000E+02  0.00000000000E+00 0.  1.
        -11   -1    0    0    0    0 -0.00000000000E+00 -0.00000000000E+00 -0.50000000000E+02  0.50000000000E+02  0.00000000000E+00 0. -1.
         23    2    1    2    0    0  0.00000000000E+00  0.00000000000E+00  0.00000000000E+00  0.10000000000E+03  0.10000000000E+03 0.  0.
          5    1    3    3  501    0  0.15821783573E+02  0.45156812053E+02 -0.13727472083E+02  0.50000000000E+02  0.47000000000E+01 0. -1.
         -5    1    3    3    0  501 -0.15821783573E+02 -0.45156812053E+02  0.13727472083E+02  0.50000000000E+02  0.47000000000E+01 0.  1.
</event>
<event>
 5    1  0.8909620E-001  0.1000000E+03  0.7546771E-02  0.1163815E+00
         11   -1    0    0    0    0  0.00000000000E+00  0.00000000000E+00  0.50000000000E+02  0.50000000000E+02  0.00000000000E+00 0.  1.
        -11   -1    0    0    0    0 -0.00000000000E+00 -0.00000000000E+00 -0.50000000000E+02  0.50000000000E+02  0.00000000000E+00 0. -1.
         23    2    1    2    0    0  0.00000000000E+00  0.00000000000E+00  0.00000000000E+00  0.10000000000E+03  0.10000000000E+03 0.  0.
          5    1    3    3  501    0  0.16766794689E+02  0.24634533435E+02  0.39873855574E+02  0.50000000000E+02  0.47000000000E+01 0.  1.
         -5    1    3    3    0  501 -0.16766794689E+02 -0.24634533435E+02 -0.39873855574E+02  0.50000000000E+02  0.47000000000E+01 0. -1.
</event>
<event>
 5    1  0.8909620E-001  0.1000000E+03  0.7546771E-02  0.1163815E+00
         11   -1    0    0    0    0  0.00000000000E+00  0.00000000000E+00  0.50000000000E+02  0.50000000000E+02  0.00000000000E+00 0.  1.
        -11   -1    0    0    0    0 -0.00000000000E+00 -0.00000000000E+00 -0.50000000000E+02  0.50000000000E+02  0.00000000000E+00 0. -1.
         23    2    1    2    0    0  0.00000000000E+00  0.00000000000E+00  0.00000000000E+00  0.10000000000E+03  0.10000000000E+03 0.  0.
          5    1    3    3  501    0  0.13380176211E+02  0.31251782133E+02 -0.36362164375E+02  0.50000000000E+02  0.47000000000E+01 0. -1.
         -5    1    3    3    0  501 -0.13380176211E+02 -0.31251782133E+02  0.36362164375E+02  0.50000000000E+02  0.47000000000E+01 0.  1.
</event>
<event>
 5    1  0.8909620E-001  0.1000000E+03  0.7546771E-02  0.1163815E+00
         11   -1    0    0    0    0  0.00000000000E+00  0.00000000000E+00  0.50000000000E+02  0.50000000000E+02  0.00000000000E+00 0.  1.
        -11   -1    0    0    0    0 -0.00000000000E+00 -0.00000000000E+00 -0.50000000000E+02  0.50000000000E+02  0.00000000000E+00 0. -1.
         23    2    1    2    0    0  0.00000000000E+00  0.00000000000E+00  0.00000000000E+00  0.10000000000E+03  0.10000000000E+03 0.  0.
          5    1    3    3  501    0  0.61618464322E+01  0.32073036190E+02 -0.37566767203E+02  0.50000000000E+02  0.47000000000E+01 0. -1.
         -5    1    3    3    0  501 -0.61618464322E+01 -0.32073036190E+02  0.37566767203E+02  0.50000000000E+02  0.47000000000E+01 0.  1.
</event>
<event>
 5    1  0.8909620E-001  0.1000000E+03  0.7546771E-02  0.1163815E+00
         11   -1    0    0    0    0  0.00000000000E+00  0.00000000000E+00  0.50000000000E+02  0.50000000000E+02  0.00000000000E+00 0. -1.
        -11   -1    0    0    0    0 -0.00000000000E+00 -0.00000000000E+00 -0.50000000000E+02  0.50000000000E+02  0.00000000000E+00 0.  1.
         23    2    1    2    0    0  0.00000000000E+00  0.00000000000E+00  0.00000000000E+00  0.10000000000E+03  0.10000000000E+03 0.  0.
          5    1    3    3  501    0 -0.10701594449E+02 -0.15687872646E+02  0.46013873213E+02  0.50000000000E+02  0.47000000000E+01 0. -1.
         -5    1    3    3    0  501  0.10701594449E+02  0.15687872646E+02 -0.46013873213E+02  0.50000000000E+02  0.47000000000E+01 0.  1.
</event>
<event>
 5    1  0.8909620E-001  0.1000000E+03  0.7546771E-02  0.1163815E+00
         11   -1    0    0    0    0  0.00000000000E+00  0.00000000000E+00  0.50000000000E+02  0.50000000000E+02  0.00000000000E+00 0. -1.
        -11   -1    0    0    0    0 -0.00000000000E+00 -0.00000000000E+00 -0.50000000000E+02  0.50000000000E+02  0.00000000000E+00 0.  1.
         23    2    1    2    0    0  0.00000000000E+00  0.00000000000E+00  0.00000000000E+00  0.10000000000E+03  0.10000000000E+03 0.  0.
          5    1    3    3  501    0 -0.45401880383E+02  0.20365593183E+02 -0.13497673918E+01  0.50000000000E+02  0.47000000000E+01 0. -1.
         -5    1    3    3    0  501  0.45401880383E+02 -0.20365593183E+02  0.13497673918E+01  0.50000000000E+02  0.47000000000E+01 0.  1.
</event>
<event>
 5    1  0.8909620E-001  0.1000000E+03  0.7546771E-02  0.1163815E+00
         11   -1    0    0    0    0  0.00000000000E+00  0.00000000000E+00  0.50000000000E+02  0.50000000000E+02  0.00000000000E+00 0. -1.
        -11   -1    0    0    0    0 -0.00000000000E+00 -0.00000000000E+00 -0.50000000000E+02  0.50000000000E+02  0.00000000000E+00 0.  1.
         23    2    1    2    0    0  0.00000000000E+00  0.00000000000E+00  0.00000000000E+00  0.10000000000E+03  0.10000000000E+03 0.  0.
          5    1    3    3  501    0 -0.20748181767E+01 -0.39590601707E+02  0.30102979686E+02  0.50000000000E+02  0.47000000000E+01 0. -1.
         -5    1    3    3    0  501  0.20748181767E+01  0.39590601707E+02 -0.30102979686E+02  0.50000000000E+02  0.47000000000E+01 0.  1.
</event>
<event>
 5    1  0.8909620E-001  0.1000000E+03  0.7546771E-02  0.1163815E+00
         11   -1    0    0    0    0  0.00000000000E+00  0.00000000000E+00  0.50000000000E+02  0.50000000000E+02  0.00000000000E+00 0. -1.
        -11   -1    0    0    0    0 -0.00000000000E+00 -0.00000000000E+00 -0.50000000000E+02  0.50000000000E+02  0.00000000000E+00 0.  1.
         23    2    1    2    0    0  0.00000000000E+00  0.00000000000E+00  0.00000000000E+00  0.10000000000E+03  0.10000000000E+03 0.  0.
          5    1    3    3  501    0  0.85192857733E+01  0.38977437874E+02  0.29767282487E+02  0.50000000000E+02  0.47000000000E+01 0. -1.
         -5    1    3    3    0  501 -0.85192857733E+01 -0.38977437874E+02 -0.29767282487E+02  0.50000000000E+02  0.47000000000E+01 0.  1.
</event>
<event>
 5    1  0.8909620E-001  0.1000000E+03  0.7546771E-02  0.1163815E+00
         11   -1    0    0    0    0  0.00000000000E+00  0.00000000000E+00  0.50000000000E+02  0.50000000000E+02  0.00000000000E+00 0. -1.
        -11   -1    0    0    0    0 -0.00000000000E+00 -0.00000000000E+00 -0.50000000000E+02  0.50000000000E+02  0.00000000000E+00 0.  1.
         23    2    1    2    0    0  0.00000000000E+00  0.00000000000E+00  0.00000000000E+00  0.10000000000E+03  0.10000000000E+03 0.  0.
          5    1    3    3  501    0 -0.45792584750E+02  0.18678387732E+02 -0.56627743766E+01  0.50000000000E+02  0.47000000000E+01 0. -1.
         -5    1    3    3    0  501  0.45792584750E+02 -0.18678387732E+02  0.56627743766E+01  0.50000000000E+02  0.47000000000E+01 0.  1.
</event>
<event>
 5    1  0.8909620E-001  0.1000000E+03  0.7546771E-02  0.1163815E+00
         11   -1    0    0    0    0  0.00000000000E+00  0.00000000000E+00  0.50000000000E+02  0.50000000000E+02  0.00000000000E+00 0. -1.
        -11   -1    0    0    0    0 -0.00000000000E+00 -0.00000000000E+00 -0.50000000000E+02  0.50000000000E+02  0.00000000000E+00 0.  1.
         23    2    1    2    0    0  0.00000000000E+00  0.00000000000E+00  0.00000000000E+00  0.10000000000E+03  0.10000000000E+03 0.  0.
          5    1    3    3  501    0  0.28411696218E+02  0.37442580156E+02  0.16393251944E+02  0.50000000000E+02  0.47000000000E+01 0. -1.
         -5    1    3    3    0  501 -0.28411696218E+02 -0.37442580156E+02 -0.16393251944E+02  0.50000000000E+02  0.47000000000E+01 0.  1.
</event>
<event>
 5    1  0.8909620E-001  0.1000000E+03  0.7546771E-02  0.1163815E+00
         11   -1    0    0    0    0  0.00000000000E+00  0.00000000000E+00  0.50000000000E+02  0.50000000000E+02  0.00000000000E+00 0.  1.
        -11   -1    0    0    0    0 -0.00000000000E+00 -0.00000000000E+00 -0.50000000000E+02  0.50000000000E+02  0.00000000000E+00 0. -1.
         23    2    1    2    0    0  0.00000000000E+00  0.00000000000E+00  0.00000000000E+00  0.10000000000E+03  0.10000000000E+03 0.  0.
          5    1    3    3  501    0  0.37393423293E+02  0.10855357327E+02 -0.31012950710E+02  0.50000000000E+02  0.47000000000E+01 0. -1.
         -5    1    3    3    0  501 -0.37393423293E+02 -0.10855357327E+02  0.31012950710E+02  0.50000000000E+02  0.47000000000E+01 0.  1.
</event>
<event>
 5    1  0.8909620E-001  0.1000000E+03  0.7546771E-02  0.1163815E+00
         11   -1    0    0    0    0  0.00000000000E+00  0.00000000000E+00  0.50000000000E+02  0.50000000000E+02  0.00000000000E+00 0. -1.
        -11   -1    0    0    0    0 -0.00000000000E+00 -0.00000000000E+00 -0.50000000000E+02  0.50000000000E+02  0.00000000000E+00 0.  1.
         23    2    1    2    0    0  0.00000000000E+00  0.00000000000E+00  0.00000000000E+00  0.10000000000E+03  0.10000000000E+03 0.  0.
          5    1    3    3  501    0  0.19921298611E+02 -0.43970332888E+02  0.12151612542E+02  0.50000000000E+02  0.47000000000E+01 0. -1.
         -5    1    3    3    0  501 -0.19921298611E+02  0.43970332888E+02 -0.12151612542E+02  0.50000000000E+02  0.47000000000E+01 0.  1.
</event>
<event>
 5    1  0.8909620E-001  0.1000000E+03  0.7546771E-02  0.1163815E+00
         11   -1    0    0    0    0  0.00000000000E+00  0.00000000000E+00  0.50000000000E+02  0.50000000000E+02  0.00000000000E+00 0. -1.
        -11   -1    0    0    0    0 -0.00000000000E+00 -0.00000000000E+00 -0.50000000000E+02  0.50000000000E+02  0.00000000000E+00 0.  1.
         23    2    1    2    0    0  0.00000000000E+00  0.00000000000E+00  0.00000000000E+00  0.10000000000E+03  0.10000000000E+03 0.  0.
          5    1    3    3  501    0 -0.32346181707E+02 -0.66553843283E+01  0.37247018517E+02  0.50000000000E+02  0.47000000000E+01 0. -1.
         -5    1    3    3    0  501  0.32346181707E+02  0.66553843283E+01 -0.37247018517E+02  0.50000000000E+02  0.47000000000E+01 0.  1.
</event>
<event>
 5    1  0.8909620E-001  0.1000000E+03  0.7546771E-02  0.1163815E+00
         11   -1    0    0    0    0  0.00000000000E+00  0.00000000000E+00  0.50000000000E+02  0.50000000000E+02  0.00000000000E+00 0. -1.
        -11   -1    0    0    0    0 -0.00000000000E+00 -0.00000000000E+00 -0.50000000000E+02  0.50000000000E+02  0.00000000000E+00 0.  1.
         23    2    1    2    0    0  0.00000000000E+00  0.00000000000E+00  0.00000000000E+00  0.10000000000E+03  0.10000000000E+03 0.  0.
          5    1    3    3  501    0 -0.36485698020E+01  0.78466431060E+01  0.49020690839E+02  0.50000000000E+02  0.47000000000E+01 0. -1.
         -5    1    3    3    0  501  0.36485698020E+01 -0.78466431060E+01 -0.49020690839E+02  0.50000000000E+02  0.47000000000E+01 0.  1.
</event>
<event>
 5    1  0.8909620E-001  0.1000000E+03  0.7546771E-02  0.1163815E+00
         11   -1    0    0    0    0  0.00000000000E+00  0.00000000000E+00  0.50000000000E+02  0.50000000000E+02  0.00000000000E+00 0.  1.
        -11   -1    0    0    0    0 -0.00000000000E+00 -0.00000000000E+00 -0.50000000000E+02  0.50000000000E+02  0.00000000000E+00 0. -1.
         23    2    1    2    0    0  0.00000000000E+00  0.00000000000E+00  0.00000000000E+00  0.10000000000E+03  0.10000000000E+03 0.  0.
          5    1    3    3  501    0  0.22774500469E+02 -0.13882282429E+02 -0.42029922233E+02  0.50000000000E+02  0.47000000000E+01 0. -1.
         -5    1    3    3    0  501 -0.22774500469E+02  0.13882282429E+02  0.42029922233E+02  0.50000000000E+02  0.47000000000E+01 0.  1.
</event>
<event>
 5    1  0.8909620E-001  0.1000000E+03  0.7546771E-02  0.1163815E+00
         11   -1    0    0    0    0  0.00000000000E+00  0.00000000000E+00  0.50000000000E+02  0.50000000000E+02  0.00000000000E+00 0.  1.
        -11   -1    0    0    0    0 -0.00000000000E+00 -0.00000000000E+00 -0.50000000000E+02  0.50000000000E+02  0.00000000000E+00 0. -1.
         23    2    1    2    0    0  0.00000000000E+00  0.00000000000E+00  0.00000000000E+00  0.10000000000E+03  0.10000000000E+03 0.  0.
          5    1    3    3  501    0 -0.30899829521E+02 -0.24020051763E+01 -0.38953060299E+02  0.50000000000E+02  0.47000000000E+01 0. -1.
         -5    1    3    3    0  501  0.30899829521E+02  0.24020051763E+01  0.38953060299E+02  0.50000000000E+02  0.47000000000E+01 0.  1.
</event>
<event>
 5    1  0.8909620E-001  0.1000000E+03  0.7546771E-02  0.1163815E+00
         11   -1    0    0    0    0  0.00000000000E+00  0.00000000000E+00  0.50000000000E+02  0.50000000000E+02  0.00000000000E+00 0. -1.
        -11   -1    0    0    0    0 -0.00000000000E+00 -0.00000000000E+00 -0.50000000000E+02  0.50000000000E+02  0.00000000000E+00 0.  1.
         23    2    1    2    0    0  0.00000000000E+00  0.00000000000E+00  0.00000000000E+00  0.10000000000E+03  0.10000000000E+03 0.  0.
          5    1    3    3  501    0  0.16488893775E+02 -0.44965972489E+02 -0.13567892252E+02  0.50000000000E+02  0.47000000000E+01 0. -1.
         -5    1    3    3    0  501 -0.16488893775E+02  0.44965972489E+02  0.13567892252E+02  0.50000000000E+02  0.47000000000E+01 0.  1.
</event>
<event>
 5    1  0.8909620E-001  0.1000000E+03  0.7546771E-02  0.1163815E+00
         11   -1    0    0    0    0  0.00000000000E+00  0.00000000000E+00  0.50000000000E+02  0.50000000000E+02  0.00000000000E+00 0. -1.
        -11   -1    0    0    0    0 -0.00000000000E+00 -0.00000000000E+00 -0.50000000000E+02  0.50000000000E+02  0.00000000000E+00 0.  1.
         23    2    1    2    0    0  0.00000000000E+00  0.00000000000E+00  0.00000000000E+00  0.10000000000E+03  0.10000000000E+03 0.  0.
          5    1    3    3  501    0  0.15023464767E+02 -0.22879048064E+02  0.41578295613E+02  0.50000000000E+02  0.47000000000E+01 0. -1.
         -5    1    3    3    0  501 -0.15023464767E+02  0.22879048064E+02 -0.41578295613E+02  0.50000000000E+02  0.47000000000E+01 0.  1.
</event>
<event>
 5    1  0.8909620E-001  0.1000000E+03  0.7546771E-02  0.1163815E+00
         11   -1    0    0    0    0  0.00000000000E+00  0.00000000000E+00  0.50000000000E+02  0.50000000000E+02  0.00000000000E+00 0.  1.
        -11   -1    0    0    0    0 -0.00000000000E+00 -0.00000000000E+00 -0.50000000000E+02  0.50000000000E+02  0.00000000000E+00 0. -1.
         23    2    1    2    0    0  0.00000000000E+00  0.00000000000E+00  0.00000000000E+00  0.10000000000E+03  0.10000000000E+03 0.  0.
          5    1    3    3  501    0  0.13961870964E+01  0.20144041425E+02 -0.45499211605E+02  0.50000000000E+02  0.47000000000E+01 0. -1.
         -5    1    3    3    0  501 -0.13961870964E+01 -0.20144041425E+02  0.45499211605E+02  0.50000000000E+02  0.47000000000E+01 0.  1.
</event>
<event>
 5    1  0.8909620E-001  0.1000000E+03  0.7546771E-02  0.1163815E+00
         11   -1    0    0    0    0  0.00000000000E+00  0.00000000000E+00  0.50000000000E+02  0.50000000000E+02  0.00000000000E+00 0. -1.
        -11   -1    0    0    0    0 -0.00000000000E+00 -0.00000000000E+00 -0.50000000000E+02  0.50000000000E+02  0.00000000000E+00 0.  1.
         23    2    1    2    0    0  0.00000000000E+00  0.00000000000E+00  0.00000000000E+00  0.10000000000E+03  0.10000000000E+03 0.  0.
          5    1    3    3  501    0  0.45117394222E+01  0.45042079536E+02 -0.20706648170E+02  0.50000000000E+02  0.47000000000E+01 0. -1.
         -5    1    3    3    0  501 -0.45117394222E+01 -0.45042079536E+02  0.20706648170E+02  0.50000000000E+02  0.47000000000E+01 0.  1.
</event>
<event>
 5    1  0.8909620E-001  0.1000000E+03  0.7546771E-02  0.1163815E+00
         11   -1    0    0    0    0  0.00000000000E+00  0.00000000000E+00  0.50000000000E+02  0.50000000000E+02  0.00000000000E+00 0. -1.
        -11   -1    0    0    0    0 -0.00000000000E+00 -0.00000000000E+00 -0.50000000000E+02  0.50000000000E+02  0.00000000000E+00 0.  1.
         23    2    1    2    0    0  0.00000000000E+00  0.00000000000E+00  0.00000000000E+00  0.10000000000E+03  0.10000000000E+03 0.  0.
          5    1    3    3  501    0  0.89623694375E+01  0.25321678604E+02  0.41909408571E+02  0.50000000000E+02  0.47000000000E+01 0. -1.
         -5    1    3    3    0  501 -0.89623694375E+01 -0.25321678604E+02 -0.41909408571E+02  0.50000000000E+02  0.47000000000E+01 0.  1.
</event>
<event>
 5    1  0.8909620E-001  0.1000000E+03  0.7546771E-02  0.1163815E+00
         11   -1    0    0    0    0  0.00000000000E+00  0.00000000000E+00  0.50000000000E+02  0.50000000000E+02  0.00000000000E+00 0. -1.
        -11   -1    0    0    0    0 -0.00000000000E+00 -0.00000000000E+00 -0.50000000000E+02  0.50000000000E+02  0.00000000000E+00 0.  1.
         23    2    1    2    0    0  0.00000000000E+00  0.00000000000E+00  0.00000000000E+00  0.10000000000E+03  0.10000000000E+03 0.  0.
          5    1    3    3  501    0 -0.28214948200E+01 -0.23306617378E+02  0.43894769089E+02  0.50000000000E+02  0.47000000000E+01 0. -1.
         -5    1    3    3    0  501  0.28214948200E+01  0.23306617378E+02 -0.43894769089E+02  0.50000000000E+02  0.47000000000E+01 0.  1.
</event>
<event>
 5    1  0.8909620E-001  0.1000000E+03  0.7546771E-02  0.1163815E+00
         11   -1    0    0    0    0  0.00000000000E+00  0.00000000000E+00  0.50000000000E+02  0.50000000000E+02  0.00000000000E+00 0. -1.
        -11   -1    0    0    0    0 -0.00000000000E+00 -0.00000000000E+00 -0.50000000000E+02  0.50000000000E+02  0.00000000000E+00 0.  1.
         23    2    1    2    0    0  0.00000000000E+00  0.00000000000E+00  0.00000000000E+00  0.10000000000E+03  0.10000000000E+03 0.  0.
          5    1    3    3  501    0  0.99290346453E+01  0.14242903099E+02  0.46652588163E+02  0.50000000000E+02  0.47000000000E+01 0. -1.
         -5    1    3    3    0  501 -0.99290346453E+01 -0.14242903099E+02 -0.46652588163E+02  0.50000000000E+02  0.47000000000E+01 0.  1.
</event>
<event>
 5    1  0.8909620E-001  0.1000000E+03  0.7546771E-02  0.1163815E+00
         11   -1    0    0    0    0  0.00000000000E+00  0.00000000000E+00  0.50000000000E+02  0.50000000000E+02  0.00000000000E+00 0. -1.
        -11   -1    0    0    0    0 -0.00000000000E+00 -0.00000000000E+00 -0.50000000000E+02  0.50000000000E+02  0.00000000000E+00 0.  1.
         23    2    1    2    0    0  0.00000000000E+00  0.00000000000E+00  0.00000000000E+00  0.10000000000E+03  0.10000000000E+03 0.  0.
          5    1    3    3  501    0  0.88125076349E+01 -0.95104984674E+01  0.48060380024E+02  0.50000000000E+02  0.47000000000E+01 0. -1.
         -5    1    3    3    0  501 -0.88125076349E+01  0.95104984674E+01 -0.48060380024E+02  0.50000000000E+02  0.47000000000E+01 0.  1.
</event>
<event>
 5    1  0.8909620E-001  0.1000000E+03  0.7546771E-02  0.1163815E+00
         11   -1    0    0    0    0  0.00000000000E+00  0.00000000000E+00  0.50000000000E+02  0.50000000000E+02  0.00000000000E+00 0. -1.
        -11   -1    0    0    0    0 -0.00000000000E+00 -0.00000000000E+00 -0.50000000000E+02  0.50000000000E+02  0.00000000000E+00 0.  1.
         23    2    1    2    0    0  0.00000000000E+00  0.00000000000E+00  0.00000000000E+00  0.10000000000E+03  0.10000000000E+03 0.  0.
          5    1    3    3  501    0  0.21091826243E+02  0.41577628892E+02  0.17445504908E+02  0.50000000000E+02  0.47000000000E+01 0. -1.
         -5    1    3    3    0  501 -0.21091826243E+02 -0.41577628892E+02 -0.17445504908E+02  0.50000000000E+02  0.47000000000E+01 0.  1.
</event>
<event>
 5    1  0.8909620E-001  0.1000000E+03  0.7546771E-02  0.1163815E+00
         11   -1    0    0    0    0  0.00000000000E+00  0.00000000000E+00  0.50000000000E+02  0.50000000000E+02  0.00000000000E+00 0.  1.
        -11   -1    0    0    0    0 -0.00000000000E+00 -0.00000000000E+00 -0.50000000000E+02  0.50000000000E+02  0.00000000000E+00 0. -1.
         23    2    1    2    0    0  0.00000000000E+00  0.00000000000E+00  0.00000000000E+00  0.10000000000E+03  0.10000000000E+03 0.  0.
          5    1    3    3  501    0  0.17491701066E+02 -0.43750531268E+02 -0.16057440880E+02  0.50000000000E+02  0.47000000000E+01 0. -1.
         -5    1    3    3    0  501 -0.17491701066E+02  0.43750531268E+02  0.16057440880E+02  0.50000000000E+02  0.47000000000E+01 0.  1.
</event>
<event>
 5    1  0.8909620E-001  0.1000000E+03  0.7546771E-02  0.1163815E+00
         11   -1    0    0    0    0  0.00000000000E+00  0.00000000000E+00  0.50000000000E+02  0.50000000000E+02  0.00000000000E+00 0.  1.
        -11   -1    0    0    0    0 -0.00000000000E+00 -0.00000000000E+00 -0.50000000000E+02  0.50000000000E+02  0.00000000000E+00 0. -1.
         23    2    1    2    0    0  0.00000000000E+00  0.00000000000E+00  0.00000000000E+00  0.10000000000E+03  0.10000000000E+03 0.  0.
          5    1    3    3  501    0 -0.13845319832E+02 -0.45354498364E+02 -0.15138910031E+02  0.50000000000E+02  0.47000000000E+01 0. -1.
         -5    1    3    3    0  501  0.13845319832E+02  0.45354498364E+02  0.15138910031E+02  0.50000000000E+02  0.47000000000E+01 0.  1.
</event>
<event>
 5    1  0.8909620E-001  0.1000000E+03  0.7546771E-02  0.1163815E+00
         11   -1    0    0    0    0  0.00000000000E+00  0.00000000000E+00  0.50000000000E+02  0.50000000000E+02  0.00000000000E+00 0. -1.
        -11   -1    0    0    0    0 -0.00000000000E+00 -0.00000000000E+00 -0.50000000000E+02  0.50000000000E+02  0.00000000000E+00 0.  1.
         23    2    1    2    0    0  0.00000000000E+00  0.00000000000E+00  0.00000000000E+00  0.10000000000E+03  0.10000000000E+03 0.  0.
          5    1    3    3  501    0 -0.23185084934E+02 -0.43884833292E+02  0.38056856901E+01  0.50000000000E+02  0.47000000000E+01 0. -1.
         -5    1    3    3    0  501  0.23185084934E+02  0.43884833292E+02 -0.38056856901E+01  0.50000000000E+02  0.47000000000E+01 0.  1.
</event>
<event>
 5    1  0.8909620E-001  0.1000000E+03  0.7546771E-02  0.1163815E+00
         11   -1    0    0    0    0  0.00000000000E+00  0.00000000000E+00  0.50000000000E+02  0.50000000000E+02  0.00000000000E+00 0. -1.
        -11   -1    0    0    0    0 -0.00000000000E+00 -0.00000000000E+00 -0.50000000000E+02  0.50000000000E+02  0.00000000000E+00 0.  1.
         23    2    1    2    0    0  0.00000000000E+00  0.00000000000E+00  0.00000000000E+00  0.10000000000E+03  0.10000000000E+03 0.  0.
          5    1    3    3  501    0  0.36636601789E+02  0.27408240249E+02  0.19607594849E+02  0.50000000000E+02  0.47000000000E+01 0. -1.
         -5    1    3    3    0  501 -0.36636601789E+02 -0.27408240249E+02 -0.19607594849E+02  0.50000000000E+02  0.47000000000E+01 0.  1.
</event>
<event>
 5    1  0.8909620E-001  0.1000000E+03  0.7546771E-02  0.1163815E+00
         11   -1    0    0    0    0  0.00000000000E+00  0.00000000000E+00  0.50000000000E+02  0.50000000000E+02  0.00000000000E+00 0. -1.
        -11   -1    0    0    0    0 -0.00000000000E+00 -0.00000000000E+00 -0.50000000000E+02  0.50000000000E+02  0.00000000000E+00 0.  1.
         23    2    1    2    0    0  0.00000000000E+00  0.00000000000E+00  0.00000000000E+00  0.10000000000E+03  0.10000000000E+03 0.  0.
          5    1    3    3  501    0  0.19152272795E+02  0.18411889377E+02  0.42096351105E+02  0.50000000000E+02  0.47000000000E+01 0. -1.
         -5    1    3    3    0  501 -0.19152272795E+02 -0.18411889377E+02 -0.42096351105E+02  0.50000000000E+02  0.47000000000E+01 0.  1.
</event>
<event>
 5    1  0.8909620E-001  0.1000000E+03  0.7546771E-02  0.1163815E+00
         11   -1    0    0    0    0  0.00000000000E+00  0.00000000000E+00  0.50000000000E+02  0.50000000000E+02  0.00000000000E+00 0. -1.
        -11   -1    0    0    0    0 -0.00000000000E+00 -0.00000000000E+00 -0.50000000000E+02  0.50000000000E+02  0.00000000000E+00 0.  1.
         23    2    1    2    0    0  0.00000000000E+00  0.00000000000E+00  0.00000000000E+00  0.10000000000E+03  0.10000000000E+03 0.  0.
          5    1    3    3  501    0  0.13967634050E+02 -0.62688022096E+01  0.47365782142E+02  0.50000000000E+02  0.47000000000E+01 0. -1.
         -5    1    3    3    0  501 -0.13967634050E+02  0.62688022096E+01 -0.47365782142E+02  0.50000000000E+02  0.47000000000E+01 0.  1.
</event>
<event>
 5    1  0.8909620E-001  0.1000000E+03  0.7546771E-02  0.1163815E+00
         11   -1    0    0    0    0  0.00000000000E+00  0.00000000000E+00  0.50000000000E+02  0.50000000000E+02  0.00000000000E+00 0. -1.
        -11   -1    0    0    0    0 -0.00000000000E+00 -0.00000000000E+00 -0.50000000000E+02  0.50000000000E+02  0.00000000000E+00 0.  1.
         23    2    1    2    0    0  0.00000000000E+00  0.00000000000E+00  0.00000000000E+00  0.10000000000E+03  0.10000000000E+03 0.  0.
          5    1    3    3  501    0  0.27359393311E+02 -0.28139284272E+01  0.41490425455E+02  0.50000000000E+02  0.47000000000E+01 0. -1.
         -5    1    3    3    0  501 -0.27359393311E+02  0.28139284272E+01 -0.41490425455E+02  0.50000000000E+02  0.47000000000E+01 0.  1.
</event>
<event>
 5    1  0.8909620E-001  0.1000000E+03  0.7546771E-02  0.1163815E+00
         11   -1    0    0    0    0  0.00000000000E+00  0.00000000000E+00  0.50000000000E+02  0.50000000000E+02  0.00000000000E+00 0.  1.
        -11   -1    0    0    0    0 -0.00000000000E+00 -0.00000000000E+00 -0.50000000000E+02  0.50000000000E+02  0.00000000000E+00 0. -1.
         23    2    1    2    0    0  0.00000000000E+00  0.00000000000E+00  0.00000000000E+00  0.10000000000E+03  0.10000000000E+03 0.  0.
          5    1    3    3  501    0  0.34146853917E+02  0.16343144449E+02 -0.32323427991E+02  0.50000000000E+02  0.47000000000E+01 0. -1.
         -5    1    3    3    0  501 -0.34146853917E+02 -0.16343144449E+02  0.32323427991E+02  0.50000000000E+02  0.47000000000E+01 0.  1.
</event>
<event>
 5    1  0.8909620E-001  0.1000000E+03  0.7546771E-02  0.1163815E+00
         11   -1    0    0    0    0  0.00000000000E+00  0.00000000000E+00  0.50000000000E+02  0.50000000000E+02  0.00000000000E+00 0. -1.
        -11   -1    0    0    0    0 -0.00000000000E+00 -0.00000000000E+00 -0.50000000000E+02  0.50000000000E+02  0.00000000000E+00 0.  1.
         23    2    1    2    0    0  0.00000000000E+00  0.00000000000E+00  0.00000000000E+00  0.10000000000E+03  0.10000000000E+03 0.  0.
          5    1    3    3  501    0 -0.31079015795E+02 -0.17304125387E+02  0.34822004850E+02  0.50000000000E+02  0.47000000000E+01 0. -1.
         -5    1    3    3    0  501  0.31079015795E+02  0.17304125387E+02 -0.34822004850E+02  0.50000000000E+02  0.47000000000E+01 0.  1.
</event>
<event>
 5    1  0.8909620E-001  0.1000000E+03  0.7546771E-02  0.1163815E+00
         11   -1    0    0    0    0  0.00000000000E+00  0.00000000000E+00  0.50000000000E+02  0.50000000000E+02  0.00000000000E+00 0. -1.
        -11   -1    0    0    0    0 -0.00000000000E+00 -0.00000000000E+00 -0.50000000000E+02  0.50000000000E+02  0.00000000000E+00 0.  1.
         23    2    1    2    0    0  0.00000000000E+00  0.00000000000E+00  0.00000000000E+00  0.10000000000E+03  0.10000000000E+03 0.  0.
          5    1    3    3  501    0  0.57307872882E+01  0.30046244659E+02  0.39272016232E+02  0.50000000000E+02  0.47000000000E+01 0. -1.
         -5    1    3    3    0  501 -0.57307872882E+01 -0.30046244659E+02 -0.39272016232E+02  0.50000000000E+02  0.47000000000E+01 0.  1.
</event>
<event>
 5    1  0.8909620E-001  0.1000000E+03  0.7546771E-02  0.1163815E+00
         11   -1    0    0    0    0  0.00000000000E+00  0.00000000000E+00  0.50000000000E+02  0.50000000000E+02  0.00000000000E+00 0. -1.
        -11   -1    0    0    0    0 -0.00000000000E+00 -0.00000000000E+00 -0.50000000000E+02  0.50000000000E+02  0.00000000000E+00 0.  1.
         23    2    1    2    0    0  0.00000000000E+00  0.00000000000E+00  0.00000000000E+00  0.10000000000E+03  0.10000000000E+03 0.  0.
          5    1    3    3  501    0  0.38113511691E+02  0.18511918051E+02  0.26126215123E+02  0.50000000000E+02  0.47000000000E+01 0. -1.
         -5    1    3    3    0  501 -0.38113511691E+02 -0.18511918051E+02 -0.26126215123E+02  0.50000000000E+02  0.47000000000E+01 0.  1.
</event>
<event>
 5    1  0.8909620E-001  0.1000000E+03  0.7546771E-02  0.1163815E+00
         11   -1    0    0    0    0  0.00000000000E+00  0.00000000000E+00  0.50000000000E+02  0.50000000000E+02  0.00000000000E+00 0. -1.
        -11   -1    0    0    0    0 -0.00000000000E+00 -0.00000000000E+00 -0.50000000000E+02  0.50000000000E+02  0.00000000000E+00 0.  1.
         23    2    1    2    0    0  0.00000000000E+00  0.00000000000E+00  0.00000000000E+00  0.10000000000E+03  0.10000000000E+03 0.  0.
          5    1    3    3  501    0  0.12202712100E+02 -0.35660908169E+02  0.32516202822E+02  0.50000000000E+02  0.47000000000E+01 0. -1.
         -5    1    3    3    0  501 -0.12202712100E+02  0.35660908169E+02 -0.32516202822E+02  0.50000000000E+02  0.47000000000E+01 0.  1.
</event>
<event>
 5    1  0.8909620E-001  0.1000000E+03  0.7546771E-02  0.1163815E+00
         11   -1    0    0    0    0  0.00000000000E+00  0.00000000000E+00  0.50000000000E+02  0.50000000000E+02  0.00000000000E+00 0. -1.
        -11   -1    0    0    0    0 -0.00000000000E+00 -0.00000000000E+00 -0.50000000000E+02  0.50000000000E+02  0.00000000000E+00 0.  1.
         23    2    1    2    0    0  0.00000000000E+00  0.00000000000E+00  0.00000000000E+00  0.10000000000E+03  0.10000000000E+03 0.  0.
          5    1    3    3  501    0 -0.46114059658E+02  0.17716399443E+02 -0.61263931182E+01  0.50000000000E+02  0.47000000000E+01 0. -1.
         -5    1    3    3    0  501  0.46114059658E+02 -0.17716399443E+02  0.61263931182E+01  0.50000000000E+02  0.47000000000E+01 0.  1.
</event>
<event>
 5    1  0.8909620E-001  0.1000000E+03  0.7546771E-02  0.1163815E+00
         11   -1    0    0    0    0  0.00000000000E+00  0.00000000000E+00  0.50000000000E+02  0.50000000000E+02  0.00000000000E+00 0.  1.
        -11   -1    0    0    0    0 -0.00000000000E+00 -0.00000000000E+00 -0.50000000000E+02  0.50000000000E+02  0.00000000000E+00 0. -1.
         23    2    1    2    0    0  0.00000000000E+00  0.00000000000E+00  0.00000000000E+00  0.10000000000E+03  0.10000000000E+03 0.  0.
          5    1    3    3  501    0 -0.36428957997E+01  0.24118657409E+02  0.43392737583E+02  0.50000000000E+02  0.47000000000E+01 0.  1.
         -5    1    3    3    0  501  0.36428957997E+01 -0.24118657409E+02 -0.43392737583E+02  0.50000000000E+02  0.47000000000E+01 0. -1.
</event>
<event>
 5    1  0.8909620E-001  0.1000000E+03  0.7546771E-02  0.1163815E+00
         11   -1    0    0    0    0  0.00000000000E+00  0.00000000000E+00  0.50000000000E+02  0.50000000000E+02  0.00000000000E+00 0.  1.
        -11   -1    0    0    0    0 -0.00000000000E+00 -0.00000000000E+00 -0.50000000000E+02  0.50000000000E+02  0.00000000000E+00 0. -1.
         23    2    1    2    0    0  0.00000000000E+00  0.00000000000E+00  0.00000000000E+00  0.10000000000E+03  0.10000000000E+03 0.  0.
          5    1    3    3  501    0 -0.35657646247E+01 -0.36150860993E+02 -0.34033962040E+02  0.50000000000E+02  0.47000000000E+01 0. -1.
         -5    1    3    3    0  501  0.35657646247E+01  0.36150860993E+02  0.34033962040E+02  0.50000000000E+02  0.47000000000E+01 0.  1.
</event>
<event>
 5    1  0.8909620E-001  0.1000000E+03  0.7546771E-02  0.1163815E+00
         11   -1    0    0    0    0  0.00000000000E+00  0.00000000000E+00  0.50000000000E+02  0.50000000000E+02  0.00000000000E+00 0. -1.
        -11   -1    0    0    0    0 -0.00000000000E+00 -0.00000000000E+00 -0.50000000000E+02  0.50000000000E+02  0.00000000000E+00 0.  1.
         23    2    1    2    0    0  0.00000000000E+00  0.00000000000E+00  0.00000000000E+00  0.10000000000E+03  0.10000000000E+03 0.  0.
          5    1    3    3  501    0 -0.17232109948E+02 -0.15848313957E+02  0.43929435820E+02  0.50000000000E+02  0.47000000000E+01 0. -1.
         -5    1    3    3    0  501  0.17232109948E+02  0.15848313957E+02 -0.43929435820E+02  0.50000000000E+02  0.47000000000E+01 0.  1.
</event>
<event>
 5    1  0.8909620E-001  0.1000000E+03  0.7546771E-02  0.1163815E+00
         11   -1    0    0    0    0  0.00000000000E+00  0.00000000000E+00  0.50000000000E+02  0.50000000000E+02  0.00000000000E+00 0.  1.
        -11   -1    0    0    0    0 -0.00000000000E+00 -0.00000000000E+00 -0.50000000000E+02  0.50000000000E+02  0.00000000000E+00 0. -1.
         23    2    1    2    0    0  0.00000000000E+00  0.00000000000E+00  0.00000000000E+00  0.10000000000E+03  0.10000000000E+03 0.  0.
          5    1    3    3  501    0 -0.19160140117E+01  0.36140649750E+02  0.34177365697E+02  0.50000000000E+02  0.47000000000E+01 0.  1.
         -5    1    3    3    0  501  0.19160140117E+01 -0.36140649750E+02 -0.34177365697E+02  0.50000000000E+02  0.47000000000E+01 0. -1.
</event>
<event>
 5    1  0.8909620E-001  0.1000000E+03  0.7546771E-02  0.1163815E+00
         11   -1    0    0    0    0  0.00000000000E+00  0.00000000000E+00  0.50000000000E+02  0.50000000000E+02  0.00000000000E+00 0. -1.
        -11   -1    0    0    0    0 -0.00000000000E+00 -0.00000000000E+00 -0.50000000000E+02  0.50000000000E+02  0.00000000000E+00 0.  1.
         23    2    1    2    0    0  0.00000000000E+00  0.00000000000E+00  0.00000000000E+00  0.10000000000E+03  0.10000000000E+03 0.  0.
          5    1    3    3  501    0 -0.34184130968E+01 -0.48850667275E+02  0.89351417824E+01  0.50000000000E+02  0.47000000000E+01 0. -1.
         -5    1    3    3    0  501  0.34184130968E+01  0.48850667275E+02 -0.89351417824E+01  0.50000000000E+02  0.47000000000E+01 0.  1.
</event>
<event>
 5    1  0.8909620E-001  0.1000000E+03  0.7546771E-02  0.1163815E+00
         11   -1    0    0    0    0  0.00000000000E+00  0.00000000000E+00  0.50000000000E+02  0.50000000000E+02  0.00000000000E+00 0. -1.
        -11   -1    0    0    0    0 -0.00000000000E+00 -0.00000000000E+00 -0.50000000000E+02  0.50000000000E+02  0.00000000000E+00 0.  1.
         23    2    1    2    0    0  0.00000000000E+00  0.00000000000E+00  0.00000000000E+00  0.10000000000E+03  0.10000000000E+03 0.  0.
          5    1    3    3  501    0  0.41962705547E+02 -0.66158646000E+01  0.25947479237E+02  0.50000000000E+02  0.47000000000E+01 0. -1.
         -5    1    3    3    0  501 -0.41962705547E+02  0.66158646000E+01 -0.25947479237E+02  0.50000000000E+02  0.47000000000E+01 0.  1.
</event>
<event>
 5    1  0.8909620E-001  0.1000000E+03  0.7546771E-02  0.1163815E+00
         11   -1    0    0    0    0  0.00000000000E+00  0.00000000000E+00  0.50000000000E+02  0.50000000000E+02  0.00000000000E+00 0. -1.
        -11   -1    0    0    0    0 -0.00000000000E+00 -0.00000000000E+00 -0.50000000000E+02  0.50000000000E+02  0.00000000000E+00 0.  1.
         23    2    1    2    0    0  0.00000000000E+00  0.00000000000E+00  0.00000000000E+00  0.10000000000E+03  0.10000000000E+03 0.  0.
          5    1    3    3  501    0  0.66851790694E+01  0.30086719915E+02  0.39089738622E+02  0.50000000000E+02  0.47000000000E+01 0. -1.
         -5    1    3    3    0  501 -0.66851790694E+01 -0.30086719915E+02 -0.39089738622E+02  0.50000000000E+02  0.47000000000E+01 0.  1.
</event>
<event>
 5    1  0.8909620E-001  0.1000000E+03  0.7546771E-02  0.1163815E+00
         11   -1    0    0    0    0  0.00000000000E+00  0.00000000000E+00  0.50000000000E+02  0.50000000000E+02  0.00000000000E+00 0.  1.
        -11   -1    0    0    0    0 -0.00000000000E+00 -0.00000000000E+00 -0.50000000000E+02  0.50000000000E+02  0.00000000000E+00 0. -1.
         23    2    1    2    0    0  0.00000000000E+00  0.00000000000E+00  0.00000000000E+00  0.10000000000E+03  0.10000000000E+03 0.  0.
          5    1    3    3  501    0 -0.39632539714E+02  0.18909134188E+02 -0.23443899848E+02  0.50000000000E+02  0.47000000000E+01 0. -1.
         -5    1    3    3    0  501  0.39632539714E+02 -0.18909134188E+02  0.23443899848E+02  0.50000000000E+02  0.47000000000E+01 0.  1.
</event>
<event>
 5    1  0.8909620E-001  0.1000000E+03  0.7546771E-02  0.1163815E+00
         11   -1    0    0    0    0  0.00000000000E+00  0.00000000000E+00  0.50000000000E+02  0.50000000000E+02  0.00000000000E+00 0.  1.
        -11   -1    0    0    0    0 -0.00000000000E+00 -0.00000000000E+00 -0.50000000000E+02  0.50000000000E+02  0.00000000000E+00 0. -1.
         23    2    1    2    0    0  0.00000000000E+00  0.00000000000E+00  0.00000000000E+00  0.10000000000E+03  0.10000000000E+03 0.  0.
          5    1    3    3  501    0 -0.17400270974E+02 -0.39628288565E+02 -0.24591448014E+02  0.50000000000E+02  0.47000000000E+01 0. -1.
         -5    1    3    3    0  501  0.17400270974E+02  0.39628288565E+02  0.24591448014E+02  0.50000000000E+02  0.47000000000E+01 0.  1.
</event>
<event>
 5    1  0.8909620E-001  0.1000000E+03  0.7546771E-02  0.1163815E+00
         11   -1    0    0    0    0  0.00000000000E+00  0.00000000000E+00  0.50000000000E+02  0.50000000000E+02  0.00000000000E+00 0. -1.
        -11   -1    0    0    0    0 -0.00000000000E+00 -0.00000000000E+00 -0.50000000000E+02  0.50000000000E+02  0.00000000000E+00 0.  1.
         23    2    1    2    0    0  0.00000000000E+00  0.00000000000E+00  0.00000000000E+00  0.10000000000E+03  0.10000000000E+03 0.  0.
          5    1    3    3  501    0  0.20006777590E+01  0.31222984007E+02  0.38717341828E+02  0.50000000000E+02  0.47000000000E+01 0. -1.
         -5    1    3    3    0  501 -0.20006777590E+01 -0.31222984007E+02 -0.38717341828E+02  0.50000000000E+02  0.47000000000E+01 0.  1.
</event>
<event>
 5    1  0.8909620E-001  0.1000000E+03  0.7546771E-02  0.1163815E+00
         11   -1    0    0    0    0  0.00000000000E+00  0.00000000000E+00  0.50000000000E+02  0.50000000000E+02  0.00000000000E+00 0.  1.
        -11   -1    0    0    0    0 -0.00000000000E+00 -0.00000000000E+00 -0.50000000000E+02  0.50000000000E+02  0.00000000000E+00 0. -1.
         23    2    1    2    0    0  0.00000000000E+00  0.00000000000E+00  0.00000000000E+00  0.10000000000E+03  0.10000000000E+03 0.  0.
          5    1    3    3  501    0  0.16584524082E+02 -0.18999730725E+02 -0.42917057138E+02  0.50000000000E+02  0.47000000000E+01 0. -1.
         -5    1    3    3    0  501 -0.16584524082E+02  0.18999730725E+02  0.42917057138E+02  0.50000000000E+02  0.47000000000E+01 0.  1.
</event>
<event>
 5    1  0.8909620E-001  0.1000000E+03  0.7546771E-02  0.1163815E+00
         11   -1    0    0    0    0  0.00000000000E+00  0.00000000000E+00  0.50000000000E+02  0.50000000000E+02  0.00000000000E+00 0. -1.
        -11   -1    0    0    0    0 -0.00000000000E+00 -0.00000000000E+00 -0.50000000000E+02  0.50000000000E+02  0.00000000000E+00 0.  1.
         23    2    1    2    0    0  0.00000000000E+00  0.00000000000E+00  0.00000000000E+00  0.10000000000E+03  0.10000000000E+03 0.  0.
          5    1    3    3  501    0  0.58426394142E+01 -0.15549256189E+02  0.46925410991E+02  0.50000000000E+02  0.47000000000E+01 0. -1.
         -5    1    3    3    0  501 -0.58426394142E+01  0.15549256189E+02 -0.46925410991E+02  0.50000000000E+02  0.47000000000E+01 0.  1.
</event>
<event>
 5    1  0.8909620E-001  0.1000000E+03  0.7546771E-02  0.1163815E+00
         11   -1    0    0    0    0  0.00000000000E+00  0.00000000000E+00  0.50000000000E+02  0.50000000000E+02  0.00000000000E+00 0.  1.
        -11   -1    0    0    0    0 -0.00000000000E+00 -0.00000000000E+00 -0.50000000000E+02  0.50000000000E+02  0.00000000000E+00 0. -1.
         23    2    1    2    0    0  0.00000000000E+00  0.00000000000E+00  0.00000000000E+00  0.10000000000E+03  0.10000000000E+03 0.  0.
          5    1    3    3  501    0 -0.86584840830E+01  0.37279126673E+02 -0.31830918426E+02  0.50000000000E+02  0.47000000000E+01 0. -1.
         -5    1    3    3    0  501  0.86584840830E+01 -0.37279126673E+02  0.31830918426E+02  0.50000000000E+02  0.47000000000E+01 0.  1.
</event>
<event>
 5    1  0.8909620E-001  0.1000000E+03  0.7546771E-02  0.1163815E+00
         11   -1    0    0    0    0  0.00000000000E+00  0.00000000000E+00  0.50000000000E+02  0.50000000000E+02  0.00000000000E+00 0.  1.
        -11   -1    0    0    0    0 -0.00000000000E+00 -0.00000000000E+00 -0.50000000000E+02  0.50000000000E+02  0.00000000000E+00 0. -1.
         23    2    1    2    0    0  0.00000000000E+00  0.00000000000E+00  0.00000000000E+00  0.10000000000E+03  0.10000000000E+03 0.  0.
          5    1    3    3  501    0  0.12484257171E+01  0.86402067233E+01 -0.49007124594E+02  0.50000000000E+02  0.47000000000E+01 0. -1.
         -5    1    3    3    0  501 -0.12484257171E+01 -0.86402067233E+01  0.49007124594E+02  0.50000000000E+02  0.47000000000E+01 0.  1.
</event>
<event>
 5    1  0.8909620E-001  0.1000000E+03  0.7546771E-02  0.1163815E+00
         11   -1    0    0    0    0  0.00000000000E+00  0.00000000000E+00  0.50000000000E+02  0.50000000000E+02  0.00000000000E+00 0.  1.
        -11   -1    0    0    0    0 -0.00000000000E+00 -0.00000000000E+00 -0.50000000000E+02  0.50000000000E+02  0.00000000000E+00 0. -1.
         23    2    1    2    0    0  0.00000000000E+00  0.00000000000E+00  0.00000000000E+00  0.10000000000E+03  0.10000000000E+03 0.  0.
          5    1    3    3  501    0  0.38699643820E+02  0.17307711392E+02 -0.26090049724E+02  0.50000000000E+02  0.47000000000E+01 0. -1.
         -5    1    3    3    0  501 -0.38699643820E+02 -0.17307711392E+02  0.26090049724E+02  0.50000000000E+02  0.47000000000E+01 0.  1.
</event>
<event>
 5    1  0.8909620E-001  0.1000000E+03  0.7546771E-02  0.1163815E+00
         11   -1    0    0    0    0  0.00000000000E+00  0.00000000000E+00  0.50000000000E+02  0.50000000000E+02  0.00000000000E+00 0.  1.
        -11   -1    0    0    0    0 -0.00000000000E+00 -0.00000000000E+00 -0.50000000000E+02  0.50000000000E+02  0.00000000000E+00 0. -1.
         23    2    1    2    0    0  0.00000000000E+00  0.00000000000E+00  0.00000000000E+00  0.10000000000E+03  0.10000000000E+03 0.  0.
          5    1    3    3  501    0 -0.14298813148E+02  0.28324313233E+02  0.38356058484E+02  0.50000000000E+02  0.47000000000E+01 0.  1.
         -5    1    3    3    0  501  0.14298813148E+02 -0.28324313233E+02 -0.38356058484E+02  0.50000000000E+02  0.47000000000E+01 0. -1.
</event>
<event>
 5    1  0.8909620E-001  0.1000000E+03  0.7546771E-02  0.1163815E+00
         11   -1    0    0    0    0  0.00000000000E+00  0.00000000000E+00  0.50000000000E+02  0.50000000000E+02  0.00000000000E+00 0. -1.
        -11   -1    0    0    0    0 -0.00000000000E+00 -0.00000000000E+00 -0.50000000000E+02  0.50000000000E+02  0.00000000000E+00 0.  1.
         23    2    1    2    0    0  0.00000000000E+00  0.00000000000E+00  0.00000000000E+00  0.10000000000E+03  0.10000000000E+03 0.  0.
          5    1    3    3  501    0  0.21545714897E+02  0.44834628967E+02 -0.18836706167E+01  0.50000000000E+02  0.47000000000E+01 0. -1.
         -5    1    3    3    0  501 -0.21545714897E+02 -0.44834628967E+02  0.18836706167E+01  0.50000000000E+02  0.47000000000E+01 0.  1.
</event>
<event>
 5    1  0.8909620E-001  0.1000000E+03  0.7546771E-02  0.1163815E+00
         11   -1    0    0    0    0  0.00000000000E+00  0.00000000000E+00  0.50000000000E+02  0.50000000000E+02  0.00000000000E+00 0. -1.
        -11   -1    0    0    0    0 -0.00000000000E+00 -0.00000000000E+00 -0.50000000000E+02  0.50000000000E+02  0.00000000000E+00 0.  1.
         23    2    1    2    0    0  0.00000000000E+00  0.00000000000E+00  0.00000000000E+00  0.10000000000E+03  0.10000000000E+03 0.  0.
          5    1    3    3  501    0  0.31428317740E+02 -0.24590680541E+02  0.29756835762E+02  0.50000000000E+02  0.47000000000E+01 0. -1.
         -5    1    3    3    0  501 -0.31428317740E+02  0.24590680541E+02 -0.29756835762E+02  0.50000000000E+02  0.47000000000E+01 0.  1.
</event>
<event>
 5    1  0.8909620E-001  0.1000000E+03  0.7546771E-02  0.1163815E+00
         11   -1    0    0    0    0  0.00000000000E+00  0.00000000000E+00  0.50000000000E+02  0.50000000000E+02  0.00000000000E+00 0. -1.
        -11   -1    0    0    0    0 -0.00000000000E+00 -0.00000000000E+00 -0.50000000000E+02  0.50000000000E+02  0.00000000000E+00 0.  1.
         23    2    1    2    0    0  0.00000000000E+00  0.00000000000E+00  0.00000000000E+00  0.10000000000E+03  0.10000000000E+03 0.  0.
          5    1    3    3  501    0 -0.41272301308E+02  0.27822127074E+02 -0.66059806915E+00  0.50000000000E+02  0.47000000000E+01 0. -1.
         -5    1    3    3    0  501  0.41272301308E+02 -0.27822127074E+02  0.66059806915E+00  0.50000000000E+02  0.47000000000E+01 0.  1.
</event>
<event>
 5    1  0.8909620E-001  0.1000000E+03  0.7546771E-02  0.1163815E+00
         11   -1    0    0    0    0  0.00000000000E+00  0.00000000000E+00  0.50000000000E+02  0.50000000000E+02  0.00000000000E+00 0. -1.
        -11   -1    0    0    0    0 -0.00000000000E+00 -0.00000000000E+00 -0.50000000000E+02  0.50000000000E+02  0.00000000000E+00 0.  1.
         23    2    1    2    0    0  0.00000000000E+00  0.00000000000E+00  0.00000000000E+00  0.10000000000E+03  0.10000000000E+03 0.  0.
          5    1    3    3  501    0 -0.84164033869E+01  0.18961224104E+02  0.45249819166E+02  0.50000000000E+02  0.47000000000E+01 0. -1.
         -5    1    3    3    0  501  0.84164033869E+01 -0.18961224104E+02 -0.45249819166E+02  0.50000000000E+02  0.47000000000E+01 0.  1.
</event>
<event>
 5    1  0.8909620E-001  0.1000000E+03  0.7546771E-02  0.1163815E+00
         11   -1    0    0    0    0  0.00000000000E+00  0.00000000000E+00  0.50000000000E+02  0.50000000000E+02  0.00000000000E+00 0. -1.
        -11   -1    0    0    0    0 -0.00000000000E+00 -0.00000000000E+00 -0.50000000000E+02  0.50000000000E+02  0.00000000000E+00 0.  1.
         23    2    1    2    0    0  0.00000000000E+00  0.00000000000E+00  0.00000000000E+00  0.10000000000E+03  0.10000000000E+03 0.  0.
          5    1    3    3  501    0  0.19248310999E+02  0.30108307842E+02  0.34654037608E+02  0.50000000000E+02  0.47000000000E+01 0. -1.
         -5    1    3    3    0  501 -0.19248310999E+02 -0.30108307842E+02 -0.34654037608E+02  0.50000000000E+02  0.47000000000E+01 0.  1.
</event>
<event>
 5    1  0.8909620E-001  0.1000000E+03  0.7546771E-02  0.1163815E+00
         11   -1    0    0    0    0  0.00000000000E+00  0.00000000000E+00  0.50000000000E+02  0.50000000000E+02  0.00000000000E+00 0. -1.
        -11   -1    0    0    0    0 -0.00000000000E+00 -0.00000000000E+00 -0.50000000000E+02  0.50000000000E+02  0.00000000000E+00 0.  1.
         23    2    1    2    0    0  0.00000000000E+00  0.00000000000E+00  0.00000000000E+00  0.10000000000E+03  0.10000000000E+03 0.  0.
          5    1    3    3  501    0  0.77084094513E+00 -0.48430968375E+02 -0.11478549842E+02  0.50000000000E+02  0.47000000000E+01 0. -1.
         -5    1    3    3    0  501 -0.77084094513E+00  0.48430968375E+02  0.11478549842E+02  0.50000000000E+02  0.47000000000E+01 0.  1.
</event>
<event>
 5    1  0.8909620E-001  0.1000000E+03  0.7546771E-02  0.1163815E+00
         11   -1    0    0    0    0  0.00000000000E+00  0.00000000000E+00  0.50000000000E+02  0.50000000000E+02  0.00000000000E+00 0.  1.
        -11   -1    0    0    0    0 -0.00000000000E+00 -0.00000000000E+00 -0.50000000000E+02  0.50000000000E+02  0.00000000000E+00 0. -1.
         23    2    1    2    0    0  0.00000000000E+00  0.00000000000E+00  0.00000000000E+00  0.10000000000E+03  0.10000000000E+03 0.  0.
          5    1    3    3  501    0 -0.52424529884E+01  0.46136205581E+02 -0.17940937024E+02  0.50000000000E+02  0.47000000000E+01 0. -1.
         -5    1    3    3    0  501  0.52424529884E+01 -0.46136205581E+02  0.17940937024E+02  0.50000000000E+02  0.47000000000E+01 0.  1.
</event>
<event>
 5    1  0.8909620E-001  0.1000000E+03  0.7546771E-02  0.1163815E+00
         11   -1    0    0    0    0  0.00000000000E+00  0.00000000000E+00  0.50000000000E+02  0.50000000000E+02  0.00000000000E+00 0. -1.
        -11   -1    0    0    0    0 -0.00000000000E+00 -0.00000000000E+00 -0.50000000000E+02  0.50000000000E+02  0.00000000000E+00 0.  1.
         23    2    1    2    0    0  0.00000000000E+00  0.00000000000E+00  0.00000000000E+00  0.10000000000E+03  0.10000000000E+03 0.  0.
          5    1    3    3  501    0 -0.21323390625E+02 -0.44864478062E+02  0.32251543307E+01  0.50000000000E+02  0.47000000000E+01 0. -1.
         -5    1    3    3    0  501  0.21323390625E+02  0.44864478062E+02 -0.32251543307E+01  0.50000000000E+02  0.47000000000E+01 0.  1.
</event>
<event>
 5    1  0.8909620E-001  0.1000000E+03  0.7546771E-02  0.1163815E+00
         11   -1    0    0    0    0  0.00000000000E+00  0.00000000000E+00  0.50000000000E+02  0.50000000000E+02  0.00000000000E+00 0. -1.
        -11   -1    0    0    0    0 -0.00000000000E+00 -0.00000000000E+00 -0.50000000000E+02  0.50000000000E+02  0.00000000000E+00 0.  1.
         23    2    1    2    0    0  0.00000000000E+00  0.00000000000E+00  0.00000000000E+00  0.10000000000E+03  0.10000000000E+03 0.  0.
          5    1    3    3  501    0 -0.34976389945E+02  0.11864310826E+02  0.33373646415E+02  0.50000000000E+02  0.47000000000E+01 0. -1.
         -5    1    3    3    0  501  0.34976389945E+02 -0.11864310826E+02 -0.33373646415E+02  0.50000000000E+02  0.47000000000E+01 0.  1.
</event>
<event>
 5    1  0.8909620E-001  0.1000000E+03  0.7546771E-02  0.1163815E+00
         11   -1    0    0    0    0  0.00000000000E+00  0.00000000000E+00  0.50000000000E+02  0.50000000000E+02  0.00000000000E+00 0. -1.
        -11   -1    0    0    0    0 -0.00000000000E+00 -0.00000000000E+00 -0.50000000000E+02  0.50000000000E+02  0.00000000000E+00 0.  1.
         23    2    1    2    0    0  0.00000000000E+00  0.00000000000E+00  0.00000000000E+00  0.10000000000E+03  0.10000000000E+03 0.  0.
          5    1    3    3  501    0  0.12608792696E+02 -0.48040817243E+02 -0.33178645751E+01  0.50000000000E+02  0.47000000000E+01 0. -1.
         -5    1    3    3    0  501 -0.12608792696E+02  0.48040817243E+02  0.33178645751E+01  0.50000000000E+02  0.47000000000E+01 0.  1.
</event>
<event>
 5    1  0.8909620E-001  0.1000000E+03  0.7546771E-02  0.1163815E+00
         11   -1    0    0    0    0  0.00000000000E+00  0.00000000000E+00  0.50000000000E+02  0.50000000000E+02  0.00000000000E+00 0. -1.
        -11   -1    0    0    0    0 -0.00000000000E+00 -0.00000000000E+00 -0.50000000000E+02  0.50000000000E+02  0.00000000000E+00 0.  1.
         23    2    1    2    0    0  0.00000000000E+00  0.00000000000E+00  0.00000000000E+00  0.10000000000E+03  0.10000000000E+03 0.  0.
          5    1    3    3  501    0  0.27810762350E+02  0.13981570428E+02  0.38845684263E+02  0.50000000000E+02  0.47000000000E+01 0. -1.
         -5    1    3    3    0  501 -0.27810762350E+02 -0.13981570428E+02 -0.38845684263E+02  0.50000000000E+02  0.47000000000E+01 0.  1.
</event>
<event>
 5    1  0.8909620E-001  0.1000000E+03  0.7546771E-02  0.1163815E+00
         11   -1    0    0    0    0  0.00000000000E+00  0.00000000000E+00  0.50000000000E+02  0.50000000000E+02  0.00000000000E+00 0. -1.
        -11   -1    0    0    0    0 -0.00000000000E+00 -0.00000000000E+00 -0.50000000000E+02  0.50000000000E+02  0.00000000000E+00 0.  1.
         23    2    1    2    0    0  0.00000000000E+00  0.00000000000E+00  0.00000000000E+00  0.10000000000E+03  0.10000000000E+03 0.  0.
          5    1    3    3  501    0  0.23491353187E+01 -0.37928447119E+02  0.32153140786E+02  0.50000000000E+02  0.47000000000E+01 0. -1.
         -5    1    3    3    0  501 -0.23491353187E+01  0.37928447119E+02 -0.32153140786E+02  0.50000000000E+02  0.47000000000E+01 0.  1.
</event>
<event>
 5    1  0.8909620E-001  0.1000000E+03  0.7546771E-02  0.1163815E+00
         11   -1    0    0    0    0  0.00000000000E+00  0.00000000000E+00  0.50000000000E+02  0.50000000000E+02  0.00000000000E+00 0. -1.
        -11   -1    0    0    0    0 -0.00000000000E+00 -0.00000000000E+00 -0.50000000000E+02  0.50000000000E+02  0.00000000000E+00 0.  1.
         23    2    1    2    0    0  0.00000000000E+00  0.00000000000E+00  0.00000000000E+00  0.10000000000E+03  0.10000000000E+03 0.  0.
          5    1    3    3  501    0 -0.17636034371E+01 -0.49652510392E+02 -0.30704909522E+01  0.50000000000E+02  0.47000000000E+01 0. -1.
         -5    1    3    3    0  501  0.17636034371E+01  0.49652510392E+02  0.30704909522E+01  0.50000000000E+02  0.47000000000E+01 0.  1.
</event>
<event>
 5    1  0.8909620E-001  0.1000000E+03  0.7546771E-02  0.1163815E+00
         11   -1    0    0    0    0  0.00000000000E+00  0.00000000000E+00  0.50000000000E+02  0.50000000000E+02  0.00000000000E+00 0. -1.
        -11   -1    0    0    0    0 -0.00000000000E+00 -0.00000000000E+00 -0.50000000000E+02  0.50000000000E+02  0.00000000000E+00 0.  1.
         23    2    1    2    0    0  0.00000000000E+00  0.00000000000E+00  0.00000000000E+00  0.10000000000E+03  0.10000000000E+03 0.  0.
          5    1    3    3  501    0 -0.49745749025E+02 -0.17146845165E+01  0.57472683970E+00  0.50000000000E+02  0.47000000000E+01 0. -1.
         -5    1    3    3    0  501  0.49745749025E+02  0.17146845165E+01 -0.57472683970E+00  0.50000000000E+02  0.47000000000E+01 0.  1.
</event>
<event>
 5    1  0.8909620E-001  0.1000000E+03  0.7546771E-02  0.1163815E+00
         11   -1    0    0    0    0  0.00000000000E+00  0.00000000000E+00  0.50000000000E+02  0.50000000000E+02  0.00000000000E+00 0. -1.
        -11   -1    0    0    0    0 -0.00000000000E+00 -0.00000000000E+00 -0.50000000000E+02  0.50000000000E+02  0.00000000000E+00 0.  1.
         23    2    1    2    0    0  0.00000000000E+00  0.00000000000E+00  0.00000000000E+00  0.10000000000E+03  0.10000000000E+03 0.  0.
          5    1    3    3  501    0  0.34680696830E+02  0.42239041907E+00  0.35706874040E+02  0.50000000000E+02  0.47000000000E+01 0. -1.
         -5    1    3    3    0  501 -0.34680696830E+02 -0.42239041907E+00 -0.35706874040E+02  0.50000000000E+02  0.47000000000E+01 0.  1.
</event>
<event>
 5    1  0.8909620E-001  0.1000000E+03  0.7546771E-02  0.1163815E+00
         11   -1    0    0    0    0  0.00000000000E+00  0.00000000000E+00  0.50000000000E+02  0.50000000000E+02  0.00000000000E+00 0. -1.
        -11   -1    0    0    0    0 -0.00000000000E+00 -0.00000000000E+00 -0.50000000000E+02  0.50000000000E+02  0.00000000000E+00 0.  1.
         23    2    1    2    0    0  0.00000000000E+00  0.00000000000E+00  0.00000000000E+00  0.10000000000E+03  0.10000000000E+03 0.  0.
          5    1    3    3  501    0 -0.16708039341E+02 -0.41397472504E+02  0.22022731250E+02  0.50000000000E+02  0.47000000000E+01 0. -1.
         -5    1    3    3    0  501  0.16708039341E+02  0.41397472504E+02 -0.22022731250E+02  0.50000000000E+02  0.47000000000E+01 0.  1.
</event>
<event>
 5    1  0.8909620E-001  0.1000000E+03  0.7546771E-02  0.1163815E+00
         11   -1    0    0    0    0  0.00000000000E+00  0.00000000000E+00  0.50000000000E+02  0.50000000000E+02  0.00000000000E+00 0. -1.
        -11   -1    0    0    0    0 -0.00000000000E+00 -0.00000000000E+00 -0.50000000000E+02  0.50000000000E+02  0.00000000000E+00 0.  1.
         23    2    1    2    0    0  0.00000000000E+00  0.00000000000E+00  0.00000000000E+00  0.10000000000E+03  0.10000000000E+03 0.  0.
          5    1    3    3  501    0 -0.51083317825E+01  0.83285454740E+01  0.48810350098E+02  0.50000000000E+02  0.47000000000E+01 0. -1.
         -5    1    3    3    0  501  0.51083317825E+01 -0.83285454740E+01 -0.48810350098E+02  0.50000000000E+02  0.47000000000E+01 0.  1.
</event>
<event>
 5    1  0.8909620E-001  0.1000000E+03  0.7546771E-02  0.1163815E+00
         11   -1    0    0    0    0  0.00000000000E+00  0.00000000000E+00  0.50000000000E+02  0.50000000000E+02  0.00000000000E+00 0. -1.
        -11   -1    0    0    0    0 -0.00000000000E+00 -0.00000000000E+00 -0.50000000000E+02  0.50000000000E+02  0.00000000000E+00 0.  1.
         23    2    1    2    0    0  0.00000000000E+00  0.00000000000E+00  0.00000000000E+00  0.10000000000E+03  0.10000000000E+03 0.  0.
          5    1    3    3  501    0 -0.45216553471E+02  0.16244690014E+02  0.13018576671E+02  0.50000000000E+02  0.47000000000E+01 0. -1.
         -5    1    3    3    0  501  0.45216553471E+02 -0.16244690014E+02 -0.13018576671E+02  0.50000000000E+02  0.47000000000E+01 0.  1.
</event>
<event>
 5    1  0.8909620E-001  0.1000000E+03  0.7546771E-02  0.1163815E+00
         11   -1    0    0    0    0  0.00000000000E+00  0.00000000000E+00  0.50000000000E+02  0.50000000000E+02  0.00000000000E+00 0.  1.
        -11   -1    0    0    0    0 -0.00000000000E+00 -0.00000000000E+00 -0.50000000000E+02  0.50000000000E+02  0.00000000000E+00 0. -1.
         23    2    1    2    0    0  0.00000000000E+00  0.00000000000E+00  0.00000000000E+00  0.10000000000E+03  0.10000000000E+03 0.  0.
          5    1    3    3  501    0 -0.34640467967E+02  0.43894970574E+01 -0.35477884585E+02  0.50000000000E+02  0.47000000000E+01 0. -1.
         -5    1    3    3    0  501  0.34640467967E+02 -0.43894970574E+01  0.35477884585E+02  0.50000000000E+02  0.47000000000E+01 0.  1.
</event>
<event>
 5    1  0.8909620E-001  0.1000000E+03  0.7546771E-02  0.1163815E+00
         11   -1    0    0    0    0  0.00000000000E+00  0.00000000000E+00  0.50000000000E+02  0.50000000000E+02  0.00000000000E+00 0. -1.
        -11   -1    0    0    0    0 -0.00000000000E+00 -0.00000000000E+00 -0.50000000000E+02  0.50000000000E+02  0.00000000000E+00 0.  1.
         23    2    1    2    0    0  0.00000000000E+00  0.00000000000E+00  0.00000000000E+00  0.10000000000E+03  0.10000000000E+03 0.  0.
          5    1    3    3  501    0  0.32030760502E+02  0.66151450153E+01  0.37525727682E+02  0.50000000000E+02  0.47000000000E+01 0. -1.
         -5    1    3    3    0  501 -0.32030760502E+02 -0.66151450153E+01 -0.37525727682E+02  0.50000000000E+02  0.47000000000E+01 0.  1.
</event>
<event>
 5    1  0.8909620E-001  0.1000000E+03  0.7546771E-02  0.1163815E+00
         11   -1    0    0    0    0  0.00000000000E+00  0.00000000000E+00  0.50000000000E+02  0.50000000000E+02  0.00000000000E+00 0. -1.
        -11   -1    0    0    0    0 -0.00000000000E+00 -0.00000000000E+00 -0.50000000000E+02  0.50000000000E+02  0.00000000000E+00 0.  1.
         23    2    1    2    0    0  0.00000000000E+00  0.00000000000E+00  0.00000000000E+00  0.10000000000E+03  0.10000000000E+03 0.  0.
          5    1    3    3  501    0 -0.22480488916E+02  0.32742990282E+02  0.30007235885E+02  0.50000000000E+02  0.47000000000E+01 0. -1.
         -5    1    3    3    0  501  0.22480488916E+02 -0.32742990282E+02 -0.30007235885E+02  0.50000000000E+02  0.47000000000E+01 0.  1.
</event>
<event>
 5    1  0.8909620E-001  0.1000000E+03  0.7546771E-02  0.1163815E+00
         11   -1    0    0    0    0  0.00000000000E+00  0.00000000000E+00  0.50000000000E+02  0.50000000000E+02  0.00000000000E+00 0. -1.
        -11   -1    0    0    0    0 -0.00000000000E+00 -0.00000000000E+00 -0.50000000000E+02  0.50000000000E+02  0.00000000000E+00 0.  1.
         23    2    1    2    0    0  0.00000000000E+00  0.00000000000E+00  0.00000000000E+00  0.10000000000E+03  0.10000000000E+03 0.  0.
          5    1    3    3  501    0 -0.48797112617E+02  0.17179775399E+01  0.96850582543E+01  0.50000000000E+02  0.47000000000E+01 0. -1.
         -5    1    3    3    0  501  0.48797112617E+02 -0.17179775399E+01 -0.96850582543E+01  0.50000000000E+02  0.47000000000E+01 0.  1.
</event>
<event>
 5    1  0.8909620E-001  0.1000000E+03  0.7546771E-02  0.1163815E+00
         11   -1    0    0    0    0  0.00000000000E+00  0.00000000000E+00  0.50000000000E+02  0.50000000000E+02  0.00000000000E+00 0. -1.
        -11   -1    0    0    0    0 -0.00000000000E+00 -0.00000000000E+00 -0.50000000000E+02  0.50000000000E+02  0.00000000000E+00 0.  1.
         23    2    1    2    0    0  0.00000000000E+00  0.00000000000E+00  0.00000000000E+00  0.10000000000E+03  0.10000000000E+03 0.  0.
          5    1    3    3  501    0  0.23245612839E+02 -0.25524783790E+01  0.43943558548E+02  0.50000000000E+02  0.47000000000E+01 0. -1.
         -5    1    3    3    0  501 -0.23245612839E+02  0.25524783790E+01 -0.43943558548E+02  0.50000000000E+02  0.47000000000E+01 0.  1.
</event>
<event>
 5    1  0.8909620E-001  0.1000000E+03  0.7546771E-02  0.1163815E+00
         11   -1    0    0    0    0  0.00000000000E+00  0.00000000000E+00  0.50000000000E+02  0.50000000000E+02  0.00000000000E+00 0. -1.
        -11   -1    0    0    0    0 -0.00000000000E+00 -0.00000000000E+00 -0.50000000000E+02  0.50000000000E+02  0.00000000000E+00 0.  1.
         23    2    1    2    0    0  0.00000000000E+00  0.00000000000E+00  0.00000000000E+00  0.10000000000E+03  0.10000000000E+03 0.  0.
          5    1    3    3  501    0  0.16117367870E+02 -0.10771354407E+02  0.45848864513E+02  0.50000000000E+02  0.47000000000E+01 0. -1.
         -5    1    3    3    0  501 -0.16117367870E+02  0.10771354407E+02 -0.45848864513E+02  0.50000000000E+02  0.47000000000E+01 0.  1.
</event>
<event>
 5    1  0.8909620E-001  0.1000000E+03  0.7546771E-02  0.1163815E+00
         11   -1    0    0    0    0  0.00000000000E+00  0.00000000000E+00  0.50000000000E+02  0.50000000000E+02  0.00000000000E+00 0. -1.
        -11   -1    0    0    0    0 -0.00000000000E+00 -0.00000000000E+00 -0.50000000000E+02  0.50000000000E+02  0.00000000000E+00 0.  1.
         23    2    1    2    0    0  0.00000000000E+00  0.00000000000E+00  0.00000000000E+00  0.10000000000E+03  0.10000000000E+03 0.  0.
          5    1    3    3  501    0 -0.17482348663E+02 -0.24895802207E+02  0.39401478623E+02  0.50000000000E+02  0.47000000000E+01 0. -1.
         -5    1    3    3    0  501  0.17482348663E+02  0.24895802207E+02 -0.39401478623E+02  0.50000000000E+02  0.47000000000E+01 0.  1.
</event>
<event>
 5    1  0.8909620E-001  0.1000000E+03  0.7546771E-02  0.1163815E+00
         11   -1    0    0    0    0  0.00000000000E+00  0.00000000000E+00  0.50000000000E+02  0.50000000000E+02  0.00000000000E+00 0. -1.
        -11   -1    0    0    0    0 -0.00000000000E+00 -0.00000000000E+00 -0.50000000000E+02  0.50000000000E+02  0.00000000000E+00 0.  1.
         23    2    1    2    0    0  0.00000000000E+00  0.00000000000E+00  0.00000000000E+00  0.10000000000E+03  0.10000000000E+03 0.  0.
          5    1    3    3  501    0 -0.38649140428E+02 -0.18534467628E+02 -0.25310619390E+02  0.50000000000E+02  0.47000000000E+01 0. -1.
         -5    1    3    3    0  501  0.38649140428E+02  0.18534467628E+02  0.25310619390E+02  0.50000000000E+02  0.47000000000E+01 0.  1.
</event>
<event>
 5    1  0.8909620E-001  0.1000000E+03  0.7546771E-02  0.1163815E+00
         11   -1    0    0    0    0  0.00000000000E+00  0.00000000000E+00  0.50000000000E+02  0.50000000000E+02  0.00000000000E+00 0. -1.
        -11   -1    0    0    0    0 -0.00000000000E+00 -0.00000000000E+00 -0.50000000000E+02  0.50000000000E+02  0.00000000000E+00 0.  1.
         23    2    1    2    0    0  0.00000000000E+00  0.00000000000E+00  0.00000000000E+00  0.10000000000E+03  0.10000000000E+03 0.  0.
          5    1    3    3  501    0  0.24953197223E+02 -0.40763275708E+02  0.13914140359E+02  0.50000000000E+02  0.47000000000E+01 0. -1.
         -5    1    3    3    0  501 -0.24953197223E+02  0.40763275708E+02 -0.13914140359E+02  0.50000000000E+02  0.47000000000E+01 0.  1.
</event>
<event>
 5    1  0.8909620E-001  0.1000000E+03  0.7546771E-02  0.1163815E+00
         11   -1    0    0    0    0  0.00000000000E+00  0.00000000000E+00  0.50000000000E+02  0.50000000000E+02  0.00000000000E+00 0.  1.
        -11   -1    0    0    0    0 -0.00000000000E+00 -0.00000000000E+00 -0.50000000000E+02  0.50000000000E+02  0.00000000000E+00 0. -1.
         23    2    1    2    0    0  0.00000000000E+00  0.00000000000E+00  0.00000000000E+00  0.10000000000E+03  0.10000000000E+03 0.  0.
          5    1    3    3  501    0 -0.19056372555E+02  0.10711458593E+02 -0.44721687355E+02  0.50000000000E+02  0.47000000000E+01 0. -1.
         -5    1    3    3    0  501  0.19056372555E+02 -0.10711458593E+02  0.44721687355E+02  0.50000000000E+02  0.47000000000E+01 0.  1.
</event>
<event>
 5    1  0.8909620E-001  0.1000000E+03  0.7546771E-02  0.1163815E+00
         11   -1    0    0    0    0  0.00000000000E+00  0.00000000000E+00  0.50000000000E+02  0.50000000000E+02  0.00000000000E+00 0.  1.
        -11   -1    0    0    0    0 -0.00000000000E+00 -0.00000000000E+00 -0.50000000000E+02  0.50000000000E+02  0.00000000000E+00 0. -1.
         23    2    1    2    0    0  0.00000000000E+00  0.00000000000E+00  0.00000000000E+00  0.10000000000E+03  0.10000000000E+03 0.  0.
          5    1    3    3  501    0 -0.25491113608E+02 -0.21345406584E+02 -0.37047088210E+02  0.50000000000E+02  0.47000000000E+01 0. -1.
         -5    1    3    3    0  501  0.25491113608E+02  0.21345406584E+02  0.37047088210E+02  0.50000000000E+02  0.47000000000E+01 0.  1.
</event>
<event>
 5    1  0.8909620E-001  0.1000000E+03  0.7546771E-02  0.1163815E+00
         11   -1    0    0    0    0  0.00000000000E+00  0.00000000000E+00  0.50000000000E+02  0.50000000000E+02  0.00000000000E+00 0.  1.
        -11   -1    0    0    0    0 -0.00000000000E+00 -0.00000000000E+00 -0.50000000000E+02  0.50000000000E+02  0.00000000000E+00 0. -1.
         23    2    1    2    0    0  0.00000000000E+00  0.00000000000E+00  0.00000000000E+00  0.10000000000E+03  0.10000000000E+03 0.  0.
          5    1    3    3  501    0  0.35484567780E+02  0.34079897013E+02 -0.75707376861E+01  0.50000000000E+02  0.47000000000E+01 0. -1.
         -5    1    3    3    0  501 -0.35484567780E+02 -0.34079897013E+02  0.75707376861E+01  0.50000000000E+02  0.47000000000E+01 0.  1.
</event>
<event>
 5    1  0.8909620E-001  0.1000000E+03  0.7546771E-02  0.1163815E+00
         11   -1    0    0    0    0  0.00000000000E+00  0.00000000000E+00  0.50000000000E+02  0.50000000000E+02  0.00000000000E+00 0.  1.
        -11   -1    0    0    0    0 -0.00000000000E+00 -0.00000000000E+00 -0.50000000000E+02  0.50000000000E+02  0.00000000000E+00 0. -1.
         23    2    1    2    0    0  0.00000000000E+00  0.00000000000E+00  0.00000000000E+00  0.10000000000E+03  0.10000000000E+03 0.  0.
          5    1    3    3  501    0  0.34252970415E+02  0.10801018846E+02  0.34467114902E+02  0.50000000000E+02  0.47000000000E+01 0.  1.
         -5    1    3    3    0  501 -0.34252970415E+02 -0.10801018846E+02 -0.34467114902E+02  0.50000000000E+02  0.47000000000E+01 0. -1.
</event>
<event>
 5    1  0.8909620E-001  0.1000000E+03  0.7546771E-02  0.1163815E+00
         11   -1    0    0    0    0  0.00000000000E+00  0.00000000000E+00  0.50000000000E+02  0.50000000000E+02  0.00000000000E+00 0.  1.
        -11   -1    0    0    0    0 -0.00000000000E+00 -0.00000000000E+00 -0.50000000000E+02  0.50000000000E+02  0.00000000000E+00 0. -1.
         23    2    1    2    0    0  0.00000000000E+00  0.00000000000E+00  0.00000000000E+00  0.10000000000E+03  0.10000000000E+03 0.  0.
          5    1    3    3  501    0 -0.20684812550E+01 -0.19090030669E+02 -0.45926050498E+02  0.50000000000E+02  0.47000000000E+01 0. -1.
         -5    1    3    3    0  501  0.20684812550E+01  0.19090030669E+02  0.45926050498E+02  0.50000000000E+02  0.47000000000E+01 0.  1.
</event>
<event>
 5    1  0.8909620E-001  0.1000000E+03  0.7546771E-02  0.1163815E+00
         11   -1    0    0    0    0  0.00000000000E+00  0.00000000000E+00  0.50000000000E+02  0.50000000000E+02  0.00000000000E+00 0. -1.
        -11   -1    0    0    0    0 -0.00000000000E+00 -0.00000000000E+00 -0.50000000000E+02  0.50000000000E+02  0.00000000000E+00 0.  1.
         23    2    1    2    0    0  0.00000000000E+00  0.00000000000E+00  0.00000000000E+00  0.10000000000E+03  0.10000000000E+03 0.  0.
          5    1    3    3  501    0  0.51834543473E+01 -0.11512303716E+02  0.48150894739E+02  0.50000000000E+02  0.47000000000E+01 0. -1.
         -5    1    3    3    0  501 -0.51834543473E+01  0.11512303716E+02 -0.48150894739E+02  0.50000000000E+02  0.47000000000E+01 0.  1.
</event>
<event>
 5    1  0.8909620E-001  0.1000000E+03  0.7546771E-02  0.1163815E+00
         11   -1    0    0    0    0  0.00000000000E+00  0.00000000000E+00  0.50000000000E+02  0.50000000000E+02  0.00000000000E+00 0.  1.
        -11   -1    0    0    0    0 -0.00000000000E+00 -0.00000000000E+00 -0.50000000000E+02  0.50000000000E+02  0.00000000000E+00 0. -1.
         23    2    1    2    0    0  0.00000000000E+00  0.00000000000E+00  0.00000000000E+00  0.10000000000E+03  0.10000000000E+03 0.  0.
          5    1    3    3  501    0  0.57186739092E+01  0.40326935447E+01 -0.49284319530E+02  0.50000000000E+02  0.47000000000E+01 0. -1.
         -5    1    3    3    0  501 -0.57186739092E+01 -0.40326935447E+01  0.49284319530E+02  0.50000000000E+02  0.47000000000E+01 0.  1.
</event>
<event>
 5    1  0.8909620E-001  0.1000000E+03  0.7546771E-02  0.1163815E+00
         11   -1    0    0    0    0  0.00000000000E+00  0.00000000000E+00  0.50000000000E+02  0.50000000000E+02  0.00000000000E+00 0. -1.
        -11   -1    0    0    0    0 -0.00000000000E+00 -0.00000000000E+00 -0.50000000000E+02  0.50000000000E+02  0.00000000000E+00 0.  1.
         23    2    1    2    0    0  0.00000000000E+00  0.00000000000E+00  0.00000000000E+00  0.10000000000E+03  0.10000000000E+03 0.  0.
          5    1    3    3  501    0 -0.25723076485E+02  0.11946233197E+02  0.40908689157E+02  0.50000000000E+02  0.47000000000E+01 0. -1.
         -5    1    3    3    0  501  0.25723076485E+02 -0.11946233197E+02 -0.40908689157E+02  0.50000000000E+02  0.47000000000E+01 0.  1.
</event>
<event>
 5    1  0.8909620E-001  0.1000000E+03  0.7546771E-02  0.1163815E+00
         11   -1    0    0    0    0  0.00000000000E+00  0.00000000000E+00  0.50000000000E+02  0.50000000000E+02  0.00000000000E+00 0. -1.
        -11   -1    0    0    0    0 -0.00000000000E+00 -0.00000000000E+00 -0.50000000000E+02  0.50000000000E+02  0.00000000000E+00 0.  1.
         23    2    1    2    0    0  0.00000000000E+00  0.00000000000E+00  0.00000000000E+00  0.10000000000E+03  0.10000000000E+03 0.  0.
          5    1    3    3  501    0  0.43633246744E+02 -0.22393058613E+02  0.85206047025E+01  0.50000000000E+02  0.47000000000E+01 0. -1.
         -5    1    3    3    0  501 -0.43633246744E+02  0.22393058613E+02 -0.85206047025E+01  0.50000000000E+02  0.47000000000E+01 0.  1.
</event>
<event>
 5    1  0.8909620E-001  0.1000000E+03  0.7546771E-02  0.1163815E+00
         11   -1    0    0    0    0  0.00000000000E+00  0.00000000000E+00  0.50000000000E+02  0.50000000000E+02  0.00000000000E+00 0.  1.
        -11   -1    0    0    0    0 -0.00000000000E+00 -0.00000000000E+00 -0.50000000000E+02  0.50000000000E+02  0.00000000000E+00 0. -1.
         23    2    1    2    0    0  0.00000000000E+00  0.00000000000E+00  0.00000000000E+00  0.10000000000E+03  0.10000000000E+03 0.  0.
          5    1    3    3  501    0 -0.26135908742E+02 -0.36663941922E+02  0.21226861214E+02  0.50000000000E+02  0.47000000000E+01 0.  1.
         -5    1    3    3    0  501  0.26135908742E+02  0.36663941922E+02 -0.21226861214E+02  0.50000000000E+02  0.47000000000E+01 0. -1.
</event>
<event>
 5    1  0.8909620E-001  0.1000000E+03  0.7546771E-02  0.1163815E+00
         11   -1    0    0    0    0  0.00000000000E+00  0.00000000000E+00  0.50000000000E+02  0.50000000000E+02  0.00000000000E+00 0. -1.
        -11   -1    0    0    0    0 -0.00000000000E+00 -0.00000000000E+00 -0.50000000000E+02  0.50000000000E+02  0.00000000000E+00 0.  1.
         23    2    1    2    0    0  0.00000000000E+00  0.00000000000E+00  0.00000000000E+00  0.10000000000E+03  0.10000000000E+03 0.  0.
          5    1    3    3  501    0 -0.51600230716E+01 -0.48442971598E+02  0.10225588720E+02  0.50000000000E+02  0.47000000000E+01 0. -1.
         -5    1    3    3    0  501  0.51600230716E+01  0.48442971598E+02 -0.10225588720E+02  0.50000000000E+02  0.47000000000E+01 0.  1.
</event>
<event>
 5    1  0.8909620E-001  0.1000000E+03  0.7546771E-02  0.1163815E+00
         11   -1    0    0    0    0  0.00000000000E+00  0.00000000000E+00  0.50000000000E+02  0.50000000000E+02  0.00000000000E+00 0.  1.
        -11   -1    0    0    0    0 -0.00000000000E+00 -0.00000000000E+00 -0.50000000000E+02  0.50000000000E+02  0.00000000000E+00 0. -1.
         23    2    1    2    0    0  0.00000000000E+00  0.00000000000E+00  0.00000000000E+00  0.10000000000E+03  0.10000000000E+03 0.  0.
          5    1    3    3  501    0  0.14471084755E+02  0.45621704007E+02 -0.13680563933E+02  0.50000000000E+02  0.47000000000E+01 0. -1.
         -5    1    3    3    0  501 -0.14471084755E+02 -0.45621704007E+02  0.13680563933E+02  0.50000000000E+02  0.47000000000E+01 0.  1.
</event>
<event>
 5    1  0.8909620E-001  0.1000000E+03  0.7546771E-02  0.1163815E+00
         11   -1    0    0    0    0  0.00000000000E+00  0.00000000000E+00  0.50000000000E+02  0.50000000000E+02  0.00000000000E+00 0.  1.
        -11   -1    0    0    0    0 -0.00000000000E+00 -0.00000000000E+00 -0.50000000000E+02  0.50000000000E+02  0.00000000000E+00 0. -1.
         23    2    1    2    0    0  0.00000000000E+00  0.00000000000E+00  0.00000000000E+00  0.10000000000E+03  0.10000000000E+03 0.  0.
          5    1    3    3  501    0 -0.31101860076E+02 -0.38277342910E+02 -0.67401275609E+01  0.50000000000E+02  0.47000000000E+01 0. -1.
         -5    1    3    3    0  501  0.31101860076E+02  0.38277342910E+02  0.67401275609E+01  0.50000000000E+02  0.47000000000E+01 0.  1.
</event>
<event>
 5    1  0.8909620E-001  0.1000000E+03  0.7546771E-02  0.1163815E+00
         11   -1    0    0    0    0  0.00000000000E+00  0.00000000000E+00  0.50000000000E+02  0.50000000000E+02  0.00000000000E+00 0. -1.
        -11   -1    0    0    0    0 -0.00000000000E+00 -0.00000000000E+00 -0.50000000000E+02  0.50000000000E+02  0.00000000000E+00 0.  1.
         23    2    1    2    0    0  0.00000000000E+00  0.00000000000E+00  0.00000000000E+00  0.10000000000E+03  0.10000000000E+03 0.  0.
          5    1    3    3  501    0 -0.51777227281E+01 -0.39318152151E+02  0.30086277582E+02  0.50000000000E+02  0.47000000000E+01 0. -1.
         -5    1    3    3    0  501  0.51777227281E+01  0.39318152151E+02 -0.30086277582E+02  0.50000000000E+02  0.47000000000E+01 0.  1.
</event>
<event>
 5    1  0.8909620E-001  0.1000000E+03  0.7546771E-02  0.1163815E+00
         11   -1    0    0    0    0  0.00000000000E+00  0.00000000000E+00  0.50000000000E+02  0.50000000000E+02  0.00000000000E+00 0.  1.
        -11   -1    0    0    0    0 -0.00000000000E+00 -0.00000000000E+00 -0.50000000000E+02  0.50000000000E+02  0.00000000000E+00 0. -1.
         23    2    1    2    0    0  0.00000000000E+00  0.00000000000E+00  0.00000000000E+00  0.10000000000E+03  0.10000000000E+03 0.  0.
          5    1    3    3  501    0  0.11164927660E+01  0.12104518769E+02  0.48271565847E+02  0.50000000000E+02  0.47000000000E+01 0.  1.
         -5    1    3    3    0  501 -0.11164927660E+01 -0.12104518769E+02 -0.48271565847E+02  0.50000000000E+02  0.47000000000E+01 0. -1.
</event>
<event>
 5    1  0.8909620E-001  0.1000000E+03  0.7546771E-02  0.1163815E+00
         11   -1    0    0    0    0  0.00000000000E+00  0.00000000000E+00  0.50000000000E+02  0.50000000000E+02  0.00000000000E+00 0. -1.
        -11   -1    0    0    0    0 -0.00000000000E+00 -0.00000000000E+00 -0.50000000000E+02  0.50000000000E+02  0.00000000000E+00 0.  1.
         23    2    1    2    0    0  0.00000000000E+00  0.00000000000E+00  0.00000000000E+00  0.10000000000E+03  0.10000000000E+03 0.  0.
          5    1    3    3  501    0  0.18801279784E+02  0.13850961534E+02  0.43961036647E+02  0.50000000000E+02  0.47000000000E+01 0. -1.
         -5    1    3    3    0  501 -0.18801279784E+02 -0.13850961534E+02 -0.43961036647E+02  0.50000000000E+02  0.47000000000E+01 0.  1.
</event>
<event>
 5    1  0.8909620E-001  0.1000000E+03  0.7546771E-02  0.1163815E+00
         11   -1    0    0    0    0  0.00000000000E+00  0.00000000000E+00  0.50000000000E+02  0.50000000000E+02  0.00000000000E+00 0. -1.
        -11   -1    0    0    0    0 -0.00000000000E+00 -0.00000000000E+00 -0.50000000000E+02  0.50000000000E+02  0.00000000000E+00 0.  1.
         23    2    1    2    0    0  0.00000000000E+00  0.00000000000E+00  0.00000000000E+00  0.10000000000E+03  0.10000000000E+03 0.  0.
          5    1    3    3  501    0 -0.92811374611E+01  0.29636956089E+02  0.38902716116E+02  0.50000000000E+02  0.47000000000E+01 0. -1.
         -5    1    3    3    0  501  0.92811374611E+01 -0.29636956089E+02 -0.38902716116E+02  0.50000000000E+02  0.47000000000E+01 0.  1.
</event>
<event>
 5    1  0.8909620E-001  0.1000000E+03  0.7546771E-02  0.1163815E+00
         11   -1    0    0    0    0  0.00000000000E+00  0.00000000000E+00  0.50000000000E+02  0.50000000000E+02  0.00000000000E+00 0. -1.
        -11   -1    0    0    0    0 -0.00000000000E+00 -0.00000000000E+00 -0.50000000000E+02  0.50000000000E+02  0.00000000000E+00 0.  1.
         23    2    1    2    0    0  0.00000000000E+00  0.00000000000E+00  0.00000000000E+00  0.10000000000E+03  0.10000000000E+03 0.  0.
          5    1    3    3  501    0  0.41926045112E+02  0.10718663065E+02  0.24601361819E+02  0.50000000000E+02  0.47000000000E+01 0. -1.
         -5    1    3    3    0  501 -0.41926045112E+02 -0.10718663065E+02 -0.24601361819E+02  0.50000000000E+02  0.47000000000E+01 0.  1.
</event>
<event>
 5    1  0.8909620E-001  0.1000000E+03  0.7546771E-02  0.1163815E+00
         11   -1    0    0    0    0  0.00000000000E+00  0.00000000000E+00  0.50000000000E+02  0.50000000000E+02  0.00000000000E+00 0. -1.
        -11   -1    0    0    0    0 -0.00000000000E+00 -0.00000000000E+00 -0.50000000000E+02  0.50000000000E+02  0.00000000000E+00 0.  1.
         23    2    1    2    0    0  0.00000000000E+00  0.00000000000E+00  0.00000000000E+00  0.10000000000E+03  0.10000000000E+03 0.  0.
          5    1    3    3  501    0  0.48538810925E+02  0.22060906622E+01  0.10817901736E+02  0.50000000000E+02  0.47000000000E+01 0.  1.
         -5    1    3    3    0  501 -0.48538810925E+02 -0.22060906622E+01 -0.10817901736E+02  0.50000000000E+02  0.47000000000E+01 0. -1.
</event>
<event>
 5    1  0.8909620E-001  0.1000000E+03  0.7546771E-02  0.1163815E+00
         11   -1    0    0    0    0  0.00000000000E+00  0.00000000000E+00  0.50000000000E+02  0.50000000000E+02  0.00000000000E+00 0. -1.
        -11   -1    0    0    0    0 -0.00000000000E+00 -0.00000000000E+00 -0.50000000000E+02  0.50000000000E+02  0.00000000000E+00 0.  1.
         23    2    1    2    0    0  0.00000000000E+00  0.00000000000E+00  0.00000000000E+00  0.10000000000E+03  0.10000000000E+03 0.  0.
          5    1    3    3  501    0 -0.32949170329E+02 -0.13190685777E+02  0.34903695841E+02  0.50000000000E+02  0.47000000000E+01 0. -1.
         -5    1    3    3    0  501  0.32949170329E+02  0.13190685777E+02 -0.34903695841E+02  0.50000000000E+02  0.47000000000E+01 0.  1.
</event>
<event>
 5    1  0.8909620E-001  0.1000000E+03  0.7546771E-02  0.1163815E+00
         11   -1    0    0    0    0  0.00000000000E+00  0.00000000000E+00  0.50000000000E+02  0.50000000000E+02  0.00000000000E+00 0. -1.
        -11   -1    0    0    0    0 -0.00000000000E+00 -0.00000000000E+00 -0.50000000000E+02  0.50000000000E+02  0.00000000000E+00 0.  1.
         23    2    1    2    0    0  0.00000000000E+00  0.00000000000E+00  0.00000000000E+00  0.10000000000E+03  0.10000000000E+03 0.  0.
          5    1    3    3  501    0 -0.51567889259E+01  0.18878604318E+02  0.45770250458E+02  0.50000000000E+02  0.47000000000E+01 0. -1.
         -5    1    3    3    0  501  0.51567889259E+01 -0.18878604318E+02 -0.45770250458E+02  0.50000000000E+02  0.47000000000E+01 0.  1.
</event>
<event>
 5    1  0.8909620E-001  0.1000000E+03  0.7546771E-02  0.1163815E+00
         11   -1    0    0    0    0  0.00000000000E+00  0.00000000000E+00  0.50000000000E+02  0.50000000000E+02  0.00000000000E+00 0. -1.
        -11   -1    0    0    0    0 -0.00000000000E+00 -0.00000000000E+00 -0.50000000000E+02  0.50000000000E+02  0.00000000000E+00 0.  1.
         23    2    1    2    0    0  0.00000000000E+00  0.00000000000E+00  0.00000000000E+00  0.10000000000E+03  0.10000000000E+03 0.  0.
          5    1    3    3  501    0  0.31806719651E+02 -0.34195634745E+02 -0.17230819756E+02  0.50000000000E+02  0.47000000000E+01 0. -1.
         -5    1    3    3    0  501 -0.31806719651E+02  0.34195634745E+02  0.17230819756E+02  0.50000000000E+02  0.47000000000E+01 0.  1.
</event>
<event>
 5    1  0.8909620E-001  0.1000000E+03  0.7546771E-02  0.1163815E+00
         11   -1    0    0    0    0  0.00000000000E+00  0.00000000000E+00  0.50000000000E+02  0.50000000000E+02  0.00000000000E+00 0. -1.
        -11   -1    0    0    0    0 -0.00000000000E+00 -0.00000000000E+00 -0.50000000000E+02  0.50000000000E+02  0.00000000000E+00 0.  1.
         23    2    1    2    0    0  0.00000000000E+00  0.00000000000E+00  0.00000000000E+00  0.10000000000E+03  0.10000000000E+03 0.  0.
          5    1    3    3  501    0 -0.18552719986E+02  0.20662211931E+02  0.41313188926E+02  0.50000000000E+02  0.47000000000E+01 0. -1.
         -5    1    3    3    0  501  0.18552719986E+02 -0.20662211931E+02 -0.41313188926E+02  0.50000000000E+02  0.47000000000E+01 0.  1.
</event>
<event>
 5    1  0.8909620E-001  0.1000000E+03  0.7546771E-02  0.1163815E+00
         11   -1    0    0    0    0  0.00000000000E+00  0.00000000000E+00  0.50000000000E+02  0.50000000000E+02  0.00000000000E+00 0. -1.
        -11   -1    0    0    0    0 -0.00000000000E+00 -0.00000000000E+00 -0.50000000000E+02  0.50000000000E+02  0.00000000000E+00 0.  1.
         23    2    1    2    0    0  0.00000000000E+00  0.00000000000E+00  0.00000000000E+00  0.10000000000E+03  0.10000000000E+03 0.  0.
          5    1    3    3  501    0  0.71337215721E+01  0.10088548331E+02  0.48220754962E+02  0.50000000000E+02  0.47000000000E+01 0. -1.
         -5    1    3    3    0  501 -0.71337215721E+01 -0.10088548331E+02 -0.48220754962E+02  0.50000000000E+02  0.47000000000E+01 0.  1.
</event>
<event>
 5    1  0.8909620E-001  0.1000000E+03  0.7546771E-02  0.1163815E+00
         11   -1    0    0    0    0  0.00000000000E+00  0.00000000000E+00  0.50000000000E+02  0.50000000000E+02  0.00000000000E+00 0. -1.
        -11   -1    0    0    0    0 -0.00000000000E+00 -0.00000000000E+00 -0.50000000000E+02  0.50000000000E+02  0.00000000000E+00 0.  1.
         23    2    1    2    0    0  0.00000000000E+00  0.00000000000E+00  0.00000000000E+00  0.10000000000E+03  0.10000000000E+03 0.  0.
          5    1    3    3  501    0 -0.20405895891E+02 -0.17886782065E+02  0.41732151158E+02  0.50000000000E+02  0.47000000000E+01 0. -1.
         -5    1    3    3    0  501  0.20405895891E+02  0.17886782065E+02 -0.41732151158E+02  0.50000000000E+02  0.47000000000E+01 0.  1.
</event>
<event>
 5    1  0.8909620E-001  0.1000000E+03  0.7546771E-02  0.1163815E+00
         11   -1    0    0    0    0  0.00000000000E+00  0.00000000000E+00  0.50000000000E+02  0.50000000000E+02  0.00000000000E+00 0. -1.
        -11   -1    0    0    0    0 -0.00000000000E+00 -0.00000000000E+00 -0.50000000000E+02  0.50000000000E+02  0.00000000000E+00 0.  1.
         23    2    1    2    0    0  0.00000000000E+00  0.00000000000E+00  0.00000000000E+00  0.10000000000E+03  0.10000000000E+03 0.  0.
          5    1    3    3  501    0  0.86670575417E+01 -0.39796247870E+02  0.28619063036E+02  0.50000000000E+02  0.47000000000E+01 0. -1.
         -5    1    3    3    0  501 -0.86670575417E+01  0.39796247870E+02 -0.28619063036E+02  0.50000000000E+02  0.47000000000E+01 0.  1.
</event>
<event>
 5    1  0.8909620E-001  0.1000000E+03  0.7546771E-02  0.1163815E+00
         11   -1    0    0    0    0  0.00000000000E+00  0.00000000000E+00  0.50000000000E+02  0.50000000000E+02  0.00000000000E+00 0. -1.
        -11   -1    0    0    0    0 -0.00000000000E+00 -0.00000000000E+00 -0.50000000000E+02  0.50000000000E+02  0.00000000000E+00 0.  1.
         23    2    1    2    0    0  0.00000000000E+00  0.00000000000E+00  0.00000000000E+00  0.10000000000E+03  0.10000000000E+03 0.  0.
          5    1    3    3  501    0 -0.12429929956E+02 -0.13151067107E+02  0.46373012359E+02  0.50000000000E+02  0.47000000000E+01 0. -1.
         -5    1    3    3    0  501  0.12429929956E+02  0.13151067107E+02 -0.46373012359E+02  0.50000000000E+02  0.47000000000E+01 0.  1.
</event>
<event>
 5    1  0.8909620E-001  0.1000000E+03  0.7546771E-02  0.1163815E+00
         11   -1    0    0    0    0  0.00000000000E+00  0.00000000000E+00  0.50000000000E+02  0.50000000000E+02  0.00000000000E+00 0. -1.
        -11   -1    0    0    0    0 -0.00000000000E+00 -0.00000000000E+00 -0.50000000000E+02  0.50000000000E+02  0.00000000000E+00 0.  1.
         23    2    1    2    0    0  0.00000000000E+00  0.00000000000E+00  0.00000000000E+00  0.10000000000E+03  0.10000000000E+03 0.  0.
          5    1    3    3  501    0  0.11911659009E+02 -0.14169679078E+02  0.46208685055E+02  0.50000000000E+02  0.47000000000E+01 0. -1.
         -5    1    3    3    0  501 -0.11911659009E+02  0.14169679078E+02 -0.46208685055E+02  0.50000000000E+02  0.47000000000E+01 0.  1.
</event>
<event>
 5    1  0.8909620E-001  0.1000000E+03  0.7546771E-02  0.1163815E+00
         11   -1    0    0    0    0  0.00000000000E+00  0.00000000000E+00  0.50000000000E+02  0.50000000000E+02  0.00000000000E+00 0.  1.
        -11   -1    0    0    0    0 -0.00000000000E+00 -0.00000000000E+00 -0.50000000000E+02  0.50000000000E+02  0.00000000000E+00 0. -1.
         23    2    1    2    0    0  0.00000000000E+00  0.00000000000E+00  0.00000000000E+00  0.10000000000E+03  0.10000000000E+03 0.  0.
          5    1    3    3  501    0 -0.31943987722E+02 -0.31267974408E+02 -0.21904461301E+02  0.50000000000E+02  0.47000000000E+01 0. -1.
         -5    1    3    3    0  501  0.31943987722E+02  0.31267974408E+02  0.21904461301E+02  0.50000000000E+02  0.47000000000E+01 0.  1.
</event>
<event>
 5    1  0.8909620E-001  0.1000000E+03  0.7546771E-02  0.1163815E+00
         11   -1    0    0    0    0  0.00000000000E+00  0.00000000000E+00  0.50000000000E+02  0.50000000000E+02  0.00000000000E+00 0. -1.
        -11   -1    0    0    0    0 -0.00000000000E+00 -0.00000000000E+00 -0.50000000000E+02  0.50000000000E+02  0.00000000000E+00 0.  1.
         23    2    1    2    0    0  0.00000000000E+00  0.00000000000E+00  0.00000000000E+00  0.10000000000E+03  0.10000000000E+03 0.  0.
          5    1    3    3  501    0  0.15875917804E+02 -0.19809914911E+01  0.47137468182E+02  0.50000000000E+02  0.47000000000E+01 0. -1.
         -5    1    3    3    0  501 -0.15875917804E+02  0.19809914911E+01 -0.47137468182E+02  0.50000000000E+02  0.47000000000E+01 0.  1.
</event>
<event>
 5    1  0.8909620E-001  0.1000000E+03  0.7546771E-02  0.1163815E+00
         11   -1    0    0    0    0  0.00000000000E+00  0.00000000000E+00  0.50000000000E+02  0.50000000000E+02  0.00000000000E+00 0. -1.
        -11   -1    0    0    0    0 -0.00000000000E+00 -0.00000000000E+00 -0.50000000000E+02  0.50000000000E+02  0.00000000000E+00 0.  1.
         23    2    1    2    0    0  0.00000000000E+00  0.00000000000E+00  0.00000000000E+00  0.10000000000E+03  0.10000000000E+03 0.  0.
          5    1    3    3  501    0  0.23333208995E+02 -0.36163666272E+02 -0.25013208506E+02  0.50000000000E+02  0.47000000000E+01 0. -1.
         -5    1    3    3    0  501 -0.23333208995E+02  0.36163666272E+02  0.25013208506E+02  0.50000000000E+02  0.47000000000E+01 0.  1.
</event>
<event>
 5    1  0.8909620E-001  0.1000000E+03  0.7546771E-02  0.1163815E+00
         11   -1    0    0    0    0  0.00000000000E+00  0.00000000000E+00  0.50000000000E+02  0.50000000000E+02  0.00000000000E+00 0. -1.
        -11   -1    0    0    0    0 -0.00000000000E+00 -0.00000000000E+00 -0.50000000000E+02  0.50000000000E+02  0.00000000000E+00 0.  1.
         23    2    1    2    0    0  0.00000000000E+00  0.00000000000E+00  0.00000000000E+00  0.10000000000E+03  0.10000000000E+03 0.  0.
          5    1    3    3  501    0 -0.13659726545E+02  0.16647605303E+02  0.44879606821E+02  0.50000000000E+02  0.47000000000E+01 0. -1.
         -5    1    3    3    0  501  0.13659726545E+02 -0.16647605303E+02 -0.44879606821E+02  0.50000000000E+02  0.47000000000E+01 0.  1.
</event>
<event>
 5    1  0.8909620E-001  0.1000000E+03  0.7546771E-02  0.1163815E+00
         11   -1    0    0    0    0  0.00000000000E+00  0.00000000000E+00  0.50000000000E+02  0.50000000000E+02  0.00000000000E+00 0.  1.
        -11   -1    0    0    0    0 -0.00000000000E+00 -0.00000000000E+00 -0.50000000000E+02  0.50000000000E+02  0.00000000000E+00 0. -1.
         23    2    1    2    0    0  0.00000000000E+00  0.00000000000E+00  0.00000000000E+00  0.10000000000E+03  0.10000000000E+03 0.  0.
          5    1    3    3  501    0 -0.41513190193E+02 -0.17552634292E+02 -0.21129838367E+02  0.50000000000E+02  0.47000000000E+01 0. -1.
         -5    1    3    3    0  501  0.41513190193E+02  0.17552634292E+02  0.21129838367E+02  0.50000000000E+02  0.47000000000E+01 0.  1.
</event>
<event>
 5    1  0.8909620E-001  0.1000000E+03  0.7546771E-02  0.1163815E+00
         11   -1    0    0    0    0  0.00000000000E+00  0.00000000000E+00  0.50000000000E+02  0.50000000000E+02  0.00000000000E+00 0. -1.
        -11   -1    0    0    0    0 -0.00000000000E+00 -0.00000000000E+00 -0.50000000000E+02  0.50000000000E+02  0.00000000000E+00 0.  1.
         23    2    1    2    0    0  0.00000000000E+00  0.00000000000E+00  0.00000000000E+00  0.10000000000E+03  0.10000000000E+03 0.  0.
          5    1    3    3  501    0 -0.13826014859E+02  0.20412106042E+01  0.47776403929E+02  0.50000000000E+02  0.47000000000E+01 0. -1.
         -5    1    3    3    0  501  0.13826014859E+02 -0.20412106042E+01 -0.47776403929E+02  0.50000000000E+02  0.47000000000E+01 0.  1.
</event>
<event>
 5    1  0.8909620E-001  0.1000000E+03  0.7546771E-02  0.1163815E+00
         11   -1    0    0    0    0  0.00000000000E+00  0.00000000000E+00  0.50000000000E+02  0.50000000000E+02  0.00000000000E+00 0. -1.
        -11   -1    0    0    0    0 -0.00000000000E+00 -0.00000000000E+00 -0.50000000000E+02  0.50000000000E+02  0.00000000000E+00 0.  1.
         23    2    1    2    0    0  0.00000000000E+00  0.00000000000E+00  0.00000000000E+00  0.10000000000E+03  0.10000000000E+03 0.  0.
          5    1    3    3  501    0  0.29085735984E+01 -0.34290902354E+02  0.35966431785E+02  0.50000000000E+02  0.47000000000E+01 0. -1.
         -5    1    3    3    0  501 -0.29085735984E+01  0.34290902354E+02 -0.35966431785E+02  0.50000000000E+02  0.47000000000E+01 0.  1.
</event>
<event>
 5    1  0.8909620E-001  0.1000000E+03  0.7546771E-02  0.1163815E+00
         11   -1    0    0    0    0  0.00000000000E+00  0.00000000000E+00  0.50000000000E+02  0.50000000000E+02  0.00000000000E+00 0.  1.
        -11   -1    0    0    0    0 -0.00000000000E+00 -0.00000000000E+00 -0.50000000000E+02  0.50000000000E+02  0.00000000000E+00 0. -1.
         23    2    1    2    0    0  0.00000000000E+00  0.00000000000E+00  0.00000000000E+00  0.10000000000E+03  0.10000000000E+03 0.  0.
          5    1    3    3  501    0 -0.46725868757E+02 -0.22379986851E+01  0.17017477803E+02  0.50000000000E+02  0.47000000000E+01 0. -1.
         -5    1    3    3    0  501  0.46725868757E+02  0.22379986851E+01 -0.17017477803E+02  0.50000000000E+02  0.47000000000E+01 0.  1.
</event>
<event>
 5    1  0.8909620E-001  0.1000000E+03  0.7546771E-02  0.1163815E+00
         11   -1    0    0    0    0  0.00000000000E+00  0.00000000000E+00  0.50000000000E+02  0.50000000000E+02  0.00000000000E+00 0. -1.
        -11   -1    0    0    0    0 -0.00000000000E+00 -0.00000000000E+00 -0.50000000000E+02  0.50000000000E+02  0.00000000000E+00 0.  1.
         23    2    1    2    0    0  0.00000000000E+00  0.00000000000E+00  0.00000000000E+00  0.10000000000E+03  0.10000000000E+03 0.  0.
          5    1    3    3  501    0  0.79455272835E+01 -0.49129501262E+02  0.10347472743E+01  0.50000000000E+02  0.47000000000E+01 0. -1.
         -5    1    3    3    0  501 -0.79455272835E+01  0.49129501262E+02 -0.10347472743E+01  0.50000000000E+02  0.47000000000E+01 0.  1.
</event>
<event>
 5    1  0.8909620E-001  0.1000000E+03  0.7546771E-02  0.1163815E+00
         11   -1    0    0    0    0  0.00000000000E+00  0.00000000000E+00  0.50000000000E+02  0.50000000000E+02  0.00000000000E+00 0. -1.
        -11   -1    0    0    0    0 -0.00000000000E+00 -0.00000000000E+00 -0.50000000000E+02  0.50000000000E+02  0.00000000000E+00 0.  1.
         23    2    1    2    0    0  0.00000000000E+00  0.00000000000E+00  0.00000000000E+00  0.10000000000E+03  0.10000000000E+03 0.  0.
          5    1    3    3  501    0  0.44267576594E+02 -0.12607910362E+02  0.18956061269E+02  0.50000000000E+02  0.47000000000E+01 0. -1.
         -5    1    3    3    0  501 -0.44267576594E+02  0.12607910362E+02 -0.18956061269E+02  0.50000000000E+02  0.47000000000E+01 0.  1.
</event>
<event>
 5    1  0.8909620E-001  0.1000000E+03  0.7546771E-02  0.1163815E+00
         11   -1    0    0    0    0  0.00000000000E+00  0.00000000000E+00  0.50000000000E+02  0.50000000000E+02  0.00000000000E+00 0. -1.
        -11   -1    0    0    0    0 -0.00000000000E+00 -0.00000000000E+00 -0.50000000000E+02  0.50000000000E+02  0.00000000000E+00 0.  1.
         23    2    1    2    0    0  0.00000000000E+00  0.00000000000E+00  0.00000000000E+00  0.10000000000E+03  0.10000000000E+03 0.  0.
          5    1    3    3  501    0 -0.44018253125E+02  0.50897738765E+01  0.22680334956E+02  0.50000000000E+02  0.47000000000E+01 0. -1.
         -5    1    3    3    0  501  0.44018253125E+02 -0.50897738765E+01 -0.22680334956E+02  0.50000000000E+02  0.47000000000E+01 0.  1.
</event>
<event>
 5    1  0.8909620E-001  0.1000000E+03  0.7546771E-02  0.1163815E+00
         11   -1    0    0    0    0  0.00000000000E+00  0.00000000000E+00  0.50000000000E+02  0.50000000000E+02  0.00000000000E+00 0.  1.
        -11   -1    0    0    0    0 -0.00000000000E+00 -0.00000000000E+00 -0.50000000000E+02  0.50000000000E+02  0.00000000000E+00 0. -1.
         23    2    1    2    0    0  0.00000000000E+00  0.00000000000E+00  0.00000000000E+00  0.10000000000E+03  0.10000000000E+03 0.  0.
          5    1    3    3  501    0  0.30551591173E+02 -0.26125968549E+02 -0.29358883565E+02  0.50000000000E+02  0.47000000000E+01 0. -1.
         -5    1    3    3    0  501 -0.30551591173E+02  0.26125968549E+02  0.29358883565E+02  0.50000000000E+02  0.47000000000E+01 0.  1.
</event>
<event>
 5    1  0.8909620E-001  0.1000000E+03  0.7546771E-02  0.1163815E+00
         11   -1    0    0    0    0  0.00000000000E+00  0.00000000000E+00  0.50000000000E+02  0.50000000000E+02  0.00000000000E+00 0.  1.
        -11   -1    0    0    0    0 -0.00000000000E+00 -0.00000000000E+00 -0.50000000000E+02  0.50000000000E+02  0.00000000000E+00 0. -1.
         23    2    1    2    0    0  0.00000000000E+00  0.00000000000E+00  0.00000000000E+00  0.10000000000E+03  0.10000000000E+03 0.  0.
          5    1    3    3  501    0  0.39501903953E+02  0.16697453734E+02  0.25272606175E+02  0.50000000000E+02  0.47000000000E+01 0.  1.
         -5    1    3    3    0  501 -0.39501903953E+02 -0.16697453734E+02 -0.25272606175E+02  0.50000000000E+02  0.47000000000E+01 0. -1.
</event>
<event>
 5    1  0.8909620E-001  0.1000000E+03  0.7546771E-02  0.1163815E+00
         11   -1    0    0    0    0  0.00000000000E+00  0.00000000000E+00  0.50000000000E+02  0.50000000000E+02  0.00000000000E+00 0.  1.
        -11   -1    0    0    0    0 -0.00000000000E+00 -0.00000000000E+00 -0.50000000000E+02  0.50000000000E+02  0.00000000000E+00 0. -1.
         23    2    1    2    0    0  0.00000000000E+00  0.00000000000E+00  0.00000000000E+00  0.10000000000E+03  0.10000000000E+03 0.  0.
          5    1    3    3  501    0 -0.23021698940E+02 -0.39054644172E+02 -0.20558359529E+02  0.50000000000E+02  0.47000000000E+01 0. -1.
         -5    1    3    3    0  501  0.23021698940E+02  0.39054644172E+02  0.20558359529E+02  0.50000000000E+02  0.47000000000E+01 0.  1.
</event>
<event>
 5    1  0.8909620E-001  0.1000000E+03  0.7546771E-02  0.1163815E+00
         11   -1    0    0    0    0  0.00000000000E+00  0.00000000000E+00  0.50000000000E+02  0.50000000000E+02  0.00000000000E+00 0.  1.
        -11   -1    0    0    0    0 -0.00000000000E+00 -0.00000000000E+00 -0.50000000000E+02  0.50000000000E+02  0.00000000000E+00 0. -1.
         23    2    1    2    0    0  0.00000000000E+00  0.00000000000E+00  0.00000000000E+00  0.10000000000E+03  0.10000000000E+03 0.  0.
          5    1    3    3  501    0 -0.11359461575E+02  0.24864478146E+01 -0.48401345126E+02  0.50000000000E+02  0.47000000000E+01 0. -1.
         -5    1    3    3    0  501  0.11359461575E+02 -0.24864478146E+01  0.48401345126E+02  0.50000000000E+02  0.47000000000E+01 0.  1.
</event>
<event>
 5    1  0.8909620E-001  0.1000000E+03  0.7546771E-02  0.1163815E+00
         11   -1    0    0    0    0  0.00000000000E+00  0.00000000000E+00  0.50000000000E+02  0.50000000000E+02  0.00000000000E+00 0. -1.
        -11   -1    0    0    0    0 -0.00000000000E+00 -0.00000000000E+00 -0.50000000000E+02  0.50000000000E+02  0.00000000000E+00 0.  1.
         23    2    1    2    0    0  0.00000000000E+00  0.00000000000E+00  0.00000000000E+00  0.10000000000E+03  0.10000000000E+03 0.  0.
          5    1    3    3  501    0 -0.35753440583E+01 -0.40063434153E+02  0.29326577686E+02  0.50000000000E+02  0.47000000000E+01 0. -1.
         -5    1    3    3    0  501  0.35753440583E+01  0.40063434153E+02 -0.29326577686E+02  0.50000000000E+02  0.47000000000E+01 0.  1.
</event>
<event>
 5    1  0.8909620E-001  0.1000000E+03  0.7546771E-02  0.1163815E+00
         11   -1    0    0    0    0  0.00000000000E+00  0.00000000000E+00  0.50000000000E+02  0.50000000000E+02  0.00000000000E+00 0. -1.
        -11   -1    0    0    0    0 -0.00000000000E+00 -0.00000000000E+00 -0.50000000000E+02  0.50000000000E+02  0.00000000000E+00 0.  1.
         23    2    1    2    0    0  0.00000000000E+00  0.00000000000E+00  0.00000000000E+00  0.10000000000E+03  0.10000000000E+03 0.  0.
          5    1    3    3  501    0 -0.31907546119E+02 -0.94453462159E+01  0.37021668460E+02  0.50000000000E+02  0.47000000000E+01 0. -1.
         -5    1    3    3    0  501  0.31907546119E+02  0.94453462159E+01 -0.37021668460E+02  0.50000000000E+02  0.47000000000E+01 0.  1.
</event>
<event>
 5    1  0.8909620E-001  0.1000000E+03  0.7546771E-02  0.1163815E+00
         11   -1    0    0    0    0  0.00000000000E+00  0.00000000000E+00  0.50000000000E+02  0.50000000000E+02  0.00000000000E+00 0. -1.
        -11   -1    0    0    0    0 -0.00000000000E+00 -0.00000000000E+00 -0.50000000000E+02  0.50000000000E+02  0.00000000000E+00 0.  1.
         23    2    1    2    0    0  0.00000000000E+00  0.00000000000E+00  0.00000000000E+00  0.10000000000E+03  0.10000000000E+03 0.  0.
          5    1    3    3  501    0  0.22574727682E+01  0.34734915298E+02 -0.35585101882E+02  0.50000000000E+02  0.47000000000E+01 0. -1.
         -5    1    3    3    0  501 -0.22574727682E+01 -0.34734915298E+02  0.35585101882E+02  0.50000000000E+02  0.47000000000E+01 0.  1.
</event>
<event>
 5    1  0.8909620E-001  0.1000000E+03  0.7546771E-02  0.1163815E+00
         11   -1    0    0    0    0  0.00000000000E+00  0.00000000000E+00  0.50000000000E+02  0.50000000000E+02  0.00000000000E+00 0. -1.
        -11   -1    0    0    0    0 -0.00000000000E+00 -0.00000000000E+00 -0.50000000000E+02  0.50000000000E+02  0.00000000000E+00 0.  1.
         23    2    1    2    0    0  0.00000000000E+00  0.00000000000E+00  0.00000000000E+00  0.10000000000E+03  0.10000000000E+03 0.  0.
          5    1    3    3  501    0  0.40754799102E+01 -0.70455766910E+01  0.49108658224E+02  0.50000000000E+02  0.47000000000E+01 0. -1.
         -5    1    3    3    0  501 -0.40754799102E+01  0.70455766910E+01 -0.49108658224E+02  0.50000000000E+02  0.47000000000E+01 0.  1.
</event>
<event>
 5    1  0.8909620E-001  0.1000000E+03  0.7546771E-02  0.1163815E+00
         11   -1    0    0    0    0  0.00000000000E+00  0.00000000000E+00  0.50000000000E+02  0.50000000000E+02  0.00000000000E+00 0. -1.
        -11   -1    0    0    0    0 -0.00000000000E+00 -0.00000000000E+00 -0.50000000000E+02  0.50000000000E+02  0.00000000000E+00 0.  1.
         23    2    1    2    0    0  0.00000000000E+00  0.00000000000E+00  0.00000000000E+00  0.10000000000E+03  0.10000000000E+03 0.  0.
          5    1    3    3  501    0 -0.21624841072E+02  0.71543510323E+01  0.44261625703E+02  0.50000000000E+02  0.47000000000E+01 0. -1.
         -5    1    3    3    0  501  0.21624841072E+02 -0.71543510323E+01 -0.44261625703E+02  0.50000000000E+02  0.47000000000E+01 0.  1.
</event>
<event>
 5    1  0.8909620E-001  0.1000000E+03  0.7546771E-02  0.1163815E+00
         11   -1    0    0    0    0  0.00000000000E+00  0.00000000000E+00  0.50000000000E+02  0.50000000000E+02  0.00000000000E+00 0.  1.
        -11   -1    0    0    0    0 -0.00000000000E+00 -0.00000000000E+00 -0.50000000000E+02  0.50000000000E+02  0.00000000000E+00 0. -1.
         23    2    1    2    0    0  0.00000000000E+00  0.00000000000E+00  0.00000000000E+00  0.10000000000E+03  0.10000000000E+03 0.  0.
          5    1    3    3  501    0  0.42136880124E+02  0.84039267541E+01  0.25134982565E+02  0.50000000000E+02  0.47000000000E+01 0.  1.
         -5    1    3    3    0  501 -0.42136880124E+02 -0.84039267541E+01 -0.25134982565E+02  0.50000000000E+02  0.47000000000E+01 0. -1.
</event>
<event>
 5    1  0.8909620E-001  0.1000000E+03  0.7546771E-02  0.1163815E+00
         11   -1    0    0    0    0  0.00000000000E+00  0.00000000000E+00  0.50000000000E+02  0.50000000000E+02  0.00000000000E+00 0. -1.
        -11   -1    0    0    0    0 -0.00000000000E+00 -0.00000000000E+00 -0.50000000000E+02  0.50000000000E+02  0.00000000000E+00 0.  1.
         23    2    1    2    0    0  0.00000000000E+00  0.00000000000E+00  0.00000000000E+00  0.10000000000E+03  0.10000000000E+03 0.  0.
          5    1    3    3  501    0 -0.45062067170E+02 -0.10891960199E+02 -0.18129680233E+02  0.50000000000E+02  0.47000000000E+01 0. -1.
         -5    1    3    3    0  501  0.45062067170E+02  0.10891960199E+02  0.18129680233E+02  0.50000000000E+02  0.47000000000E+01 0.  1.
</event>
<event>
 5    1  0.8909620E-001  0.1000000E+03  0.7546771E-02  0.1163815E+00
         11   -1    0    0    0    0  0.00000000000E+00  0.00000000000E+00  0.50000000000E+02  0.50000000000E+02  0.00000000000E+00 0.  1.
        -11   -1    0    0    0    0 -0.00000000000E+00 -0.00000000000E+00 -0.50000000000E+02  0.50000000000E+02  0.00000000000E+00 0. -1.
         23    2    1    2    0    0  0.00000000000E+00  0.00000000000E+00  0.00000000000E+00  0.10000000000E+03  0.10000000000E+03 0.  0.
          5    1    3    3  501    0 -0.12679061500E+02  0.21480293423E+02 -0.43078398229E+02  0.50000000000E+02  0.47000000000E+01 0. -1.
         -5    1    3    3    0  501  0.12679061500E+02 -0.21480293423E+02  0.43078398229E+02  0.50000000000E+02  0.47000000000E+01 0.  1.
</event>
<event>
 5    1  0.8909620E-001  0.1000000E+03  0.7546771E-02  0.1163815E+00
         11   -1    0    0    0    0  0.00000000000E+00  0.00000000000E+00  0.50000000000E+02  0.50000000000E+02  0.00000000000E+00 0.  1.
        -11   -1    0    0    0    0 -0.00000000000E+00 -0.00000000000E+00 -0.50000000000E+02  0.50000000000E+02  0.00000000000E+00 0. -1.
         23    2    1    2    0    0  0.00000000000E+00  0.00000000000E+00  0.00000000000E+00  0.10000000000E+03  0.10000000000E+03 0.  0.
          5    1    3    3  501    0 -0.23847101733E+02 -0.39453209853E+02  0.18779509345E+02  0.50000000000E+02  0.47000000000E+01 0.  1.
         -5    1    3    3    0  501  0.23847101733E+02  0.39453209853E+02 -0.18779509345E+02  0.50000000000E+02  0.47000000000E+01 0. -1.
</event>
<event>
 5    1  0.8909620E-001  0.1000000E+03  0.7546771E-02  0.1163815E+00
         11   -1    0    0    0    0  0.00000000000E+00  0.00000000000E+00  0.50000000000E+02  0.50000000000E+02  0.00000000000E+00 0. -1.
        -11   -1    0    0    0    0 -0.00000000000E+00 -0.00000000000E+00 -0.50000000000E+02  0.50000000000E+02  0.00000000000E+00 0.  1.
         23    2    1    2    0    0  0.00000000000E+00  0.00000000000E+00  0.00000000000E+00  0.10000000000E+03  0.10000000000E+03 0.  0.
          5    1    3    3  501    0 -0.10953079726E+02  0.13349872481E+02  0.46687481719E+02  0.50000000000E+02  0.47000000000E+01 0. -1.
         -5    1    3    3    0  501  0.10953079726E+02 -0.13349872481E+02 -0.46687481719E+02  0.50000000000E+02  0.47000000000E+01 0.  1.
</event>
<event>
 5    1  0.8909620E-001  0.1000000E+03  0.7546771E-02  0.1163815E+00
         11   -1    0    0    0    0  0.00000000000E+00  0.00000000000E+00  0.50000000000E+02  0.50000000000E+02  0.00000000000E+00 0.  1.
        -11   -1    0    0    0    0 -0.00000000000E+00 -0.00000000000E+00 -0.50000000000E+02  0.50000000000E+02  0.00000000000E+00 0. -1.
         23    2    1    2    0    0  0.00000000000E+00  0.00000000000E+00  0.00000000000E+00  0.10000000000E+03  0.10000000000E+03 0.  0.
          5    1    3    3  501    0  0.85788700037E+01 -0.44464568918E+02 -0.20669182383E+02  0.50000000000E+02  0.47000000000E+01 0. -1.
         -5    1    3    3    0  501 -0.85788700037E+01  0.44464568918E+02  0.20669182383E+02  0.50000000000E+02  0.47000000000E+01 0.  1.
</event>
<event>
 5    1  0.8909620E-001  0.1000000E+03  0.7546771E-02  0.1163815E+00
         11   -1    0    0    0    0  0.00000000000E+00  0.00000000000E+00  0.50000000000E+02  0.50000000000E+02  0.00000000000E+00 0. -1.
        -11   -1    0    0    0    0 -0.00000000000E+00 -0.00000000000E+00 -0.50000000000E+02  0.50000000000E+02  0.00000000000E+00 0.  1.
         23    2    1    2    0    0  0.00000000000E+00  0.00000000000E+00  0.00000000000E+00  0.10000000000E+03  0.10000000000E+03 0.  0.
          5    1    3    3  501    0  0.43159993545E+01  0.29858575164E+02  0.39594793077E+02  0.50000000000E+02  0.47000000000E+01 0. -1.
         -5    1    3    3    0  501 -0.43159993545E+01 -0.29858575164E+02 -0.39594793077E+02  0.50000000000E+02  0.47000000000E+01 0.  1.
</event>
<event>
 5    1  0.8909620E-001  0.1000000E+03  0.7546771E-02  0.1163815E+00
         11   -1    0    0    0    0  0.00000000000E+00  0.00000000000E+00  0.50000000000E+02  0.50000000000E+02  0.00000000000E+00 0. -1.
        -11   -1    0    0    0    0 -0.00000000000E+00 -0.00000000000E+00 -0.50000000000E+02  0.50000000000E+02  0.00000000000E+00 0.  1.
         23    2    1    2    0    0  0.00000000000E+00  0.00000000000E+00  0.00000000000E+00  0.10000000000E+03  0.10000000000E+03 0.  0.
          5    1    3    3  501    0  0.51426896408E+01 -0.42542982774E+02  0.25328982608E+02  0.50000000000E+02  0.47000000000E+01 0. -1.
         -5    1    3    3    0  501 -0.51426896408E+01  0.42542982774E+02 -0.25328982608E+02  0.50000000000E+02  0.47000000000E+01 0.  1.
</event>
<event>
 5    1  0.8909620E-001  0.1000000E+03  0.7546771E-02  0.1163815E+00
         11   -1    0    0    0    0  0.00000000000E+00  0.00000000000E+00  0.50000000000E+02  0.50000000000E+02  0.00000000000E+00 0. -1.
        -11   -1    0    0    0    0 -0.00000000000E+00 -0.00000000000E+00 -0.50000000000E+02  0.50000000000E+02  0.00000000000E+00 0.  1.
         23    2    1    2    0    0  0.00000000000E+00  0.00000000000E+00  0.00000000000E+00  0.10000000000E+03  0.10000000000E+03 0.  0.
          5    1    3    3  501    0  0.27031619245E+02  0.37174227134E+02  0.19112257795E+02  0.50000000000E+02  0.47000000000E+01 0. -1.
         -5    1    3    3    0  501 -0.27031619245E+02 -0.37174227134E+02 -0.19112257795E+02  0.50000000000E+02  0.47000000000E+01 0.  1.
</event>
<event>
 5    1  0.8909620E-001  0.1000000E+03  0.7546771E-02  0.1163815E+00
         11   -1    0    0    0    0  0.00000000000E+00  0.00000000000E+00  0.50000000000E+02  0.50000000000E+02  0.00000000000E+00 0.  1.
        -11   -1    0    0    0    0 -0.00000000000E+00 -0.00000000000E+00 -0.50000000000E+02  0.50000000000E+02  0.00000000000E+00 0. -1.
         23    2    1    2    0    0  0.00000000000E+00  0.00000000000E+00  0.00000000000E+00  0.10000000000E+03  0.10000000000E+03 0.  0.
          5    1    3    3  501    0  0.25653119676E+02 -0.37361254135E+02 -0.20590389516E+02  0.50000000000E+02  0.47000000000E+01 0. -1.
         -5    1    3    3    0  501 -0.25653119676E+02  0.37361254135E+02  0.20590389516E+02  0.50000000000E+02  0.47000000000E+01 0.  1.
</event>
<event>
 5    1  0.8909620E-001  0.1000000E+03  0.7546771E-02  0.1163815E+00
         11   -1    0    0    0    0  0.00000000000E+00  0.00000000000E+00  0.50000000000E+02  0.50000000000E+02  0.00000000000E+00 0.  1.
        -11   -1    0    0    0    0 -0.00000000000E+00 -0.00000000000E+00 -0.50000000000E+02  0.50000000000E+02  0.00000000000E+00 0. -1.
         23    2    1    2    0    0  0.00000000000E+00  0.00000000000E+00  0.00000000000E+00  0.10000000000E+03  0.10000000000E+03 0.  0.
          5    1    3    3  501    0 -0.14358611990E+02  0.70492698326E+01 -0.47138604737E+02  0.50000000000E+02  0.47000000000E+01 0. -1.
         -5    1    3    3    0  501  0.14358611990E+02 -0.70492698326E+01  0.47138604737E+02  0.50000000000E+02  0.47000000000E+01 0.  1.
</event>
<event>
 5    1  0.8909620E-001  0.1000000E+03  0.7546771E-02  0.1163815E+00
         11   -1    0    0    0    0  0.00000000000E+00  0.00000000000E+00  0.50000000000E+02  0.50000000000E+02  0.00000000000E+00 0. -1.
        -11   -1    0    0    0    0 -0.00000000000E+00 -0.00000000000E+00 -0.50000000000E+02  0.50000000000E+02  0.00000000000E+00 0.  1.
         23    2    1    2    0    0  0.00000000000E+00  0.00000000000E+00  0.00000000000E+00  0.10000000000E+03  0.10000000000E+03 0.  0.
          5    1    3    3  501    0  0.14771972692E+02 -0.34901268108E+02  0.32273833166E+02  0.50000000000E+02  0.47000000000E+01 0. -1.
         -5    1    3    3    0  501 -0.14771972692E+02  0.34901268108E+02 -0.32273833166E+02  0.50000000000E+02  0.47000000000E+01 0.  1.
</event>
<event>
 5    1  0.8909620E-001  0.1000000E+03  0.7546771E-02  0.1163815E+00
         11   -1    0    0    0    0  0.00000000000E+00  0.00000000000E+00  0.50000000000E+02  0.50000000000E+02  0.00000000000E+00 0. -1.
        -11   -1    0    0    0    0 -0.00000000000E+00 -0.00000000000E+00 -0.50000000000E+02  0.50000000000E+02  0.00000000000E+00 0.  1.
         23    2    1    2    0    0  0.00000000000E+00  0.00000000000E+00  0.00000000000E+00  0.10000000000E+03  0.10000000000E+03 0.  0.
          5    1    3    3  501    0  0.13761669482E+02 -0.22855994285E+02  0.42025349235E+02  0.50000000000E+02  0.47000000000E+01 0. -1.
         -5    1    3    3    0  501 -0.13761669482E+02  0.22855994285E+02 -0.42025349235E+02  0.50000000000E+02  0.47000000000E+01 0.  1.
</event>
<event>
 5    1  0.8909620E-001  0.1000000E+03  0.7546771E-02  0.1163815E+00
         11   -1    0    0    0    0  0.00000000000E+00  0.00000000000E+00  0.50000000000E+02  0.50000000000E+02  0.00000000000E+00 0.  1.
        -11   -1    0    0    0    0 -0.00000000000E+00 -0.00000000000E+00 -0.50000000000E+02  0.50000000000E+02  0.00000000000E+00 0. -1.
         23    2    1    2    0    0  0.00000000000E+00  0.00000000000E+00  0.00000000000E+00  0.10000000000E+03  0.10000000000E+03 0.  0.
          5    1    3    3  501    0 -0.81009676472E+01  0.19005097677E+02 -0.45288967591E+02  0.50000000000E+02  0.47000000000E+01 0. -1.
         -5    1    3    3    0  501  0.81009676472E+01 -0.19005097677E+02  0.45288967591E+02  0.50000000000E+02  0.47000000000E+01 0.  1.
</event>
<event>
 5    1  0.8909620E-001  0.1000000E+03  0.7546771E-02  0.1163815E+00
         11   -1    0    0    0    0  0.00000000000E+00  0.00000000000E+00  0.50000000000E+02  0.50000000000E+02  0.00000000000E+00 0. -1.
        -11   -1    0    0    0    0 -0.00000000000E+00 -0.00000000000E+00 -0.50000000000E+02  0.50000000000E+02  0.00000000000E+00 0.  1.
         23    2    1    2    0    0  0.00000000000E+00  0.00000000000E+00  0.00000000000E+00  0.10000000000E+03  0.10000000000E+03 0.  0.
          5    1    3    3  501    0  0.23230187351E+02 -0.43708621646E+02  0.52749208024E+01  0.50000000000E+02  0.47000000000E+01 0. -1.
         -5    1    3    3    0  501 -0.23230187351E+02  0.43708621646E+02 -0.52749208024E+01  0.50000000000E+02  0.47000000000E+01 0.  1.
</event>
<event>
 5    1  0.8909620E-001  0.1000000E+03  0.7546771E-02  0.1163815E+00
         11   -1    0    0    0    0  0.00000000000E+00  0.00000000000E+00  0.50000000000E+02  0.50000000000E+02  0.00000000000E+00 0. -1.
        -11   -1    0    0    0    0 -0.00000000000E+00 -0.00000000000E+00 -0.50000000000E+02  0.50000000000E+02  0.00000000000E+00 0.  1.
         23    2    1    2    0    0  0.00000000000E+00  0.00000000000E+00  0.00000000000E+00  0.10000000000E+03  0.10000000000E+03 0.  0.
          5    1    3    3  501    0 -0.15769431694E+02  0.46668013488E+02 -0.71646033470E+01  0.50000000000E+02  0.47000000000E+01 0. -1.
         -5    1    3    3    0  501  0.15769431694E+02 -0.46668013488E+02  0.71646033470E+01  0.50000000000E+02  0.47000000000E+01 0.  1.
</event>
<event>
 5    1  0.8909620E-001  0.1000000E+03  0.7546771E-02  0.1163815E+00
         11   -1    0    0    0    0  0.00000000000E+00  0.00000000000E+00  0.50000000000E+02  0.50000000000E+02  0.00000000000E+00 0.  1.
        -11   -1    0    0    0    0 -0.00000000000E+00 -0.00000000000E+00 -0.50000000000E+02  0.50000000000E+02  0.00000000000E+00 0. -1.
         23    2    1    2    0    0  0.00000000000E+00  0.00000000000E+00  0.00000000000E+00  0.10000000000E+03  0.10000000000E+03 0.  0.
          5    1    3    3  501    0  0.29570819587E+02 -0.32840468495E+02 -0.22912447665E+02  0.50000000000E+02  0.47000000000E+01 0. -1.
         -5    1    3    3    0  501 -0.29570819587E+02  0.32840468495E+02  0.22912447665E+02  0.50000000000E+02  0.47000000000E+01 0.  1.
</event>
<event>
 5    1  0.8909620E-001  0.1000000E+03  0.7546771E-02  0.1163815E+00
         11   -1    0    0    0    0  0.00000000000E+00  0.00000000000E+00  0.50000000000E+02  0.50000000000E+02  0.00000000000E+00 0.  1.
        -11   -1    0    0    0    0 -0.00000000000E+00 -0.00000000000E+00 -0.50000000000E+02  0.50000000000E+02  0.00000000000E+00 0. -1.
         23    2    1    2    0    0  0.00000000000E+00  0.00000000000E+00  0.00000000000E+00  0.10000000000E+03  0.10000000000E+03 0.  0.
          5    1    3    3  501    0 -0.18944499872E+01  0.47889002824E+02  0.13452303436E+02  0.50000000000E+02  0.47000000000E+01 0.  1.
         -5    1    3    3    0  501  0.18944499872E+01 -0.47889002824E+02 -0.13452303436E+02  0.50000000000E+02  0.47000000000E+01 0. -1.
</event>
<event>
 5    1  0.8909620E-001  0.1000000E+03  0.7546771E-02  0.1163815E+00
         11   -1    0    0    0    0  0.00000000000E+00  0.00000000000E+00  0.50000000000E+02  0.50000000000E+02  0.00000000000E+00 0.  1.
        -11   -1    0    0    0    0 -0.00000000000E+00 -0.00000000000E+00 -0.50000000000E+02  0.50000000000E+02  0.00000000000E+00 0. -1.
         23    2    1    2    0    0  0.00000000000E+00  0.00000000000E+00  0.00000000000E+00  0.10000000000E+03  0.10000000000E+03 0.  0.
          5    1    3    3  501    0  0.13085672506E+02  0.53435440330E+01 -0.47729673288E+02  0.50000000000E+02  0.47000000000E+01 0. -1.
         -5    1    3    3    0  501 -0.13085672506E+02 -0.53435440330E+01  0.47729673288E+02  0.50000000000E+02  0.47000000000E+01 0.  1.
</event>
<event>
 5    1  0.8909620E-001  0.1000000E+03  0.7546771E-02  0.1163815E+00
         11   -1    0    0    0    0  0.00000000000E+00  0.00000000000E+00  0.50000000000E+02  0.50000000000E+02  0.00000000000E+00 0. -1.
        -11   -1    0    0    0    0 -0.00000000000E+00 -0.00000000000E+00 -0.50000000000E+02  0.50000000000E+02  0.00000000000E+00 0.  1.
         23    2    1    2    0    0  0.00000000000E+00  0.00000000000E+00  0.00000000000E+00  0.10000000000E+03  0.10000000000E+03 0.  0.
          5    1    3    3  501    0 -0.28190257890E+02  0.37322886852E+02  0.17035887918E+02  0.50000000000E+02  0.47000000000E+01 0. -1.
         -5    1    3    3    0  501  0.28190257890E+02 -0.37322886852E+02 -0.17035887918E+02  0.50000000000E+02  0.47000000000E+01 0.  1.
</event>
<event>
 5    1  0.8909620E-001  0.1000000E+03  0.7546771E-02  0.1163815E+00
         11   -1    0    0    0    0  0.00000000000E+00  0.00000000000E+00  0.50000000000E+02  0.50000000000E+02  0.00000000000E+00 0.  1.
        -11   -1    0    0    0    0 -0.00000000000E+00 -0.00000000000E+00 -0.50000000000E+02  0.50000000000E+02  0.00000000000E+00 0. -1.
         23    2    1    2    0    0  0.00000000000E+00  0.00000000000E+00  0.00000000000E+00  0.10000000000E+03  0.10000000000E+03 0.  0.
          5    1    3    3  501    0  0.31895246458E+02  0.29730104709E+02 -0.24015081249E+02  0.50000000000E+02  0.47000000000E+01 0. -1.
         -5    1    3    3    0  501 -0.31895246458E+02 -0.29730104709E+02  0.24015081249E+02  0.50000000000E+02  0.47000000000E+01 0.  1.
</event>
<event>
 5    1  0.8909620E-001  0.1000000E+03  0.7546771E-02  0.1163815E+00
         11   -1    0    0    0    0  0.00000000000E+00  0.00000000000E+00  0.50000000000E+02  0.50000000000E+02  0.00000000000E+00 0.  1.
        -11   -1    0    0    0    0 -0.00000000000E+00 -0.00000000000E+00 -0.50000000000E+02  0.50000000000E+02  0.00000000000E+00 0. -1.
         23    2    1    2    0    0  0.00000000000E+00  0.00000000000E+00  0.00000000000E+00  0.10000000000E+03  0.10000000000E+03 0.  0.
          5    1    3    3  501    0 -0.29104837452E+02  0.31719879455E+02 -0.24993352802E+02  0.50000000000E+02  0.47000000000E+01 0. -1.
         -5    1    3    3    0  501  0.29104837452E+02 -0.31719879455E+02  0.24993352802E+02  0.50000000000E+02  0.47000000000E+01 0.  1.
</event>
<event>
 5    1  0.8909620E-001  0.1000000E+03  0.7546771E-02  0.1163815E+00
         11   -1    0    0    0    0  0.00000000000E+00  0.00000000000E+00  0.50000000000E+02  0.50000000000E+02  0.00000000000E+00 0. -1.
        -11   -1    0    0    0    0 -0.00000000000E+00 -0.00000000000E+00 -0.50000000000E+02  0.50000000000E+02  0.00000000000E+00 0.  1.
         23    2    1    2    0    0  0.00000000000E+00  0.00000000000E+00  0.00000000000E+00  0.10000000000E+03  0.10000000000E+03 0.  0.
          5    1    3    3  501    0 -0.41542266815E+02 -0.68711174333E+00  0.27416745711E+02  0.50000000000E+02  0.47000000000E+01 0. -1.
         -5    1    3    3    0  501  0.41542266815E+02  0.68711174333E+00 -0.27416745711E+02  0.50000000000E+02  0.47000000000E+01 0.  1.
</event>
<event>
 5    1  0.8909620E-001  0.1000000E+03  0.7546771E-02  0.1163815E+00
         11   -1    0    0    0    0  0.00000000000E+00  0.00000000000E+00  0.50000000000E+02  0.50000000000E+02  0.00000000000E+00 0. -1.
        -11   -1    0    0    0    0 -0.00000000000E+00 -0.00000000000E+00 -0.50000000000E+02  0.50000000000E+02  0.00000000000E+00 0.  1.
         23    2    1    2    0    0  0.00000000000E+00  0.00000000000E+00  0.00000000000E+00  0.10000000000E+03  0.10000000000E+03 0.  0.
          5    1    3    3  501    0  0.44974242465E+02  0.21148052089E+02 -0.28262001965E+01  0.50000000000E+02  0.47000000000E+01 0. -1.
         -5    1    3    3    0  501 -0.44974242465E+02 -0.21148052089E+02  0.28262001965E+01  0.50000000000E+02  0.47000000000E+01 0.  1.
</event>
<event>
 5    1  0.8909620E-001  0.1000000E+03  0.7546771E-02  0.1163815E+00
         11   -1    0    0    0    0  0.00000000000E+00  0.00000000000E+00  0.50000000000E+02  0.50000000000E+02  0.00000000000E+00 0. -1.
        -11   -1    0    0    0    0 -0.00000000000E+00 -0.00000000000E+00 -0.50000000000E+02  0.50000000000E+02  0.00000000000E+00 0.  1.
         23    2    1    2    0    0  0.00000000000E+00  0.00000000000E+00  0.00000000000E+00  0.10000000000E+03  0.10000000000E+03 0.  0.
          5    1    3    3  501    0 -0.34936518227E+02 -0.92722172783E+01  0.34225366045E+02  0.50000000000E+02  0.47000000000E+01 0. -1.
         -5    1    3    3    0  501  0.34936518227E+02  0.92722172783E+01 -0.34225366045E+02  0.50000000000E+02  0.47000000000E+01 0.  1.
</event>
<event>
 5    1  0.8909620E-001  0.1000000E+03  0.7546771E-02  0.1163815E+00
         11   -1    0    0    0    0  0.00000000000E+00  0.00000000000E+00  0.50000000000E+02  0.50000000000E+02  0.00000000000E+00 0. -1.
        -11   -1    0    0    0    0 -0.00000000000E+00 -0.00000000000E+00 -0.50000000000E+02  0.50000000000E+02  0.00000000000E+00 0.  1.
         23    2    1    2    0    0  0.00000000000E+00  0.00000000000E+00  0.00000000000E+00  0.10000000000E+03  0.10000000000E+03 0.  0.
          5    1    3    3  501    0  0.27368259525E+02 -0.18288209743E+02  0.37342064150E+02  0.50000000000E+02  0.47000000000E+01 0. -1.
         -5    1    3    3    0  501 -0.27368259525E+02  0.18288209743E+02 -0.37342064150E+02  0.50000000000E+02  0.47000000000E+01 0.  1.
</event>
<event>
 5    1  0.8909620E-001  0.1000000E+03  0.7546771E-02  0.1163815E+00
         11   -1    0    0    0    0  0.00000000000E+00  0.00000000000E+00  0.50000000000E+02  0.50000000000E+02  0.00000000000E+00 0.  1.
        -11   -1    0    0    0    0 -0.00000000000E+00 -0.00000000000E+00 -0.50000000000E+02  0.50000000000E+02  0.00000000000E+00 0. -1.
         23    2    1    2    0    0  0.00000000000E+00  0.00000000000E+00  0.00000000000E+00  0.10000000000E+03  0.10000000000E+03 0.  0.
          5    1    3    3  501    0  0.20940389460E+02  0.28360706104E+02 -0.35143711223E+02  0.50000000000E+02  0.47000000000E+01 0. -1.
         -5    1    3    3    0  501 -0.20940389460E+02 -0.28360706104E+02  0.35143711223E+02  0.50000000000E+02  0.47000000000E+01 0.  1.
</event>
<event>
 5    1  0.8909620E-001  0.1000000E+03  0.7546771E-02  0.1163815E+00
         11   -1    0    0    0    0  0.00000000000E+00  0.00000000000E+00  0.50000000000E+02  0.50000000000E+02  0.00000000000E+00 0. -1.
        -11   -1    0    0    0    0 -0.00000000000E+00 -0.00000000000E+00 -0.50000000000E+02  0.50000000000E+02  0.00000000000E+00 0.  1.
         23    2    1    2    0    0  0.00000000000E+00  0.00000000000E+00  0.00000000000E+00  0.10000000000E+03  0.10000000000E+03 0.  0.
          5    1    3    3  501    0  0.26414657208E+01 -0.28046919121E+02  0.41040260558E+02  0.50000000000E+02  0.47000000000E+01 0. -1.
         -5    1    3    3    0  501 -0.26414657208E+01  0.28046919121E+02 -0.41040260558E+02  0.50000000000E+02  0.47000000000E+01 0.  1.
</event>
<event>
 5    1  0.8909620E-001  0.1000000E+03  0.7546771E-02  0.1163815E+00
         11   -1    0    0    0    0  0.00000000000E+00  0.00000000000E+00  0.50000000000E+02  0.50000000000E+02  0.00000000000E+00 0. -1.
        -11   -1    0    0    0    0 -0.00000000000E+00 -0.00000000000E+00 -0.50000000000E+02  0.50000000000E+02  0.00000000000E+00 0.  1.
         23    2    1    2    0    0  0.00000000000E+00  0.00000000000E+00  0.00000000000E+00  0.10000000000E+03  0.10000000000E+03 0.  0.
          5    1    3    3  501    0 -0.35369365056E+02 -0.14973945124E+02  0.31665422514E+02  0.50000000000E+02  0.47000000000E+01 0. -1.
         -5    1    3    3    0  501  0.35369365056E+02  0.14973945124E+02 -0.31665422514E+02  0.50000000000E+02  0.47000000000E+01 0.  1.
</event>
<event>
 5    1  0.8909620E-001  0.1000000E+03  0.7546771E-02  0.1163815E+00
         11   -1    0    0    0    0  0.00000000000E+00  0.00000000000E+00  0.50000000000E+02  0.50000000000E+02  0.00000000000E+00 0. -1.
        -11   -1    0    0    0    0 -0.00000000000E+00 -0.00000000000E+00 -0.50000000000E+02  0.50000000000E+02  0.00000000000E+00 0.  1.
         23    2    1    2    0    0  0.00000000000E+00  0.00000000000E+00  0.00000000000E+00  0.10000000000E+03  0.10000000000E+03 0.  0.
          5    1    3    3  501    0 -0.13278877627E+02  0.24520615318E+02  0.41234946749E+02  0.50000000000E+02  0.47000000000E+01 0. -1.
         -5    1    3    3    0  501  0.13278877627E+02 -0.24520615318E+02 -0.41234946749E+02  0.50000000000E+02  0.47000000000E+01 0.  1.
</event>
<event>
 5    1  0.8909620E-001  0.1000000E+03  0.7546771E-02  0.1163815E+00
         11   -1    0    0    0    0  0.00000000000E+00  0.00000000000E+00  0.50000000000E+02  0.50000000000E+02  0.00000000000E+00 0. -1.
        -11   -1    0    0    0    0 -0.00000000000E+00 -0.00000000000E+00 -0.50000000000E+02  0.50000000000E+02  0.00000000000E+00 0.  1.
         23    2    1    2    0    0  0.00000000000E+00  0.00000000000E+00  0.00000000000E+00  0.10000000000E+03  0.10000000000E+03 0.  0.
          5    1    3    3  501    0  0.25075254371E+02  0.21909070855E+02  0.37001813908E+02  0.50000000000E+02  0.47000000000E+01 0. -1.
         -5    1    3    3    0  501 -0.25075254371E+02 -0.21909070855E+02 -0.37001813908E+02  0.50000000000E+02  0.47000000000E+01 0.  1.
</event>
<event>
 5    1  0.8909620E-001  0.1000000E+03  0.7546771E-02  0.1163815E+00
         11   -1    0    0    0    0  0.00000000000E+00  0.00000000000E+00  0.50000000000E+02  0.50000000000E+02  0.00000000000E+00 0.  1.
        -11   -1    0    0    0    0 -0.00000000000E+00 -0.00000000000E+00 -0.50000000000E+02  0.50000000000E+02  0.00000000000E+00 0. -1.
         23    2    1    2    0    0  0.00000000000E+00  0.00000000000E+00  0.00000000000E+00  0.10000000000E+03  0.10000000000E+03 0.  0.
          5    1    3    3  501    0  0.25617002816E+02  0.30344776462E+02 -0.30014558271E+02  0.50000000000E+02  0.47000000000E+01 0. -1.
         -5    1    3    3    0  501 -0.25617002816E+02 -0.30344776462E+02  0.30014558271E+02  0.50000000000E+02  0.47000000000E+01 0.  1.
</event>
<event>
 5    1  0.8909620E-001  0.1000000E+03  0.7546771E-02  0.1163815E+00
         11   -1    0    0    0    0  0.00000000000E+00  0.00000000000E+00  0.50000000000E+02  0.50000000000E+02  0.00000000000E+00 0.  1.
        -11   -1    0    0    0    0 -0.00000000000E+00 -0.00000000000E+00 -0.50000000000E+02  0.50000000000E+02  0.00000000000E+00 0. -1.
         23    2    1    2    0    0  0.00000000000E+00  0.00000000000E+00  0.00000000000E+00  0.10000000000E+03  0.10000000000E+03 0.  0.
          5    1    3    3  501    0  0.23732193593E+02 -0.28610771319E+02 -0.33107653976E+02  0.50000000000E+02  0.47000000000E+01 0. -1.
         -5    1    3    3    0  501 -0.23732193593E+02  0.28610771319E+02  0.33107653976E+02  0.50000000000E+02  0.47000000000E+01 0.  1.
</event>
<event>
 5    1  0.8909620E-001  0.1000000E+03  0.7546771E-02  0.1163815E+00
         11   -1    0    0    0    0  0.00000000000E+00  0.00000000000E+00  0.50000000000E+02  0.50000000000E+02  0.00000000000E+00 0.  1.
        -11   -1    0    0    0    0 -0.00000000000E+00 -0.00000000000E+00 -0.50000000000E+02  0.50000000000E+02  0.00000000000E+00 0. -1.
         23    2    1    2    0    0  0.00000000000E+00  0.00000000000E+00  0.00000000000E+00  0.10000000000E+03  0.10000000000E+03 0.  0.
          5    1    3    3  501    0 -0.46369621841E+02 -0.17011726187E+02 -0.61942991896E+01  0.50000000000E+02  0.47000000000E+01 0. -1.
         -5    1    3    3    0  501  0.46369621841E+02  0.17011726187E+02  0.61942991896E+01  0.50000000000E+02  0.47000000000E+01 0.  1.
</event>
<event>
 5    1  0.8909620E-001  0.1000000E+03  0.7546771E-02  0.1163815E+00
         11   -1    0    0    0    0  0.00000000000E+00  0.00000000000E+00  0.50000000000E+02  0.50000000000E+02  0.00000000000E+00 0. -1.
        -11   -1    0    0    0    0 -0.00000000000E+00 -0.00000000000E+00 -0.50000000000E+02  0.50000000000E+02  0.00000000000E+00 0.  1.
         23    2    1    2    0    0  0.00000000000E+00  0.00000000000E+00  0.00000000000E+00  0.10000000000E+03  0.10000000000E+03 0.  0.
          5    1    3    3  501    0 -0.48629385011E+02  0.63197072610E+01  0.85530236535E+01  0.50000000000E+02  0.47000000000E+01 0. -1.
         -5    1    3    3    0  501  0.48629385011E+02 -0.63197072610E+01 -0.85530236535E+01  0.50000000000E+02  0.47000000000E+01 0.  1.
</event>
<event>
 5    1  0.8909620E-001  0.1000000E+03  0.7546771E-02  0.1163815E+00
         11   -1    0    0    0    0  0.00000000000E+00  0.00000000000E+00  0.50000000000E+02  0.50000000000E+02  0.00000000000E+00 0. -1.
        -11   -1    0    0    0    0 -0.00000000000E+00 -0.00000000000E+00 -0.50000000000E+02  0.50000000000E+02  0.00000000000E+00 0.  1.
         23    2    1    2    0    0  0.00000000000E+00  0.00000000000E+00  0.00000000000E+00  0.10000000000E+03  0.10000000000E+03 0.  0.
          5    1    3    3  501    0  0.20188650471E+02 -0.43215179967E+02  0.14239965328E+02  0.50000000000E+02  0.47000000000E+01 0. -1.
         -5    1    3    3    0  501 -0.20188650471E+02  0.43215179967E+02 -0.14239965328E+02  0.50000000000E+02  0.47000000000E+01 0.  1.
</event>
<event>
 5    1  0.8909620E-001  0.1000000E+03  0.7546771E-02  0.1163815E+00
         11   -1    0    0    0    0  0.00000000000E+00  0.00000000000E+00  0.50000000000E+02  0.50000000000E+02  0.00000000000E+00 0. -1.
        -11   -1    0    0    0    0 -0.00000000000E+00 -0.00000000000E+00 -0.50000000000E+02  0.50000000000E+02  0.00000000000E+00 0.  1.
         23    2    1    2    0    0  0.00000000000E+00  0.00000000000E+00  0.00000000000E+00  0.10000000000E+03  0.10000000000E+03 0.  0.
          5    1    3    3  501    0  0.36701547682E+02 -0.18988913883E+02  0.27754775217E+02  0.50000000000E+02  0.47000000000E+01 0. -1.
         -5    1    3    3    0  501 -0.36701547682E+02  0.18988913883E+02 -0.27754775217E+02  0.50000000000E+02  0.47000000000E+01 0.  1.
</event>
<event>
 5    1  0.8909620E-001  0.1000000E+03  0.7546771E-02  0.1163815E+00
         11   -1    0    0    0    0  0.00000000000E+00  0.00000000000E+00  0.50000000000E+02  0.50000000000E+02  0.00000000000E+00 0.  1.
        -11   -1    0    0    0    0 -0.00000000000E+00 -0.00000000000E+00 -0.50000000000E+02  0.50000000000E+02  0.00000000000E+00 0. -1.
         23    2    1    2    0    0  0.00000000000E+00  0.00000000000E+00  0.00000000000E+00  0.10000000000E+03  0.10000000000E+03 0.  0.
          5    1    3    3  501    0 -0.19772999844E+02  0.14774539643E+02 -0.43227901354E+02  0.50000000000E+02  0.47000000000E+01 0. -1.
         -5    1    3    3    0  501  0.19772999844E+02 -0.14774539643E+02  0.43227901354E+02  0.50000000000E+02  0.47000000000E+01 0.  1.
</event>
<event>
 5    1  0.8909620E-001  0.1000000E+03  0.7546771E-02  0.1163815E+00
         11   -1    0    0    0    0  0.00000000000E+00  0.00000000000E+00  0.50000000000E+02  0.50000000000E+02  0.00000000000E+00 0.  1.
        -11   -1    0    0    0    0 -0.00000000000E+00 -0.00000000000E+00 -0.50000000000E+02  0.50000000000E+02  0.00000000000E+00 0. -1.
         23    2    1    2    0    0  0.00000000000E+00  0.00000000000E+00  0.00000000000E+00  0.10000000000E+03  0.10000000000E+03 0.  0.
          5    1    3    3  501    0  0.41955162668E+02 -0.56631686063E+01 -0.26184018921E+02  0.50000000000E+02  0.47000000000E+01 0. -1.
         -5    1    3    3    0  501 -0.41955162668E+02  0.56631686063E+01  0.26184018921E+02  0.50000000000E+02  0.47000000000E+01 0.  1.
</event>
<event>
 5    1  0.8909620E-001  0.1000000E+03  0.7546771E-02  0.1163815E+00
         11   -1    0    0    0    0  0.00000000000E+00  0.00000000000E+00  0.50000000000E+02  0.50000000000E+02  0.00000000000E+00 0.  1.
        -11   -1    0    0    0    0 -0.00000000000E+00 -0.00000000000E+00 -0.50000000000E+02  0.50000000000E+02  0.00000000000E+00 0. -1.
         23    2    1    2    0    0  0.00000000000E+00  0.00000000000E+00  0.00000000000E+00  0.10000000000E+03  0.10000000000E+03 0.  0.
          5    1    3    3  501    0 -0.29313575904E+02  0.39306674501E+02 -0.85796041531E+01  0.50000000000E+02  0.47000000000E+01 0. -1.
         -5    1    3    3    0  501  0.29313575904E+02 -0.39306674501E+02  0.85796041531E+01  0.50000000000E+02  0.47000000000E+01 0.  1.
</event>
<event>
 5    1  0.8909620E-001  0.1000000E+03  0.7546771E-02  0.1163815E+00
         11   -1    0    0    0    0  0.00000000000E+00  0.00000000000E+00  0.50000000000E+02  0.50000000000E+02  0.00000000000E+00 0. -1.
        -11   -1    0    0    0    0 -0.00000000000E+00 -0.00000000000E+00 -0.50000000000E+02  0.50000000000E+02  0.00000000000E+00 0.  1.
         23    2    1    2    0    0  0.00000000000E+00  0.00000000000E+00  0.00000000000E+00  0.10000000000E+03  0.10000000000E+03 0.  0.
          5    1    3    3  501    0 -0.38649083913E+02  0.19315442842E+02  0.24719870157E+02  0.50000000000E+02  0.47000000000E+01 0. -1.
         -5    1    3    3    0  501  0.38649083913E+02 -0.19315442842E+02 -0.24719870157E+02  0.50000000000E+02  0.47000000000E+01 0.  1.
</event>
<event>
 5    1  0.8909620E-001  0.1000000E+03  0.7546771E-02  0.1163815E+00
         11   -1    0    0    0    0  0.00000000000E+00  0.00000000000E+00  0.50000000000E+02  0.50000000000E+02  0.00000000000E+00 0. -1.
        -11   -1    0    0    0    0 -0.00000000000E+00 -0.00000000000E+00 -0.50000000000E+02  0.50000000000E+02  0.00000000000E+00 0.  1.
         23    2    1    2    0    0  0.00000000000E+00  0.00000000000E+00  0.00000000000E+00  0.10000000000E+03  0.10000000000E+03 0.  0.
          5    1    3    3  501    0  0.54814476957E+01 -0.49270680672E+02 -0.45015283317E+01  0.50000000000E+02  0.47000000000E+01 0. -1.
         -5    1    3    3    0  501 -0.54814476957E+01  0.49270680672E+02  0.45015283317E+01  0.50000000000E+02  0.47000000000E+01 0.  1.
</event>
<event>
 5    1  0.8909620E-001  0.1000000E+03  0.7546771E-02  0.1163815E+00
         11   -1    0    0    0    0  0.00000000000E+00  0.00000000000E+00  0.50000000000E+02  0.50000000000E+02  0.00000000000E+00 0. -1.
        -11   -1    0    0    0    0 -0.00000000000E+00 -0.00000000000E+00 -0.50000000000E+02  0.50000000000E+02  0.00000000000E+00 0.  1.
         23    2    1    2    0    0  0.00000000000E+00  0.00000000000E+00  0.00000000000E+00  0.10000000000E+03  0.10000000000E+03 0.  0.
          5    1    3    3  501    0 -0.36571414951E+02 -0.31710040686E+01  0.33621218623E+02  0.50000000000E+02  0.47000000000E+01 0. -1.
         -5    1    3    3    0  501  0.36571414951E+02  0.31710040686E+01 -0.33621218623E+02  0.50000000000E+02  0.47000000000E+01 0.  1.
</event>
<event>
 5    1  0.8909620E-001  0.1000000E+03  0.7546771E-02  0.1163815E+00
         11   -1    0    0    0    0  0.00000000000E+00  0.00000000000E+00  0.50000000000E+02  0.50000000000E+02  0.00000000000E+00 0. -1.
        -11   -1    0    0    0    0 -0.00000000000E+00 -0.00000000000E+00 -0.50000000000E+02  0.50000000000E+02  0.00000000000E+00 0.  1.
         23    2    1    2    0    0  0.00000000000E+00  0.00000000000E+00  0.00000000000E+00  0.10000000000E+03  0.10000000000E+03 0.  0.
          5    1    3    3  501    0 -0.13497760842E+02  0.47890921238E+02  0.14765213153E+01  0.50000000000E+02  0.47000000000E+01 0. -1.
         -5    1    3    3    0  501  0.13497760842E+02 -0.47890921238E+02 -0.14765213153E+01  0.50000000000E+02  0.47000000000E+01 0.  1.
</event>
<event>
 5    1  0.8909620E-001  0.1000000E+03  0.7546771E-02  0.1163815E+00
         11   -1    0    0    0    0  0.00000000000E+00  0.00000000000E+00  0.50000000000E+02  0.50000000000E+02  0.00000000000E+00 0. -1.
        -11   -1    0    0    0    0 -0.00000000000E+00 -0.00000000000E+00 -0.50000000000E+02  0.50000000000E+02  0.00000000000E+00 0.  1.
         23    2    1    2    0    0  0.00000000000E+00  0.00000000000E+00  0.00000000000E+00  0.10000000000E+03  0.10000000000E+03 0.  0.
          5    1    3    3  501    0  0.12280789517E+02  0.21116096912E+02  0.43372833203E+02  0.50000000000E+02  0.47000000000E+01 0. -1.
         -5    1    3    3    0  501 -0.12280789517E+02 -0.21116096912E+02 -0.43372833203E+02  0.50000000000E+02  0.47000000000E+01 0.  1.
</event>
<event>
 5    1  0.8909620E-001  0.1000000E+03  0.7546771E-02  0.1163815E+00
         11   -1    0    0    0    0  0.00000000000E+00  0.00000000000E+00  0.50000000000E+02  0.50000000000E+02  0.00000000000E+00 0.  1.
        -11   -1    0    0    0    0 -0.00000000000E+00 -0.00000000000E+00 -0.50000000000E+02  0.50000000000E+02  0.00000000000E+00 0. -1.
         23    2    1    2    0    0  0.00000000000E+00  0.00000000000E+00  0.00000000000E+00  0.10000000000E+03  0.10000000000E+03 0.  0.
          5    1    3    3  501    0  0.17301281427E+02 -0.33570752339E+02 -0.32428078087E+02  0.50000000000E+02  0.47000000000E+01 0. -1.
         -5    1    3    3    0  501 -0.17301281427E+02  0.33570752339E+02  0.32428078087E+02  0.50000000000E+02  0.47000000000E+01 0.  1.
</event>
<event>
 5    1  0.8909620E-001  0.1000000E+03  0.7546771E-02  0.1163815E+00
         11   -1    0    0    0    0  0.00000000000E+00  0.00000000000E+00  0.50000000000E+02  0.50000000000E+02  0.00000000000E+00 0. -1.
        -11   -1    0    0    0    0 -0.00000000000E+00 -0.00000000000E+00 -0.50000000000E+02  0.50000000000E+02  0.00000000000E+00 0.  1.
         23    2    1    2    0    0  0.00000000000E+00  0.00000000000E+00  0.00000000000E+00  0.10000000000E+03  0.10000000000E+03 0.  0.
          5    1    3    3  501    0 -0.18728033040E+02  0.24606533497E+02  0.39008836021E+02  0.50000000000E+02  0.47000000000E+01 0. -1.
         -5    1    3    3    0  501  0.18728033040E+02 -0.24606533497E+02 -0.39008836021E+02  0.50000000000E+02  0.47000000000E+01 0.  1.
</event>
<event>
 5    1  0.8909620E-001  0.1000000E+03  0.7546771E-02  0.1163815E+00
         11   -1    0    0    0    0  0.00000000000E+00  0.00000000000E+00  0.50000000000E+02  0.50000000000E+02  0.00000000000E+00 0. -1.
        -11   -1    0    0    0    0 -0.00000000000E+00 -0.00000000000E+00 -0.50000000000E+02  0.50000000000E+02  0.00000000000E+00 0.  1.
         23    2    1    2    0    0  0.00000000000E+00  0.00000000000E+00  0.00000000000E+00  0.10000000000E+03  0.10000000000E+03 0.  0.
          5    1    3    3  501    0  0.47490739315E+00 -0.27423439255E+02  0.41540816583E+02  0.50000000000E+02  0.47000000000E+01 0. -1.
         -5    1    3    3    0  501 -0.47490739315E+00  0.27423439255E+02 -0.41540816583E+02  0.50000000000E+02  0.47000000000E+01 0.  1.
</event>
<event>
 5    1  0.8909620E-001  0.1000000E+03  0.7546771E-02  0.1163815E+00
         11   -1    0    0    0    0  0.00000000000E+00  0.00000000000E+00  0.50000000000E+02  0.50000000000E+02  0.00000000000E+00 0. -1.
        -11   -1    0    0    0    0 -0.00000000000E+00 -0.00000000000E+00 -0.50000000000E+02  0.50000000000E+02  0.00000000000E+00 0.  1.
         23    2    1    2    0    0  0.00000000000E+00  0.00000000000E+00  0.00000000000E+00  0.10000000000E+03  0.10000000000E+03 0.  0.
          5    1    3    3  501    0  0.36429212689E+02  0.33430869223E+02 -0.57618960291E+01  0.50000000000E+02  0.47000000000E+01 0. -1.
         -5    1    3    3    0  501 -0.36429212689E+02 -0.33430869223E+02  0.57618960291E+01  0.50000000000E+02  0.47000000000E+01 0.  1.
</event>
<event>
 5    1  0.8909620E-001  0.1000000E+03  0.7546771E-02  0.1163815E+00
         11   -1    0    0    0    0  0.00000000000E+00  0.00000000000E+00  0.50000000000E+02  0.50000000000E+02  0.00000000000E+00 0. -1.
        -11   -1    0    0    0    0 -0.00000000000E+00 -0.00000000000E+00 -0.50000000000E+02  0.50000000000E+02  0.00000000000E+00 0.  1.
         23    2    1    2    0    0  0.00000000000E+00  0.00000000000E+00  0.00000000000E+00  0.10000000000E+03  0.10000000000E+03 0.  0.
          5    1    3    3  501    0 -0.15410746708E+02  0.60988568766E+01  0.46938500516E+02  0.50000000000E+02  0.47000000000E+01 0. -1.
         -5    1    3    3    0  501  0.15410746708E+02 -0.60988568766E+01 -0.46938500516E+02  0.50000000000E+02  0.47000000000E+01 0.  1.
</event>
<event>
 5    1  0.8909620E-001  0.1000000E+03  0.7546771E-02  0.1163815E+00
         11   -1    0    0    0    0  0.00000000000E+00  0.00000000000E+00  0.50000000000E+02  0.50000000000E+02  0.00000000000E+00 0. -1.
        -11   -1    0    0    0    0 -0.00000000000E+00 -0.00000000000E+00 -0.50000000000E+02  0.50000000000E+02  0.00000000000E+00 0.  1.
         23    2    1    2    0    0  0.00000000000E+00  0.00000000000E+00  0.00000000000E+00  0.10000000000E+03  0.10000000000E+03 0.  0.
          5    1    3    3  501    0 -0.70611588562E+01  0.43219988411E+01  0.49085337542E+02  0.50000000000E+02  0.47000000000E+01 0. -1.
         -5    1    3    3    0  501  0.70611588562E+01 -0.43219988411E+01 -0.49085337542E+02  0.50000000000E+02  0.47000000000E+01 0.  1.
</event>
<event>
 5    1  0.8909620E-001  0.1000000E+03  0.7546771E-02  0.1163815E+00
         11   -1    0    0    0    0  0.00000000000E+00  0.00000000000E+00  0.50000000000E+02  0.50000000000E+02  0.00000000000E+00 0. -1.
        -11   -1    0    0    0    0 -0.00000000000E+00 -0.00000000000E+00 -0.50000000000E+02  0.50000000000E+02  0.00000000000E+00 0.  1.
         23    2    1    2    0    0  0.00000000000E+00  0.00000000000E+00  0.00000000000E+00  0.10000000000E+03  0.10000000000E+03 0.  0.
          5    1    3    3  501    0 -0.45278591577E+02  0.12358669819E+02  0.16583800081E+02  0.50000000000E+02  0.47000000000E+01 0. -1.
         -5    1    3    3    0  501  0.45278591577E+02 -0.12358669819E+02 -0.16583800081E+02  0.50000000000E+02  0.47000000000E+01 0.  1.
</event>
<event>
 5    1  0.8909620E-001  0.1000000E+03  0.7546771E-02  0.1163815E+00
         11   -1    0    0    0    0  0.00000000000E+00  0.00000000000E+00  0.50000000000E+02  0.50000000000E+02  0.00000000000E+00 0. -1.
        -11   -1    0    0    0    0 -0.00000000000E+00 -0.00000000000E+00 -0.50000000000E+02  0.50000000000E+02  0.00000000000E+00 0.  1.
         23    2    1    2    0    0  0.00000000000E+00  0.00000000000E+00  0.00000000000E+00  0.10000000000E+03  0.10000000000E+03 0.  0.
          5    1    3    3  501    0 -0.30243816118E+02 -0.79880850014E+01  0.38722242763E+02  0.50000000000E+02  0.47000000000E+01 0. -1.
         -5    1    3    3    0  501  0.30243816118E+02  0.79880850014E+01 -0.38722242763E+02  0.50000000000E+02  0.47000000000E+01 0.  1.
</event>
<event>
 5    1  0.8909620E-001  0.1000000E+03  0.7546771E-02  0.1163815E+00
         11   -1    0    0    0    0  0.00000000000E+00  0.00000000000E+00  0.50000000000E+02  0.50000000000E+02  0.00000000000E+00 0. -1.
        -11   -1    0    0    0    0 -0.00000000000E+00 -0.00000000000E+00 -0.50000000000E+02  0.50000000000E+02  0.00000000000E+00 0.  1.
         23    2    1    2    0    0  0.00000000000E+00  0.00000000000E+00  0.00000000000E+00  0.10000000000E+03  0.10000000000E+03 0.  0.
          5    1    3    3  501    0  0.25076592972E+02 -0.39597345594E+02 -0.16766773893E+02  0.50000000000E+02  0.47000000000E+01 0.  1.
         -5    1    3    3    0  501 -0.25076592972E+02  0.39597345594E+02  0.16766773893E+02  0.50000000000E+02  0.47000000000E+01 0. -1.
</event>
<event>
 5    1  0.8909620E-001  0.1000000E+03  0.7546771E-02  0.1163815E+00
         11   -1    0    0    0    0  0.00000000000E+00  0.00000000000E+00  0.50000000000E+02  0.50000000000E+02  0.00000000000E+00 0.  1.
        -11   -1    0    0    0    0 -0.00000000000E+00 -0.00000000000E+00 -0.50000000000E+02  0.50000000000E+02  0.00000000000E+00 0. -1.
         23    2    1    2    0    0  0.00000000000E+00  0.00000000000E+00  0.00000000000E+00  0.10000000000E+03  0.10000000000E+03 0.  0.
          5    1    3    3  501    0  0.18179551718E+02 -0.41302676814E+02 -0.21011967717E+02  0.50000000000E+02  0.47000000000E+01 0. -1.
         -5    1    3    3    0  501 -0.18179551718E+02  0.41302676814E+02  0.21011967717E+02  0.50000000000E+02  0.47000000000E+01 0.  1.
</event>
<event>
 5    1  0.8909620E-001  0.1000000E+03  0.7546771E-02  0.1163815E+00
         11   -1    0    0    0    0  0.00000000000E+00  0.00000000000E+00  0.50000000000E+02  0.50000000000E+02  0.00000000000E+00 0. -1.
        -11   -1    0    0    0    0 -0.00000000000E+00 -0.00000000000E+00 -0.50000000000E+02  0.50000000000E+02  0.00000000000E+00 0.  1.
         23    2    1    2    0    0  0.00000000000E+00  0.00000000000E+00  0.00000000000E+00  0.10000000000E+03  0.10000000000E+03 0.  0.
          5    1    3    3  501    0  0.18525388096E+02 -0.39751568677E+02 -0.23548519775E+02  0.50000000000E+02  0.47000000000E+01 0. -1.
         -5    1    3    3    0  501 -0.18525388096E+02  0.39751568677E+02  0.23548519775E+02  0.50000000000E+02  0.47000000000E+01 0.  1.
</event>
<event>
 5    1  0.8909620E-001  0.1000000E+03  0.7546771E-02  0.1163815E+00
         11   -1    0    0    0    0  0.00000000000E+00  0.00000000000E+00  0.50000000000E+02  0.50000000000E+02  0.00000000000E+00 0.  1.
        -11   -1    0    0    0    0 -0.00000000000E+00 -0.00000000000E+00 -0.50000000000E+02  0.50000000000E+02  0.00000000000E+00 0. -1.
         23    2    1    2    0    0  0.00000000000E+00  0.00000000000E+00  0.00000000000E+00  0.10000000000E+03  0.10000000000E+03 0.  0.
          5    1    3    3  501    0  0.26590277310E+02  0.41677661568E+02  0.58171882235E+01  0.50000000000E+02  0.47000000000E+01 0. -1.
         -5    1    3    3    0  501 -0.26590277310E+02 -0.41677661568E+02 -0.58171882235E+01  0.50000000000E+02  0.47000000000E+01 0.  1.
</event>
<event>
 5    1  0.8909620E-001  0.1000000E+03  0.7546771E-02  0.1163815E+00
         11   -1    0    0    0    0  0.00000000000E+00  0.00000000000E+00  0.50000000000E+02  0.50000000000E+02  0.00000000000E+00 0. -1.
        -11   -1    0    0    0    0 -0.00000000000E+00 -0.00000000000E+00 -0.50000000000E+02  0.50000000000E+02  0.00000000000E+00 0.  1.
         23    2    1    2    0    0  0.00000000000E+00  0.00000000000E+00  0.00000000000E+00  0.10000000000E+03  0.10000000000E+03 0.  0.
          5    1    3    3  501    0 -0.31497335835E+02  0.18965105891E+00  0.38545970837E+02  0.50000000000E+02  0.47000000000E+01 0. -1.
         -5    1    3    3    0  501  0.31497335835E+02 -0.18965105891E+00 -0.38545970837E+02  0.50000000000E+02  0.47000000000E+01 0.  1.
</event>
<event>
 5    1  0.8909620E-001  0.1000000E+03  0.7546771E-02  0.1163815E+00
         11   -1    0    0    0    0  0.00000000000E+00  0.00000000000E+00  0.50000000000E+02  0.50000000000E+02  0.00000000000E+00 0.  1.
        -11   -1    0    0    0    0 -0.00000000000E+00 -0.00000000000E+00 -0.50000000000E+02  0.50000000000E+02  0.00000000000E+00 0. -1.
         23    2    1    2    0    0  0.00000000000E+00  0.00000000000E+00  0.00000000000E+00  0.10000000000E+03  0.10000000000E+03 0.  0.
          5    1    3    3  501    0  0.45080906086E+02  0.20955964861E+02 -0.25435100159E+01  0.50000000000E+02  0.47000000000E+01 0. -1.
         -5    1    3    3    0  501 -0.45080906086E+02 -0.20955964861E+02  0.25435100159E+01  0.50000000000E+02  0.47000000000E+01 0.  1.
</event>
<event>
 5    1  0.8909620E-001  0.1000000E+03  0.7546771E-02  0.1163815E+00
         11   -1    0    0    0    0  0.00000000000E+00  0.00000000000E+00  0.50000000000E+02  0.50000000000E+02  0.00000000000E+00 0.  1.
        -11   -1    0    0    0    0 -0.00000000000E+00 -0.00000000000E+00 -0.50000000000E+02  0.50000000000E+02  0.00000000000E+00 0. -1.
         23    2    1    2    0    0  0.00000000000E+00  0.00000000000E+00  0.00000000000E+00  0.10000000000E+03  0.10000000000E+03 0.  0.
          5    1    3    3  501    0 -0.46303697782E+02 -0.52699311106E+01 -0.17495868020E+02  0.50000000000E+02  0.47000000000E+01 0. -1.
         -5    1    3    3    0  501  0.46303697782E+02  0.52699311106E+01  0.17495868020E+02  0.50000000000E+02  0.47000000000E+01 0.  1.
</event>
<event>
 5    1  0.8909620E-001  0.1000000E+03  0.7546771E-02  0.1163815E+00
         11   -1    0    0    0    0  0.00000000000E+00  0.00000000000E+00  0.50000000000E+02  0.50000000000E+02  0.00000000000E+00 0. -1.
        -11   -1    0    0    0    0 -0.00000000000E+00 -0.00000000000E+00 -0.50000000000E+02  0.50000000000E+02  0.00000000000E+00 0.  1.
         23    2    1    2    0    0  0.00000000000E+00  0.00000000000E+00  0.00000000000E+00  0.10000000000E+03  0.10000000000E+03 0.  0.
          5    1    3    3  501    0  0.27436382271E+02 -0.13263295649E+02  0.39360385115E+02  0.50000000000E+02  0.47000000000E+01 0. -1.
         -5    1    3    3    0  501 -0.27436382271E+02  0.13263295649E+02 -0.39360385115E+02  0.50000000000E+02  0.47000000000E+01 0.  1.
</event>
<event>
 5    1  0.8909620E-001  0.1000000E+03  0.7546771E-02  0.1163815E+00
         11   -1    0    0    0    0  0.00000000000E+00  0.00000000000E+00  0.50000000000E+02  0.50000000000E+02  0.00000000000E+00 0. -1.
        -11   -1    0    0    0    0 -0.00000000000E+00 -0.00000000000E+00 -0.50000000000E+02  0.50000000000E+02  0.00000000000E+00 0.  1.
         23    2    1    2    0    0  0.00000000000E+00  0.00000000000E+00  0.00000000000E+00  0.10000000000E+03  0.10000000000E+03 0.  0.
          5    1    3    3  501    0 -0.11052371299E+02  0.45392775189E+02  0.17182870812E+02  0.50000000000E+02  0.47000000000E+01 0. -1.
         -5    1    3    3    0  501  0.11052371299E+02 -0.45392775189E+02 -0.17182870812E+02  0.50000000000E+02  0.47000000000E+01 0.  1.
</event>
<event>
 5    1  0.8909620E-001  0.1000000E+03  0.7546771E-02  0.1163815E+00
         11   -1    0    0    0    0  0.00000000000E+00  0.00000000000E+00  0.50000000000E+02  0.50000000000E+02  0.00000000000E+00 0. -1.
        -11   -1    0    0    0    0 -0.00000000000E+00 -0.00000000000E+00 -0.50000000000E+02  0.50000000000E+02  0.00000000000E+00 0.  1.
         23    2    1    2    0    0  0.00000000000E+00  0.00000000000E+00  0.00000000000E+00  0.10000000000E+03  0.10000000000E+03 0.  0.
          5    1    3    3  501    0 -0.41166750334E+02  0.10791407653E+02  0.25821583759E+02  0.50000000000E+02  0.47000000000E+01 0. -1.
         -5    1    3    3    0  501  0.41166750334E+02 -0.10791407653E+02 -0.25821583759E+02  0.50000000000E+02  0.47000000000E+01 0.  1.
</event>
<event>
 5    1  0.8909620E-001  0.1000000E+03  0.7546771E-02  0.1163815E+00
         11   -1    0    0    0    0  0.00000000000E+00  0.00000000000E+00  0.50000000000E+02  0.50000000000E+02  0.00000000000E+00 0.  1.
        -11   -1    0    0    0    0 -0.00000000000E+00 -0.00000000000E+00 -0.50000000000E+02  0.50000000000E+02  0.00000000000E+00 0. -1.
         23    2    1    2    0    0  0.00000000000E+00  0.00000000000E+00  0.00000000000E+00  0.10000000000E+03  0.10000000000E+03 0.  0.
          5    1    3    3  501    0  0.32307531223E+02  0.10965214282E+02 -0.36247724095E+02  0.50000000000E+02  0.47000000000E+01 0. -1.
         -5    1    3    3    0  501 -0.32307531223E+02 -0.10965214282E+02  0.36247724095E+02  0.50000000000E+02  0.47000000000E+01 0.  1.
</event>
<event>
 5    1  0.8909620E-001  0.1000000E+03  0.7546771E-02  0.1163815E+00
         11   -1    0    0    0    0  0.00000000000E+00  0.00000000000E+00  0.50000000000E+02  0.50000000000E+02  0.00000000000E+00 0. -1.
        -11   -1    0    0    0    0 -0.00000000000E+00 -0.00000000000E+00 -0.50000000000E+02  0.50000000000E+02  0.00000000000E+00 0.  1.
         23    2    1    2    0    0  0.00000000000E+00  0.00000000000E+00  0.00000000000E+00  0.10000000000E+03  0.10000000000E+03 0.  0.
          5    1    3    3  501    0  0.39145033559E+02  0.34401390807E+00  0.30748300800E+02  0.50000000000E+02  0.47000000000E+01 0. -1.
         -5    1    3    3    0  501 -0.39145033559E+02 -0.34401390807E+00 -0.30748300800E+02  0.50000000000E+02  0.47000000000E+01 0.  1.
</event>
<event>
 5    1  0.8909620E-001  0.1000000E+03  0.7546771E-02  0.1163815E+00
         11   -1    0    0    0    0  0.00000000000E+00  0.00000000000E+00  0.50000000000E+02  0.50000000000E+02  0.00000000000E+00 0. -1.
        -11   -1    0    0    0    0 -0.00000000000E+00 -0.00000000000E+00 -0.50000000000E+02  0.50000000000E+02  0.00000000000E+00 0.  1.
         23    2    1    2    0    0  0.00000000000E+00  0.00000000000E+00  0.00000000000E+00  0.10000000000E+03  0.10000000000E+03 0.  0.
          5    1    3    3  501    0  0.48900207244E+02 -0.32740831477E+01  0.87155097968E+01  0.50000000000E+02  0.47000000000E+01 0. -1.
         -5    1    3    3    0  501 -0.48900207244E+02  0.32740831477E+01 -0.87155097968E+01  0.50000000000E+02  0.47000000000E+01 0.  1.
</event>
<event>
 5    1  0.8909620E-001  0.1000000E+03  0.7546771E-02  0.1163815E+00
         11   -1    0    0    0    0  0.00000000000E+00  0.00000000000E+00  0.50000000000E+02  0.50000000000E+02  0.00000000000E+00 0. -1.
        -11   -1    0    0    0    0 -0.00000000000E+00 -0.00000000000E+00 -0.50000000000E+02  0.50000000000E+02  0.00000000000E+00 0.  1.
         23    2    1    2    0    0  0.00000000000E+00  0.00000000000E+00  0.00000000000E+00  0.10000000000E+03  0.10000000000E+03 0.  0.
          5    1    3    3  501    0 -0.62369555203E+01  0.36849846040E+02  0.32880073490E+02  0.50000000000E+02  0.47000000000E+01 0. -1.
         -5    1    3    3    0  501  0.62369555203E+01 -0.36849846040E+02 -0.32880073490E+02  0.50000000000E+02  0.47000000000E+01 0.  1.
</event>
<event>
 5    1  0.8909620E-001  0.1000000E+03  0.7546771E-02  0.1163815E+00
         11   -1    0    0    0    0  0.00000000000E+00  0.00000000000E+00  0.50000000000E+02  0.50000000000E+02  0.00000000000E+00 0. -1.
        -11   -1    0    0    0    0 -0.00000000000E+00 -0.00000000000E+00 -0.50000000000E+02  0.50000000000E+02  0.00000000000E+00 0.  1.
         23    2    1    2    0    0  0.00000000000E+00  0.00000000000E+00  0.00000000000E+00  0.10000000000E+03  0.10000000000E+03 0.  0.
          5    1    3    3  501    0  0.26321055325E+02  0.11581910459E+02  0.40632147330E+02  0.50000000000E+02  0.47000000000E+01 0. -1.
         -5    1    3    3    0  501 -0.26321055325E+02 -0.11581910459E+02 -0.40632147330E+02  0.50000000000E+02  0.47000000000E+01 0.  1.
</event>
<event>
 5    1  0.8909620E-001  0.1000000E+03  0.7546771E-02  0.1163815E+00
         11   -1    0    0    0    0  0.00000000000E+00  0.00000000000E+00  0.50000000000E+02  0.50000000000E+02  0.00000000000E+00 0.  1.
        -11   -1    0    0    0    0 -0.00000000000E+00 -0.00000000000E+00 -0.50000000000E+02  0.50000000000E+02  0.00000000000E+00 0. -1.
         23    2    1    2    0    0  0.00000000000E+00  0.00000000000E+00  0.00000000000E+00  0.10000000000E+03  0.10000000000E+03 0.  0.
          5    1    3    3  501    0  0.58478996209E+01  0.10034374348E+02 -0.48404786969E+02  0.50000000000E+02  0.47000000000E+01 0. -1.
         -5    1    3    3    0  501 -0.58478996209E+01 -0.10034374348E+02  0.48404786969E+02  0.50000000000E+02  0.47000000000E+01 0.  1.
</event>
<event>
 5    1  0.8909620E-001  0.1000000E+03  0.7546771E-02  0.1163815E+00
         11   -1    0    0    0    0  0.00000000000E+00  0.00000000000E+00  0.50000000000E+02  0.50000000000E+02  0.00000000000E+00 0. -1.
        -11   -1    0    0    0    0 -0.00000000000E+00 -0.00000000000E+00 -0.50000000000E+02  0.50000000000E+02  0.00000000000E+00 0.  1.
         23    2    1    2    0    0  0.00000000000E+00  0.00000000000E+00  0.00000000000E+00  0.10000000000E+03  0.10000000000E+03 0.  0.
          5    1    3    3  501    0 -0.38630648718E+02  0.21143639421E+02  0.23206238206E+02  0.50000000000E+02  0.47000000000E+01 0. -1.
         -5    1    3    3    0  501  0.38630648718E+02 -0.21143639421E+02 -0.23206238206E+02  0.50000000000E+02  0.47000000000E+01 0.  1.
</event>
<event>
 5    1  0.8909620E-001  0.1000000E+03  0.7546771E-02  0.1163815E+00
         11   -1    0    0    0    0  0.00000000000E+00  0.00000000000E+00  0.50000000000E+02  0.50000000000E+02  0.00000000000E+00 0.  1.
        -11   -1    0    0    0    0 -0.00000000000E+00 -0.00000000000E+00 -0.50000000000E+02  0.50000000000E+02  0.00000000000E+00 0. -1.
         23    2    1    2    0    0  0.00000000000E+00  0.00000000000E+00  0.00000000000E+00  0.10000000000E+03  0.10000000000E+03 0.  0.
          5    1    3    3  501    0 -0.51030869736E+01 -0.44746885771E+02 -0.21203412866E+02  0.50000000000E+02  0.47000000000E+01 0. -1.
         -5    1    3    3    0  501  0.51030869736E+01  0.44746885771E+02  0.21203412866E+02  0.50000000000E+02  0.47000000000E+01 0.  1.
</event>
<event>
 5    1  0.8909620E-001  0.1000000E+03  0.7546771E-02  0.1163815E+00
         11   -1    0    0    0    0  0.00000000000E+00  0.00000000000E+00  0.50000000000E+02  0.50000000000E+02  0.00000000000E+00 0. -1.
        -11   -1    0    0    0    0 -0.00000000000E+00 -0.00000000000E+00 -0.50000000000E+02  0.50000000000E+02  0.00000000000E+00 0.  1.
         23    2    1    2    0    0  0.00000000000E+00  0.00000000000E+00  0.00000000000E+00  0.10000000000E+03  0.10000000000E+03 0.  0.
          5    1    3    3  501    0 -0.31494641260E+02 -0.44792973925E+01  0.38287510585E+02  0.50000000000E+02  0.47000000000E+01 0. -1.
         -5    1    3    3    0  501  0.31494641260E+02  0.44792973925E+01 -0.38287510585E+02  0.50000000000E+02  0.47000000000E+01 0.  1.
</event>
<event>
 5    1  0.8909620E-001  0.1000000E+03  0.7546771E-02  0.1163815E+00
         11   -1    0    0    0    0  0.00000000000E+00  0.00000000000E+00  0.50000000000E+02  0.50000000000E+02  0.00000000000E+00 0. -1.
        -11   -1    0    0    0    0 -0.00000000000E+00 -0.00000000000E+00 -0.50000000000E+02  0.50000000000E+02  0.00000000000E+00 0.  1.
         23    2    1    2    0    0  0.00000000000E+00  0.00000000000E+00  0.00000000000E+00  0.10000000000E+03  0.10000000000E+03 0.  0.
          5    1    3    3  501    0 -0.16926884393E+02  0.24218064318E+02  0.40060902954E+02  0.50000000000E+02  0.47000000000E+01 0. -1.
         -5    1    3    3    0  501  0.16926884393E+02 -0.24218064318E+02 -0.40060902954E+02  0.50000000000E+02  0.47000000000E+01 0.  1.
</event>
<event>
 5    1  0.8909620E-001  0.1000000E+03  0.7546771E-02  0.1163815E+00
         11   -1    0    0    0    0  0.00000000000E+00  0.00000000000E+00  0.50000000000E+02  0.50000000000E+02  0.00000000000E+00 0.  1.
        -11   -1    0    0    0    0 -0.00000000000E+00 -0.00000000000E+00 -0.50000000000E+02  0.50000000000E+02  0.00000000000E+00 0. -1.
         23    2    1    2    0    0  0.00000000000E+00  0.00000000000E+00  0.00000000000E+00  0.10000000000E+03  0.10000000000E+03 0.  0.
          5    1    3    3  501    0  0.13041311174E+02 -0.12634695859E+02 -0.46348664095E+02  0.50000000000E+02  0.47000000000E+01 0. -1.
         -5    1    3    3    0  501 -0.13041311174E+02  0.12634695859E+02  0.46348664095E+02  0.50000000000E+02  0.47000000000E+01 0.  1.
</event>
<event>
 5    1  0.8909620E-001  0.1000000E+03  0.7546771E-02  0.1163815E+00
         11   -1    0    0    0    0  0.00000000000E+00  0.00000000000E+00  0.50000000000E+02  0.50000000000E+02  0.00000000000E+00 0.  1.
        -11   -1    0    0    0    0 -0.00000000000E+00 -0.00000000000E+00 -0.50000000000E+02  0.50000000000E+02  0.00000000000E+00 0. -1.
         23    2    1    2    0    0  0.00000000000E+00  0.00000000000E+00  0.00000000000E+00  0.10000000000E+03  0.10000000000E+03 0.  0.
          5    1    3    3  501    0  0.17261546384E+02  0.43474651578E+02 -0.17026558273E+02  0.50000000000E+02  0.47000000000E+01 0. -1.
         -5    1    3    3    0  501 -0.17261546384E+02 -0.43474651578E+02  0.17026558273E+02  0.50000000000E+02  0.47000000000E+01 0.  1.
</event>
<event>
 5    1  0.8909620E-001  0.1000000E+03  0.7546771E-02  0.1163815E+00
         11   -1    0    0    0    0  0.00000000000E+00  0.00000000000E+00  0.50000000000E+02  0.50000000000E+02  0.00000000000E+00 0.  1.
        -11   -1    0    0    0    0 -0.00000000000E+00 -0.00000000000E+00 -0.50000000000E+02  0.50000000000E+02  0.00000000000E+00 0. -1.
         23    2    1    2    0    0  0.00000000000E+00  0.00000000000E+00  0.00000000000E+00  0.10000000000E+03  0.10000000000E+03 0.  0.
          5    1    3    3  501    0  0.45570845126E+02 -0.78290756801E+01 -0.18436747232E+02  0.50000000000E+02  0.47000000000E+01 0. -1.
         -5    1    3    3    0  501 -0.45570845126E+02  0.78290756801E+01  0.18436747232E+02  0.50000000000E+02  0.47000000000E+01 0.  1.
</event>
<event>
 5    1  0.8909620E-001  0.1000000E+03  0.7546771E-02  0.1163815E+00
         11   -1    0    0    0    0  0.00000000000E+00  0.00000000000E+00  0.50000000000E+02  0.50000000000E+02  0.00000000000E+00 0. -1.
        -11   -1    0    0    0    0 -0.00000000000E+00 -0.00000000000E+00 -0.50000000000E+02  0.50000000000E+02  0.00000000000E+00 0.  1.
         23    2    1    2    0    0  0.00000000000E+00  0.00000000000E+00  0.00000000000E+00  0.10000000000E+03  0.10000000000E+03 0.  0.
          5    1    3    3  501    0  0.47159557317E+01  0.17931374552E+02  0.46196705166E+02  0.50000000000E+02  0.47000000000E+01 0. -1.
         -5    1    3    3    0  501 -0.47159557317E+01 -0.17931374552E+02 -0.46196705166E+02  0.50000000000E+02  0.47000000000E+01 0.  1.
</event>
<event>
 5    1  0.8909620E-001  0.1000000E+03  0.7546771E-02  0.1163815E+00
         11   -1    0    0    0    0  0.00000000000E+00  0.00000000000E+00  0.50000000000E+02  0.50000000000E+02  0.00000000000E+00 0. -1.
        -11   -1    0    0    0    0 -0.00000000000E+00 -0.00000000000E+00 -0.50000000000E+02  0.50000000000E+02  0.00000000000E+00 0.  1.
         23    2    1    2    0    0  0.00000000000E+00  0.00000000000E+00  0.00000000000E+00  0.10000000000E+03  0.10000000000E+03 0.  0.
          5    1    3    3  501    0 -0.57511085420E+01 -0.10162402227E+02  0.48389671744E+02  0.50000000000E+02  0.47000000000E+01 0. -1.
         -5    1    3    3    0  501  0.57511085420E+01  0.10162402227E+02 -0.48389671744E+02  0.50000000000E+02  0.47000000000E+01 0.  1.
</event>
<event>
 5    1  0.8909620E-001  0.1000000E+03  0.7546771E-02  0.1163815E+00
         11   -1    0    0    0    0  0.00000000000E+00  0.00000000000E+00  0.50000000000E+02  0.50000000000E+02  0.00000000000E+00 0.  1.
        -11   -1    0    0    0    0 -0.00000000000E+00 -0.00000000000E+00 -0.50000000000E+02  0.50000000000E+02  0.00000000000E+00 0. -1.
         23    2    1    2    0    0  0.00000000000E+00  0.00000000000E+00  0.00000000000E+00  0.10000000000E+03  0.10000000000E+03 0.  0.
          5    1    3    3  501    0  0.15608718837E+02 -0.15465408909E+02 -0.44666531358E+02  0.50000000000E+02  0.47000000000E+01 0. -1.
         -5    1    3    3    0  501 -0.15608718837E+02  0.15465408909E+02  0.44666531358E+02  0.50000000000E+02  0.47000000000E+01 0.  1.
</event>
<event>
 5    1  0.8909620E-001  0.1000000E+03  0.7546771E-02  0.1163815E+00
         11   -1    0    0    0    0  0.00000000000E+00  0.00000000000E+00  0.50000000000E+02  0.50000000000E+02  0.00000000000E+00 0. -1.
        -11   -1    0    0    0    0 -0.00000000000E+00 -0.00000000000E+00 -0.50000000000E+02  0.50000000000E+02  0.00000000000E+00 0.  1.
         23    2    1    2    0    0  0.00000000000E+00  0.00000000000E+00  0.00000000000E+00  0.10000000000E+03  0.10000000000E+03 0.  0.
          5    1    3    3  501    0 -0.78691641485E+01 -0.19911352661E+02  0.44939117602E+02  0.50000000000E+02  0.47000000000E+01 0. -1.
         -5    1    3    3    0  501  0.78691641485E+01  0.19911352661E+02 -0.44939117602E+02  0.50000000000E+02  0.47000000000E+01 0.  1.
</event>
<event>
 5    1  0.8909620E-001  0.1000000E+03  0.7546771E-02  0.1163815E+00
         11   -1    0    0    0    0  0.00000000000E+00  0.00000000000E+00  0.50000000000E+02  0.50000000000E+02  0.00000000000E+00 0. -1.
        -11   -1    0    0    0    0 -0.00000000000E+00 -0.00000000000E+00 -0.50000000000E+02  0.50000000000E+02  0.00000000000E+00 0.  1.
         23    2    1    2    0    0  0.00000000000E+00  0.00000000000E+00  0.00000000000E+00  0.10000000000E+03  0.10000000000E+03 0.  0.
          5    1    3    3  501    0 -0.13098005873E+02  0.27539887354E+02  0.39343447316E+02  0.50000000000E+02  0.47000000000E+01 0. -1.
         -5    1    3    3    0  501  0.13098005873E+02 -0.27539887354E+02 -0.39343447316E+02  0.50000000000E+02  0.47000000000E+01 0.  1.
</event>
<event>
 5    1  0.8909620E-001  0.1000000E+03  0.7546771E-02  0.1163815E+00
         11   -1    0    0    0    0  0.00000000000E+00  0.00000000000E+00  0.50000000000E+02  0.50000000000E+02  0.00000000000E+00 0. -1.
        -11   -1    0    0    0    0 -0.00000000000E+00 -0.00000000000E+00 -0.50000000000E+02  0.50000000000E+02  0.00000000000E+00 0.  1.
         23    2    1    2    0    0  0.00000000000E+00  0.00000000000E+00  0.00000000000E+00  0.10000000000E+03  0.10000000000E+03 0.  0.
          5    1    3    3  501    0 -0.21777554906E+02  0.18514026504E+02  0.40753882329E+02  0.50000000000E+02  0.47000000000E+01 0. -1.
         -5    1    3    3    0  501  0.21777554906E+02 -0.18514026504E+02 -0.40753882329E+02  0.50000000000E+02  0.47000000000E+01 0.  1.
</event>
<event>
 5    1  0.8909620E-001  0.1000000E+03  0.7546771E-02  0.1163815E+00
         11   -1    0    0    0    0  0.00000000000E+00  0.00000000000E+00  0.50000000000E+02  0.50000000000E+02  0.00000000000E+00 0. -1.
        -11   -1    0    0    0    0 -0.00000000000E+00 -0.00000000000E+00 -0.50000000000E+02  0.50000000000E+02  0.00000000000E+00 0.  1.
         23    2    1    2    0    0  0.00000000000E+00  0.00000000000E+00  0.00000000000E+00  0.10000000000E+03  0.10000000000E+03 0.  0.
          5    1    3    3  501    0 -0.35212368894E+02 -0.35006381482E+02  0.35429270952E+01  0.50000000000E+02  0.47000000000E+01 0. -1.
         -5    1    3    3    0  501  0.35212368894E+02  0.35006381482E+02 -0.35429270952E+01  0.50000000000E+02  0.47000000000E+01 0.  1.
</event>
<event>
 5    1  0.8909620E-001  0.1000000E+03  0.7546771E-02  0.1163815E+00
         11   -1    0    0    0    0  0.00000000000E+00  0.00000000000E+00  0.50000000000E+02  0.50000000000E+02  0.00000000000E+00 0.  1.
        -11   -1    0    0    0    0 -0.00000000000E+00 -0.00000000000E+00 -0.50000000000E+02  0.50000000000E+02  0.00000000000E+00 0. -1.
         23    2    1    2    0    0  0.00000000000E+00  0.00000000000E+00  0.00000000000E+00  0.10000000000E+03  0.10000000000E+03 0.  0.
          5    1    3    3  501    0  0.31301414490E+02 -0.30805715198E+02 -0.23433722754E+02  0.50000000000E+02  0.47000000000E+01 0. -1.
         -5    1    3    3    0  501 -0.31301414490E+02  0.30805715198E+02  0.23433722754E+02  0.50000000000E+02  0.47000000000E+01 0.  1.
</event>
<event>
 5    1  0.8909620E-001  0.1000000E+03  0.7546771E-02  0.1163815E+00
         11   -1    0    0    0    0  0.00000000000E+00  0.00000000000E+00  0.50000000000E+02  0.50000000000E+02  0.00000000000E+00 0.  1.
        -11   -1    0    0    0    0 -0.00000000000E+00 -0.00000000000E+00 -0.50000000000E+02  0.50000000000E+02  0.00000000000E+00 0. -1.
         23    2    1    2    0    0  0.00000000000E+00  0.00000000000E+00  0.00000000000E+00  0.10000000000E+03  0.10000000000E+03 0.  0.
          5    1    3    3  501    0 -0.23680630538E+02  0.35645444017E+02  0.25427151987E+02  0.50000000000E+02  0.47000000000E+01 0. -1.
         -5    1    3    3    0  501  0.23680630538E+02 -0.35645444017E+02 -0.25427151987E+02  0.50000000000E+02  0.47000000000E+01 0.  1.
</event>
<event>
 5    1  0.8909620E-001  0.1000000E+03  0.7546771E-02  0.1163815E+00
         11   -1    0    0    0    0  0.00000000000E+00  0.00000000000E+00  0.50000000000E+02  0.50000000000E+02  0.00000000000E+00 0. -1.
        -11   -1    0    0    0    0 -0.00000000000E+00 -0.00000000000E+00 -0.50000000000E+02  0.50000000000E+02  0.00000000000E+00 0.  1.
         23    2    1    2    0    0  0.00000000000E+00  0.00000000000E+00  0.00000000000E+00  0.10000000000E+03  0.10000000000E+03 0.  0.
          5    1    3    3  501    0  0.24425438277E+02  0.34792502037E+02  0.25899609398E+02  0.50000000000E+02  0.47000000000E+01 0. -1.
         -5    1    3    3    0  501 -0.24425438277E+02 -0.34792502037E+02 -0.25899609398E+02  0.50000000000E+02  0.47000000000E+01 0.  1.
</event>
<event>
 5    1  0.8909620E-001  0.1000000E+03  0.7546771E-02  0.1163815E+00
         11   -1    0    0    0    0  0.00000000000E+00  0.00000000000E+00  0.50000000000E+02  0.50000000000E+02  0.00000000000E+00 0. -1.
        -11   -1    0    0    0    0 -0.00000000000E+00 -0.00000000000E+00 -0.50000000000E+02  0.50000000000E+02  0.00000000000E+00 0.  1.
         23    2    1    2    0    0  0.00000000000E+00  0.00000000000E+00  0.00000000000E+00  0.10000000000E+03  0.10000000000E+03 0.  0.
          5    1    3    3  501    0  0.23147258447E+02 -0.61173241055E+01  0.43642786027E+02  0.50000000000E+02  0.47000000000E+01 0. -1.
         -5    1    3    3    0  501 -0.23147258447E+02  0.61173241055E+01 -0.43642786027E+02  0.50000000000E+02  0.47000000000E+01 0.  1.
</event>
<event>
 5    1  0.8909620E-001  0.1000000E+03  0.7546771E-02  0.1163815E+00
         11   -1    0    0    0    0  0.00000000000E+00  0.00000000000E+00  0.50000000000E+02  0.50000000000E+02  0.00000000000E+00 0. -1.
        -11   -1    0    0    0    0 -0.00000000000E+00 -0.00000000000E+00 -0.50000000000E+02  0.50000000000E+02  0.00000000000E+00 0.  1.
         23    2    1    2    0    0  0.00000000000E+00  0.00000000000E+00  0.00000000000E+00  0.10000000000E+03  0.10000000000E+03 0.  0.
          5    1    3    3  501    0  0.33593407109E+02 -0.72095403972E+01  0.36019654719E+02  0.50000000000E+02  0.47000000000E+01 0. -1.
         -5    1    3    3    0  501 -0.33593407109E+02  0.72095403972E+01 -0.36019654719E+02  0.50000000000E+02  0.47000000000E+01 0.  1.
</event>
<event>
 5    1  0.8909620E-001  0.1000000E+03  0.7546771E-02  0.1163815E+00
         11   -1    0    0    0    0  0.00000000000E+00  0.00000000000E+00  0.50000000000E+02  0.50000000000E+02  0.00000000000E+00 0. -1.
        -11   -1    0    0    0    0 -0.00000000000E+00 -0.00000000000E+00 -0.50000000000E+02  0.50000000000E+02  0.00000000000E+00 0.  1.
         23    2    1    2    0    0  0.00000000000E+00  0.00000000000E+00  0.00000000000E+00  0.10000000000E+03  0.10000000000E+03 0.  0.
          5    1    3    3  501    0  0.21183680689E+02  0.37980411188E+02  0.24220859574E+02  0.50000000000E+02  0.47000000000E+01 0. -1.
         -5    1    3    3    0  501 -0.21183680689E+02 -0.37980411188E+02 -0.24220859574E+02  0.50000000000E+02  0.47000000000E+01 0.  1.
</event>
<event>
 5    1  0.8909620E-001  0.1000000E+03  0.7546771E-02  0.1163815E+00
         11   -1    0    0    0    0  0.00000000000E+00  0.00000000000E+00  0.50000000000E+02  0.50000000000E+02  0.00000000000E+00 0. -1.
        -11   -1    0    0    0    0 -0.00000000000E+00 -0.00000000000E+00 -0.50000000000E+02  0.50000000000E+02  0.00000000000E+00 0.  1.
         23    2    1    2    0    0  0.00000000000E+00  0.00000000000E+00  0.00000000000E+00  0.10000000000E+03  0.10000000000E+03 0.  0.
          5    1    3    3  501    0  0.37004507053E+02 -0.31204177488E+02 -0.11613602587E+02  0.50000000000E+02  0.47000000000E+01 0. -1.
         -5    1    3    3    0  501 -0.37004507053E+02  0.31204177488E+02  0.11613602587E+02  0.50000000000E+02  0.47000000000E+01 0.  1.
</event>
<event>
 5    1  0.8909620E-001  0.1000000E+03  0.7546771E-02  0.1163815E+00
         11   -1    0    0    0    0  0.00000000000E+00  0.00000000000E+00  0.50000000000E+02  0.50000000000E+02  0.00000000000E+00 0. -1.
        -11   -1    0    0    0    0 -0.00000000000E+00 -0.00000000000E+00 -0.50000000000E+02  0.50000000000E+02  0.00000000000E+00 0.  1.
         23    2    1    2    0    0  0.00000000000E+00  0.00000000000E+00  0.00000000000E+00  0.10000000000E+03  0.10000000000E+03 0.  0.
          5    1    3    3  501    0 -0.98580018908E+01  0.12936761507E+02  0.47046466397E+02  0.50000000000E+02  0.47000000000E+01 0. -1.
         -5    1    3    3    0  501  0.98580018908E+01 -0.12936761507E+02 -0.47046466397E+02  0.50000000000E+02  0.47000000000E+01 0.  1.
</event>
<event>
 5    1  0.8909620E-001  0.1000000E+03  0.7546771E-02  0.1163815E+00
         11   -1    0    0    0    0  0.00000000000E+00  0.00000000000E+00  0.50000000000E+02  0.50000000000E+02  0.00000000000E+00 0.  1.
        -11   -1    0    0    0    0 -0.00000000000E+00 -0.00000000000E+00 -0.50000000000E+02  0.50000000000E+02  0.00000000000E+00 0. -1.
         23    2    1    2    0    0  0.00000000000E+00  0.00000000000E+00  0.00000000000E+00  0.10000000000E+03  0.10000000000E+03 0.  0.
          5    1    3    3  501    0 -0.92137407638E+01  0.48689707773E+02  0.47253929011E+01  0.50000000000E+02  0.47000000000E+01 0. -1.
         -5    1    3    3    0  501  0.92137407638E+01 -0.48689707773E+02 -0.47253929011E+01  0.50000000000E+02  0.47000000000E+01 0.  1.
</event>
<event>
 5    1  0.8909620E-001  0.1000000E+03  0.7546771E-02  0.1163815E+00
         11   -1    0    0    0    0  0.00000000000E+00  0.00000000000E+00  0.50000000000E+02  0.50000000000E+02  0.00000000000E+00 0.  1.
        -11   -1    0    0    0    0 -0.00000000000E+00 -0.00000000000E+00 -0.50000000000E+02  0.50000000000E+02  0.00000000000E+00 0. -1.
         23    2    1    2    0    0  0.00000000000E+00  0.00000000000E+00  0.00000000000E+00  0.10000000000E+03  0.10000000000E+03 0.  0.
          5    1    3    3  501    0  0.14320395367E+02  0.46913253191E+02  0.84842767241E+01  0.50000000000E+02  0.47000000000E+01 0. -1.
         -5    1    3    3    0  501 -0.14320395367E+02 -0.46913253191E+02 -0.84842767241E+01  0.50000000000E+02  0.47000000000E+01 0.  1.
</event>
<event>
 5    1  0.8909620E-001  0.1000000E+03  0.7546771E-02  0.1163815E+00
         11   -1    0    0    0    0  0.00000000000E+00  0.00000000000E+00  0.50000000000E+02  0.50000000000E+02  0.00000000000E+00 0. -1.
        -11   -1    0    0    0    0 -0.00000000000E+00 -0.00000000000E+00 -0.50000000000E+02  0.50000000000E+02  0.00000000000E+00 0.  1.
         23    2    1    2    0    0  0.00000000000E+00  0.00000000000E+00  0.00000000000E+00  0.10000000000E+03  0.10000000000E+03 0.  0.
          5    1    3    3  501    0 -0.66952029526E+01  0.37678957387E+02  0.31833636733E+02  0.50000000000E+02  0.47000000000E+01 0. -1.
         -5    1    3    3    0  501  0.66952029526E+01 -0.37678957387E+02 -0.31833636733E+02  0.50000000000E+02  0.47000000000E+01 0.  1.
</event>
<event>
 5    1  0.8909620E-001  0.1000000E+03  0.7546771E-02  0.1163815E+00
         11   -1    0    0    0    0  0.00000000000E+00  0.00000000000E+00  0.50000000000E+02  0.50000000000E+02  0.00000000000E+00 0. -1.
        -11   -1    0    0    0    0 -0.00000000000E+00 -0.00000000000E+00 -0.50000000000E+02  0.50000000000E+02  0.00000000000E+00 0.  1.
         23    2    1    2    0    0  0.00000000000E+00  0.00000000000E+00  0.00000000000E+00  0.10000000000E+03  0.10000000000E+03 0.  0.
          5    1    3    3  501    0  0.22723099756E+02  0.83747016007E+01  0.43490632446E+02  0.50000000000E+02  0.47000000000E+01 0. -1.
         -5    1    3    3    0  501 -0.22723099756E+02 -0.83747016007E+01 -0.43490632446E+02  0.50000000000E+02  0.47000000000E+01 0.  1.
</event>
<event>
 5    1  0.8909620E-001  0.1000000E+03  0.7546771E-02  0.1163815E+00
         11   -1    0    0    0    0  0.00000000000E+00  0.00000000000E+00  0.50000000000E+02  0.50000000000E+02  0.00000000000E+00 0. -1.
        -11   -1    0    0    0    0 -0.00000000000E+00 -0.00000000000E+00 -0.50000000000E+02  0.50000000000E+02  0.00000000000E+00 0.  1.
         23    2    1    2    0    0  0.00000000000E+00  0.00000000000E+00  0.00000000000E+00  0.10000000000E+03  0.10000000000E+03 0.  0.
          5    1    3    3  501    0  0.20642820505E+02  0.15130778367E+02  0.42694771432E+02  0.50000000000E+02  0.47000000000E+01 0. -1.
         -5    1    3    3    0  501 -0.20642820505E+02 -0.15130778367E+02 -0.42694771432E+02  0.50000000000E+02  0.47000000000E+01 0.  1.
</event>
<event>
 5    1  0.8909620E-001  0.1000000E+03  0.7546771E-02  0.1163815E+00
         11   -1    0    0    0    0  0.00000000000E+00  0.00000000000E+00  0.50000000000E+02  0.50000000000E+02  0.00000000000E+00 0.  1.
        -11   -1    0    0    0    0 -0.00000000000E+00 -0.00000000000E+00 -0.50000000000E+02  0.50000000000E+02  0.00000000000E+00 0. -1.
         23    2    1    2    0    0  0.00000000000E+00  0.00000000000E+00  0.00000000000E+00  0.10000000000E+03  0.10000000000E+03 0.  0.
          5    1    3    3  501    0 -0.44329590365E+02  0.12477283953E+01 -0.22610630065E+02  0.50000000000E+02  0.47000000000E+01 0. -1.
         -5    1    3    3    0  501  0.44329590365E+02 -0.12477283953E+01  0.22610630065E+02  0.50000000000E+02  0.47000000000E+01 0.  1.
</event>
<event>
 5    1  0.8909620E-001  0.1000000E+03  0.7546771E-02  0.1163815E+00
         11   -1    0    0    0    0  0.00000000000E+00  0.00000000000E+00  0.50000000000E+02  0.50000000000E+02  0.00000000000E+00 0. -1.
        -11   -1    0    0    0    0 -0.00000000000E+00 -0.00000000000E+00 -0.50000000000E+02  0.50000000000E+02  0.00000000000E+00 0.  1.
         23    2    1    2    0    0  0.00000000000E+00  0.00000000000E+00  0.00000000000E+00  0.10000000000E+03  0.10000000000E+03 0.  0.
          5    1    3    3  501    0 -0.15662481556E+02  0.47088048862E+02 -0.39130967160E+01  0.50000000000E+02  0.47000000000E+01 0. -1.
         -5    1    3    3    0  501  0.15662481556E+02 -0.47088048862E+02  0.39130967160E+01  0.50000000000E+02  0.47000000000E+01 0.  1.
</event>
<event>
 5    1  0.8909620E-001  0.1000000E+03  0.7546771E-02  0.1163815E+00
         11   -1    0    0    0    0  0.00000000000E+00  0.00000000000E+00  0.50000000000E+02  0.50000000000E+02  0.00000000000E+00 0. -1.
        -11   -1    0    0    0    0 -0.00000000000E+00 -0.00000000000E+00 -0.50000000000E+02  0.50000000000E+02  0.00000000000E+00 0.  1.
         23    2    1    2    0    0  0.00000000000E+00  0.00000000000E+00  0.00000000000E+00  0.10000000000E+03  0.10000000000E+03 0.  0.
          5    1    3    3  501    0  0.32512112389E+02 -0.37391590232E+02 -0.47688078086E+01  0.50000000000E+02  0.47000000000E+01 0. -1.
         -5    1    3    3    0  501 -0.32512112389E+02  0.37391590232E+02  0.47688078086E+01  0.50000000000E+02  0.47000000000E+01 0.  1.
</event>
<event>
 5    1  0.8909620E-001  0.1000000E+03  0.7546771E-02  0.1163815E+00
         11   -1    0    0    0    0  0.00000000000E+00  0.00000000000E+00  0.50000000000E+02  0.50000000000E+02  0.00000000000E+00 0. -1.
        -11   -1    0    0    0    0 -0.00000000000E+00 -0.00000000000E+00 -0.50000000000E+02  0.50000000000E+02  0.00000000000E+00 0.  1.
         23    2    1    2    0    0  0.00000000000E+00  0.00000000000E+00  0.00000000000E+00  0.10000000000E+03  0.10000000000E+03 0.  0.
          5    1    3    3  501    0  0.85027554025E+01 -0.17620486457E+02  0.45772607612E+02  0.50000000000E+02  0.47000000000E+01 0. -1.
         -5    1    3    3    0  501 -0.85027554025E+01  0.17620486457E+02 -0.45772607612E+02  0.50000000000E+02  0.47000000000E+01 0.  1.
</event>
<event>
 5    1  0.8909620E-001  0.1000000E+03  0.7546771E-02  0.1163815E+00
         11   -1    0    0    0    0  0.00000000000E+00  0.00000000000E+00  0.50000000000E+02  0.50000000000E+02  0.00000000000E+00 0. -1.
        -11   -1    0    0    0    0 -0.00000000000E+00 -0.00000000000E+00 -0.50000000000E+02  0.50000000000E+02  0.00000000000E+00 0.  1.
         23    2    1    2    0    0  0.00000000000E+00  0.00000000000E+00  0.00000000000E+00  0.10000000000E+03  0.10000000000E+03 0.  0.
          5    1    3    3  501    0 -0.25034283611E+02  0.24308137216E+02  0.35500832514E+02  0.50000000000E+02  0.47000000000E+01 0. -1.
         -5    1    3    3    0  501  0.25034283611E+02 -0.24308137216E+02 -0.35500832514E+02  0.50000000000E+02  0.47000000000E+01 0.  1.
</event>
<event>
 5    1  0.8909620E-001  0.1000000E+03  0.7546771E-02  0.1163815E+00
         11   -1    0    0    0    0  0.00000000000E+00  0.00000000000E+00  0.50000000000E+02  0.50000000000E+02  0.00000000000E+00 0. -1.
        -11   -1    0    0    0    0 -0.00000000000E+00 -0.00000000000E+00 -0.50000000000E+02  0.50000000000E+02  0.00000000000E+00 0.  1.
         23    2    1    2    0    0  0.00000000000E+00  0.00000000000E+00  0.00000000000E+00  0.10000000000E+03  0.10000000000E+03 0.  0.
          5    1    3    3  501    0 -0.72853738515E+01  0.46153372386E+02 -0.17166815234E+02  0.50000000000E+02  0.47000000000E+01 0. -1.
         -5    1    3    3    0  501  0.72853738515E+01 -0.46153372386E+02  0.17166815234E+02  0.50000000000E+02  0.47000000000E+01 0.  1.
</event>
<event>
 5    1  0.8909620E-001  0.1000000E+03  0.7546771E-02  0.1163815E+00
         11   -1    0    0    0    0  0.00000000000E+00  0.00000000000E+00  0.50000000000E+02  0.50000000000E+02  0.00000000000E+00 0. -1.
        -11   -1    0    0    0    0 -0.00000000000E+00 -0.00000000000E+00 -0.50000000000E+02  0.50000000000E+02  0.00000000000E+00 0.  1.
         23    2    1    2    0    0  0.00000000000E+00  0.00000000000E+00  0.00000000000E+00  0.10000000000E+03  0.10000000000E+03 0.  0.
          5    1    3    3  501    0 -0.34306907283E+01  0.12081567832E+02  0.48168206110E+02  0.50000000000E+02  0.47000000000E+01 0. -1.
         -5    1    3    3    0  501  0.34306907283E+01 -0.12081567832E+02 -0.48168206110E+02  0.50000000000E+02  0.47000000000E+01 0.  1.
</event>
<event>
 5    1  0.8909620E-001  0.1000000E+03  0.7546771E-02  0.1163815E+00
         11   -1    0    0    0    0  0.00000000000E+00  0.00000000000E+00  0.50000000000E+02  0.50000000000E+02  0.00000000000E+00 0. -1.
        -11   -1    0    0    0    0 -0.00000000000E+00 -0.00000000000E+00 -0.50000000000E+02  0.50000000000E+02  0.00000000000E+00 0.  1.
         23    2    1    2    0    0  0.00000000000E+00  0.00000000000E+00  0.00000000000E+00  0.10000000000E+03  0.10000000000E+03 0.  0.
          5    1    3    3  501    0  0.59581816773E+01 -0.13087167490E+02  0.47656438371E+02  0.50000000000E+02  0.47000000000E+01 0. -1.
         -5    1    3    3    0  501 -0.59581816773E+01  0.13087167490E+02 -0.47656438371E+02  0.50000000000E+02  0.47000000000E+01 0.  1.
</event>
<event>
 5    1  0.8909620E-001  0.1000000E+03  0.7546771E-02  0.1163815E+00
         11   -1    0    0    0    0  0.00000000000E+00  0.00000000000E+00  0.50000000000E+02  0.50000000000E+02  0.00000000000E+00 0.  1.
        -11   -1    0    0    0    0 -0.00000000000E+00 -0.00000000000E+00 -0.50000000000E+02  0.50000000000E+02  0.00000000000E+00 0. -1.
         23    2    1    2    0    0  0.00000000000E+00  0.00000000000E+00  0.00000000000E+00  0.10000000000E+03  0.10000000000E+03 0.  0.
          5    1    3    3  501    0  0.22640143468E+02 -0.13388370732E+02 -0.42262103981E+02  0.50000000000E+02  0.47000000000E+01 0. -1.
         -5    1    3    3    0  501 -0.22640143468E+02  0.13388370732E+02  0.42262103981E+02  0.50000000000E+02  0.47000000000E+01 0.  1.
</event>
<event>
 5    1  0.8909620E-001  0.1000000E+03  0.7546771E-02  0.1163815E+00
         11   -1    0    0    0    0  0.00000000000E+00  0.00000000000E+00  0.50000000000E+02  0.50000000000E+02  0.00000000000E+00 0. -1.
        -11   -1    0    0    0    0 -0.00000000000E+00 -0.00000000000E+00 -0.50000000000E+02  0.50000000000E+02  0.00000000000E+00 0.  1.
         23    2    1    2    0    0  0.00000000000E+00  0.00000000000E+00  0.00000000000E+00  0.10000000000E+03  0.10000000000E+03 0.  0.
          5    1    3    3  501    0 -0.32398164204E+02 -0.54193631535E+01  0.37401864382E+02  0.50000000000E+02  0.47000000000E+01 0. -1.
         -5    1    3    3    0  501  0.32398164204E+02  0.54193631535E+01 -0.37401864382E+02  0.50000000000E+02  0.47000000000E+01 0.  1.
</event>
<event>
 5    1  0.8909620E-001  0.1000000E+03  0.7546771E-02  0.1163815E+00
         11   -1    0    0    0    0  0.00000000000E+00  0.00000000000E+00  0.50000000000E+02  0.50000000000E+02  0.00000000000E+00 0. -1.
        -11   -1    0    0    0    0 -0.00000000000E+00 -0.00000000000E+00 -0.50000000000E+02  0.50000000000E+02  0.00000000000E+00 0.  1.
         23    2    1    2    0    0  0.00000000000E+00  0.00000000000E+00  0.00000000000E+00  0.10000000000E+03  0.10000000000E+03 0.  0.
          5    1    3    3  501    0  0.60782349438E+01 -0.37778054871E+02  0.31839969067E+02  0.50000000000E+02  0.47000000000E+01 0. -1.
         -5    1    3    3    0  501 -0.60782349438E+01  0.37778054871E+02 -0.31839969067E+02  0.50000000000E+02  0.47000000000E+01 0.  1.
</event>
<event>
 5    1  0.8909620E-001  0.1000000E+03  0.7546771E-02  0.1163815E+00
         11   -1    0    0    0    0  0.00000000000E+00  0.00000000000E+00  0.50000000000E+02  0.50000000000E+02  0.00000000000E+00 0.  1.
        -11   -1    0    0    0    0 -0.00000000000E+00 -0.00000000000E+00 -0.50000000000E+02  0.50000000000E+02  0.00000000000E+00 0. -1.
         23    2    1    2    0    0  0.00000000000E+00  0.00000000000E+00  0.00000000000E+00  0.10000000000E+03  0.10000000000E+03 0.  0.
          5    1    3    3  501    0  0.30173002243E+02  0.34930553631E+02  0.18637498724E+02  0.50000000000E+02  0.47000000000E+01 0. -1.
         -5    1    3    3    0  501 -0.30173002243E+02 -0.34930553631E+02 -0.18637498724E+02  0.50000000000E+02  0.47000000000E+01 0.  1.
</event>
<event>
 5    1  0.8909620E-001  0.1000000E+03  0.7546771E-02  0.1163815E+00
         11   -1    0    0    0    0  0.00000000000E+00  0.00000000000E+00  0.50000000000E+02  0.50000000000E+02  0.00000000000E+00 0. -1.
        -11   -1    0    0    0    0 -0.00000000000E+00 -0.00000000000E+00 -0.50000000000E+02  0.50000000000E+02  0.00000000000E+00 0.  1.
         23    2    1    2    0    0  0.00000000000E+00  0.00000000000E+00  0.00000000000E+00  0.10000000000E+03  0.10000000000E+03 0.  0.
          5    1    3    3  501    0  0.31824846213E+02 -0.37544315316E+02  0.74507416417E+01  0.50000000000E+02  0.47000000000E+01 0. -1.
         -5    1    3    3    0  501 -0.31824846213E+02  0.37544315316E+02 -0.74507416417E+01  0.50000000000E+02  0.47000000000E+01 0.  1.
</event>
<event>
 5    1  0.8909620E-001  0.1000000E+03  0.7546771E-02  0.1163815E+00
         11   -1    0    0    0    0  0.00000000000E+00  0.00000000000E+00  0.50000000000E+02  0.50000000000E+02  0.00000000000E+00 0. -1.
        -11   -1    0    0    0    0 -0.00000000000E+00 -0.00000000000E+00 -0.50000000000E+02  0.50000000000E+02  0.00000000000E+00 0.  1.
         23    2    1    2    0    0  0.00000000000E+00  0.00000000000E+00  0.00000000000E+00  0.10000000000E+03  0.10000000000E+03 0.  0.
          5    1    3    3  501    0  0.17259601606E+02 -0.90841929913E+01  0.45798401611E+02  0.50000000000E+02  0.47000000000E+01 0. -1.
         -5    1    3    3    0  501 -0.17259601606E+02  0.90841929913E+01 -0.45798401611E+02  0.50000000000E+02  0.47000000000E+01 0.  1.
</event>
<event>
 5    1  0.8909620E-001  0.1000000E+03  0.7546771E-02  0.1163815E+00
         11   -1    0    0    0    0  0.00000000000E+00  0.00000000000E+00  0.50000000000E+02  0.50000000000E+02  0.00000000000E+00 0. -1.
        -11   -1    0    0    0    0 -0.00000000000E+00 -0.00000000000E+00 -0.50000000000E+02  0.50000000000E+02  0.00000000000E+00 0.  1.
         23    2    1    2    0    0  0.00000000000E+00  0.00000000000E+00  0.00000000000E+00  0.10000000000E+03  0.10000000000E+03 0.  0.
          5    1    3    3  501    0 -0.25037296747E+02 -0.12912181948E+02  0.41040459658E+02  0.50000000000E+02  0.47000000000E+01 0. -1.
         -5    1    3    3    0  501  0.25037296747E+02  0.12912181948E+02 -0.41040459658E+02  0.50000000000E+02  0.47000000000E+01 0.  1.
</event>
<event>
 5    1  0.8909620E-001  0.1000000E+03  0.7546771E-02  0.1163815E+00
         11   -1    0    0    0    0  0.00000000000E+00  0.00000000000E+00  0.50000000000E+02  0.50000000000E+02  0.00000000000E+00 0. -1.
        -11   -1    0    0    0    0 -0.00000000000E+00 -0.00000000000E+00 -0.50000000000E+02  0.50000000000E+02  0.00000000000E+00 0.  1.
         23    2    1    2    0    0  0.00000000000E+00  0.00000000000E+00  0.00000000000E+00  0.10000000000E+03  0.10000000000E+03 0.  0.
          5    1    3    3  501    0  0.49464298298E+02  0.15696976871E+01 -0.53599667038E+01  0.50000000000E+02  0.47000000000E+01 0. -1.
         -5    1    3    3    0  501 -0.49464298298E+02 -0.15696976871E+01  0.53599667038E+01  0.50000000000E+02  0.47000000000E+01 0.  1.
</event>
<event>
 5    1  0.8909620E-001  0.1000000E+03  0.7546771E-02  0.1163815E+00
         11   -1    0    0    0    0  0.00000000000E+00  0.00000000000E+00  0.50000000000E+02  0.50000000000E+02  0.00000000000E+00 0. -1.
        -11   -1    0    0    0    0 -0.00000000000E+00 -0.00000000000E+00 -0.50000000000E+02  0.50000000000E+02  0.00000000000E+00 0.  1.
         23    2    1    2    0    0  0.00000000000E+00  0.00000000000E+00  0.00000000000E+00  0.10000000000E+03  0.10000000000E+03 0.  0.
          5    1    3    3  501    0 -0.10692918604E+02  0.32408185125E+02  0.36239219481E+02  0.50000000000E+02  0.47000000000E+01 0. -1.
         -5    1    3    3    0  501  0.10692918604E+02 -0.32408185125E+02 -0.36239219481E+02  0.50000000000E+02  0.47000000000E+01 0.  1.
</event>
<event>
 5    1  0.8909620E-001  0.1000000E+03  0.7546771E-02  0.1163815E+00
         11   -1    0    0    0    0  0.00000000000E+00  0.00000000000E+00  0.50000000000E+02  0.50000000000E+02  0.00000000000E+00 0. -1.
        -11   -1    0    0    0    0 -0.00000000000E+00 -0.00000000000E+00 -0.50000000000E+02  0.50000000000E+02  0.00000000000E+00 0.  1.
         23    2    1    2    0    0  0.00000000000E+00  0.00000000000E+00  0.00000000000E+00  0.10000000000E+03  0.10000000000E+03 0.  0.
          5    1    3    3  501    0 -0.15529752493E+02 -0.34127181299E+02  0.32742514932E+02  0.50000000000E+02  0.47000000000E+01 0. -1.
         -5    1    3    3    0  501  0.15529752493E+02  0.34127181299E+02 -0.32742514932E+02  0.50000000000E+02  0.47000000000E+01 0.  1.
</event>
<event>
 5    1  0.8909620E-001  0.1000000E+03  0.7546771E-02  0.1163815E+00
         11   -1    0    0    0    0  0.00000000000E+00  0.00000000000E+00  0.50000000000E+02  0.50000000000E+02  0.00000000000E+00 0.  1.
        -11   -1    0    0    0    0 -0.00000000000E+00 -0.00000000000E+00 -0.50000000000E+02  0.50000000000E+02  0.00000000000E+00 0. -1.
         23    2    1    2    0    0  0.00000000000E+00  0.00000000000E+00  0.00000000000E+00  0.10000000000E+03  0.10000000000E+03 0.  0.
          5    1    3    3  501    0  0.25323691481E+02 -0.30245077907E+02  0.30362080170E+02  0.50000000000E+02  0.47000000000E+01 0. -1.
         -5    1    3    3    0  501 -0.25323691481E+02  0.30245077907E+02 -0.30362080170E+02  0.50000000000E+02  0.47000000000E+01 0.  1.
</event>
<event>
 5    1  0.8909620E-001  0.1000000E+03  0.7546771E-02  0.1163815E+00
         11   -1    0    0    0    0  0.00000000000E+00  0.00000000000E+00  0.50000000000E+02  0.50000000000E+02  0.00000000000E+00 0.  1.
        -11   -1    0    0    0    0 -0.00000000000E+00 -0.00000000000E+00 -0.50000000000E+02  0.50000000000E+02  0.00000000000E+00 0. -1.
         23    2    1    2    0    0  0.00000000000E+00  0.00000000000E+00  0.00000000000E+00  0.10000000000E+03  0.10000000000E+03 0.  0.
          5    1    3    3  501    0  0.25319718536E+02 -0.13909295934E+02 -0.40538294733E+02  0.50000000000E+02  0.47000000000E+01 0. -1.
         -5    1    3    3    0  501 -0.25319718536E+02  0.13909295934E+02  0.40538294733E+02  0.50000000000E+02  0.47000000000E+01 0.  1.
</event>
<event>
 5    1  0.8909620E-001  0.1000000E+03  0.7546771E-02  0.1163815E+00
         11   -1    0    0    0    0  0.00000000000E+00  0.00000000000E+00  0.50000000000E+02  0.50000000000E+02  0.00000000000E+00 0. -1.
        -11   -1    0    0    0    0 -0.00000000000E+00 -0.00000000000E+00 -0.50000000000E+02  0.50000000000E+02  0.00000000000E+00 0.  1.
         23    2    1    2    0    0  0.00000000000E+00  0.00000000000E+00  0.00000000000E+00  0.10000000000E+03  0.10000000000E+03 0.  0.
          5    1    3    3  501    0 -0.11602681453E+02 -0.40181370855E+02  0.26995281426E+02  0.50000000000E+02  0.47000000000E+01 0. -1.
         -5    1    3    3    0  501  0.11602681453E+02  0.40181370855E+02 -0.26995281426E+02  0.50000000000E+02  0.47000000000E+01 0.  1.
</event>
<event>
 5    1  0.8909620E-001  0.1000000E+03  0.7546771E-02  0.1163815E+00
         11   -1    0    0    0    0  0.00000000000E+00  0.00000000000E+00  0.50000000000E+02  0.50000000000E+02  0.00000000000E+00 0. -1.
        -11   -1    0    0    0    0 -0.00000000000E+00 -0.00000000000E+00 -0.50000000000E+02  0.50000000000E+02  0.00000000000E+00 0.  1.
         23    2    1    2    0    0  0.00000000000E+00  0.00000000000E+00  0.00000000000E+00  0.10000000000E+03  0.10000000000E+03 0.  0.
          5    1    3    3  501    0  0.84758789292E+01 -0.11572450698E+02  0.47667052156E+02  0.50000000000E+02  0.47000000000E+01 0. -1.
         -5    1    3    3    0  501 -0.84758789292E+01  0.11572450698E+02 -0.47667052156E+02  0.50000000000E+02  0.47000000000E+01 0.  1.
</event>
<event>
 5    1  0.8909620E-001  0.1000000E+03  0.7546771E-02  0.1163815E+00
         11   -1    0    0    0    0  0.00000000000E+00  0.00000000000E+00  0.50000000000E+02  0.50000000000E+02  0.00000000000E+00 0.  1.
        -11   -1    0    0    0    0 -0.00000000000E+00 -0.00000000000E+00 -0.50000000000E+02  0.50000000000E+02  0.00000000000E+00 0. -1.
         23    2    1    2    0    0  0.00000000000E+00  0.00000000000E+00  0.00000000000E+00  0.10000000000E+03  0.10000000000E+03 0.  0.
          5    1    3    3  501    0 -0.39695046700E+01 -0.23923677557E+02 -0.43471952852E+02  0.50000000000E+02  0.47000000000E+01 0. -1.
         -5    1    3    3    0  501  0.39695046700E+01  0.23923677557E+02  0.43471952852E+02  0.50000000000E+02  0.47000000000E+01 0.  1.
</event>
<event>
 5    1  0.8909620E-001  0.1000000E+03  0.7546771E-02  0.1163815E+00
         11   -1    0    0    0    0  0.00000000000E+00  0.00000000000E+00  0.50000000000E+02  0.50000000000E+02  0.00000000000E+00 0. -1.
        -11   -1    0    0    0    0 -0.00000000000E+00 -0.00000000000E+00 -0.50000000000E+02  0.50000000000E+02  0.00000000000E+00 0.  1.
         23    2    1    2    0    0  0.00000000000E+00  0.00000000000E+00  0.00000000000E+00  0.10000000000E+03  0.10000000000E+03 0.  0.
          5    1    3    3  501    0 -0.25419904517E+02 -0.33456203916E+02  0.26691213421E+02  0.50000000000E+02  0.47000000000E+01 0. -1.
         -5    1    3    3    0  501  0.25419904517E+02  0.33456203916E+02 -0.26691213421E+02  0.50000000000E+02  0.47000000000E+01 0.  1.
</event>
<event>
 5    1  0.8909620E-001  0.1000000E+03  0.7546771E-02  0.1163815E+00
         11   -1    0    0    0    0  0.00000000000E+00  0.00000000000E+00  0.50000000000E+02  0.50000000000E+02  0.00000000000E+00 0. -1.
        -11   -1    0    0    0    0 -0.00000000000E+00 -0.00000000000E+00 -0.50000000000E+02  0.50000000000E+02  0.00000000000E+00 0.  1.
         23    2    1    2    0    0  0.00000000000E+00  0.00000000000E+00  0.00000000000E+00  0.10000000000E+03  0.10000000000E+03 0.  0.
          5    1    3    3  501    0 -0.25011802258E+02  0.20310647991E+02  0.37944661364E+02  0.50000000000E+02  0.47000000000E+01 0. -1.
         -5    1    3    3    0  501  0.25011802258E+02 -0.20310647991E+02 -0.37944661364E+02  0.50000000000E+02  0.47000000000E+01 0.  1.
</event>
<event>
 5    1  0.8909620E-001  0.1000000E+03  0.7546771E-02  0.1163815E+00
         11   -1    0    0    0    0  0.00000000000E+00  0.00000000000E+00  0.50000000000E+02  0.50000000000E+02  0.00000000000E+00 0. -1.
        -11   -1    0    0    0    0 -0.00000000000E+00 -0.00000000000E+00 -0.50000000000E+02  0.50000000000E+02  0.00000000000E+00 0.  1.
         23    2    1    2    0    0  0.00000000000E+00  0.00000000000E+00  0.00000000000E+00  0.10000000000E+03  0.10000000000E+03 0.  0.
          5    1    3    3  501    0 -0.38988835376E+02 -0.13963782778E+02  0.27618716236E+02  0.50000000000E+02  0.47000000000E+01 0. -1.
         -5    1    3    3    0  501  0.38988835376E+02  0.13963782778E+02 -0.27618716236E+02  0.50000000000E+02  0.47000000000E+01 0.  1.
</event>
<event>
 5    1  0.8909620E-001  0.1000000E+03  0.7546771E-02  0.1163815E+00
         11   -1    0    0    0    0  0.00000000000E+00  0.00000000000E+00  0.50000000000E+02  0.50000000000E+02  0.00000000000E+00 0. -1.
        -11   -1    0    0    0    0 -0.00000000000E+00 -0.00000000000E+00 -0.50000000000E+02  0.50000000000E+02  0.00000000000E+00 0.  1.
         23    2    1    2    0    0  0.00000000000E+00  0.00000000000E+00  0.00000000000E+00  0.10000000000E+03  0.10000000000E+03 0.  0.
          5    1    3    3  501    0  0.72495869200E+01  0.13679190900E+02  0.47309969624E+02  0.50000000000E+02  0.47000000000E+01 0. -1.
         -5    1    3    3    0  501 -0.72495869200E+01 -0.13679190900E+02 -0.47309969624E+02  0.50000000000E+02  0.47000000000E+01 0.  1.
</event>
<event>
 5    1  0.8909620E-001  0.1000000E+03  0.7546771E-02  0.1163815E+00
         11   -1    0    0    0    0  0.00000000000E+00  0.00000000000E+00  0.50000000000E+02  0.50000000000E+02  0.00000000000E+00 0.  1.
        -11   -1    0    0    0    0 -0.00000000000E+00 -0.00000000000E+00 -0.50000000000E+02  0.50000000000E+02  0.00000000000E+00 0. -1.
         23    2    1    2    0    0  0.00000000000E+00  0.00000000000E+00  0.00000000000E+00  0.10000000000E+03  0.10000000000E+03 0.  0.
          5    1    3    3  501    0 -0.32514563571E+02 -0.12534049556E+02 -0.35547303097E+02  0.50000000000E+02  0.47000000000E+01 0. -1.
         -5    1    3    3    0  501  0.32514563571E+02  0.12534049556E+02  0.35547303097E+02  0.50000000000E+02  0.47000000000E+01 0.  1.
</event>
<event>
 5    1  0.8909620E-001  0.1000000E+03  0.7546771E-02  0.1163815E+00
         11   -1    0    0    0    0  0.00000000000E+00  0.00000000000E+00  0.50000000000E+02  0.50000000000E+02  0.00000000000E+00 0. -1.
        -11   -1    0    0    0    0 -0.00000000000E+00 -0.00000000000E+00 -0.50000000000E+02  0.50000000000E+02  0.00000000000E+00 0.  1.
         23    2    1    2    0    0  0.00000000000E+00  0.00000000000E+00  0.00000000000E+00  0.10000000000E+03  0.10000000000E+03 0.  0.
          5    1    3    3  501    0 -0.28569775452E+02  0.31939497974E+02  0.25328766251E+02  0.50000000000E+02  0.47000000000E+01 0. -1.
         -5    1    3    3    0  501  0.28569775452E+02 -0.31939497974E+02 -0.25328766251E+02  0.50000000000E+02  0.47000000000E+01 0.  1.
</event>
<event>
 5    1  0.8909620E-001  0.1000000E+03  0.7546771E-02  0.1163815E+00
         11   -1    0    0    0    0  0.00000000000E+00  0.00000000000E+00  0.50000000000E+02  0.50000000000E+02  0.00000000000E+00 0. -1.
        -11   -1    0    0    0    0 -0.00000000000E+00 -0.00000000000E+00 -0.50000000000E+02  0.50000000000E+02  0.00000000000E+00 0.  1.
         23    2    1    2    0    0  0.00000000000E+00  0.00000000000E+00  0.00000000000E+00  0.10000000000E+03  0.10000000000E+03 0.  0.
          5    1    3    3  501    0  0.63842288527E+01  0.28467950550E+02  0.40332708977E+02  0.50000000000E+02  0.47000000000E+01 0. -1.
         -5    1    3    3    0  501 -0.63842288527E+01 -0.28467950550E+02 -0.40332708977E+02  0.50000000000E+02  0.47000000000E+01 0.  1.
</event>
<event>
 5    1  0.8909620E-001  0.1000000E+03  0.7546771E-02  0.1163815E+00
         11   -1    0    0    0    0  0.00000000000E+00  0.00000000000E+00  0.50000000000E+02  0.50000000000E+02  0.00000000000E+00 0. -1.
        -11   -1    0    0    0    0 -0.00000000000E+00 -0.00000000000E+00 -0.50000000000E+02  0.50000000000E+02  0.00000000000E+00 0.  1.
         23    2    1    2    0    0  0.00000000000E+00  0.00000000000E+00  0.00000000000E+00  0.10000000000E+03  0.10000000000E+03 0.  0.
          5    1    3    3  501    0  0.38263159829E+02 -0.14942536745E+02  0.28116920093E+02  0.50000000000E+02  0.47000000000E+01 0. -1.
         -5    1    3    3    0  501 -0.38263159829E+02  0.14942536745E+02 -0.28116920093E+02  0.50000000000E+02  0.47000000000E+01 0.  1.
</event>
<event>
 5    1  0.8909620E-001  0.1000000E+03  0.7546771E-02  0.1163815E+00
         11   -1    0    0    0    0  0.00000000000E+00  0.00000000000E+00  0.50000000000E+02  0.50000000000E+02  0.00000000000E+00 0. -1.
        -11   -1    0    0    0    0 -0.00000000000E+00 -0.00000000000E+00 -0.50000000000E+02  0.50000000000E+02  0.00000000000E+00 0.  1.
         23    2    1    2    0    0  0.00000000000E+00  0.00000000000E+00  0.00000000000E+00  0.10000000000E+03  0.10000000000E+03 0.  0.
          5    1    3    3  501    0 -0.31707366029E+02  0.37300872510E+02  0.90109849340E+01  0.50000000000E+02  0.47000000000E+01 0. -1.
         -5    1    3    3    0  501  0.31707366029E+02 -0.37300872510E+02 -0.90109849340E+01  0.50000000000E+02  0.47000000000E+01 0.  1.
</event>
<event>
 5    1  0.8909620E-001  0.1000000E+03  0.7546771E-02  0.1163815E+00
         11   -1    0    0    0    0  0.00000000000E+00  0.00000000000E+00  0.50000000000E+02  0.50000000000E+02  0.00000000000E+00 0. -1.
        -11   -1    0    0    0    0 -0.00000000000E+00 -0.00000000000E+00 -0.50000000000E+02  0.50000000000E+02  0.00000000000E+00 0.  1.
         23    2    1    2    0    0  0.00000000000E+00  0.00000000000E+00  0.00000000000E+00  0.10000000000E+03  0.10000000000E+03 0.  0.
          5    1    3    3  501    0 -0.17431015316E+02 -0.16566069492E+02  0.43584802932E+02  0.50000000000E+02  0.47000000000E+01 0. -1.
         -5    1    3    3    0  501  0.17431015316E+02  0.16566069492E+02 -0.43584802932E+02  0.50000000000E+02  0.47000000000E+01 0.  1.
</event>
<event>
 5    1  0.8909620E-001  0.1000000E+03  0.7546771E-02  0.1163815E+00
         11   -1    0    0    0    0  0.00000000000E+00  0.00000000000E+00  0.50000000000E+02  0.50000000000E+02  0.00000000000E+00 0.  1.
        -11   -1    0    0    0    0 -0.00000000000E+00 -0.00000000000E+00 -0.50000000000E+02  0.50000000000E+02  0.00000000000E+00 0. -1.
         23    2    1    2    0    0  0.00000000000E+00  0.00000000000E+00  0.00000000000E+00  0.10000000000E+03  0.10000000000E+03 0.  0.
          5    1    3    3  501    0  0.44958350099E+02 -0.39077943044E+01 -0.21009186087E+02  0.50000000000E+02  0.47000000000E+01 0. -1.
         -5    1    3    3    0  501 -0.44958350099E+02  0.39077943044E+01  0.21009186087E+02  0.50000000000E+02  0.47000000000E+01 0.  1.
</event>
<event>
 5    1  0.8909620E-001  0.1000000E+03  0.7546771E-02  0.1163815E+00
         11   -1    0    0    0    0  0.00000000000E+00  0.00000000000E+00  0.50000000000E+02  0.50000000000E+02  0.00000000000E+00 0.  1.
        -11   -1    0    0    0    0 -0.00000000000E+00 -0.00000000000E+00 -0.50000000000E+02  0.50000000000E+02  0.00000000000E+00 0. -1.
         23    2    1    2    0    0  0.00000000000E+00  0.00000000000E+00  0.00000000000E+00  0.10000000000E+03  0.10000000000E+03 0.  0.
          5    1    3    3  501    0  0.41903528293E+02  0.94468900322E+01  0.25154732862E+02  0.50000000000E+02  0.47000000000E+01 0. -1.
         -5    1    3    3    0  501 -0.41903528293E+02 -0.94468900322E+01 -0.25154732862E+02  0.50000000000E+02  0.47000000000E+01 0.  1.
</event>
<event>
 5    1  0.8909620E-001  0.1000000E+03  0.7546771E-02  0.1163815E+00
         11   -1    0    0    0    0  0.00000000000E+00  0.00000000000E+00  0.50000000000E+02  0.50000000000E+02  0.00000000000E+00 0.  1.
        -11   -1    0    0    0    0 -0.00000000000E+00 -0.00000000000E+00 -0.50000000000E+02  0.50000000000E+02  0.00000000000E+00 0. -1.
         23    2    1    2    0    0  0.00000000000E+00  0.00000000000E+00  0.00000000000E+00  0.10000000000E+03  0.10000000000E+03 0.  0.
          5    1    3    3  501    0  0.24877982999E+02 -0.37659074803E+02 -0.20995000522E+02  0.50000000000E+02  0.47000000000E+01 0. -1.
         -5    1    3    3    0  501 -0.24877982999E+02  0.37659074803E+02  0.20995000522E+02  0.50000000000E+02  0.47000000000E+01 0.  1.
</event>
<event>
 5    1  0.8909620E-001  0.1000000E+03  0.7546771E-02  0.1163815E+00
         11   -1    0    0    0    0  0.00000000000E+00  0.00000000000E+00  0.50000000000E+02  0.50000000000E+02  0.00000000000E+00 0. -1.
        -11   -1    0    0    0    0 -0.00000000000E+00 -0.00000000000E+00 -0.50000000000E+02  0.50000000000E+02  0.00000000000E+00 0.  1.
         23    2    1    2    0    0  0.00000000000E+00  0.00000000000E+00  0.00000000000E+00  0.10000000000E+03  0.10000000000E+03 0.  0.
          5    1    3    3  501    0  0.40832352413E+02  0.28412191590E+02  0.18374889134E+01  0.50000000000E+02  0.47000000000E+01 0. -1.
         -5    1    3    3    0  501 -0.40832352413E+02 -0.28412191590E+02 -0.18374889134E+01  0.50000000000E+02  0.47000000000E+01 0.  1.
</event>
<event>
 5    1  0.8909620E-001  0.1000000E+03  0.7546771E-02  0.1163815E+00
         11   -1    0    0    0    0  0.00000000000E+00  0.00000000000E+00  0.50000000000E+02  0.50000000000E+02  0.00000000000E+00 0. -1.
        -11   -1    0    0    0    0 -0.00000000000E+00 -0.00000000000E+00 -0.50000000000E+02  0.50000000000E+02  0.00000000000E+00 0.  1.
         23    2    1    2    0    0  0.00000000000E+00  0.00000000000E+00  0.00000000000E+00  0.10000000000E+03  0.10000000000E+03 0.  0.
          5    1    3    3  501    0 -0.27955942223E+02 -0.35346583049E+02  0.21142241157E+02  0.50000000000E+02  0.47000000000E+01 0. -1.
         -5    1    3    3    0  501  0.27955942223E+02  0.35346583049E+02 -0.21142241157E+02  0.50000000000E+02  0.47000000000E+01 0.  1.
</event>
<event>
 5    1  0.8909620E-001  0.1000000E+03  0.7546771E-02  0.1163815E+00
         11   -1    0    0    0    0  0.00000000000E+00  0.00000000000E+00  0.50000000000E+02  0.50000000000E+02  0.00000000000E+00 0.  1.
        -11   -1    0    0    0    0 -0.00000000000E+00 -0.00000000000E+00 -0.50000000000E+02  0.50000000000E+02  0.00000000000E+00 0. -1.
         23    2    1    2    0    0  0.00000000000E+00  0.00000000000E+00  0.00000000000E+00  0.10000000000E+03  0.10000000000E+03 0.  0.
          5    1    3    3  501    0  0.22169299928E+02  0.39352872586E+02 -0.20923277944E+02  0.50000000000E+02  0.47000000000E+01 0. -1.
         -5    1    3    3    0  501 -0.22169299928E+02 -0.39352872586E+02  0.20923277944E+02  0.50000000000E+02  0.47000000000E+01 0.  1.
</event>
<event>
 5    1  0.8909620E-001  0.1000000E+03  0.7546771E-02  0.1163815E+00
         11   -1    0    0    0    0  0.00000000000E+00  0.00000000000E+00  0.50000000000E+02  0.50000000000E+02  0.00000000000E+00 0.  1.
        -11   -1    0    0    0    0 -0.00000000000E+00 -0.00000000000E+00 -0.50000000000E+02  0.50000000000E+02  0.00000000000E+00 0. -1.
         23    2    1    2    0    0  0.00000000000E+00  0.00000000000E+00  0.00000000000E+00  0.10000000000E+03  0.10000000000E+03 0.  0.
          5    1    3    3  501    0  0.35933844679E+02 -0.29069707434E+02 -0.18482989917E+02  0.50000000000E+02  0.47000000000E+01 0. -1.
         -5    1    3    3    0  501 -0.35933844679E+02  0.29069707434E+02  0.18482989917E+02  0.50000000000E+02  0.47000000000E+01 0.  1.
</event>
<event>
 5    1  0.8909620E-001  0.1000000E+03  0.7546771E-02  0.1163815E+00
         11   -1    0    0    0    0  0.00000000000E+00  0.00000000000E+00  0.50000000000E+02  0.50000000000E+02  0.00000000000E+00 0.  1.
        -11   -1    0    0    0    0 -0.00000000000E+00 -0.00000000000E+00 -0.50000000000E+02  0.50000000000E+02  0.00000000000E+00 0. -1.
         23    2    1    2    0    0  0.00000000000E+00  0.00000000000E+00  0.00000000000E+00  0.10000000000E+03  0.10000000000E+03 0.  0.
          5    1    3    3  501    0 -0.42202428714E+02 -0.24366443602E+02 -0.10155857266E+02  0.50000000000E+02  0.47000000000E+01 0. -1.
         -5    1    3    3    0  501  0.42202428714E+02  0.24366443602E+02  0.10155857266E+02  0.50000000000E+02  0.47000000000E+01 0.  1.
</event>
<event>
 5    1  0.8909620E-001  0.1000000E+03  0.7546771E-02  0.1163815E+00
         11   -1    0    0    0    0  0.00000000000E+00  0.00000000000E+00  0.50000000000E+02  0.50000000000E+02  0.00000000000E+00 0.  1.
        -11   -1    0    0    0    0 -0.00000000000E+00 -0.00000000000E+00 -0.50000000000E+02  0.50000000000E+02  0.00000000000E+00 0. -1.
         23    2    1    2    0    0  0.00000000000E+00  0.00000000000E+00  0.00000000000E+00  0.10000000000E+03  0.10000000000E+03 0.  0.
          5    1    3    3  501    0 -0.39824736203E+02  0.15952524039E+02 -0.25247125839E+02  0.50000000000E+02  0.47000000000E+01 0. -1.
         -5    1    3    3    0  501  0.39824736203E+02 -0.15952524039E+02  0.25247125839E+02  0.50000000000E+02  0.47000000000E+01 0.  1.
</event>
<event>
 5    1  0.8909620E-001  0.1000000E+03  0.7546771E-02  0.1163815E+00
         11   -1    0    0    0    0  0.00000000000E+00  0.00000000000E+00  0.50000000000E+02  0.50000000000E+02  0.00000000000E+00 0.  1.
        -11   -1    0    0    0    0 -0.00000000000E+00 -0.00000000000E+00 -0.50000000000E+02  0.50000000000E+02  0.00000000000E+00 0. -1.
         23    2    1    2    0    0  0.00000000000E+00  0.00000000000E+00  0.00000000000E+00  0.10000000000E+03  0.10000000000E+03 0.  0.
          5    1    3    3  501    0  0.14511667591E+02  0.42797088134E+02  0.20874164678E+02  0.50000000000E+02  0.47000000000E+01 0. -1.
         -5    1    3    3    0  501 -0.14511667591E+02 -0.42797088134E+02 -0.20874164678E+02  0.50000000000E+02  0.47000000000E+01 0.  1.
</event>
<event>
 5    1  0.8909620E-001  0.1000000E+03  0.7546771E-02  0.1163815E+00
         11   -1    0    0    0    0  0.00000000000E+00  0.00000000000E+00  0.50000000000E+02  0.50000000000E+02  0.00000000000E+00 0. -1.
        -11   -1    0    0    0    0 -0.00000000000E+00 -0.00000000000E+00 -0.50000000000E+02  0.50000000000E+02  0.00000000000E+00 0.  1.
         23    2    1    2    0    0  0.00000000000E+00  0.00000000000E+00  0.00000000000E+00  0.10000000000E+03  0.10000000000E+03 0.  0.
          5    1    3    3  501    0  0.12260556965E+02  0.34153678208E+02  0.34075137677E+02  0.50000000000E+02  0.47000000000E+01 0. -1.
         -5    1    3    3    0  501 -0.12260556965E+02 -0.34153678208E+02 -0.34075137677E+02  0.50000000000E+02  0.47000000000E+01 0.  1.
</event>
<event>
 5    1  0.8909620E-001  0.1000000E+03  0.7546771E-02  0.1163815E+00
         11   -1    0    0    0    0  0.00000000000E+00  0.00000000000E+00  0.50000000000E+02  0.50000000000E+02  0.00000000000E+00 0.  1.
        -11   -1    0    0    0    0 -0.00000000000E+00 -0.00000000000E+00 -0.50000000000E+02  0.50000000000E+02  0.00000000000E+00 0. -1.
         23    2    1    2    0    0  0.00000000000E+00  0.00000000000E+00  0.00000000000E+00  0.10000000000E+03  0.10000000000E+03 0.  0.
          5    1    3    3  501    0  0.22516115868E+01 -0.32068630358E+02  0.38005831029E+02  0.50000000000E+02  0.47000000000E+01 0.  1.
         -5    1    3    3    0  501 -0.22516115868E+01  0.32068630358E+02 -0.38005831029E+02  0.50000000000E+02  0.47000000000E+01 0. -1.
</event>
<event>
 5    1  0.8909620E-001  0.1000000E+03  0.7546771E-02  0.1163815E+00
         11   -1    0    0    0    0  0.00000000000E+00  0.00000000000E+00  0.50000000000E+02  0.50000000000E+02  0.00000000000E+00 0.  1.
        -11   -1    0    0    0    0 -0.00000000000E+00 -0.00000000000E+00 -0.50000000000E+02  0.50000000000E+02  0.00000000000E+00 0. -1.
         23    2    1    2    0    0  0.00000000000E+00  0.00000000000E+00  0.00000000000E+00  0.10000000000E+03  0.10000000000E+03 0.  0.
          5    1    3    3  501    0  0.29635985339E+02  0.48596291492E+01 -0.39698896427E+02  0.50000000000E+02  0.47000000000E+01 0. -1.
         -5    1    3    3    0  501 -0.29635985339E+02 -0.48596291492E+01  0.39698896427E+02  0.50000000000E+02  0.47000000000E+01 0.  1.
</event>
<event>
 5    1  0.8909620E-001  0.1000000E+03  0.7546771E-02  0.1163815E+00
         11   -1    0    0    0    0  0.00000000000E+00  0.00000000000E+00  0.50000000000E+02  0.50000000000E+02  0.00000000000E+00 0.  1.
        -11   -1    0    0    0    0 -0.00000000000E+00 -0.00000000000E+00 -0.50000000000E+02  0.50000000000E+02  0.00000000000E+00 0. -1.
         23    2    1    2    0    0  0.00000000000E+00  0.00000000000E+00  0.00000000000E+00  0.10000000000E+03  0.10000000000E+03 0.  0.
          5    1    3    3  501    0  0.14280111575E+02  0.81194058674E+01 -0.46990037899E+02  0.50000000000E+02  0.47000000000E+01 0. -1.
         -5    1    3    3    0  501 -0.14280111575E+02 -0.81194058674E+01  0.46990037899E+02  0.50000000000E+02  0.47000000000E+01 0.  1.
</event>
<event>
 5    1  0.8909620E-001  0.1000000E+03  0.7546771E-02  0.1163815E+00
         11   -1    0    0    0    0  0.00000000000E+00  0.00000000000E+00  0.50000000000E+02  0.50000000000E+02  0.00000000000E+00 0. -1.
        -11   -1    0    0    0    0 -0.00000000000E+00 -0.00000000000E+00 -0.50000000000E+02  0.50000000000E+02  0.00000000000E+00 0.  1.
         23    2    1    2    0    0  0.00000000000E+00  0.00000000000E+00  0.00000000000E+00  0.10000000000E+03  0.10000000000E+03 0.  0.
          5    1    3    3  501    0  0.14523208103E+02  0.44828057201E+02 -0.16044678681E+02  0.50000000000E+02  0.47000000000E+01 0. -1.
         -5    1    3    3    0  501 -0.14523208103E+02 -0.44828057201E+02  0.16044678681E+02  0.50000000000E+02  0.47000000000E+01 0.  1.
</event>
<event>
 5    1  0.8909620E-001  0.1000000E+03  0.7546771E-02  0.1163815E+00
         11   -1    0    0    0    0  0.00000000000E+00  0.00000000000E+00  0.50000000000E+02  0.50000000000E+02  0.00000000000E+00 0. -1.
        -11   -1    0    0    0    0 -0.00000000000E+00 -0.00000000000E+00 -0.50000000000E+02  0.50000000000E+02  0.00000000000E+00 0.  1.
         23    2    1    2    0    0  0.00000000000E+00  0.00000000000E+00  0.00000000000E+00  0.10000000000E+03  0.10000000000E+03 0.  0.
          5    1    3    3  501    0  0.29690557683E+02  0.12541369479E+02  0.37935403466E+02  0.50000000000E+02  0.47000000000E+01 0. -1.
         -5    1    3    3    0  501 -0.29690557683E+02 -0.12541369479E+02 -0.37935403466E+02  0.50000000000E+02  0.47000000000E+01 0.  1.
</event>
<event>
 5    1  0.8909620E-001  0.1000000E+03  0.7546771E-02  0.1163815E+00
         11   -1    0    0    0    0  0.00000000000E+00  0.00000000000E+00  0.50000000000E+02  0.50000000000E+02  0.00000000000E+00 0.  1.
        -11   -1    0    0    0    0 -0.00000000000E+00 -0.00000000000E+00 -0.50000000000E+02  0.50000000000E+02  0.00000000000E+00 0. -1.
         23    2    1    2    0    0  0.00000000000E+00  0.00000000000E+00  0.00000000000E+00  0.10000000000E+03  0.10000000000E+03 0.  0.
          5    1    3    3  501    0  0.29341062940E+02  0.97445152818E+01 -0.39013541847E+02  0.50000000000E+02  0.47000000000E+01 0. -1.
         -5    1    3    3    0  501 -0.29341062940E+02 -0.97445152818E+01  0.39013541847E+02  0.50000000000E+02  0.47000000000E+01 0.  1.
</event>
<event>
 5    1  0.8909620E-001  0.1000000E+03  0.7546771E-02  0.1163815E+00
         11   -1    0    0    0    0  0.00000000000E+00  0.00000000000E+00  0.50000000000E+02  0.50000000000E+02  0.00000000000E+00 0. -1.
        -11   -1    0    0    0    0 -0.00000000000E+00 -0.00000000000E+00 -0.50000000000E+02  0.50000000000E+02  0.00000000000E+00 0.  1.
         23    2    1    2    0    0  0.00000000000E+00  0.00000000000E+00  0.00000000000E+00  0.10000000000E+03  0.10000000000E+03 0.  0.
          5    1    3    3  501    0  0.12254641379E+02  0.14192712924E+02  0.46111827816E+02  0.50000000000E+02  0.47000000000E+01 0. -1.
         -5    1    3    3    0  501 -0.12254641379E+02 -0.14192712924E+02 -0.46111827816E+02  0.50000000000E+02  0.47000000000E+01 0.  1.
</event>
<event>
 5    1  0.8909620E-001  0.1000000E+03  0.7546771E-02  0.1163815E+00
         11   -1    0    0    0    0  0.00000000000E+00  0.00000000000E+00  0.50000000000E+02  0.50000000000E+02  0.00000000000E+00 0.  1.
        -11   -1    0    0    0    0 -0.00000000000E+00 -0.00000000000E+00 -0.50000000000E+02  0.50000000000E+02  0.00000000000E+00 0. -1.
         23    2    1    2    0    0  0.00000000000E+00  0.00000000000E+00  0.00000000000E+00  0.10000000000E+03  0.10000000000E+03 0.  0.
          5    1    3    3  501    0 -0.29074764592E+02  0.39480156669E+02  0.85956554927E+01  0.50000000000E+02  0.47000000000E+01 0. -1.
         -5    1    3    3    0  501  0.29074764592E+02 -0.39480156669E+02 -0.85956554927E+01  0.50000000000E+02  0.47000000000E+01 0.  1.
</event>
<event>
 5    1  0.8909620E-001  0.1000000E+03  0.7546771E-02  0.1163815E+00
         11   -1    0    0    0    0  0.00000000000E+00  0.00000000000E+00  0.50000000000E+02  0.50000000000E+02  0.00000000000E+00 0. -1.
        -11   -1    0    0    0    0 -0.00000000000E+00 -0.00000000000E+00 -0.50000000000E+02  0.50000000000E+02  0.00000000000E+00 0.  1.
         23    2    1    2    0    0  0.00000000000E+00  0.00000000000E+00  0.00000000000E+00  0.10000000000E+03  0.10000000000E+03 0.  0.
          5    1    3    3  501    0  0.48374176433E+02 -0.10536659967E+02  0.51795609056E+01  0.50000000000E+02  0.47000000000E+01 0. -1.
         -5    1    3    3    0  501 -0.48374176433E+02  0.10536659967E+02 -0.51795609056E+01  0.50000000000E+02  0.47000000000E+01 0.  1.
</event>
<event>
 5    1  0.8909620E-001  0.1000000E+03  0.7546771E-02  0.1163815E+00
         11   -1    0    0    0    0  0.00000000000E+00  0.00000000000E+00  0.50000000000E+02  0.50000000000E+02  0.00000000000E+00 0. -1.
        -11   -1    0    0    0    0 -0.00000000000E+00 -0.00000000000E+00 -0.50000000000E+02  0.50000000000E+02  0.00000000000E+00 0.  1.
         23    2    1    2    0    0  0.00000000000E+00  0.00000000000E+00  0.00000000000E+00  0.10000000000E+03  0.10000000000E+03 0.  0.
          5    1    3    3  501    0 -0.43255256541E+02 -0.20427844631E+02  0.13769384349E+02  0.50000000000E+02  0.47000000000E+01 0. -1.
         -5    1    3    3    0  501  0.43255256541E+02  0.20427844631E+02 -0.13769384349E+02  0.50000000000E+02  0.47000000000E+01 0.  1.
</event>
<event>
 5    1  0.8909620E-001  0.1000000E+03  0.7546771E-02  0.1163815E+00
         11   -1    0    0    0    0  0.00000000000E+00  0.00000000000E+00  0.50000000000E+02  0.50000000000E+02  0.00000000000E+00 0.  1.
        -11   -1    0    0    0    0 -0.00000000000E+00 -0.00000000000E+00 -0.50000000000E+02  0.50000000000E+02  0.00000000000E+00 0. -1.
         23    2    1    2    0    0  0.00000000000E+00  0.00000000000E+00  0.00000000000E+00  0.10000000000E+03  0.10000000000E+03 0.  0.
          5    1    3    3  501    0  0.18803393644E+02  0.23199692634E+02  0.39826080012E+02  0.50000000000E+02  0.47000000000E+01 0.  1.
         -5    1    3    3    0  501 -0.18803393644E+02 -0.23199692634E+02 -0.39826080012E+02  0.50000000000E+02  0.47000000000E+01 0. -1.
</event>
<event>
 5    1  0.8909620E-001  0.1000000E+03  0.7546771E-02  0.1163815E+00
         11   -1    0    0    0    0  0.00000000000E+00  0.00000000000E+00  0.50000000000E+02  0.50000000000E+02  0.00000000000E+00 0. -1.
        -11   -1    0    0    0    0 -0.00000000000E+00 -0.00000000000E+00 -0.50000000000E+02  0.50000000000E+02  0.00000000000E+00 0.  1.
         23    2    1    2    0    0  0.00000000000E+00  0.00000000000E+00  0.00000000000E+00  0.10000000000E+03  0.10000000000E+03 0.  0.
          5    1    3    3  501    0  0.30631072166E+02 -0.19527365135E+02  0.34034239067E+02  0.50000000000E+02  0.47000000000E+01 0. -1.
         -5    1    3    3    0  501 -0.30631072166E+02  0.19527365135E+02 -0.34034239067E+02  0.50000000000E+02  0.47000000000E+01 0.  1.
</event>
<event>
 5    1  0.8909620E-001  0.1000000E+03  0.7546771E-02  0.1163815E+00
         11   -1    0    0    0    0  0.00000000000E+00  0.00000000000E+00  0.50000000000E+02  0.50000000000E+02  0.00000000000E+00 0.  1.
        -11   -1    0    0    0    0 -0.00000000000E+00 -0.00000000000E+00 -0.50000000000E+02  0.50000000000E+02  0.00000000000E+00 0. -1.
         23    2    1    2    0    0  0.00000000000E+00  0.00000000000E+00  0.00000000000E+00  0.10000000000E+03  0.10000000000E+03 0.  0.
          5    1    3    3  501    0 -0.39633061405E+02  0.19640828128E+02 -0.22833491063E+02  0.50000000000E+02  0.47000000000E+01 0.  1.
         -5    1    3    3    0  501  0.39633061405E+02 -0.19640828128E+02  0.22833491063E+02  0.50000000000E+02  0.47000000000E+01 0. -1.
</event>
<event>
 5    1  0.8909620E-001  0.1000000E+03  0.7546771E-02  0.1163815E+00
         11   -1    0    0    0    0  0.00000000000E+00  0.00000000000E+00  0.50000000000E+02  0.50000000000E+02  0.00000000000E+00 0.  1.
        -11   -1    0    0    0    0 -0.00000000000E+00 -0.00000000000E+00 -0.50000000000E+02  0.50000000000E+02  0.00000000000E+00 0. -1.
         23    2    1    2    0    0  0.00000000000E+00  0.00000000000E+00  0.00000000000E+00  0.10000000000E+03  0.10000000000E+03 0.  0.
          5    1    3    3  501    0  0.44116972882E+02  0.22969919649E+02  0.19963704572E+01  0.50000000000E+02  0.47000000000E+01 0. -1.
         -5    1    3    3    0  501 -0.44116972882E+02 -0.22969919649E+02 -0.19963704572E+01  0.50000000000E+02  0.47000000000E+01 0.  1.
</event>
<event>
 5    1  0.8909620E-001  0.1000000E+03  0.7546771E-02  0.1163815E+00
         11   -1    0    0    0    0  0.00000000000E+00  0.00000000000E+00  0.50000000000E+02  0.50000000000E+02  0.00000000000E+00 0. -1.
        -11   -1    0    0    0    0 -0.00000000000E+00 -0.00000000000E+00 -0.50000000000E+02  0.50000000000E+02  0.00000000000E+00 0.  1.
         23    2    1    2    0    0  0.00000000000E+00  0.00000000000E+00  0.00000000000E+00  0.10000000000E+03  0.10000000000E+03 0.  0.
          5    1    3    3  501    0 -0.48934349372E+02 -0.91209541519E+01  0.38424851450E+00  0.50000000000E+02  0.47000000000E+01 0. -1.
         -5    1    3    3    0  501  0.48934349372E+02  0.91209541519E+01 -0.38424851450E+00  0.50000000000E+02  0.47000000000E+01 0.  1.
</event>
<event>
 5    1  0.8909620E-001  0.1000000E+03  0.7546771E-02  0.1163815E+00
         11   -1    0    0    0    0  0.00000000000E+00  0.00000000000E+00  0.50000000000E+02  0.50000000000E+02  0.00000000000E+00 0. -1.
        -11   -1    0    0    0    0 -0.00000000000E+00 -0.00000000000E+00 -0.50000000000E+02  0.50000000000E+02  0.00000000000E+00 0.  1.
         23    2    1    2    0    0  0.00000000000E+00  0.00000000000E+00  0.00000000000E+00  0.10000000000E+03  0.10000000000E+03 0.  0.
          5    1    3    3  501    0  0.30575192195E+02  0.24574018891E+02  0.30646128921E+02  0.50000000000E+02  0.47000000000E+01 0. -1.
         -5    1    3    3    0  501 -0.30575192195E+02 -0.24574018891E+02 -0.30646128921E+02  0.50000000000E+02  0.47000000000E+01 0.  1.
</event>
<event>
 5    1  0.8909620E-001  0.1000000E+03  0.7546771E-02  0.1163815E+00
         11   -1    0    0    0    0  0.00000000000E+00  0.00000000000E+00  0.50000000000E+02  0.50000000000E+02  0.00000000000E+00 0.  1.
        -11   -1    0    0    0    0 -0.00000000000E+00 -0.00000000000E+00 -0.50000000000E+02  0.50000000000E+02  0.00000000000E+00 0. -1.
         23    2    1    2    0    0  0.00000000000E+00  0.00000000000E+00  0.00000000000E+00  0.10000000000E+03  0.10000000000E+03 0.  0.
          5    1    3    3  501    0 -0.43566293047E+01  0.17158375039E+02  0.46524401631E+02  0.50000000000E+02  0.47000000000E+01 0.  1.
         -5    1    3    3    0  501  0.43566293047E+01 -0.17158375039E+02 -0.46524401631E+02  0.50000000000E+02  0.47000000000E+01 0. -1.
</event>
<event>
 5    1  0.8909620E-001  0.1000000E+03  0.7546771E-02  0.1163815E+00
         11   -1    0    0    0    0  0.00000000000E+00  0.00000000000E+00  0.50000000000E+02  0.50000000000E+02  0.00000000000E+00 0. -1.
        -11   -1    0    0    0    0 -0.00000000000E+00 -0.00000000000E+00 -0.50000000000E+02  0.50000000000E+02  0.00000000000E+00 0.  1.
         23    2    1    2    0    0  0.00000000000E+00  0.00000000000E+00  0.00000000000E+00  0.10000000000E+03  0.10000000000E+03 0.  0.
          5    1    3    3  501    0 -0.91486575057E+01 -0.40938142414E+02  0.26800756735E+02  0.50000000000E+02  0.47000000000E+01 0. -1.
         -5    1    3    3    0  501  0.91486575057E+01  0.40938142414E+02 -0.26800756735E+02  0.50000000000E+02  0.47000000000E+01 0.  1.
</event>
<event>
 5    1  0.8909620E-001  0.1000000E+03  0.7546771E-02  0.1163815E+00
         11   -1    0    0    0    0  0.00000000000E+00  0.00000000000E+00  0.50000000000E+02  0.50000000000E+02  0.00000000000E+00 0. -1.
        -11   -1    0    0    0    0 -0.00000000000E+00 -0.00000000000E+00 -0.50000000000E+02  0.50000000000E+02  0.00000000000E+00 0.  1.
         23    2    1    2    0    0  0.00000000000E+00  0.00000000000E+00  0.00000000000E+00  0.10000000000E+03  0.10000000000E+03 0.  0.
          5    1    3    3  501    0  0.53941748646E+01  0.29520836039E+02  0.39715653301E+02  0.50000000000E+02  0.47000000000E+01 0. -1.
         -5    1    3    3    0  501 -0.53941748646E+01 -0.29520836039E+02 -0.39715653301E+02  0.50000000000E+02  0.47000000000E+01 0.  1.
</event>
<event>
 5    1  0.8909620E-001  0.1000000E+03  0.7546771E-02  0.1163815E+00
         11   -1    0    0    0    0  0.00000000000E+00  0.00000000000E+00  0.50000000000E+02  0.50000000000E+02  0.00000000000E+00 0. -1.
        -11   -1    0    0    0    0 -0.00000000000E+00 -0.00000000000E+00 -0.50000000000E+02  0.50000000000E+02  0.00000000000E+00 0.  1.
         23    2    1    2    0    0  0.00000000000E+00  0.00000000000E+00  0.00000000000E+00  0.10000000000E+03  0.10000000000E+03 0.  0.
          5    1    3    3  501    0  0.29841655908E+02 -0.39817603933E+02  0.13942703118E+01  0.50000000000E+02  0.47000000000E+01 0. -1.
         -5    1    3    3    0  501 -0.29841655908E+02  0.39817603933E+02 -0.13942703118E+01  0.50000000000E+02  0.47000000000E+01 0.  1.
</event>
<event>
 5    1  0.8909620E-001  0.1000000E+03  0.7546771E-02  0.1163815E+00
         11   -1    0    0    0    0  0.00000000000E+00  0.00000000000E+00  0.50000000000E+02  0.50000000000E+02  0.00000000000E+00 0. -1.
        -11   -1    0    0    0    0 -0.00000000000E+00 -0.00000000000E+00 -0.50000000000E+02  0.50000000000E+02  0.00000000000E+00 0.  1.
         23    2    1    2    0    0  0.00000000000E+00  0.00000000000E+00  0.00000000000E+00  0.10000000000E+03  0.10000000000E+03 0.  0.
          5    1    3    3  501    0  0.62525302135E+01 -0.47721771689E+02 -0.12706233618E+02  0.50000000000E+02  0.47000000000E+01 0. -1.
         -5    1    3    3    0  501 -0.62525302135E+01  0.47721771689E+02  0.12706233618E+02  0.50000000000E+02  0.47000000000E+01 0.  1.
</event>
<event>
 5    1  0.8909620E-001  0.1000000E+03  0.7546771E-02  0.1163815E+00
         11   -1    0    0    0    0  0.00000000000E+00  0.00000000000E+00  0.50000000000E+02  0.50000000000E+02  0.00000000000E+00 0.  1.
        -11   -1    0    0    0    0 -0.00000000000E+00 -0.00000000000E+00 -0.50000000000E+02  0.50000000000E+02  0.00000000000E+00 0. -1.
         23    2    1    2    0    0  0.00000000000E+00  0.00000000000E+00  0.00000000000E+00  0.10000000000E+03  0.10000000000E+03 0.  0.
          5    1    3    3  501    0  0.18064667641E+02  0.10514156296E+02 -0.45177763340E+02  0.50000000000E+02  0.47000000000E+01 0. -1.
         -5    1    3    3    0  501 -0.18064667641E+02 -0.10514156296E+02  0.45177763340E+02  0.50000000000E+02  0.47000000000E+01 0.  1.
</event>
<event>
 5    1  0.8909620E-001  0.1000000E+03  0.7546771E-02  0.1163815E+00
         11   -1    0    0    0    0  0.00000000000E+00  0.00000000000E+00  0.50000000000E+02  0.50000000000E+02  0.00000000000E+00 0.  1.
        -11   -1    0    0    0    0 -0.00000000000E+00 -0.00000000000E+00 -0.50000000000E+02  0.50000000000E+02  0.00000000000E+00 0. -1.
         23    2    1    2    0    0  0.00000000000E+00  0.00000000000E+00  0.00000000000E+00  0.10000000000E+03  0.10000000000E+03 0.  0.
          5    1    3    3  501    0  0.44251940277E+02 -0.81363881310E+01 -0.21294951748E+02  0.50000000000E+02  0.47000000000E+01 0. -1.
         -5    1    3    3    0  501 -0.44251940277E+02  0.81363881310E+01  0.21294951748E+02  0.50000000000E+02  0.47000000000E+01 0.  1.
</event>
<event>
 5    1  0.8909620E-001  0.1000000E+03  0.7546771E-02  0.1163815E+00
         11   -1    0    0    0    0  0.00000000000E+00  0.00000000000E+00  0.50000000000E+02  0.50000000000E+02  0.00000000000E+00 0. -1.
        -11   -1    0    0    0    0 -0.00000000000E+00 -0.00000000000E+00 -0.50000000000E+02  0.50000000000E+02  0.00000000000E+00 0.  1.
         23    2    1    2    0    0  0.00000000000E+00  0.00000000000E+00  0.00000000000E+00  0.10000000000E+03  0.10000000000E+03 0.  0.
          5    1    3    3  501    0 -0.69479489155E+01 -0.22424057728E+02  0.43895303176E+02  0.50000000000E+02  0.47000000000E+01 0. -1.
         -5    1    3    3    0  501  0.69479489155E+01  0.22424057728E+02 -0.43895303176E+02  0.50000000000E+02  0.47000000000E+01 0.  1.
</event>
<event>
 5    1  0.8909620E-001  0.1000000E+03  0.7546771E-02  0.1163815E+00
         11   -1    0    0    0    0  0.00000000000E+00  0.00000000000E+00  0.50000000000E+02  0.50000000000E+02  0.00000000000E+00 0.  1.
        -11   -1    0    0    0    0 -0.00000000000E+00 -0.00000000000E+00 -0.50000000000E+02  0.50000000000E+02  0.00000000000E+00 0. -1.
         23    2    1    2    0    0  0.00000000000E+00  0.00000000000E+00  0.00000000000E+00  0.10000000000E+03  0.10000000000E+03 0.  0.
          5    1    3    3  501    0  0.39617318248E+02  0.27204161344E+02 -0.12973499929E+02  0.50000000000E+02  0.47000000000E+01 0. -1.
         -5    1    3    3    0  501 -0.39617318248E+02 -0.27204161344E+02  0.12973499929E+02  0.50000000000E+02  0.47000000000E+01 0.  1.
</event>
<event>
 5    1  0.8909620E-001  0.1000000E+03  0.7546771E-02  0.1163815E+00
         11   -1    0    0    0    0  0.00000000000E+00  0.00000000000E+00  0.50000000000E+02  0.50000000000E+02  0.00000000000E+00 0.  1.
        -11   -1    0    0    0    0 -0.00000000000E+00 -0.00000000000E+00 -0.50000000000E+02  0.50000000000E+02  0.00000000000E+00 0. -1.
         23    2    1    2    0    0  0.00000000000E+00  0.00000000000E+00  0.00000000000E+00  0.10000000000E+03  0.10000000000E+03 0.  0.
          5    1    3    3  501    0 -0.23449706498E+02  0.30054318842E+02 -0.32011860054E+02  0.50000000000E+02  0.47000000000E+01 0. -1.
         -5    1    3    3    0  501  0.23449706498E+02 -0.30054318842E+02  0.32011860054E+02  0.50000000000E+02  0.47000000000E+01 0.  1.
</event>
<event>
 5    1  0.8909620E-001  0.1000000E+03  0.7546771E-02  0.1163815E+00
         11   -1    0    0    0    0  0.00000000000E+00  0.00000000000E+00  0.50000000000E+02  0.50000000000E+02  0.00000000000E+00 0. -1.
        -11   -1    0    0    0    0 -0.00000000000E+00 -0.00000000000E+00 -0.50000000000E+02  0.50000000000E+02  0.00000000000E+00 0.  1.
         23    2    1    2    0    0  0.00000000000E+00  0.00000000000E+00  0.00000000000E+00  0.10000000000E+03  0.10000000000E+03 0.  0.
          5    1    3    3  501    0  0.14069911801E+02  0.30103360213E+01  0.47653808441E+02  0.50000000000E+02  0.47000000000E+01 0. -1.
         -5    1    3    3    0  501 -0.14069911801E+02 -0.30103360213E+01 -0.47653808441E+02  0.50000000000E+02  0.47000000000E+01 0.  1.
</event>
<event>
 5    1  0.8909620E-001  0.1000000E+03  0.7546771E-02  0.1163815E+00
         11   -1    0    0    0    0  0.00000000000E+00  0.00000000000E+00  0.50000000000E+02  0.50000000000E+02  0.00000000000E+00 0. -1.
        -11   -1    0    0    0    0 -0.00000000000E+00 -0.00000000000E+00 -0.50000000000E+02  0.50000000000E+02  0.00000000000E+00 0.  1.
         23    2    1    2    0    0  0.00000000000E+00  0.00000000000E+00  0.00000000000E+00  0.10000000000E+03  0.10000000000E+03 0.  0.
          5    1    3    3  501    0 -0.30704728218E+02  0.33251432036E+02  0.20723704605E+02  0.50000000000E+02  0.47000000000E+01 0. -1.
         -5    1    3    3    0  501  0.30704728218E+02 -0.33251432036E+02 -0.20723704605E+02  0.50000000000E+02  0.47000000000E+01 0.  1.
</event>
<event>
 5    1  0.8909620E-001  0.1000000E+03  0.7546771E-02  0.1163815E+00
         11   -1    0    0    0    0  0.00000000000E+00  0.00000000000E+00  0.50000000000E+02  0.50000000000E+02  0.00000000000E+00 0. -1.
        -11   -1    0    0    0    0 -0.00000000000E+00 -0.00000000000E+00 -0.50000000000E+02  0.50000000000E+02  0.00000000000E+00 0.  1.
         23    2    1    2    0    0  0.00000000000E+00  0.00000000000E+00  0.00000000000E+00  0.10000000000E+03  0.10000000000E+03 0.  0.
          5    1    3    3  501    0 -0.68943504741E+01 -0.48589078456E+02  0.83354295804E+01  0.50000000000E+02  0.47000000000E+01 0. -1.
         -5    1    3    3    0  501  0.68943504741E+01  0.48589078456E+02 -0.83354295804E+01  0.50000000000E+02  0.47000000000E+01 0.  1.
</event>
<event>
 5    1  0.8909620E-001  0.1000000E+03  0.7546771E-02  0.1163815E+00
         11   -1    0    0    0    0  0.00000000000E+00  0.00000000000E+00  0.50000000000E+02  0.50000000000E+02  0.00000000000E+00 0. -1.
        -11   -1    0    0    0    0 -0.00000000000E+00 -0.00000000000E+00 -0.50000000000E+02  0.50000000000E+02  0.00000000000E+00 0.  1.
         23    2    1    2    0    0  0.00000000000E+00  0.00000000000E+00  0.00000000000E+00  0.10000000000E+03  0.10000000000E+03 0.  0.
          5    1    3    3  501    0  0.49305212943E+02 -0.67917313808E+01 -0.88224797243E+00  0.50000000000E+02  0.47000000000E+01 0. -1.
         -5    1    3    3    0  501 -0.49305212943E+02  0.67917313808E+01  0.88224797243E+00  0.50000000000E+02  0.47000000000E+01 0.  1.
</event>
<event>
 5    1  0.8909620E-001  0.1000000E+03  0.7546771E-02  0.1163815E+00
         11   -1    0    0    0    0  0.00000000000E+00  0.00000000000E+00  0.50000000000E+02  0.50000000000E+02  0.00000000000E+00 0.  1.
        -11   -1    0    0    0    0 -0.00000000000E+00 -0.00000000000E+00 -0.50000000000E+02  0.50000000000E+02  0.00000000000E+00 0. -1.
         23    2    1    2    0    0  0.00000000000E+00  0.00000000000E+00  0.00000000000E+00  0.10000000000E+03  0.10000000000E+03 0.  0.
          5    1    3    3  501    0 -0.38295522640E+02 -0.46833893739E+01 -0.31455187326E+02  0.50000000000E+02  0.47000000000E+01 0. -1.
         -5    1    3    3    0  501  0.38295522640E+02  0.46833893739E+01  0.31455187326E+02  0.50000000000E+02  0.47000000000E+01 0.  1.
</event>
<event>
 5    1  0.8909620E-001  0.1000000E+03  0.7546771E-02  0.1163815E+00
         11   -1    0    0    0    0  0.00000000000E+00  0.00000000000E+00  0.50000000000E+02  0.50000000000E+02  0.00000000000E+00 0. -1.
        -11   -1    0    0    0    0 -0.00000000000E+00 -0.00000000000E+00 -0.50000000000E+02  0.50000000000E+02  0.00000000000E+00 0.  1.
         23    2    1    2    0    0  0.00000000000E+00  0.00000000000E+00  0.00000000000E+00  0.10000000000E+03  0.10000000000E+03 0.  0.
          5    1    3    3  501    0 -0.12391980110E+02 -0.23143413528E+02  0.42293394747E+02  0.50000000000E+02  0.47000000000E+01 0. -1.
         -5    1    3    3    0  501  0.12391980110E+02  0.23143413528E+02 -0.42293394747E+02  0.50000000000E+02  0.47000000000E+01 0.  1.
</event>
<event>
 5    1  0.8909620E-001  0.1000000E+03  0.7546771E-02  0.1163815E+00
         11   -1    0    0    0    0  0.00000000000E+00  0.00000000000E+00  0.50000000000E+02  0.50000000000E+02  0.00000000000E+00 0.  1.
        -11   -1    0    0    0    0 -0.00000000000E+00 -0.00000000000E+00 -0.50000000000E+02  0.50000000000E+02  0.00000000000E+00 0. -1.
         23    2    1    2    0    0  0.00000000000E+00  0.00000000000E+00  0.00000000000E+00  0.10000000000E+03  0.10000000000E+03 0.  0.
          5    1    3    3  501    0 -0.44055019472E+02  0.22259408089E+02  0.64485665724E+01  0.50000000000E+02  0.47000000000E+01 0. -1.
         -5    1    3    3    0  501  0.44055019472E+02 -0.22259408089E+02 -0.64485665724E+01  0.50000000000E+02  0.47000000000E+01 0.  1.
</event>
<event>
 5    1  0.8909620E-001  0.1000000E+03  0.7546771E-02  0.1163815E+00
         11   -1    0    0    0    0  0.00000000000E+00  0.00000000000E+00  0.50000000000E+02  0.50000000000E+02  0.00000000000E+00 0. -1.
        -11   -1    0    0    0    0 -0.00000000000E+00 -0.00000000000E+00 -0.50000000000E+02  0.50000000000E+02  0.00000000000E+00 0.  1.
         23    2    1    2    0    0  0.00000000000E+00  0.00000000000E+00  0.00000000000E+00  0.10000000000E+03  0.10000000000E+03 0.  0.
          5    1    3    3  501    0  0.34560902153E+01  0.72270982058E+01  0.49129771951E+02  0.50000000000E+02  0.47000000000E+01 0. -1.
         -5    1    3    3    0  501 -0.34560902153E+01 -0.72270982058E+01 -0.49129771951E+02  0.50000000000E+02  0.47000000000E+01 0.  1.
</event>
<event>
 5    1  0.8909620E-001  0.1000000E+03  0.7546771E-02  0.1163815E+00
         11   -1    0    0    0    0  0.00000000000E+00  0.00000000000E+00  0.50000000000E+02  0.50000000000E+02  0.00000000000E+00 0.  1.
        -11   -1    0    0    0    0 -0.00000000000E+00 -0.00000000000E+00 -0.50000000000E+02  0.50000000000E+02  0.00000000000E+00 0. -1.
         23    2    1    2    0    0  0.00000000000E+00  0.00000000000E+00  0.00000000000E+00  0.10000000000E+03  0.10000000000E+03 0.  0.
          5    1    3    3  501    0  0.42956172058E+02 -0.15414780628E+02 -0.19876162113E+02  0.50000000000E+02  0.47000000000E+01 0. -1.
         -5    1    3    3    0  501 -0.42956172058E+02  0.15414780628E+02  0.19876162113E+02  0.50000000000E+02  0.47000000000E+01 0.  1.
</event>
<event>
 5    1  0.8909620E-001  0.1000000E+03  0.7546771E-02  0.1163815E+00
         11   -1    0    0    0    0  0.00000000000E+00  0.00000000000E+00  0.50000000000E+02  0.50000000000E+02  0.00000000000E+00 0. -1.
        -11   -1    0    0    0    0 -0.00000000000E+00 -0.00000000000E+00 -0.50000000000E+02  0.50000000000E+02  0.00000000000E+00 0.  1.
         23    2    1    2    0    0  0.00000000000E+00  0.00000000000E+00  0.00000000000E+00  0.10000000000E+03  0.10000000000E+03 0.  0.
          5    1    3    3  501    0  0.36308662515E+02  0.30728618780E+02  0.14674570326E+02  0.50000000000E+02  0.47000000000E+01 0. -1.
         -5    1    3    3    0  501 -0.36308662515E+02 -0.30728618780E+02 -0.14674570326E+02  0.50000000000E+02  0.47000000000E+01 0.  1.
</event>
<event>
 5    1  0.8909620E-001  0.1000000E+03  0.7546771E-02  0.1163815E+00
         11   -1    0    0    0    0  0.00000000000E+00  0.00000000000E+00  0.50000000000E+02  0.50000000000E+02  0.00000000000E+00 0.  1.
        -11   -1    0    0    0    0 -0.00000000000E+00 -0.00000000000E+00 -0.50000000000E+02  0.50000000000E+02  0.00000000000E+00 0. -1.
         23    2    1    2    0    0  0.00000000000E+00  0.00000000000E+00  0.00000000000E+00  0.10000000000E+03  0.10000000000E+03 0.  0.
          5    1    3    3  501    0  0.14177552284E+02  0.21569224714E+02 -0.42563782215E+02  0.50000000000E+02  0.47000000000E+01 0. -1.
         -5    1    3    3    0  501 -0.14177552284E+02 -0.21569224714E+02  0.42563782215E+02  0.50000000000E+02  0.47000000000E+01 0.  1.
</event>
<event>
 5    1  0.8909620E-001  0.1000000E+03  0.7546771E-02  0.1163815E+00
         11   -1    0    0    0    0  0.00000000000E+00  0.00000000000E+00  0.50000000000E+02  0.50000000000E+02  0.00000000000E+00 0. -1.
        -11   -1    0    0    0    0 -0.00000000000E+00 -0.00000000000E+00 -0.50000000000E+02  0.50000000000E+02  0.00000000000E+00 0.  1.
         23    2    1    2    0    0  0.00000000000E+00  0.00000000000E+00  0.00000000000E+00  0.10000000000E+03  0.10000000000E+03 0.  0.
          5    1    3    3  501    0  0.53379404451E+00 -0.22519369851E+02  0.44390348562E+02  0.50000000000E+02  0.47000000000E+01 0. -1.
         -5    1    3    3    0  501 -0.53379404451E+00  0.22519369851E+02 -0.44390348562E+02  0.50000000000E+02  0.47000000000E+01 0.  1.
</event>
<event>
 5    1  0.8909620E-001  0.1000000E+03  0.7546771E-02  0.1163815E+00
         11   -1    0    0    0    0  0.00000000000E+00  0.00000000000E+00  0.50000000000E+02  0.50000000000E+02  0.00000000000E+00 0.  1.
        -11   -1    0    0    0    0 -0.00000000000E+00 -0.00000000000E+00 -0.50000000000E+02  0.50000000000E+02  0.00000000000E+00 0. -1.
         23    2    1    2    0    0  0.00000000000E+00  0.00000000000E+00  0.00000000000E+00  0.10000000000E+03  0.10000000000E+03 0.  0.
          5    1    3    3  501    0 -0.19841282241E+01  0.26657324313E+02  0.41992383782E+02  0.50000000000E+02  0.47000000000E+01 0.  1.
         -5    1    3    3    0  501  0.19841282241E+01 -0.26657324313E+02 -0.41992383782E+02  0.50000000000E+02  0.47000000000E+01 0. -1.
</event>
<event>
 5    1  0.8909620E-001  0.1000000E+03  0.7546771E-02  0.1163815E+00
         11   -1    0    0    0    0  0.00000000000E+00  0.00000000000E+00  0.50000000000E+02  0.50000000000E+02  0.00000000000E+00 0. -1.
        -11   -1    0    0    0    0 -0.00000000000E+00 -0.00000000000E+00 -0.50000000000E+02  0.50000000000E+02  0.00000000000E+00 0.  1.
         23    2    1    2    0    0  0.00000000000E+00  0.00000000000E+00  0.00000000000E+00  0.10000000000E+03  0.10000000000E+03 0.  0.
          5    1    3    3  501    0  0.21142217598E+02  0.34399143482E+02  0.29113837993E+02  0.50000000000E+02  0.47000000000E+01 0. -1.
         -5    1    3    3    0  501 -0.21142217598E+02 -0.34399143482E+02 -0.29113837993E+02  0.50000000000E+02  0.47000000000E+01 0.  1.
</event>
<event>
 5    1  0.8909620E-001  0.1000000E+03  0.7546771E-02  0.1163815E+00
         11   -1    0    0    0    0  0.00000000000E+00  0.00000000000E+00  0.50000000000E+02  0.50000000000E+02  0.00000000000E+00 0.  1.
        -11   -1    0    0    0    0 -0.00000000000E+00 -0.00000000000E+00 -0.50000000000E+02  0.50000000000E+02  0.00000000000E+00 0. -1.
         23    2    1    2    0    0  0.00000000000E+00  0.00000000000E+00  0.00000000000E+00  0.10000000000E+03  0.10000000000E+03 0.  0.
          5    1    3    3  501    0 -0.23326158585E+02 -0.43482084392E+02 -0.65657187422E+01  0.50000000000E+02  0.47000000000E+01 0. -1.
         -5    1    3    3    0  501  0.23326158585E+02  0.43482084392E+02  0.65657187422E+01  0.50000000000E+02  0.47000000000E+01 0.  1.
</event>
<event>
 5    1  0.8909620E-001  0.1000000E+03  0.7546771E-02  0.1163815E+00
         11   -1    0    0    0    0  0.00000000000E+00  0.00000000000E+00  0.50000000000E+02  0.50000000000E+02  0.00000000000E+00 0. -1.
        -11   -1    0    0    0    0 -0.00000000000E+00 -0.00000000000E+00 -0.50000000000E+02  0.50000000000E+02  0.00000000000E+00 0.  1.
         23    2    1    2    0    0  0.00000000000E+00  0.00000000000E+00  0.00000000000E+00  0.10000000000E+03  0.10000000000E+03 0.  0.
          5    1    3    3  501    0  0.17295219718E+02  0.16190342292E+02  0.43779654994E+02  0.50000000000E+02  0.47000000000E+01 0. -1.
         -5    1    3    3    0  501 -0.17295219718E+02 -0.16190342292E+02 -0.43779654994E+02  0.50000000000E+02  0.47000000000E+01 0.  1.
</event>
<event>
 5    1  0.8909620E-001  0.1000000E+03  0.7546771E-02  0.1163815E+00
         11   -1    0    0    0    0  0.00000000000E+00  0.00000000000E+00  0.50000000000E+02  0.50000000000E+02  0.00000000000E+00 0.  1.
        -11   -1    0    0    0    0 -0.00000000000E+00 -0.00000000000E+00 -0.50000000000E+02  0.50000000000E+02  0.00000000000E+00 0. -1.
         23    2    1    2    0    0  0.00000000000E+00  0.00000000000E+00  0.00000000000E+00  0.10000000000E+03  0.10000000000E+03 0.  0.
          5    1    3    3  501    0  0.21511699142E+02 -0.43310597484E+02 -0.11804615438E+02  0.50000000000E+02  0.47000000000E+01 0. -1.
         -5    1    3    3    0  501 -0.21511699142E+02  0.43310597484E+02  0.11804615438E+02  0.50000000000E+02  0.47000000000E+01 0.  1.
</event>
<event>
 5    1  0.8909620E-001  0.1000000E+03  0.7546771E-02  0.1163815E+00
         11   -1    0    0    0    0  0.00000000000E+00  0.00000000000E+00  0.50000000000E+02  0.50000000000E+02  0.00000000000E+00 0. -1.
        -11   -1    0    0    0    0 -0.00000000000E+00 -0.00000000000E+00 -0.50000000000E+02  0.50000000000E+02  0.00000000000E+00 0.  1.
         23    2    1    2    0    0  0.00000000000E+00  0.00000000000E+00  0.00000000000E+00  0.10000000000E+03  0.10000000000E+03 0.  0.
          5    1    3    3  501    0  0.48877049004E+02 -0.82151805783E+01 -0.46319422220E+01  0.50000000000E+02  0.47000000000E+01 0. -1.
         -5    1    3    3    0  501 -0.48877049004E+02  0.82151805783E+01  0.46319422220E+01  0.50000000000E+02  0.47000000000E+01 0.  1.
</event>
<event>
 5    1  0.8909620E-001  0.1000000E+03  0.7546771E-02  0.1163815E+00
         11   -1    0    0    0    0  0.00000000000E+00  0.00000000000E+00  0.50000000000E+02  0.50000000000E+02  0.00000000000E+00 0. -1.
        -11   -1    0    0    0    0 -0.00000000000E+00 -0.00000000000E+00 -0.50000000000E+02  0.50000000000E+02  0.00000000000E+00 0.  1.
         23    2    1    2    0    0  0.00000000000E+00  0.00000000000E+00  0.00000000000E+00  0.10000000000E+03  0.10000000000E+03 0.  0.
          5    1    3    3  501    0 -0.19509349866E+02  0.12610496977E+01  0.45778870907E+02  0.50000000000E+02  0.47000000000E+01 0. -1.
         -5    1    3    3    0  501  0.19509349866E+02 -0.12610496977E+01 -0.45778870907E+02  0.50000000000E+02  0.47000000000E+01 0.  1.
</event>
<event>
 5    1  0.8909620E-001  0.1000000E+03  0.7546771E-02  0.1163815E+00
         11   -1    0    0    0    0  0.00000000000E+00  0.00000000000E+00  0.50000000000E+02  0.50000000000E+02  0.00000000000E+00 0.  1.
        -11   -1    0    0    0    0 -0.00000000000E+00 -0.00000000000E+00 -0.50000000000E+02  0.50000000000E+02  0.00000000000E+00 0. -1.
         23    2    1    2    0    0  0.00000000000E+00  0.00000000000E+00  0.00000000000E+00  0.10000000000E+03  0.10000000000E+03 0.  0.
          5    1    3    3  501    0 -0.25672064241E+02 -0.51927823916E+01 -0.42330723223E+02  0.50000000000E+02  0.47000000000E+01 0. -1.
         -5    1    3    3    0  501  0.25672064241E+02  0.51927823916E+01  0.42330723223E+02  0.50000000000E+02  0.47000000000E+01 0.  1.
</event>
<event>
 5    1  0.8909620E-001  0.1000000E+03  0.7546771E-02  0.1163815E+00
         11   -1    0    0    0    0  0.00000000000E+00  0.00000000000E+00  0.50000000000E+02  0.50000000000E+02  0.00000000000E+00 0. -1.
        -11   -1    0    0    0    0 -0.00000000000E+00 -0.00000000000E+00 -0.50000000000E+02  0.50000000000E+02  0.00000000000E+00 0.  1.
         23    2    1    2    0    0  0.00000000000E+00  0.00000000000E+00  0.00000000000E+00  0.10000000000E+03  0.10000000000E+03 0.  0.
          5    1    3    3  501    0 -0.74035607819E+01  0.67640768810E+01  0.48758020383E+02  0.50000000000E+02  0.47000000000E+01 0. -1.
         -5    1    3    3    0  501  0.74035607819E+01 -0.67640768810E+01 -0.48758020383E+02  0.50000000000E+02  0.47000000000E+01 0.  1.
</event>
<event>
 5    1  0.8909620E-001  0.1000000E+03  0.7546771E-02  0.1163815E+00
         11   -1    0    0    0    0  0.00000000000E+00  0.00000000000E+00  0.50000000000E+02  0.50000000000E+02  0.00000000000E+00 0. -1.
        -11   -1    0    0    0    0 -0.00000000000E+00 -0.00000000000E+00 -0.50000000000E+02  0.50000000000E+02  0.00000000000E+00 0.  1.
         23    2    1    2    0    0  0.00000000000E+00  0.00000000000E+00  0.00000000000E+00  0.10000000000E+03  0.10000000000E+03 0.  0.
          5    1    3    3  501    0 -0.42530343867E+02  0.10511931238E+01  0.25845209296E+02  0.50000000000E+02  0.47000000000E+01 0. -1.
         -5    1    3    3    0  501  0.42530343867E+02 -0.10511931238E+01 -0.25845209296E+02  0.50000000000E+02  0.47000000000E+01 0.  1.
</event>
<event>
 5    1  0.8909620E-001  0.1000000E+03  0.7546771E-02  0.1163815E+00
         11   -1    0    0    0    0  0.00000000000E+00  0.00000000000E+00  0.50000000000E+02  0.50000000000E+02  0.00000000000E+00 0. -1.
        -11   -1    0    0    0    0 -0.00000000000E+00 -0.00000000000E+00 -0.50000000000E+02  0.50000000000E+02  0.00000000000E+00 0.  1.
         23    2    1    2    0    0  0.00000000000E+00  0.00000000000E+00  0.00000000000E+00  0.10000000000E+03  0.10000000000E+03 0.  0.
          5    1    3    3  501    0 -0.15195740656E+02  0.20087871474E+02  0.42935729708E+02  0.50000000000E+02  0.47000000000E+01 0. -1.
         -5    1    3    3    0  501  0.15195740656E+02 -0.20087871474E+02 -0.42935729708E+02  0.50000000000E+02  0.47000000000E+01 0.  1.
</event>
<event>
 5    1  0.8909620E-001  0.1000000E+03  0.7546771E-02  0.1163815E+00
         11   -1    0    0    0    0  0.00000000000E+00  0.00000000000E+00  0.50000000000E+02  0.50000000000E+02  0.00000000000E+00 0. -1.
        -11   -1    0    0    0    0 -0.00000000000E+00 -0.00000000000E+00 -0.50000000000E+02  0.50000000000E+02  0.00000000000E+00 0.  1.
         23    2    1    2    0    0  0.00000000000E+00  0.00000000000E+00  0.00000000000E+00  0.10000000000E+03  0.10000000000E+03 0.  0.
          5    1    3    3  501    0 -0.30616107209E+02 -0.38588366917E+02  0.71764836842E+01  0.50000000000E+02  0.47000000000E+01 0. -1.
         -5    1    3    3    0  501  0.30616107209E+02  0.38588366917E+02 -0.71764836842E+01  0.50000000000E+02  0.47000000000E+01 0.  1.
</event>
<event>
 5    1  0.8909620E-001  0.1000000E+03  0.7546771E-02  0.1163815E+00
         11   -1    0    0    0    0  0.00000000000E+00  0.00000000000E+00  0.50000000000E+02  0.50000000000E+02  0.00000000000E+00 0. -1.
        -11   -1    0    0    0    0 -0.00000000000E+00 -0.00000000000E+00 -0.50000000000E+02  0.50000000000E+02  0.00000000000E+00 0.  1.
         23    2    1    2    0    0  0.00000000000E+00  0.00000000000E+00  0.00000000000E+00  0.10000000000E+03  0.10000000000E+03 0.  0.
          5    1    3    3  501    0  0.13921867457E+02 -0.62030817839E+01  0.47387903339E+02  0.50000000000E+02  0.47000000000E+01 0. -1.
         -5    1    3    3    0  501 -0.13921867457E+02  0.62030817839E+01 -0.47387903339E+02  0.50000000000E+02  0.47000000000E+01 0.  1.
</event>
<event>
 5    1  0.8909620E-001  0.1000000E+03  0.7546771E-02  0.1163815E+00
         11   -1    0    0    0    0  0.00000000000E+00  0.00000000000E+00  0.50000000000E+02  0.50000000000E+02  0.00000000000E+00 0. -1.
        -11   -1    0    0    0    0 -0.00000000000E+00 -0.00000000000E+00 -0.50000000000E+02  0.50000000000E+02  0.00000000000E+00 0.  1.
         23    2    1    2    0    0  0.00000000000E+00  0.00000000000E+00  0.00000000000E+00  0.10000000000E+03  0.10000000000E+03 0.  0.
          5    1    3    3  501    0  0.11319885102E+02 -0.17239728222E+02  0.45305209106E+02  0.50000000000E+02  0.47000000000E+01 0. -1.
         -5    1    3    3    0  501 -0.11319885102E+02  0.17239728222E+02 -0.45305209106E+02  0.50000000000E+02  0.47000000000E+01 0.  1.
</event>
<event>
 5    1  0.8909620E-001  0.1000000E+03  0.7546771E-02  0.1163815E+00
         11   -1    0    0    0    0  0.00000000000E+00  0.00000000000E+00  0.50000000000E+02  0.50000000000E+02  0.00000000000E+00 0. -1.
        -11   -1    0    0    0    0 -0.00000000000E+00 -0.00000000000E+00 -0.50000000000E+02  0.50000000000E+02  0.00000000000E+00 0.  1.
         23    2    1    2    0    0  0.00000000000E+00  0.00000000000E+00  0.00000000000E+00  0.10000000000E+03  0.10000000000E+03 0.  0.
          5    1    3    3  501    0  0.26749098974E+02 -0.41887553948E+02 -0.27979507379E+01  0.50000000000E+02  0.47000000000E+01 0. -1.
         -5    1    3    3    0  501 -0.26749098974E+02  0.41887553948E+02  0.27979507379E+01  0.50000000000E+02  0.47000000000E+01 0.  1.
</event>
<event>
 5    1  0.8909620E-001  0.1000000E+03  0.7546771E-02  0.1163815E+00
         11   -1    0    0    0    0  0.00000000000E+00  0.00000000000E+00  0.50000000000E+02  0.50000000000E+02  0.00000000000E+00 0. -1.
        -11   -1    0    0    0    0 -0.00000000000E+00 -0.00000000000E+00 -0.50000000000E+02  0.50000000000E+02  0.00000000000E+00 0.  1.
         23    2    1    2    0    0  0.00000000000E+00  0.00000000000E+00  0.00000000000E+00  0.10000000000E+03  0.10000000000E+03 0.  0.
          5    1    3    3  501    0 -0.15300959663E+02 -0.81625113831E+01  0.46660090455E+02  0.50000000000E+02  0.47000000000E+01 0. -1.
         -5    1    3    3    0  501  0.15300959663E+02  0.81625113831E+01 -0.46660090455E+02  0.50000000000E+02  0.47000000000E+01 0.  1.
</event>
<event>
 5    1  0.8909620E-001  0.1000000E+03  0.7546771E-02  0.1163815E+00
         11   -1    0    0    0    0  0.00000000000E+00  0.00000000000E+00  0.50000000000E+02  0.50000000000E+02  0.00000000000E+00 0.  1.
        -11   -1    0    0    0    0 -0.00000000000E+00 -0.00000000000E+00 -0.50000000000E+02  0.50000000000E+02  0.00000000000E+00 0. -1.
         23    2    1    2    0    0  0.00000000000E+00  0.00000000000E+00  0.00000000000E+00  0.10000000000E+03  0.10000000000E+03 0.  0.
          5    1    3    3  501    0 -0.22455133650E+02 -0.51309786167E+00 -0.44423121270E+02  0.50000000000E+02  0.47000000000E+01 0. -1.
         -5    1    3    3    0  501  0.22455133650E+02  0.51309786167E+00  0.44423121270E+02  0.50000000000E+02  0.47000000000E+01 0.  1.
</event>
<event>
 5    1  0.8909620E-001  0.1000000E+03  0.7546771E-02  0.1163815E+00
         11   -1    0    0    0    0  0.00000000000E+00  0.00000000000E+00  0.50000000000E+02  0.50000000000E+02  0.00000000000E+00 0.  1.
        -11   -1    0    0    0    0 -0.00000000000E+00 -0.00000000000E+00 -0.50000000000E+02  0.50000000000E+02  0.00000000000E+00 0. -1.
         23    2    1    2    0    0  0.00000000000E+00  0.00000000000E+00  0.00000000000E+00  0.10000000000E+03  0.10000000000E+03 0.  0.
          5    1    3    3  501    0  0.18233165170E+02 -0.37376874284E+02 -0.27357466195E+02  0.50000000000E+02  0.47000000000E+01 0. -1.
         -5    1    3    3    0  501 -0.18233165170E+02  0.37376874284E+02  0.27357466195E+02  0.50000000000E+02  0.47000000000E+01 0.  1.
</event>
<event>
 5    1  0.8909620E-001  0.1000000E+03  0.7546771E-02  0.1163815E+00
         11   -1    0    0    0    0  0.00000000000E+00  0.00000000000E+00  0.50000000000E+02  0.50000000000E+02  0.00000000000E+00 0. -1.
        -11   -1    0    0    0    0 -0.00000000000E+00 -0.00000000000E+00 -0.50000000000E+02  0.50000000000E+02  0.00000000000E+00 0.  1.
         23    2    1    2    0    0  0.00000000000E+00  0.00000000000E+00  0.00000000000E+00  0.10000000000E+03  0.10000000000E+03 0.  0.
          5    1    3    3  501    0  0.38964559018E+02  0.21234323065E+02 -0.22556078217E+02  0.50000000000E+02  0.47000000000E+01 0. -1.
         -5    1    3    3    0  501 -0.38964559018E+02 -0.21234323065E+02  0.22556078217E+02  0.50000000000E+02  0.47000000000E+01 0.  1.
</event>
<event>
 5    1  0.8909620E-001  0.1000000E+03  0.7546771E-02  0.1163815E+00
         11   -1    0    0    0    0  0.00000000000E+00  0.00000000000E+00  0.50000000000E+02  0.50000000000E+02  0.00000000000E+00 0. -1.
        -11   -1    0    0    0    0 -0.00000000000E+00 -0.00000000000E+00 -0.50000000000E+02  0.50000000000E+02  0.00000000000E+00 0.  1.
         23    2    1    2    0    0  0.00000000000E+00  0.00000000000E+00  0.00000000000E+00  0.10000000000E+03  0.10000000000E+03 0.  0.
          5    1    3    3  501    0 -0.42077772379E+02  0.15511026919E+02  0.21605071522E+02  0.50000000000E+02  0.47000000000E+01 0. -1.
         -5    1    3    3    0  501  0.42077772379E+02 -0.15511026919E+02 -0.21605071522E+02  0.50000000000E+02  0.47000000000E+01 0.  1.
</event>
<event>
 5    1  0.8909620E-001  0.1000000E+03  0.7546771E-02  0.1163815E+00
         11   -1    0    0    0    0  0.00000000000E+00  0.00000000000E+00  0.50000000000E+02  0.50000000000E+02  0.00000000000E+00 0.  1.
        -11   -1    0    0    0    0 -0.00000000000E+00 -0.00000000000E+00 -0.50000000000E+02  0.50000000000E+02  0.00000000000E+00 0. -1.
         23    2    1    2    0    0  0.00000000000E+00  0.00000000000E+00  0.00000000000E+00  0.10000000000E+03  0.10000000000E+03 0.  0.
          5    1    3    3  501    0  0.10862325497E+02  0.64863646290E+01 -0.48144023084E+02  0.50000000000E+02  0.47000000000E+01 0. -1.
         -5    1    3    3    0  501 -0.10862325497E+02 -0.64863646290E+01  0.48144023084E+02  0.50000000000E+02  0.47000000000E+01 0.  1.
</event>
<event>
 5    1  0.8909620E-001  0.1000000E+03  0.7546771E-02  0.1163815E+00
         11   -1    0    0    0    0  0.00000000000E+00  0.00000000000E+00  0.50000000000E+02  0.50000000000E+02  0.00000000000E+00 0.  1.
        -11   -1    0    0    0    0 -0.00000000000E+00 -0.00000000000E+00 -0.50000000000E+02  0.50000000000E+02  0.00000000000E+00 0. -1.
         23    2    1    2    0    0  0.00000000000E+00  0.00000000000E+00  0.00000000000E+00  0.10000000000E+03  0.10000000000E+03 0.  0.
          5    1    3    3  501    0  0.49345328513E+02 -0.63146875199E+01  0.17530759925E+01  0.50000000000E+02  0.47000000000E+01 0. -1.
         -5    1    3    3    0  501 -0.49345328513E+02  0.63146875199E+01 -0.17530759925E+01  0.50000000000E+02  0.47000000000E+01 0.  1.
</event>
<event>
 5    1  0.8909620E-001  0.1000000E+03  0.7546771E-02  0.1163815E+00
         11   -1    0    0    0    0  0.00000000000E+00  0.00000000000E+00  0.50000000000E+02  0.50000000000E+02  0.00000000000E+00 0.  1.
        -11   -1    0    0    0    0 -0.00000000000E+00 -0.00000000000E+00 -0.50000000000E+02  0.50000000000E+02  0.00000000000E+00 0. -1.
         23    2    1    2    0    0  0.00000000000E+00  0.00000000000E+00  0.00000000000E+00  0.10000000000E+03  0.10000000000E+03 0.  0.
          5    1    3    3  501    0 -0.33272662928E+02  0.36217608195E+02 -0.76892625317E+01  0.50000000000E+02  0.47000000000E+01 0. -1.
         -5    1    3    3    0  501  0.33272662928E+02 -0.36217608195E+02  0.76892625317E+01  0.50000000000E+02  0.47000000000E+01 0.  1.
</event>
<event>
 5    1  0.8909620E-001  0.1000000E+03  0.7546771E-02  0.1163815E+00
         11   -1    0    0    0    0  0.00000000000E+00  0.00000000000E+00  0.50000000000E+02  0.50000000000E+02  0.00000000000E+00 0.  1.
        -11   -1    0    0    0    0 -0.00000000000E+00 -0.00000000000E+00 -0.50000000000E+02  0.50000000000E+02  0.00000000000E+00 0. -1.
         23    2    1    2    0    0  0.00000000000E+00  0.00000000000E+00  0.00000000000E+00  0.10000000000E+03  0.10000000000E+03 0.  0.
          5    1    3    3  501    0 -0.43261247879E+01 -0.49540136314E+02  0.22292461313E+01  0.50000000000E+02  0.47000000000E+01 0.  1.
         -5    1    3    3    0  501  0.43261247879E+01  0.49540136314E+02 -0.22292461313E+01  0.50000000000E+02  0.47000000000E+01 0. -1.
</event>
<event>
 5    1  0.8909620E-001  0.1000000E+03  0.7546771E-02  0.1163815E+00
         11   -1    0    0    0    0  0.00000000000E+00  0.00000000000E+00  0.50000000000E+02  0.50000000000E+02  0.00000000000E+00 0. -1.
        -11   -1    0    0    0    0 -0.00000000000E+00 -0.00000000000E+00 -0.50000000000E+02  0.50000000000E+02  0.00000000000E+00 0.  1.
         23    2    1    2    0    0  0.00000000000E+00  0.00000000000E+00  0.00000000000E+00  0.10000000000E+03  0.10000000000E+03 0.  0.
          5    1    3    3  501    0 -0.43475956361E+02 -0.42279625945E+00 -0.24239894015E+02  0.50000000000E+02  0.47000000000E+01 0. -1.
         -5    1    3    3    0  501  0.43475956361E+02  0.42279625945E+00  0.24239894015E+02  0.50000000000E+02  0.47000000000E+01 0.  1.
</event>
<event>
 5    1  0.8909620E-001  0.1000000E+03  0.7546771E-02  0.1163815E+00
         11   -1    0    0    0    0  0.00000000000E+00  0.00000000000E+00  0.50000000000E+02  0.50000000000E+02  0.00000000000E+00 0. -1.
        -11   -1    0    0    0    0 -0.00000000000E+00 -0.00000000000E+00 -0.50000000000E+02  0.50000000000E+02  0.00000000000E+00 0.  1.
         23    2    1    2    0    0  0.00000000000E+00  0.00000000000E+00  0.00000000000E+00  0.10000000000E+03  0.10000000000E+03 0.  0.
          5    1    3    3  501    0  0.36357780937E+02 -0.18857778802E+02  0.28291446481E+02  0.50000000000E+02  0.47000000000E+01 0. -1.
         -5    1    3    3    0  501 -0.36357780937E+02  0.18857778802E+02 -0.28291446481E+02  0.50000000000E+02  0.47000000000E+01 0.  1.
</event>
<event>
 5    1  0.8909620E-001  0.1000000E+03  0.7546771E-02  0.1163815E+00
         11   -1    0    0    0    0  0.00000000000E+00  0.00000000000E+00  0.50000000000E+02  0.50000000000E+02  0.00000000000E+00 0. -1.
        -11   -1    0    0    0    0 -0.00000000000E+00 -0.00000000000E+00 -0.50000000000E+02  0.50000000000E+02  0.00000000000E+00 0.  1.
         23    2    1    2    0    0  0.00000000000E+00  0.00000000000E+00  0.00000000000E+00  0.10000000000E+03  0.10000000000E+03 0.  0.
          5    1    3    3  501    0 -0.24911502295E+02 -0.43085258849E+02 -0.99374208869E+00  0.50000000000E+02  0.47000000000E+01 0. -1.
         -5    1    3    3    0  501  0.24911502295E+02  0.43085258849E+02  0.99374208869E+00  0.50000000000E+02  0.47000000000E+01 0.  1.
</event>
<event>
 5    1  0.8909620E-001  0.1000000E+03  0.7546771E-02  0.1163815E+00
         11   -1    0    0    0    0  0.00000000000E+00  0.00000000000E+00  0.50000000000E+02  0.50000000000E+02  0.00000000000E+00 0. -1.
        -11   -1    0    0    0    0 -0.00000000000E+00 -0.00000000000E+00 -0.50000000000E+02  0.50000000000E+02  0.00000000000E+00 0.  1.
         23    2    1    2    0    0  0.00000000000E+00  0.00000000000E+00  0.00000000000E+00  0.10000000000E+03  0.10000000000E+03 0.  0.
          5    1    3    3  501    0  0.20547541887E+02  0.42326895985E+02  0.16252458234E+02  0.50000000000E+02  0.47000000000E+01 0. -1.
         -5    1    3    3    0  501 -0.20547541887E+02 -0.42326895985E+02 -0.16252458234E+02  0.50000000000E+02  0.47000000000E+01 0.  1.
</event>
<event>
 5    1  0.8909620E-001  0.1000000E+03  0.7546771E-02  0.1163815E+00
         11   -1    0    0    0    0  0.00000000000E+00  0.00000000000E+00  0.50000000000E+02  0.50000000000E+02  0.00000000000E+00 0.  1.
        -11   -1    0    0    0    0 -0.00000000000E+00 -0.00000000000E+00 -0.50000000000E+02  0.50000000000E+02  0.00000000000E+00 0. -1.
         23    2    1    2    0    0  0.00000000000E+00  0.00000000000E+00  0.00000000000E+00  0.10000000000E+03  0.10000000000E+03 0.  0.
          5    1    3    3  501    0 -0.28567044772E+02 -0.38003895205E+02 -0.14749166153E+02  0.50000000000E+02  0.47000000000E+01 0. -1.
         -5    1    3    3    0  501  0.28567044772E+02  0.38003895205E+02  0.14749166153E+02  0.50000000000E+02  0.47000000000E+01 0.  1.
</event>
<event>
 5    1  0.8909620E-001  0.1000000E+03  0.7546771E-02  0.1163815E+00
         11   -1    0    0    0    0  0.00000000000E+00  0.00000000000E+00  0.50000000000E+02  0.50000000000E+02  0.00000000000E+00 0. -1.
        -11   -1    0    0    0    0 -0.00000000000E+00 -0.00000000000E+00 -0.50000000000E+02  0.50000000000E+02  0.00000000000E+00 0.  1.
         23    2    1    2    0    0  0.00000000000E+00  0.00000000000E+00  0.00000000000E+00  0.10000000000E+03  0.10000000000E+03 0.  0.
          5    1    3    3  501    0 -0.30414217150E+02  0.35381225689E+02  0.17350915362E+02  0.50000000000E+02  0.47000000000E+01 0. -1.
         -5    1    3    3    0  501  0.30414217150E+02 -0.35381225689E+02 -0.17350915362E+02  0.50000000000E+02  0.47000000000E+01 0.  1.
</event>
<event>
 5    1  0.8909620E-001  0.1000000E+03  0.7546771E-02  0.1163815E+00
         11   -1    0    0    0    0  0.00000000000E+00  0.00000000000E+00  0.50000000000E+02  0.50000000000E+02  0.00000000000E+00 0.  1.
        -11   -1    0    0    0    0 -0.00000000000E+00 -0.00000000000E+00 -0.50000000000E+02  0.50000000000E+02  0.00000000000E+00 0. -1.
         23    2    1    2    0    0  0.00000000000E+00  0.00000000000E+00  0.00000000000E+00  0.10000000000E+03  0.10000000000E+03 0.  0.
          5    1    3    3  501    0 -0.39420167127E+02 -0.17362503638E+02 -0.24950027878E+02  0.50000000000E+02  0.47000000000E+01 0. -1.
         -5    1    3    3    0  501  0.39420167127E+02  0.17362503638E+02  0.24950027878E+02  0.50000000000E+02  0.47000000000E+01 0.  1.
</event>
<event>
 5    1  0.8909620E-001  0.1000000E+03  0.7546771E-02  0.1163815E+00
         11   -1    0    0    0    0  0.00000000000E+00  0.00000000000E+00  0.50000000000E+02  0.50000000000E+02  0.00000000000E+00 0.  1.
        -11   -1    0    0    0    0 -0.00000000000E+00 -0.00000000000E+00 -0.50000000000E+02  0.50000000000E+02  0.00000000000E+00 0. -1.
         23    2    1    2    0    0  0.00000000000E+00  0.00000000000E+00  0.00000000000E+00  0.10000000000E+03  0.10000000000E+03 0.  0.
          5    1    3    3  501    0 -0.30001966314E+02 -0.21988199391E+01 -0.39660524558E+02  0.50000000000E+02  0.47000000000E+01 0. -1.
         -5    1    3    3    0  501  0.30001966314E+02  0.21988199391E+01  0.39660524558E+02  0.50000000000E+02  0.47000000000E+01 0.  1.
</event>
<event>
 5    1  0.8909620E-001  0.1000000E+03  0.7546771E-02  0.1163815E+00
         11   -1    0    0    0    0  0.00000000000E+00  0.00000000000E+00  0.50000000000E+02  0.50000000000E+02  0.00000000000E+00 0.  1.
        -11   -1    0    0    0    0 -0.00000000000E+00 -0.00000000000E+00 -0.50000000000E+02  0.50000000000E+02  0.00000000000E+00 0. -1.
         23    2    1    2    0    0  0.00000000000E+00  0.00000000000E+00  0.00000000000E+00  0.10000000000E+03  0.10000000000E+03 0.  0.
          5    1    3    3  501    0  0.15401303274E+02  0.23884286785E+02 -0.40868700765E+02  0.50000000000E+02  0.47000000000E+01 0. -1.
         -5    1    3    3    0  501 -0.15401303274E+02 -0.23884286785E+02  0.40868700765E+02  0.50000000000E+02  0.47000000000E+01 0.  1.
</event>
<event>
 5    1  0.8909620E-001  0.1000000E+03  0.7546771E-02  0.1163815E+00
         11   -1    0    0    0    0  0.00000000000E+00  0.00000000000E+00  0.50000000000E+02  0.50000000000E+02  0.00000000000E+00 0. -1.
        -11   -1    0    0    0    0 -0.00000000000E+00 -0.00000000000E+00 -0.50000000000E+02  0.50000000000E+02  0.00000000000E+00 0.  1.
         23    2    1    2    0    0  0.00000000000E+00  0.00000000000E+00  0.00000000000E+00  0.10000000000E+03  0.10000000000E+03 0.  0.
          5    1    3    3  501    0  0.36827072589E+02 -0.30228027760E+02  0.14420231006E+02  0.50000000000E+02  0.47000000000E+01 0. -1.
         -5    1    3    3    0  501 -0.36827072589E+02  0.30228027760E+02 -0.14420231006E+02  0.50000000000E+02  0.47000000000E+01 0.  1.
</event>
<event>
 5    1  0.8909620E-001  0.1000000E+03  0.7546771E-02  0.1163815E+00
         11   -1    0    0    0    0  0.00000000000E+00  0.00000000000E+00  0.50000000000E+02  0.50000000000E+02  0.00000000000E+00 0. -1.
        -11   -1    0    0    0    0 -0.00000000000E+00 -0.00000000000E+00 -0.50000000000E+02  0.50000000000E+02  0.00000000000E+00 0.  1.
         23    2    1    2    0    0  0.00000000000E+00  0.00000000000E+00  0.00000000000E+00  0.10000000000E+03  0.10000000000E+03 0.  0.
          5    1    3    3  501    0 -0.26063001884E+02  0.70634437712E+00  0.42404374897E+02  0.50000000000E+02  0.47000000000E+01 0. -1.
         -5    1    3    3    0  501  0.26063001884E+02 -0.70634437712E+00 -0.42404374897E+02  0.50000000000E+02  0.47000000000E+01 0.  1.
</event>
<event>
 5    1  0.8909620E-001  0.1000000E+03  0.7546771E-02  0.1163815E+00
         11   -1    0    0    0    0  0.00000000000E+00  0.00000000000E+00  0.50000000000E+02  0.50000000000E+02  0.00000000000E+00 0. -1.
        -11   -1    0    0    0    0 -0.00000000000E+00 -0.00000000000E+00 -0.50000000000E+02  0.50000000000E+02  0.00000000000E+00 0.  1.
         23    2    1    2    0    0  0.00000000000E+00  0.00000000000E+00  0.00000000000E+00  0.10000000000E+03  0.10000000000E+03 0.  0.
          5    1    3    3  501    0  0.43233535837E+02  0.24467893362E+02  0.31770384688E+01  0.50000000000E+02  0.47000000000E+01 0. -1.
         -5    1    3    3    0  501 -0.43233535837E+02 -0.24467893362E+02 -0.31770384688E+01  0.50000000000E+02  0.47000000000E+01 0.  1.
</event>
<event>
 5    1  0.8909620E-001  0.1000000E+03  0.7546771E-02  0.1163815E+00
         11   -1    0    0    0    0  0.00000000000E+00  0.00000000000E+00  0.50000000000E+02  0.50000000000E+02  0.00000000000E+00 0. -1.
        -11   -1    0    0    0    0 -0.00000000000E+00 -0.00000000000E+00 -0.50000000000E+02  0.50000000000E+02  0.00000000000E+00 0.  1.
         23    2    1    2    0    0  0.00000000000E+00  0.00000000000E+00  0.00000000000E+00  0.10000000000E+03  0.10000000000E+03 0.  0.
          5    1    3    3  501    0  0.31709473206E+02 -0.20711324803E+02  0.32302636640E+02  0.50000000000E+02  0.47000000000E+01 0. -1.
         -5    1    3    3    0  501 -0.31709473206E+02  0.20711324803E+02 -0.32302636640E+02  0.50000000000E+02  0.47000000000E+01 0.  1.
</event>
<event>
 5    1  0.8909620E-001  0.1000000E+03  0.7546771E-02  0.1163815E+00
         11   -1    0    0    0    0  0.00000000000E+00  0.00000000000E+00  0.50000000000E+02  0.50000000000E+02  0.00000000000E+00 0. -1.
        -11   -1    0    0    0    0 -0.00000000000E+00 -0.00000000000E+00 -0.50000000000E+02  0.50000000000E+02  0.00000000000E+00 0.  1.
         23    2    1    2    0    0  0.00000000000E+00  0.00000000000E+00  0.00000000000E+00  0.10000000000E+03  0.10000000000E+03 0.  0.
          5    1    3    3  501    0  0.16174263235E+02  0.46843462449E+02 -0.46896945061E+01  0.50000000000E+02  0.47000000000E+01 0. -1.
         -5    1    3    3    0  501 -0.16174263235E+02 -0.46843462449E+02  0.46896945061E+01  0.50000000000E+02  0.47000000000E+01 0.  1.
</event>
<event>
 5    1  0.8909620E-001  0.1000000E+03  0.7546771E-02  0.1163815E+00
         11   -1    0    0    0    0  0.00000000000E+00  0.00000000000E+00  0.50000000000E+02  0.50000000000E+02  0.00000000000E+00 0. -1.
        -11   -1    0    0    0    0 -0.00000000000E+00 -0.00000000000E+00 -0.50000000000E+02  0.50000000000E+02  0.00000000000E+00 0.  1.
         23    2    1    2    0    0  0.00000000000E+00  0.00000000000E+00  0.00000000000E+00  0.10000000000E+03  0.10000000000E+03 0.  0.
          5    1    3    3  501    0  0.20772867991E+02 -0.11922234167E+02  0.43637808010E+02  0.50000000000E+02  0.47000000000E+01 0. -1.
         -5    1    3    3    0  501 -0.20772867991E+02  0.11922234167E+02 -0.43637808010E+02  0.50000000000E+02  0.47000000000E+01 0.  1.
</event>
<event>
 5    1  0.8909620E-001  0.1000000E+03  0.7546771E-02  0.1163815E+00
         11   -1    0    0    0    0  0.00000000000E+00  0.00000000000E+00  0.50000000000E+02  0.50000000000E+02  0.00000000000E+00 0. -1.
        -11   -1    0    0    0    0 -0.00000000000E+00 -0.00000000000E+00 -0.50000000000E+02  0.50000000000E+02  0.00000000000E+00 0.  1.
         23    2    1    2    0    0  0.00000000000E+00  0.00000000000E+00  0.00000000000E+00  0.10000000000E+03  0.10000000000E+03 0.  0.
          5    1    3    3  501    0  0.20973505876E+02  0.30373514207E+02  0.33398677908E+02  0.50000000000E+02  0.47000000000E+01 0. -1.
         -5    1    3    3    0  501 -0.20973505876E+02 -0.30373514207E+02 -0.33398677908E+02  0.50000000000E+02  0.47000000000E+01 0.  1.
</event>
<event>
 5    1  0.8909620E-001  0.1000000E+03  0.7546771E-02  0.1163815E+00
         11   -1    0    0    0    0  0.00000000000E+00  0.00000000000E+00  0.50000000000E+02  0.50000000000E+02  0.00000000000E+00 0. -1.
        -11   -1    0    0    0    0 -0.00000000000E+00 -0.00000000000E+00 -0.50000000000E+02  0.50000000000E+02  0.00000000000E+00 0.  1.
         23    2    1    2    0    0  0.00000000000E+00  0.00000000000E+00  0.00000000000E+00  0.10000000000E+03  0.10000000000E+03 0.  0.
          5    1    3    3  501    0 -0.41547352926E+02  0.24053692153E+02 -0.13158546982E+02  0.50000000000E+02  0.47000000000E+01 0. -1.
         -5    1    3    3    0  501  0.41547352926E+02 -0.24053692153E+02  0.13158546982E+02  0.50000000000E+02  0.47000000000E+01 0.  1.
</event>
<event>
 5    1  0.8909620E-001  0.1000000E+03  0.7546771E-02  0.1163815E+00
         11   -1    0    0    0    0  0.00000000000E+00  0.00000000000E+00  0.50000000000E+02  0.50000000000E+02  0.00000000000E+00 0. -1.
        -11   -1    0    0    0    0 -0.00000000000E+00 -0.00000000000E+00 -0.50000000000E+02  0.50000000000E+02  0.00000000000E+00 0.  1.
         23    2    1    2    0    0  0.00000000000E+00  0.00000000000E+00  0.00000000000E+00  0.10000000000E+03  0.10000000000E+03 0.  0.
          5    1    3    3  501    0  0.43418952267E+02 -0.15147398602E+02  0.19059404492E+02  0.50000000000E+02  0.47000000000E+01 0. -1.
         -5    1    3    3    0  501 -0.43418952267E+02  0.15147398602E+02 -0.19059404492E+02  0.50000000000E+02  0.47000000000E+01 0.  1.
</event>
<event>
 5    1  0.8909620E-001  0.1000000E+03  0.7546771E-02  0.1163815E+00
         11   -1    0    0    0    0  0.00000000000E+00  0.00000000000E+00  0.50000000000E+02  0.50000000000E+02  0.00000000000E+00 0.  1.
        -11   -1    0    0    0    0 -0.00000000000E+00 -0.00000000000E+00 -0.50000000000E+02  0.50000000000E+02  0.00000000000E+00 0. -1.
         23    2    1    2    0    0  0.00000000000E+00  0.00000000000E+00  0.00000000000E+00  0.10000000000E+03  0.10000000000E+03 0.  0.
          5    1    3    3  501    0 -0.28691166401E+02  0.34883337684E+01 -0.40528489955E+02  0.50000000000E+02  0.47000000000E+01 0. -1.
         -5    1    3    3    0  501  0.28691166401E+02 -0.34883337684E+01  0.40528489955E+02  0.50000000000E+02  0.47000000000E+01 0.  1.
</event>
<event>
 5    1  0.8909620E-001  0.1000000E+03  0.7546771E-02  0.1163815E+00
         11   -1    0    0    0    0  0.00000000000E+00  0.00000000000E+00  0.50000000000E+02  0.50000000000E+02  0.00000000000E+00 0. -1.
        -11   -1    0    0    0    0 -0.00000000000E+00 -0.00000000000E+00 -0.50000000000E+02  0.50000000000E+02  0.00000000000E+00 0.  1.
         23    2    1    2    0    0  0.00000000000E+00  0.00000000000E+00  0.00000000000E+00  0.10000000000E+03  0.10000000000E+03 0.  0.
          5    1    3    3  501    0 -0.35449032121E+02  0.26104485455E+02  0.23234284169E+02  0.50000000000E+02  0.47000000000E+01 0. -1.
         -5    1    3    3    0  501  0.35449032121E+02 -0.26104485455E+02 -0.23234284169E+02  0.50000000000E+02  0.47000000000E+01 0.  1.
</event>
<event>
 5    1  0.8909620E-001  0.1000000E+03  0.7546771E-02  0.1163815E+00
         11   -1    0    0    0    0  0.00000000000E+00  0.00000000000E+00  0.50000000000E+02  0.50000000000E+02  0.00000000000E+00 0. -1.
        -11   -1    0    0    0    0 -0.00000000000E+00 -0.00000000000E+00 -0.50000000000E+02  0.50000000000E+02  0.00000000000E+00 0.  1.
         23    2    1    2    0    0  0.00000000000E+00  0.00000000000E+00  0.00000000000E+00  0.10000000000E+03  0.10000000000E+03 0.  0.
          5    1    3    3  501    0  0.32712168046E+02 -0.24969303419E+02  0.28006391208E+02  0.50000000000E+02  0.47000000000E+01 0. -1.
         -5    1    3    3    0  501 -0.32712168046E+02  0.24969303419E+02 -0.28006391208E+02  0.50000000000E+02  0.47000000000E+01 0.  1.
</event>
<event>
 5    1  0.8909620E-001  0.1000000E+03  0.7546771E-02  0.1163815E+00
         11   -1    0    0    0    0  0.00000000000E+00  0.00000000000E+00  0.50000000000E+02  0.50000000000E+02  0.00000000000E+00 0. -1.
        -11   -1    0    0    0    0 -0.00000000000E+00 -0.00000000000E+00 -0.50000000000E+02  0.50000000000E+02  0.00000000000E+00 0.  1.
         23    2    1    2    0    0  0.00000000000E+00  0.00000000000E+00  0.00000000000E+00  0.10000000000E+03  0.10000000000E+03 0.  0.
          5    1    3    3  501    0  0.35934997288E+02 -0.31415369467E+01  0.34303304732E+02  0.50000000000E+02  0.47000000000E+01 0. -1.
         -5    1    3    3    0  501 -0.35934997288E+02  0.31415369467E+01 -0.34303304732E+02  0.50000000000E+02  0.47000000000E+01 0.  1.
</event>
<event>
 5    1  0.8909620E-001  0.1000000E+03  0.7546771E-02  0.1163815E+00
         11   -1    0    0    0    0  0.00000000000E+00  0.00000000000E+00  0.50000000000E+02  0.50000000000E+02  0.00000000000E+00 0. -1.
        -11   -1    0    0    0    0 -0.00000000000E+00 -0.00000000000E+00 -0.50000000000E+02  0.50000000000E+02  0.00000000000E+00 0.  1.
         23    2    1    2    0    0  0.00000000000E+00  0.00000000000E+00  0.00000000000E+00  0.10000000000E+03  0.10000000000E+03 0.  0.
          5    1    3    3  501    0  0.19866658645E+02  0.10099750237E+02  0.44510907870E+02  0.50000000000E+02  0.47000000000E+01 0. -1.
         -5    1    3    3    0  501 -0.19866658645E+02 -0.10099750237E+02 -0.44510907870E+02  0.50000000000E+02  0.47000000000E+01 0.  1.
</event>
<event>
 5    1  0.8909620E-001  0.1000000E+03  0.7546771E-02  0.1163815E+00
         11   -1    0    0    0    0  0.00000000000E+00  0.00000000000E+00  0.50000000000E+02  0.50000000000E+02  0.00000000000E+00 0. -1.
        -11   -1    0    0    0    0 -0.00000000000E+00 -0.00000000000E+00 -0.50000000000E+02  0.50000000000E+02  0.00000000000E+00 0.  1.
         23    2    1    2    0    0  0.00000000000E+00  0.00000000000E+00  0.00000000000E+00  0.10000000000E+03  0.10000000000E+03 0.  0.
          5    1    3    3  501    0  0.39778692470E+02 -0.29242899627E+02 -0.63575503729E+01  0.50000000000E+02  0.47000000000E+01 0. -1.
         -5    1    3    3    0  501 -0.39778692470E+02  0.29242899627E+02  0.63575503729E+01  0.50000000000E+02  0.47000000000E+01 0.  1.
</event>
<event>
 5    1  0.8909620E-001  0.1000000E+03  0.7546771E-02  0.1163815E+00
         11   -1    0    0    0    0  0.00000000000E+00  0.00000000000E+00  0.50000000000E+02  0.50000000000E+02  0.00000000000E+00 0. -1.
        -11   -1    0    0    0    0 -0.00000000000E+00 -0.00000000000E+00 -0.50000000000E+02  0.50000000000E+02  0.00000000000E+00 0.  1.
         23    2    1    2    0    0  0.00000000000E+00  0.00000000000E+00  0.00000000000E+00  0.10000000000E+03  0.10000000000E+03 0.  0.
          5    1    3    3  501    0  0.43471173084E+02 -0.13983966029E+02  0.19814535189E+02  0.50000000000E+02  0.47000000000E+01 0. -1.
         -5    1    3    3    0  501 -0.43471173084E+02  0.13983966029E+02 -0.19814535189E+02  0.50000000000E+02  0.47000000000E+01 0.  1.
</event>
<event>
 5    1  0.8909620E-001  0.1000000E+03  0.7546771E-02  0.1163815E+00
         11   -1    0    0    0    0  0.00000000000E+00  0.00000000000E+00  0.50000000000E+02  0.50000000000E+02  0.00000000000E+00 0. -1.
        -11   -1    0    0    0    0 -0.00000000000E+00 -0.00000000000E+00 -0.50000000000E+02  0.50000000000E+02  0.00000000000E+00 0.  1.
         23    2    1    2    0    0  0.00000000000E+00  0.00000000000E+00  0.00000000000E+00  0.10000000000E+03  0.10000000000E+03 0.  0.
          5    1    3    3  501    0 -0.97843502644E-01 -0.12471271890E+02  0.48190951475E+02  0.50000000000E+02  0.47000000000E+01 0. -1.
         -5    1    3    3    0  501  0.97843502644E-01  0.12471271890E+02 -0.48190951475E+02  0.50000000000E+02  0.47000000000E+01 0.  1.
</event>
<event>
 5    1  0.8909620E-001  0.1000000E+03  0.7546771E-02  0.1163815E+00
         11   -1    0    0    0    0  0.00000000000E+00  0.00000000000E+00  0.50000000000E+02  0.50000000000E+02  0.00000000000E+00 0. -1.
        -11   -1    0    0    0    0 -0.00000000000E+00 -0.00000000000E+00 -0.50000000000E+02  0.50000000000E+02  0.00000000000E+00 0.  1.
         23    2    1    2    0    0  0.00000000000E+00  0.00000000000E+00  0.00000000000E+00  0.10000000000E+03  0.10000000000E+03 0.  0.
          5    1    3    3  501    0  0.13798076057E+02 -0.30634837838E+02  0.36729141124E+02  0.50000000000E+02  0.47000000000E+01 0. -1.
         -5    1    3    3    0  501 -0.13798076057E+02  0.30634837838E+02 -0.36729141124E+02  0.50000000000E+02  0.47000000000E+01 0.  1.
</event>
<event>
 5    1  0.8909620E-001  0.1000000E+03  0.7546771E-02  0.1163815E+00
         11   -1    0    0    0    0  0.00000000000E+00  0.00000000000E+00  0.50000000000E+02  0.50000000000E+02  0.00000000000E+00 0. -1.
        -11   -1    0    0    0    0 -0.00000000000E+00 -0.00000000000E+00 -0.50000000000E+02  0.50000000000E+02  0.00000000000E+00 0.  1.
         23    2    1    2    0    0  0.00000000000E+00  0.00000000000E+00  0.00000000000E+00  0.10000000000E+03  0.10000000000E+03 0.  0.
          5    1    3    3  501    0  0.34367213239E+02  0.26976625313E+02  0.23855111420E+02  0.50000000000E+02  0.47000000000E+01 0. -1.
         -5    1    3    3    0  501 -0.34367213239E+02 -0.26976625313E+02 -0.23855111420E+02  0.50000000000E+02  0.47000000000E+01 0.  1.
</event>
<event>
 5    1  0.8909620E-001  0.1000000E+03  0.7546771E-02  0.1163815E+00
         11   -1    0    0    0    0  0.00000000000E+00  0.00000000000E+00  0.50000000000E+02  0.50000000000E+02  0.00000000000E+00 0. -1.
        -11   -1    0    0    0    0 -0.00000000000E+00 -0.00000000000E+00 -0.50000000000E+02  0.50000000000E+02  0.00000000000E+00 0.  1.
         23    2    1    2    0    0  0.00000000000E+00  0.00000000000E+00  0.00000000000E+00  0.10000000000E+03  0.10000000000E+03 0.  0.
          5    1    3    3  501    0  0.29642449646E+02  0.65443999954E+01  0.39451311863E+02  0.50000000000E+02  0.47000000000E+01 0. -1.
         -5    1    3    3    0  501 -0.29642449646E+02 -0.65443999954E+01 -0.39451311863E+02  0.50000000000E+02  0.47000000000E+01 0.  1.
</event>
<event>
 5    1  0.8909620E-001  0.1000000E+03  0.7546771E-02  0.1163815E+00
         11   -1    0    0    0    0  0.00000000000E+00  0.00000000000E+00  0.50000000000E+02  0.50000000000E+02  0.00000000000E+00 0. -1.
        -11   -1    0    0    0    0 -0.00000000000E+00 -0.00000000000E+00 -0.50000000000E+02  0.50000000000E+02  0.00000000000E+00 0.  1.
         23    2    1    2    0    0  0.00000000000E+00  0.00000000000E+00  0.00000000000E+00  0.10000000000E+03  0.10000000000E+03 0.  0.
          5    1    3    3  501    0  0.78682496599E+01  0.35552544005E+02  0.33941379791E+02  0.50000000000E+02  0.47000000000E+01 0. -1.
         -5    1    3    3    0  501 -0.78682496599E+01 -0.35552544005E+02 -0.33941379791E+02  0.50000000000E+02  0.47000000000E+01 0.  1.
</event>
<event>
 5    1  0.8909620E-001  0.1000000E+03  0.7546771E-02  0.1163815E+00
         11   -1    0    0    0    0  0.00000000000E+00  0.00000000000E+00  0.50000000000E+02  0.50000000000E+02  0.00000000000E+00 0. -1.
        -11   -1    0    0    0    0 -0.00000000000E+00 -0.00000000000E+00 -0.50000000000E+02  0.50000000000E+02  0.00000000000E+00 0.  1.
         23    2    1    2    0    0  0.00000000000E+00  0.00000000000E+00  0.00000000000E+00  0.10000000000E+03  0.10000000000E+03 0.  0.
          5    1    3    3  501    0  0.34856726267E+02  0.33734611222E+02  0.11175627034E+02  0.50000000000E+02  0.47000000000E+01 0. -1.
         -5    1    3    3    0  501 -0.34856726267E+02 -0.33734611222E+02 -0.11175627034E+02  0.50000000000E+02  0.47000000000E+01 0.  1.
</event>
<event>
 5    1  0.8909620E-001  0.1000000E+03  0.7546771E-02  0.1163815E+00
         11   -1    0    0    0    0  0.00000000000E+00  0.00000000000E+00  0.50000000000E+02  0.50000000000E+02  0.00000000000E+00 0. -1.
        -11   -1    0    0    0    0 -0.00000000000E+00 -0.00000000000E+00 -0.50000000000E+02  0.50000000000E+02  0.00000000000E+00 0.  1.
         23    2    1    2    0    0  0.00000000000E+00  0.00000000000E+00  0.00000000000E+00  0.10000000000E+03  0.10000000000E+03 0.  0.
          5    1    3    3  501    0  0.38809369006E+02  0.44322508947E+01  0.30856085775E+02  0.50000000000E+02  0.47000000000E+01 0. -1.
         -5    1    3    3    0  501 -0.38809369006E+02 -0.44322508947E+01 -0.30856085775E+02  0.50000000000E+02  0.47000000000E+01 0.  1.
</event>
<event>
 5    1  0.8909620E-001  0.1000000E+03  0.7546771E-02  0.1163815E+00
         11   -1    0    0    0    0  0.00000000000E+00  0.00000000000E+00  0.50000000000E+02  0.50000000000E+02  0.00000000000E+00 0. -1.
        -11   -1    0    0    0    0 -0.00000000000E+00 -0.00000000000E+00 -0.50000000000E+02  0.50000000000E+02  0.00000000000E+00 0.  1.
         23    2    1    2    0    0  0.00000000000E+00  0.00000000000E+00  0.00000000000E+00  0.10000000000E+03  0.10000000000E+03 0.  0.
          5    1    3    3  501    0  0.38977399826E+02 -0.19352274396E+02  0.24169438936E+02  0.50000000000E+02  0.47000000000E+01 0. -1.
         -5    1    3    3    0  501 -0.38977399826E+02  0.19352274396E+02 -0.24169438936E+02  0.50000000000E+02  0.47000000000E+01 0.  1.
</event>
<event>
 5    1  0.8909620E-001  0.1000000E+03  0.7546771E-02  0.1163815E+00
         11   -1    0    0    0    0  0.00000000000E+00  0.00000000000E+00  0.50000000000E+02  0.50000000000E+02  0.00000000000E+00 0. -1.
        -11   -1    0    0    0    0 -0.00000000000E+00 -0.00000000000E+00 -0.50000000000E+02  0.50000000000E+02  0.00000000000E+00 0.  1.
         23    2    1    2    0    0  0.00000000000E+00  0.00000000000E+00  0.00000000000E+00  0.10000000000E+03  0.10000000000E+03 0.  0.
          5    1    3    3  501    0 -0.43666186845E+02  0.45457911571E+01  0.23462947581E+02  0.50000000000E+02  0.47000000000E+01 0. -1.
         -5    1    3    3    0  501  0.43666186845E+02 -0.45457911571E+01 -0.23462947581E+02  0.50000000000E+02  0.47000000000E+01 0.  1.
</event>
<event>
 5    1  0.8909620E-001  0.1000000E+03  0.7546771E-02  0.1163815E+00
         11   -1    0    0    0    0  0.00000000000E+00  0.00000000000E+00  0.50000000000E+02  0.50000000000E+02  0.00000000000E+00 0. -1.
        -11   -1    0    0    0    0 -0.00000000000E+00 -0.00000000000E+00 -0.50000000000E+02  0.50000000000E+02  0.00000000000E+00 0.  1.
         23    2    1    2    0    0  0.00000000000E+00  0.00000000000E+00  0.00000000000E+00  0.10000000000E+03  0.10000000000E+03 0.  0.
          5    1    3    3  501    0  0.35354993657E+02  0.21580047359E+02 -0.27608621471E+02  0.50000000000E+02  0.47000000000E+01 0. -1.
         -5    1    3    3    0  501 -0.35354993657E+02 -0.21580047359E+02  0.27608621471E+02  0.50000000000E+02  0.47000000000E+01 0.  1.
</event>
<event>
 5    1  0.8909620E-001  0.1000000E+03  0.7546771E-02  0.1163815E+00
         11   -1    0    0    0    0  0.00000000000E+00  0.00000000000E+00  0.50000000000E+02  0.50000000000E+02  0.00000000000E+00 0.  1.
        -11   -1    0    0    0    0 -0.00000000000E+00 -0.00000000000E+00 -0.50000000000E+02  0.50000000000E+02  0.00000000000E+00 0. -1.
         23    2    1    2    0    0  0.00000000000E+00  0.00000000000E+00  0.00000000000E+00  0.10000000000E+03  0.10000000000E+03 0.  0.
          5    1    3    3  501    0 -0.14184910473E+02  0.46837960909E+01 -0.47484317085E+02  0.50000000000E+02  0.47000000000E+01 0. -1.
         -5    1    3    3    0  501  0.14184910473E+02 -0.46837960909E+01  0.47484317085E+02  0.50000000000E+02  0.47000000000E+01 0.  1.
</event>
<event>
 5    1  0.8909620E-001  0.1000000E+03  0.7546771E-02  0.1163815E+00
         11   -1    0    0    0    0  0.00000000000E+00  0.00000000000E+00  0.50000000000E+02  0.50000000000E+02  0.00000000000E+00 0. -1.
        -11   -1    0    0    0    0 -0.00000000000E+00 -0.00000000000E+00 -0.50000000000E+02  0.50000000000E+02  0.00000000000E+00 0.  1.
         23    2    1    2    0    0  0.00000000000E+00  0.00000000000E+00  0.00000000000E+00  0.10000000000E+03  0.10000000000E+03 0.  0.
          5    1    3    3  501    0  0.39556124815E+02  0.28496983826E+02  0.10057082203E+02  0.50000000000E+02  0.47000000000E+01 0. -1.
         -5    1    3    3    0  501 -0.39556124815E+02 -0.28496983826E+02 -0.10057082203E+02  0.50000000000E+02  0.47000000000E+01 0.  1.
</event>
<event>
 5    1  0.8909620E-001  0.1000000E+03  0.7546771E-02  0.1163815E+00
         11   -1    0    0    0    0  0.00000000000E+00  0.00000000000E+00  0.50000000000E+02  0.50000000000E+02  0.00000000000E+00 0. -1.
        -11   -1    0    0    0    0 -0.00000000000E+00 -0.00000000000E+00 -0.50000000000E+02  0.50000000000E+02  0.00000000000E+00 0.  1.
         23    2    1    2    0    0  0.00000000000E+00  0.00000000000E+00  0.00000000000E+00  0.10000000000E+03  0.10000000000E+03 0.  0.
          5    1    3    3  501    0  0.39757721902E+02 -0.16296383346E+02  0.25132875661E+02  0.50000000000E+02  0.47000000000E+01 0. -1.
         -5    1    3    3    0  501 -0.39757721902E+02  0.16296383346E+02 -0.25132875661E+02  0.50000000000E+02  0.47000000000E+01 0.  1.
</event>
<event>
 5    1  0.8909620E-001  0.1000000E+03  0.7546771E-02  0.1163815E+00
         11   -1    0    0    0    0  0.00000000000E+00  0.00000000000E+00  0.50000000000E+02  0.50000000000E+02  0.00000000000E+00 0.  1.
        -11   -1    0    0    0    0 -0.00000000000E+00 -0.00000000000E+00 -0.50000000000E+02  0.50000000000E+02  0.00000000000E+00 0. -1.
         23    2    1    2    0    0  0.00000000000E+00  0.00000000000E+00  0.00000000000E+00  0.10000000000E+03  0.10000000000E+03 0.  0.
          5    1    3    3  501    0 -0.16434276508E+02 -0.25101141496E+02  0.39720992576E+02  0.50000000000E+02  0.47000000000E+01 0.  1.
         -5    1    3    3    0  501  0.16434276508E+02  0.25101141496E+02 -0.39720992576E+02  0.50000000000E+02  0.47000000000E+01 0. -1.
</event>
<event>
 5    1  0.8909620E-001  0.1000000E+03  0.7546771E-02  0.1163815E+00
         11   -1    0    0    0    0  0.00000000000E+00  0.00000000000E+00  0.50000000000E+02  0.50000000000E+02  0.00000000000E+00 0. -1.
        -11   -1    0    0    0    0 -0.00000000000E+00 -0.00000000000E+00 -0.50000000000E+02  0.50000000000E+02  0.00000000000E+00 0.  1.
         23    2    1    2    0    0  0.00000000000E+00  0.00000000000E+00  0.00000000000E+00  0.10000000000E+03  0.10000000000E+03 0.  0.
          5    1    3    3  501    0  0.25124348152E+01 -0.40418853156E+02  0.28946743873E+02  0.50000000000E+02  0.47000000000E+01 0. -1.
         -5    1    3    3    0  501 -0.25124348152E+01  0.40418853156E+02 -0.28946743873E+02  0.50000000000E+02  0.47000000000E+01 0.  1.
</event>
<event>
 5    1  0.8909620E-001  0.1000000E+03  0.7546771E-02  0.1163815E+00
         11   -1    0    0    0    0  0.00000000000E+00  0.00000000000E+00  0.50000000000E+02  0.50000000000E+02  0.00000000000E+00 0. -1.
        -11   -1    0    0    0    0 -0.00000000000E+00 -0.00000000000E+00 -0.50000000000E+02  0.50000000000E+02  0.00000000000E+00 0.  1.
         23    2    1    2    0    0  0.00000000000E+00  0.00000000000E+00  0.00000000000E+00  0.10000000000E+03  0.10000000000E+03 0.  0.
          5    1    3    3  501    0 -0.41911881718E+01 -0.32963205374E+02  0.37064417346E+02  0.50000000000E+02  0.47000000000E+01 0. -1.
         -5    1    3    3    0  501  0.41911881718E+01  0.32963205374E+02 -0.37064417346E+02  0.50000000000E+02  0.47000000000E+01 0.  1.
</event>
<event>
 5    1  0.8909620E-001  0.1000000E+03  0.7546771E-02  0.1163815E+00
         11   -1    0    0    0    0  0.00000000000E+00  0.00000000000E+00  0.50000000000E+02  0.50000000000E+02  0.00000000000E+00 0. -1.
        -11   -1    0    0    0    0 -0.00000000000E+00 -0.00000000000E+00 -0.50000000000E+02  0.50000000000E+02  0.00000000000E+00 0.  1.
         23    2    1    2    0    0  0.00000000000E+00  0.00000000000E+00  0.00000000000E+00  0.10000000000E+03  0.10000000000E+03 0.  0.
          5    1    3    3  501    0 -0.27909330373E+02 -0.36633729540E+02  0.18893097632E+02  0.50000000000E+02  0.47000000000E+01 0. -1.
         -5    1    3    3    0  501  0.27909330373E+02  0.36633729540E+02 -0.18893097632E+02  0.50000000000E+02  0.47000000000E+01 0.  1.
</event>
<event>
 5    1  0.8909620E-001  0.1000000E+03  0.7546771E-02  0.1163815E+00
         11   -1    0    0    0    0  0.00000000000E+00  0.00000000000E+00  0.50000000000E+02  0.50000000000E+02  0.00000000000E+00 0. -1.
        -11   -1    0    0    0    0 -0.00000000000E+00 -0.00000000000E+00 -0.50000000000E+02  0.50000000000E+02  0.00000000000E+00 0.  1.
         23    2    1    2    0    0  0.00000000000E+00  0.00000000000E+00  0.00000000000E+00  0.10000000000E+03  0.10000000000E+03 0.  0.
          5    1    3    3  501    0  0.13586628597E+02 -0.47259183161E+02  0.77384191074E+01  0.50000000000E+02  0.47000000000E+01 0. -1.
         -5    1    3    3    0  501 -0.13586628597E+02  0.47259183161E+02 -0.77384191074E+01  0.50000000000E+02  0.47000000000E+01 0.  1.
</event>
<event>
 5    1  0.8909620E-001  0.1000000E+03  0.7546771E-02  0.1163815E+00
         11   -1    0    0    0    0  0.00000000000E+00  0.00000000000E+00  0.50000000000E+02  0.50000000000E+02  0.00000000000E+00 0. -1.
        -11   -1    0    0    0    0 -0.00000000000E+00 -0.00000000000E+00 -0.50000000000E+02  0.50000000000E+02  0.00000000000E+00 0.  1.
         23    2    1    2    0    0  0.00000000000E+00  0.00000000000E+00  0.00000000000E+00  0.10000000000E+03  0.10000000000E+03 0.  0.
          5    1    3    3  501    0  0.18396217437E+02 -0.26988621154E+02  0.37564657754E+02  0.50000000000E+02  0.47000000000E+01 0. -1.
         -5    1    3    3    0  501 -0.18396217437E+02  0.26988621154E+02 -0.37564657754E+02  0.50000000000E+02  0.47000000000E+01 0.  1.
</event>
<event>
 5    1  0.8909620E-001  0.1000000E+03  0.7546771E-02  0.1163815E+00
         11   -1    0    0    0    0  0.00000000000E+00  0.00000000000E+00  0.50000000000E+02  0.50000000000E+02  0.00000000000E+00 0. -1.
        -11   -1    0    0    0    0 -0.00000000000E+00 -0.00000000000E+00 -0.50000000000E+02  0.50000000000E+02  0.00000000000E+00 0.  1.
         23    2    1    2    0    0  0.00000000000E+00  0.00000000000E+00  0.00000000000E+00  0.10000000000E+03  0.10000000000E+03 0.  0.
          5    1    3    3  501    0  0.16855880831E+02  0.42344272681E+02  0.20018787490E+02  0.50000000000E+02  0.47000000000E+01 0. -1.
         -5    1    3    3    0  501 -0.16855880831E+02 -0.42344272681E+02 -0.20018787490E+02  0.50000000000E+02  0.47000000000E+01 0.  1.
</event>
<event>
 5    1  0.8909620E-001  0.1000000E+03  0.7546771E-02  0.1163815E+00
         11   -1    0    0    0    0  0.00000000000E+00  0.00000000000E+00  0.50000000000E+02  0.50000000000E+02  0.00000000000E+00 0. -1.
        -11   -1    0    0    0    0 -0.00000000000E+00 -0.00000000000E+00 -0.50000000000E+02  0.50000000000E+02  0.00000000000E+00 0.  1.
         23    2    1    2    0    0  0.00000000000E+00  0.00000000000E+00  0.00000000000E+00  0.10000000000E+03  0.10000000000E+03 0.  0.
          5    1    3    3  501    0 -0.14087602901E+00 -0.14168091329E+02  0.47719548846E+02  0.50000000000E+02  0.47000000000E+01 0. -1.
         -5    1    3    3    0  501  0.14087602901E+00  0.14168091329E+02 -0.47719548846E+02  0.50000000000E+02  0.47000000000E+01 0.  1.
</event>
<event>
 5    1  0.8909620E-001  0.1000000E+03  0.7546771E-02  0.1163815E+00
         11   -1    0    0    0    0  0.00000000000E+00  0.00000000000E+00  0.50000000000E+02  0.50000000000E+02  0.00000000000E+00 0. -1.
        -11   -1    0    0    0    0 -0.00000000000E+00 -0.00000000000E+00 -0.50000000000E+02  0.50000000000E+02  0.00000000000E+00 0.  1.
         23    2    1    2    0    0  0.00000000000E+00  0.00000000000E+00  0.00000000000E+00  0.10000000000E+03  0.10000000000E+03 0.  0.
          5    1    3    3  501    0  0.24932248154E+02  0.37097713346E+02  0.21910104211E+02  0.50000000000E+02  0.47000000000E+01 0. -1.
         -5    1    3    3    0  501 -0.24932248154E+02 -0.37097713346E+02 -0.21910104211E+02  0.50000000000E+02  0.47000000000E+01 0.  1.
</event>
<event>
 5    1  0.8909620E-001  0.1000000E+03  0.7546771E-02  0.1163815E+00
         11   -1    0    0    0    0  0.00000000000E+00  0.00000000000E+00  0.50000000000E+02  0.50000000000E+02  0.00000000000E+00 0.  1.
        -11   -1    0    0    0    0 -0.00000000000E+00 -0.00000000000E+00 -0.50000000000E+02  0.50000000000E+02  0.00000000000E+00 0. -1.
         23    2    1    2    0    0  0.00000000000E+00  0.00000000000E+00  0.00000000000E+00  0.10000000000E+03  0.10000000000E+03 0.  0.
          5    1    3    3  501    0 -0.21884193134E+02  0.91617006235E+01  0.43761345187E+02  0.50000000000E+02  0.47000000000E+01 0.  1.
         -5    1    3    3    0  501  0.21884193134E+02 -0.91617006235E+01 -0.43761345187E+02  0.50000000000E+02  0.47000000000E+01 0. -1.
</event>
<event>
 5    1  0.8909620E-001  0.1000000E+03  0.7546771E-02  0.1163815E+00
         11   -1    0    0    0    0  0.00000000000E+00  0.00000000000E+00  0.50000000000E+02  0.50000000000E+02  0.00000000000E+00 0. -1.
        -11   -1    0    0    0    0 -0.00000000000E+00 -0.00000000000E+00 -0.50000000000E+02  0.50000000000E+02  0.00000000000E+00 0.  1.
         23    2    1    2    0    0  0.00000000000E+00  0.00000000000E+00  0.00000000000E+00  0.10000000000E+03  0.10000000000E+03 0.  0.
          5    1    3    3  501    0 -0.88799735957E+01 -0.17721457640E+01  0.48948090548E+02  0.50000000000E+02  0.47000000000E+01 0. -1.
         -5    1    3    3    0  501  0.88799735957E+01  0.17721457640E+01 -0.48948090548E+02  0.50000000000E+02  0.47000000000E+01 0.  1.
</event>
<event>
 5    1  0.8909620E-001  0.1000000E+03  0.7546771E-02  0.1163815E+00
         11   -1    0    0    0    0  0.00000000000E+00  0.00000000000E+00  0.50000000000E+02  0.50000000000E+02  0.00000000000E+00 0.  1.
        -11   -1    0    0    0    0 -0.00000000000E+00 -0.00000000000E+00 -0.50000000000E+02  0.50000000000E+02  0.00000000000E+00 0. -1.
         23    2    1    2    0    0  0.00000000000E+00  0.00000000000E+00  0.00000000000E+00  0.10000000000E+03  0.10000000000E+03 0.  0.
          5    1    3    3  501    0 -0.11801446494E+02 -0.12653426779E+02 -0.46674689623E+02  0.50000000000E+02  0.47000000000E+01 0. -1.
         -5    1    3    3    0  501  0.11801446494E+02  0.12653426779E+02  0.46674689623E+02  0.50000000000E+02  0.47000000000E+01 0.  1.
</event>
<event>
 5    1  0.8909620E-001  0.1000000E+03  0.7546771E-02  0.1163815E+00
         11   -1    0    0    0    0  0.00000000000E+00  0.00000000000E+00  0.50000000000E+02  0.50000000000E+02  0.00000000000E+00 0.  1.
        -11   -1    0    0    0    0 -0.00000000000E+00 -0.00000000000E+00 -0.50000000000E+02  0.50000000000E+02  0.00000000000E+00 0. -1.
         23    2    1    2    0    0  0.00000000000E+00  0.00000000000E+00  0.00000000000E+00  0.10000000000E+03  0.10000000000E+03 0.  0.
          5    1    3    3  501    0 -0.47599867311E+02 -0.43120639646E+01 -0.13912898200E+02  0.50000000000E+02  0.47000000000E+01 0. -1.
         -5    1    3    3    0  501  0.47599867311E+02  0.43120639646E+01  0.13912898200E+02  0.50000000000E+02  0.47000000000E+01 0.  1.
</event>
<event>
 5    1  0.8909620E-001  0.1000000E+03  0.7546771E-02  0.1163815E+00
         11   -1    0    0    0    0  0.00000000000E+00  0.00000000000E+00  0.50000000000E+02  0.50000000000E+02  0.00000000000E+00 0. -1.
        -11   -1    0    0    0    0 -0.00000000000E+00 -0.00000000000E+00 -0.50000000000E+02  0.50000000000E+02  0.00000000000E+00 0.  1.
         23    2    1    2    0    0  0.00000000000E+00  0.00000000000E+00  0.00000000000E+00  0.10000000000E+03  0.10000000000E+03 0.  0.
          5    1    3    3  501    0  0.17330498548E+02 -0.18063166410E+02  0.43026571317E+02  0.50000000000E+02  0.47000000000E+01 0. -1.
         -5    1    3    3    0  501 -0.17330498548E+02  0.18063166410E+02 -0.43026571317E+02  0.50000000000E+02  0.47000000000E+01 0.  1.
</event>
<event>
 5    1  0.8909620E-001  0.1000000E+03  0.7546771E-02  0.1163815E+00
         11   -1    0    0    0    0  0.00000000000E+00  0.00000000000E+00  0.50000000000E+02  0.50000000000E+02  0.00000000000E+00 0.  1.
        -11   -1    0    0    0    0 -0.00000000000E+00 -0.00000000000E+00 -0.50000000000E+02  0.50000000000E+02  0.00000000000E+00 0. -1.
         23    2    1    2    0    0  0.00000000000E+00  0.00000000000E+00  0.00000000000E+00  0.10000000000E+03  0.10000000000E+03 0.  0.
          5    1    3    3  501    0 -0.19906435927E+02  0.40936158364E+02 -0.20146333341E+02  0.50000000000E+02  0.47000000000E+01 0. -1.
         -5    1    3    3    0  501  0.19906435927E+02 -0.40936158364E+02  0.20146333341E+02  0.50000000000E+02  0.47000000000E+01 0.  1.
</event>
<event>
 5    1  0.8909620E-001  0.1000000E+03  0.7546771E-02  0.1163815E+00
         11   -1    0    0    0    0  0.00000000000E+00  0.00000000000E+00  0.50000000000E+02  0.50000000000E+02  0.00000000000E+00 0.  1.
        -11   -1    0    0    0    0 -0.00000000000E+00 -0.00000000000E+00 -0.50000000000E+02  0.50000000000E+02  0.00000000000E+00 0. -1.
         23    2    1    2    0    0  0.00000000000E+00  0.00000000000E+00  0.00000000000E+00  0.10000000000E+03  0.10000000000E+03 0.  0.
          5    1    3    3  501    0  0.49692870881E+01 -0.12882947682E+02 -0.47825159120E+02  0.50000000000E+02  0.47000000000E+01 0. -1.
         -5    1    3    3    0  501 -0.49692870881E+01  0.12882947682E+02  0.47825159120E+02  0.50000000000E+02  0.47000000000E+01 0.  1.
</event>
<event>
 5    1  0.8909620E-001  0.1000000E+03  0.7546771E-02  0.1163815E+00
         11   -1    0    0    0    0  0.00000000000E+00  0.00000000000E+00  0.50000000000E+02  0.50000000000E+02  0.00000000000E+00 0.  1.
        -11   -1    0    0    0    0 -0.00000000000E+00 -0.00000000000E+00 -0.50000000000E+02  0.50000000000E+02  0.00000000000E+00 0. -1.
         23    2    1    2    0    0  0.00000000000E+00  0.00000000000E+00  0.00000000000E+00  0.10000000000E+03  0.10000000000E+03 0.  0.
          5    1    3    3  501    0 -0.38138751569E+02 -0.24264961701E+02 -0.20846037092E+02  0.50000000000E+02  0.47000000000E+01 0. -1.
         -5    1    3    3    0  501  0.38138751569E+02  0.24264961701E+02  0.20846037092E+02  0.50000000000E+02  0.47000000000E+01 0.  1.
</event>
<event>
 5    1  0.8909620E-001  0.1000000E+03  0.7546771E-02  0.1163815E+00
         11   -1    0    0    0    0  0.00000000000E+00  0.00000000000E+00  0.50000000000E+02  0.50000000000E+02  0.00000000000E+00 0. -1.
        -11   -1    0    0    0    0 -0.00000000000E+00 -0.00000000000E+00 -0.50000000000E+02  0.50000000000E+02  0.00000000000E+00 0.  1.
         23    2    1    2    0    0  0.00000000000E+00  0.00000000000E+00  0.00000000000E+00  0.10000000000E+03  0.10000000000E+03 0.  0.
          5    1    3    3  501    0  0.28588854359E+02  0.38801370436E+02  0.12451548446E+02  0.50000000000E+02  0.47000000000E+01 0. -1.
         -5    1    3    3    0  501 -0.28588854359E+02 -0.38801370436E+02 -0.12451548446E+02  0.50000000000E+02  0.47000000000E+01 0.  1.
</event>
<event>
 5    1  0.8909620E-001  0.1000000E+03  0.7546771E-02  0.1163815E+00
         11   -1    0    0    0    0  0.00000000000E+00  0.00000000000E+00  0.50000000000E+02  0.50000000000E+02  0.00000000000E+00 0. -1.
        -11   -1    0    0    0    0 -0.00000000000E+00 -0.00000000000E+00 -0.50000000000E+02  0.50000000000E+02  0.00000000000E+00 0.  1.
         23    2    1    2    0    0  0.00000000000E+00  0.00000000000E+00  0.00000000000E+00  0.10000000000E+03  0.10000000000E+03 0.  0.
          5    1    3    3  501    0  0.23385918633E+02  0.35230372465E+02  0.26264608614E+02  0.50000000000E+02  0.47000000000E+01 0. -1.
         -5    1    3    3    0  501 -0.23385918633E+02 -0.35230372465E+02 -0.26264608614E+02  0.50000000000E+02  0.47000000000E+01 0.  1.
</event>
<event>
 5    1  0.8909620E-001  0.1000000E+03  0.7546771E-02  0.1163815E+00
         11   -1    0    0    0    0  0.00000000000E+00  0.00000000000E+00  0.50000000000E+02  0.50000000000E+02  0.00000000000E+00 0. -1.
        -11   -1    0    0    0    0 -0.00000000000E+00 -0.00000000000E+00 -0.50000000000E+02  0.50000000000E+02  0.00000000000E+00 0.  1.
         23    2    1    2    0    0  0.00000000000E+00  0.00000000000E+00  0.00000000000E+00  0.10000000000E+03  0.10000000000E+03 0.  0.
          5    1    3    3  501    0 -0.24766763126E+02 -0.22161084664E+02  0.37059462635E+02  0.50000000000E+02  0.47000000000E+01 0. -1.
         -5    1    3    3    0  501  0.24766763126E+02  0.22161084664E+02 -0.37059462635E+02  0.50000000000E+02  0.47000000000E+01 0.  1.
</event>
<event>
 5    1  0.8909620E-001  0.1000000E+03  0.7546771E-02  0.1163815E+00
         11   -1    0    0    0    0  0.00000000000E+00  0.00000000000E+00  0.50000000000E+02  0.50000000000E+02  0.00000000000E+00 0. -1.
        -11   -1    0    0    0    0 -0.00000000000E+00 -0.00000000000E+00 -0.50000000000E+02  0.50000000000E+02  0.00000000000E+00 0.  1.
         23    2    1    2    0    0  0.00000000000E+00  0.00000000000E+00  0.00000000000E+00  0.10000000000E+03  0.10000000000E+03 0.  0.
          5    1    3    3  501    0 -0.12564048343E+02 -0.14548519276E+02  0.45917265556E+02  0.50000000000E+02  0.47000000000E+01 0. -1.
         -5    1    3    3    0  501  0.12564048343E+02  0.14548519276E+02 -0.45917265556E+02  0.50000000000E+02  0.47000000000E+01 0.  1.
</event>
<event>
 5    1  0.8909620E-001  0.1000000E+03  0.7546771E-02  0.1163815E+00
         11   -1    0    0    0    0  0.00000000000E+00  0.00000000000E+00  0.50000000000E+02  0.50000000000E+02  0.00000000000E+00 0. -1.
        -11   -1    0    0    0    0 -0.00000000000E+00 -0.00000000000E+00 -0.50000000000E+02  0.50000000000E+02  0.00000000000E+00 0.  1.
         23    2    1    2    0    0  0.00000000000E+00  0.00000000000E+00  0.00000000000E+00  0.10000000000E+03  0.10000000000E+03 0.  0.
          5    1    3    3  501    0  0.18428665651E+02  0.39806558195E+01  0.46070040825E+02  0.50000000000E+02  0.47000000000E+01 0. -1.
         -5    1    3    3    0  501 -0.18428665651E+02 -0.39806558195E+01 -0.46070040825E+02  0.50000000000E+02  0.47000000000E+01 0.  1.
</event>
<event>
 5    1  0.8909620E-001  0.1000000E+03  0.7546771E-02  0.1163815E+00
         11   -1    0    0    0    0  0.00000000000E+00  0.00000000000E+00  0.50000000000E+02  0.50000000000E+02  0.00000000000E+00 0. -1.
        -11   -1    0    0    0    0 -0.00000000000E+00 -0.00000000000E+00 -0.50000000000E+02  0.50000000000E+02  0.00000000000E+00 0.  1.
         23    2    1    2    0    0  0.00000000000E+00  0.00000000000E+00  0.00000000000E+00  0.10000000000E+03  0.10000000000E+03 0.  0.
          5    1    3    3  501    0 -0.47809261614E+02 -0.11012218659E+02  0.84211367465E+01  0.50000000000E+02  0.47000000000E+01 0. -1.
         -5    1    3    3    0  501  0.47809261614E+02  0.11012218659E+02 -0.84211367465E+01  0.50000000000E+02  0.47000000000E+01 0.  1.
</event>
<event>
 5    1  0.8909620E-001  0.1000000E+03  0.7546771E-02  0.1163815E+00
         11   -1    0    0    0    0  0.00000000000E+00  0.00000000000E+00  0.50000000000E+02  0.50000000000E+02  0.00000000000E+00 0.  1.
        -11   -1    0    0    0    0 -0.00000000000E+00 -0.00000000000E+00 -0.50000000000E+02  0.50000000000E+02  0.00000000000E+00 0. -1.
         23    2    1    2    0    0  0.00000000000E+00  0.00000000000E+00  0.00000000000E+00  0.10000000000E+03  0.10000000000E+03 0.  0.
          5    1    3    3  501    0 -0.13273936721E+02 -0.31252635438E+02 -0.36400348654E+02  0.50000000000E+02  0.47000000000E+01 0. -1.
         -5    1    3    3    0  501  0.13273936721E+02  0.31252635438E+02  0.36400348654E+02  0.50000000000E+02  0.47000000000E+01 0.  1.
</event>
<event>
 5    1  0.8909620E-001  0.1000000E+03  0.7546771E-02  0.1163815E+00
         11   -1    0    0    0    0  0.00000000000E+00  0.00000000000E+00  0.50000000000E+02  0.50000000000E+02  0.00000000000E+00 0. -1.
        -11   -1    0    0    0    0 -0.00000000000E+00 -0.00000000000E+00 -0.50000000000E+02  0.50000000000E+02  0.00000000000E+00 0.  1.
         23    2    1    2    0    0  0.00000000000E+00  0.00000000000E+00  0.00000000000E+00  0.10000000000E+03  0.10000000000E+03 0.  0.
          5    1    3    3  501    0 -0.20164069587E+02  0.24069538849E+02  0.38626125838E+02  0.50000000000E+02  0.47000000000E+01 0. -1.
         -5    1    3    3    0  501  0.20164069587E+02 -0.24069538849E+02 -0.38626125838E+02  0.50000000000E+02  0.47000000000E+01 0.  1.
</event>
<event>
 5    1  0.8909620E-001  0.1000000E+03  0.7546771E-02  0.1163815E+00
         11   -1    0    0    0    0  0.00000000000E+00  0.00000000000E+00  0.50000000000E+02  0.50000000000E+02  0.00000000000E+00 0. -1.
        -11   -1    0    0    0    0 -0.00000000000E+00 -0.00000000000E+00 -0.50000000000E+02  0.50000000000E+02  0.00000000000E+00 0.  1.
         23    2    1    2    0    0  0.00000000000E+00  0.00000000000E+00  0.00000000000E+00  0.10000000000E+03  0.10000000000E+03 0.  0.
          5    1    3    3  501    0 -0.13897122661E+02  0.49830546973E+01  0.47538922449E+02  0.50000000000E+02  0.47000000000E+01 0. -1.
         -5    1    3    3    0  501  0.13897122661E+02 -0.49830546973E+01 -0.47538922449E+02  0.50000000000E+02  0.47000000000E+01 0.  1.
</event>
<event>
 5    1  0.8909620E-001  0.1000000E+03  0.7546771E-02  0.1163815E+00
         11   -1    0    0    0    0  0.00000000000E+00  0.00000000000E+00  0.50000000000E+02  0.50000000000E+02  0.00000000000E+00 0.  1.
        -11   -1    0    0    0    0 -0.00000000000E+00 -0.00000000000E+00 -0.50000000000E+02  0.50000000000E+02  0.00000000000E+00 0. -1.
         23    2    1    2    0    0  0.00000000000E+00  0.00000000000E+00  0.00000000000E+00  0.10000000000E+03  0.10000000000E+03 0.  0.
          5    1    3    3  501    0 -0.24381702192E+02  0.36645551430E+02  0.23249648571E+02  0.50000000000E+02  0.47000000000E+01 0. -1.
         -5    1    3    3    0  501  0.24381702192E+02 -0.36645551430E+02 -0.23249648571E+02  0.50000000000E+02  0.47000000000E+01 0.  1.
</event>
<event>
 5    1  0.8909620E-001  0.1000000E+03  0.7546771E-02  0.1163815E+00
         11   -1    0    0    0    0  0.00000000000E+00  0.00000000000E+00  0.50000000000E+02  0.50000000000E+02  0.00000000000E+00 0. -1.
        -11   -1    0    0    0    0 -0.00000000000E+00 -0.00000000000E+00 -0.50000000000E+02  0.50000000000E+02  0.00000000000E+00 0.  1.
         23    2    1    2    0    0  0.00000000000E+00  0.00000000000E+00  0.00000000000E+00  0.10000000000E+03  0.10000000000E+03 0.  0.
          5    1    3    3  501    0  0.49441698505E+02 -0.65201070559E+00  0.57448525653E+01  0.50000000000E+02  0.47000000000E+01 0. -1.
         -5    1    3    3    0  501 -0.49441698505E+02  0.65201070559E+00 -0.57448525653E+01  0.50000000000E+02  0.47000000000E+01 0.  1.
</event>
<event>
 5    1  0.8909620E-001  0.1000000E+03  0.7546771E-02  0.1163815E+00
         11   -1    0    0    0    0  0.00000000000E+00  0.00000000000E+00  0.50000000000E+02  0.50000000000E+02  0.00000000000E+00 0. -1.
        -11   -1    0    0    0    0 -0.00000000000E+00 -0.00000000000E+00 -0.50000000000E+02  0.50000000000E+02  0.00000000000E+00 0.  1.
         23    2    1    2    0    0  0.00000000000E+00  0.00000000000E+00  0.00000000000E+00  0.10000000000E+03  0.10000000000E+03 0.  0.
          5    1    3    3  501    0  0.38303928284E+02 -0.19451181745E+02  0.25146980072E+02  0.50000000000E+02  0.47000000000E+01 0. -1.
         -5    1    3    3    0  501 -0.38303928284E+02  0.19451181745E+02 -0.25146980072E+02  0.50000000000E+02  0.47000000000E+01 0.  1.
</event>
<event>
 5    1  0.8909620E-001  0.1000000E+03  0.7546771E-02  0.1163815E+00
         11   -1    0    0    0    0  0.00000000000E+00  0.00000000000E+00  0.50000000000E+02  0.50000000000E+02  0.00000000000E+00 0. -1.
        -11   -1    0    0    0    0 -0.00000000000E+00 -0.00000000000E+00 -0.50000000000E+02  0.50000000000E+02  0.00000000000E+00 0.  1.
         23    2    1    2    0    0  0.00000000000E+00  0.00000000000E+00  0.00000000000E+00  0.10000000000E+03  0.10000000000E+03 0.  0.
          5    1    3    3  501    0  0.14243876421E+02 -0.95249832576E+01  0.46736459841E+02  0.50000000000E+02  0.47000000000E+01 0. -1.
         -5    1    3    3    0  501 -0.14243876421E+02  0.95249832576E+01 -0.46736459841E+02  0.50000000000E+02  0.47000000000E+01 0.  1.
</event>
<event>
 5    1  0.8909620E-001  0.1000000E+03  0.7546771E-02  0.1163815E+00
         11   -1    0    0    0    0  0.00000000000E+00  0.00000000000E+00  0.50000000000E+02  0.50000000000E+02  0.00000000000E+00 0. -1.
        -11   -1    0    0    0    0 -0.00000000000E+00 -0.00000000000E+00 -0.50000000000E+02  0.50000000000E+02  0.00000000000E+00 0.  1.
         23    2    1    2    0    0  0.00000000000E+00  0.00000000000E+00  0.00000000000E+00  0.10000000000E+03  0.10000000000E+03 0.  0.
          5    1    3    3  501    0 -0.12899358031E+02 -0.25399177688E+02  0.40821542538E+02  0.50000000000E+02  0.47000000000E+01 0. -1.
         -5    1    3    3    0  501  0.12899358031E+02  0.25399177688E+02 -0.40821542538E+02  0.50000000000E+02  0.47000000000E+01 0.  1.
</event>
<event>
 5    1  0.8909620E-001  0.1000000E+03  0.7546771E-02  0.1163815E+00
         11   -1    0    0    0    0  0.00000000000E+00  0.00000000000E+00  0.50000000000E+02  0.50000000000E+02  0.00000000000E+00 0. -1.
        -11   -1    0    0    0    0 -0.00000000000E+00 -0.00000000000E+00 -0.50000000000E+02  0.50000000000E+02  0.00000000000E+00 0.  1.
         23    2    1    2    0    0  0.00000000000E+00  0.00000000000E+00  0.00000000000E+00  0.10000000000E+03  0.10000000000E+03 0.  0.
          5    1    3    3  501    0 -0.12208114729E+02  0.11784903772E+02  0.46797307378E+02  0.50000000000E+02  0.47000000000E+01 0. -1.
         -5    1    3    3    0  501  0.12208114729E+02 -0.11784903772E+02 -0.46797307378E+02  0.50000000000E+02  0.47000000000E+01 0.  1.
</event>
<event>
 5    1  0.8909620E-001  0.1000000E+03  0.7546771E-02  0.1163815E+00
         11   -1    0    0    0    0  0.00000000000E+00  0.00000000000E+00  0.50000000000E+02  0.50000000000E+02  0.00000000000E+00 0. -1.
        -11   -1    0    0    0    0 -0.00000000000E+00 -0.00000000000E+00 -0.50000000000E+02  0.50000000000E+02  0.00000000000E+00 0.  1.
         23    2    1    2    0    0  0.00000000000E+00  0.00000000000E+00  0.00000000000E+00  0.10000000000E+03  0.10000000000E+03 0.  0.
          5    1    3    3  501    0  0.43999230183E+01 -0.41961737695E+02  0.26415208632E+02  0.50000000000E+02  0.47000000000E+01 0. -1.
         -5    1    3    3    0  501 -0.43999230183E+01  0.41961737695E+02 -0.26415208632E+02  0.50000000000E+02  0.47000000000E+01 0.  1.
</event>
<event>
 5    1  0.8909620E-001  0.1000000E+03  0.7546771E-02  0.1163815E+00
         11   -1    0    0    0    0  0.00000000000E+00  0.00000000000E+00  0.50000000000E+02  0.50000000000E+02  0.00000000000E+00 0.  1.
        -11   -1    0    0    0    0 -0.00000000000E+00 -0.00000000000E+00 -0.50000000000E+02  0.50000000000E+02  0.00000000000E+00 0. -1.
         23    2    1    2    0    0  0.00000000000E+00  0.00000000000E+00  0.00000000000E+00  0.10000000000E+03  0.10000000000E+03 0.  0.
          5    1    3    3  501    0 -0.17680010392E+02 -0.27662885097E+02 -0.37417803526E+02  0.50000000000E+02  0.47000000000E+01 0. -1.
         -5    1    3    3    0  501  0.17680010392E+02  0.27662885097E+02  0.37417803526E+02  0.50000000000E+02  0.47000000000E+01 0.  1.
</event>
<event>
 5    1  0.8909620E-001  0.1000000E+03  0.7546771E-02  0.1163815E+00
         11   -1    0    0    0    0  0.00000000000E+00  0.00000000000E+00  0.50000000000E+02  0.50000000000E+02  0.00000000000E+00 0. -1.
        -11   -1    0    0    0    0 -0.00000000000E+00 -0.00000000000E+00 -0.50000000000E+02  0.50000000000E+02  0.00000000000E+00 0.  1.
         23    2    1    2    0    0  0.00000000000E+00  0.00000000000E+00  0.00000000000E+00  0.10000000000E+03  0.10000000000E+03 0.  0.
          5    1    3    3  501    0 -0.39870265602E+02 -0.29800678413E+02  0.43759219434E+00  0.50000000000E+02  0.47000000000E+01 0. -1.
         -5    1    3    3    0  501  0.39870265602E+02  0.29800678413E+02 -0.43759219434E+00  0.50000000000E+02  0.47000000000E+01 0.  1.
</event>
<event>
 5    1  0.8909620E-001  0.1000000E+03  0.7546771E-02  0.1163815E+00
         11   -1    0    0    0    0  0.00000000000E+00  0.00000000000E+00  0.50000000000E+02  0.50000000000E+02  0.00000000000E+00 0. -1.
        -11   -1    0    0    0    0 -0.00000000000E+00 -0.00000000000E+00 -0.50000000000E+02  0.50000000000E+02  0.00000000000E+00 0.  1.
         23    2    1    2    0    0  0.00000000000E+00  0.00000000000E+00  0.00000000000E+00  0.10000000000E+03  0.10000000000E+03 0.  0.
          5    1    3    3  501    0 -0.16709170075E+01 -0.95644191942E+01  0.48822534980E+02  0.50000000000E+02  0.47000000000E+01 0. -1.
         -5    1    3    3    0  501  0.16709170075E+01  0.95644191942E+01 -0.48822534980E+02  0.50000000000E+02  0.47000000000E+01 0.  1.
</event>
<event>
 5    1  0.8909620E-001  0.1000000E+03  0.7546771E-02  0.1163815E+00
         11   -1    0    0    0    0  0.00000000000E+00  0.00000000000E+00  0.50000000000E+02  0.50000000000E+02  0.00000000000E+00 0. -1.
        -11   -1    0    0    0    0 -0.00000000000E+00 -0.00000000000E+00 -0.50000000000E+02  0.50000000000E+02  0.00000000000E+00 0.  1.
         23    2    1    2    0    0  0.00000000000E+00  0.00000000000E+00  0.00000000000E+00  0.10000000000E+03  0.10000000000E+03 0.  0.
          5    1    3    3  501    0  0.39246799677E+02 -0.13980537212E+02  0.27242307068E+02  0.50000000000E+02  0.47000000000E+01 0. -1.
         -5    1    3    3    0  501 -0.39246799677E+02  0.13980537212E+02 -0.27242307068E+02  0.50000000000E+02  0.47000000000E+01 0.  1.
</event>
<event>
 5    1  0.8909620E-001  0.1000000E+03  0.7546771E-02  0.1163815E+00
         11   -1    0    0    0    0  0.00000000000E+00  0.00000000000E+00  0.50000000000E+02  0.50000000000E+02  0.00000000000E+00 0. -1.
        -11   -1    0    0    0    0 -0.00000000000E+00 -0.00000000000E+00 -0.50000000000E+02  0.50000000000E+02  0.00000000000E+00 0.  1.
         23    2    1    2    0    0  0.00000000000E+00  0.00000000000E+00  0.00000000000E+00  0.10000000000E+03  0.10000000000E+03 0.  0.
          5    1    3    3  501    0 -0.45556848675E+02 -0.96545765677E+01  0.17586150520E+02  0.50000000000E+02  0.47000000000E+01 0. -1.
         -5    1    3    3    0  501  0.45556848675E+02  0.96545765677E+01 -0.17586150520E+02  0.50000000000E+02  0.47000000000E+01 0.  1.
</event>
<event>
 5    1  0.8909620E-001  0.1000000E+03  0.7546771E-02  0.1163815E+00
         11   -1    0    0    0    0  0.00000000000E+00  0.00000000000E+00  0.50000000000E+02  0.50000000000E+02  0.00000000000E+00 0. -1.
        -11   -1    0    0    0    0 -0.00000000000E+00 -0.00000000000E+00 -0.50000000000E+02  0.50000000000E+02  0.00000000000E+00 0.  1.
         23    2    1    2    0    0  0.00000000000E+00  0.00000000000E+00  0.00000000000E+00  0.10000000000E+03  0.10000000000E+03 0.  0.
          5    1    3    3  501    0  0.29529877208E+02 -0.54715660161E+01  0.39698341494E+02  0.50000000000E+02  0.47000000000E+01 0. -1.
         -5    1    3    3    0  501 -0.29529877208E+02  0.54715660161E+01 -0.39698341494E+02  0.50000000000E+02  0.47000000000E+01 0.  1.
</event>
<event>
 5    1  0.8909620E-001  0.1000000E+03  0.7546771E-02  0.1163815E+00
         11   -1    0    0    0    0  0.00000000000E+00  0.00000000000E+00  0.50000000000E+02  0.50000000000E+02  0.00000000000E+00 0. -1.
        -11   -1    0    0    0    0 -0.00000000000E+00 -0.00000000000E+00 -0.50000000000E+02  0.50000000000E+02  0.00000000000E+00 0.  1.
         23    2    1    2    0    0  0.00000000000E+00  0.00000000000E+00  0.00000000000E+00  0.10000000000E+03  0.10000000000E+03 0.  0.
          5    1    3    3  501    0 -0.93473859088E+01  0.48541833494E+02  0.58503656072E+01  0.50000000000E+02  0.47000000000E+01 0. -1.
         -5    1    3    3    0  501  0.93473859088E+01 -0.48541833494E+02 -0.58503656072E+01  0.50000000000E+02  0.47000000000E+01 0.  1.
</event>
<event>
 5    1  0.8909620E-001  0.1000000E+03  0.7546771E-02  0.1163815E+00
         11   -1    0    0    0    0  0.00000000000E+00  0.00000000000E+00  0.50000000000E+02  0.50000000000E+02  0.00000000000E+00 0. -1.
        -11   -1    0    0    0    0 -0.00000000000E+00 -0.00000000000E+00 -0.50000000000E+02  0.50000000000E+02  0.00000000000E+00 0.  1.
         23    2    1    2    0    0  0.00000000000E+00  0.00000000000E+00  0.00000000000E+00  0.10000000000E+03  0.10000000000E+03 0.  0.
          5    1    3    3  501    0  0.36605457800E+02  0.42604818201E+01 -0.33463394238E+02  0.50000000000E+02  0.47000000000E+01 0.  1.
         -5    1    3    3    0  501 -0.36605457800E+02 -0.42604818201E+01  0.33463394238E+02  0.50000000000E+02  0.47000000000E+01 0. -1.
</event>
<event>
 5    1  0.8909620E-001  0.1000000E+03  0.7546771E-02  0.1163815E+00
         11   -1    0    0    0    0  0.00000000000E+00  0.00000000000E+00  0.50000000000E+02  0.50000000000E+02  0.00000000000E+00 0. -1.
        -11   -1    0    0    0    0 -0.00000000000E+00 -0.00000000000E+00 -0.50000000000E+02  0.50000000000E+02  0.00000000000E+00 0.  1.
         23    2    1    2    0    0  0.00000000000E+00  0.00000000000E+00  0.00000000000E+00  0.10000000000E+03  0.10000000000E+03 0.  0.
          5    1    3    3  501    0  0.17495204793E+02  0.40063627343E+02  0.23806166708E+02  0.50000000000E+02  0.47000000000E+01 0. -1.
         -5    1    3    3    0  501 -0.17495204793E+02 -0.40063627343E+02 -0.23806166708E+02  0.50000000000E+02  0.47000000000E+01 0.  1.
</event>
<event>
 5    1  0.8909620E-001  0.1000000E+03  0.7546771E-02  0.1163815E+00
         11   -1    0    0    0    0  0.00000000000E+00  0.00000000000E+00  0.50000000000E+02  0.50000000000E+02  0.00000000000E+00 0. -1.
        -11   -1    0    0    0    0 -0.00000000000E+00 -0.00000000000E+00 -0.50000000000E+02  0.50000000000E+02  0.00000000000E+00 0.  1.
         23    2    1    2    0    0  0.00000000000E+00  0.00000000000E+00  0.00000000000E+00  0.10000000000E+03  0.10000000000E+03 0.  0.
          5    1    3    3  501    0  0.29027145171E+02  0.30335575681E+02  0.26741123599E+02  0.50000000000E+02  0.47000000000E+01 0. -1.
         -5    1    3    3    0  501 -0.29027145171E+02 -0.30335575681E+02 -0.26741123599E+02  0.50000000000E+02  0.47000000000E+01 0.  1.
</event>
<event>
 5    1  0.8909620E-001  0.1000000E+03  0.7546771E-02  0.1163815E+00
         11   -1    0    0    0    0  0.00000000000E+00  0.00000000000E+00  0.50000000000E+02  0.50000000000E+02  0.00000000000E+00 0.  1.
        -11   -1    0    0    0    0 -0.00000000000E+00 -0.00000000000E+00 -0.50000000000E+02  0.50000000000E+02  0.00000000000E+00 0. -1.
         23    2    1    2    0    0  0.00000000000E+00  0.00000000000E+00  0.00000000000E+00  0.10000000000E+03  0.10000000000E+03 0.  0.
          5    1    3    3  501    0 -0.22317505358E+01 -0.96734208659E+00 -0.49719146602E+02  0.50000000000E+02  0.47000000000E+01 0. -1.
         -5    1    3    3    0  501  0.22317505358E+01  0.96734208659E+00  0.49719146602E+02  0.50000000000E+02  0.47000000000E+01 0.  1.
</event>
<event>
 5    1  0.8909620E-001  0.1000000E+03  0.7546771E-02  0.1163815E+00
         11   -1    0    0    0    0  0.00000000000E+00  0.00000000000E+00  0.50000000000E+02  0.50000000000E+02  0.00000000000E+00 0. -1.
        -11   -1    0    0    0    0 -0.00000000000E+00 -0.00000000000E+00 -0.50000000000E+02  0.50000000000E+02  0.00000000000E+00 0.  1.
         23    2    1    2    0    0  0.00000000000E+00  0.00000000000E+00  0.00000000000E+00  0.10000000000E+03  0.10000000000E+03 0.  0.
          5    1    3    3  501    0  0.26641957555E+02  0.27781119047E+02  0.31564624536E+02  0.50000000000E+02  0.47000000000E+01 0. -1.
         -5    1    3    3    0  501 -0.26641957555E+02 -0.27781119047E+02 -0.31564624536E+02  0.50000000000E+02  0.47000000000E+01 0.  1.
</event>
<event>
 5    1  0.8909620E-001  0.1000000E+03  0.7546771E-02  0.1163815E+00
         11   -1    0    0    0    0  0.00000000000E+00  0.00000000000E+00  0.50000000000E+02  0.50000000000E+02  0.00000000000E+00 0.  1.
        -11   -1    0    0    0    0 -0.00000000000E+00 -0.00000000000E+00 -0.50000000000E+02  0.50000000000E+02  0.00000000000E+00 0. -1.
         23    2    1    2    0    0  0.00000000000E+00  0.00000000000E+00  0.00000000000E+00  0.10000000000E+03  0.10000000000E+03 0.  0.
          5    1    3    3  501    0 -0.23340880398E+02  0.42031694480E+02  0.12901548798E+02  0.50000000000E+02  0.47000000000E+01 0. -1.
         -5    1    3    3    0  501  0.23340880398E+02 -0.42031694480E+02 -0.12901548798E+02  0.50000000000E+02  0.47000000000E+01 0.  1.
</event>
<event>
 5    1  0.8909620E-001  0.1000000E+03  0.7546771E-02  0.1163815E+00
         11   -1    0    0    0    0  0.00000000000E+00  0.00000000000E+00  0.50000000000E+02  0.50000000000E+02  0.00000000000E+00 0.  1.
        -11   -1    0    0    0    0 -0.00000000000E+00 -0.00000000000E+00 -0.50000000000E+02  0.50000000000E+02  0.00000000000E+00 0. -1.
         23    2    1    2    0    0  0.00000000000E+00  0.00000000000E+00  0.00000000000E+00  0.10000000000E+03  0.10000000000E+03 0.  0.
          5    1    3    3  501    0  0.31985578209E+02 -0.30699300735E+02 -0.22635938705E+02  0.50000000000E+02  0.47000000000E+01 0. -1.
         -5    1    3    3    0  501 -0.31985578209E+02  0.30699300735E+02  0.22635938705E+02  0.50000000000E+02  0.47000000000E+01 0.  1.
</event>
<event>
 5    1  0.8909620E-001  0.1000000E+03  0.7546771E-02  0.1163815E+00
         11   -1    0    0    0    0  0.00000000000E+00  0.00000000000E+00  0.50000000000E+02  0.50000000000E+02  0.00000000000E+00 0.  1.
        -11   -1    0    0    0    0 -0.00000000000E+00 -0.00000000000E+00 -0.50000000000E+02  0.50000000000E+02  0.00000000000E+00 0. -1.
         23    2    1    2    0    0  0.00000000000E+00  0.00000000000E+00  0.00000000000E+00  0.10000000000E+03  0.10000000000E+03 0.  0.
          5    1    3    3  501    0  0.29921486437E+02 -0.12105853495E+02 -0.37895421366E+02  0.50000000000E+02  0.47000000000E+01 0. -1.
         -5    1    3    3    0  501 -0.29921486437E+02  0.12105853495E+02  0.37895421366E+02  0.50000000000E+02  0.47000000000E+01 0.  1.
</event>
<event>
 5    1  0.8909620E-001  0.1000000E+03  0.7546771E-02  0.1163815E+00
         11   -1    0    0    0    0  0.00000000000E+00  0.00000000000E+00  0.50000000000E+02  0.50000000000E+02  0.00000000000E+00 0.  1.
        -11   -1    0    0    0    0 -0.00000000000E+00 -0.00000000000E+00 -0.50000000000E+02  0.50000000000E+02  0.00000000000E+00 0. -1.
         23    2    1    2    0    0  0.00000000000E+00  0.00000000000E+00  0.00000000000E+00  0.10000000000E+03  0.10000000000E+03 0.  0.
          5    1    3    3  501    0 -0.25254372743E+02  0.23439362373E+02 -0.35926632863E+02  0.50000000000E+02  0.47000000000E+01 0. -1.
         -5    1    3    3    0  501  0.25254372743E+02 -0.23439362373E+02  0.35926632863E+02  0.50000000000E+02  0.47000000000E+01 0.  1.
</event>
<event>
 5    1  0.8909620E-001  0.1000000E+03  0.7546771E-02  0.1163815E+00
         11   -1    0    0    0    0  0.00000000000E+00  0.00000000000E+00  0.50000000000E+02  0.50000000000E+02  0.00000000000E+00 0. -1.
        -11   -1    0    0    0    0 -0.00000000000E+00 -0.00000000000E+00 -0.50000000000E+02  0.50000000000E+02  0.00000000000E+00 0.  1.
         23    2    1    2    0    0  0.00000000000E+00  0.00000000000E+00  0.00000000000E+00  0.10000000000E+03  0.10000000000E+03 0.  0.
          5    1    3    3  501    0 -0.21176821295E+02 -0.39105661512E+02  0.22365139785E+02  0.50000000000E+02  0.47000000000E+01 0. -1.
         -5    1    3    3    0  501  0.21176821295E+02  0.39105661512E+02 -0.22365139785E+02  0.50000000000E+02  0.47000000000E+01 0.  1.
</event>
<event>
 5    1  0.8909620E-001  0.1000000E+03  0.7546771E-02  0.1163815E+00
         11   -1    0    0    0    0  0.00000000000E+00  0.00000000000E+00  0.50000000000E+02  0.50000000000E+02  0.00000000000E+00 0.  1.
        -11   -1    0    0    0    0 -0.00000000000E+00 -0.00000000000E+00 -0.50000000000E+02  0.50000000000E+02  0.00000000000E+00 0. -1.
         23    2    1    2    0    0  0.00000000000E+00  0.00000000000E+00  0.00000000000E+00  0.10000000000E+03  0.10000000000E+03 0.  0.
          5    1    3    3  501    0 -0.21655997334E+02  0.84087317644E+01 -0.44025231511E+02  0.50000000000E+02  0.47000000000E+01 0. -1.
         -5    1    3    3    0  501  0.21655997334E+02 -0.84087317644E+01  0.44025231511E+02  0.50000000000E+02  0.47000000000E+01 0.  1.
</event>
<event>
 5    1  0.8909620E-001  0.1000000E+03  0.7546771E-02  0.1163815E+00
         11   -1    0    0    0    0  0.00000000000E+00  0.00000000000E+00  0.50000000000E+02  0.50000000000E+02  0.00000000000E+00 0. -1.
        -11   -1    0    0    0    0 -0.00000000000E+00 -0.00000000000E+00 -0.50000000000E+02  0.50000000000E+02  0.00000000000E+00 0.  1.
         23    2    1    2    0    0  0.00000000000E+00  0.00000000000E+00  0.00000000000E+00  0.10000000000E+03  0.10000000000E+03 0.  0.
          5    1    3    3  501    0  0.39054062483E+02  0.22680295060E+02  0.20935482310E+02  0.50000000000E+02  0.47000000000E+01 0. -1.
         -5    1    3    3    0  501 -0.39054062483E+02 -0.22680295060E+02 -0.20935482310E+02  0.50000000000E+02  0.47000000000E+01 0.  1.
</event>
<event>
 5    1  0.8909620E-001  0.1000000E+03  0.7546771E-02  0.1163815E+00
         11   -1    0    0    0    0  0.00000000000E+00  0.00000000000E+00  0.50000000000E+02  0.50000000000E+02  0.00000000000E+00 0.  1.
        -11   -1    0    0    0    0 -0.00000000000E+00 -0.00000000000E+00 -0.50000000000E+02  0.50000000000E+02  0.00000000000E+00 0. -1.
         23    2    1    2    0    0  0.00000000000E+00  0.00000000000E+00  0.00000000000E+00  0.10000000000E+03  0.10000000000E+03 0.  0.
          5    1    3    3  501    0 -0.16672778230E+02  0.27849211128E+02 -0.37740560484E+02  0.50000000000E+02  0.47000000000E+01 0. -1.
         -5    1    3    3    0  501  0.16672778230E+02 -0.27849211128E+02  0.37740560484E+02  0.50000000000E+02  0.47000000000E+01 0.  1.
</event>
<event>
 5    1  0.8909620E-001  0.1000000E+03  0.7546771E-02  0.1163815E+00
         11   -1    0    0    0    0  0.00000000000E+00  0.00000000000E+00  0.50000000000E+02  0.50000000000E+02  0.00000000000E+00 0. -1.
        -11   -1    0    0    0    0 -0.00000000000E+00 -0.00000000000E+00 -0.50000000000E+02  0.50000000000E+02  0.00000000000E+00 0.  1.
         23    2    1    2    0    0  0.00000000000E+00  0.00000000000E+00  0.00000000000E+00  0.10000000000E+03  0.10000000000E+03 0.  0.
          5    1    3    3  501    0  0.29620089704E+02 -0.25213858374E+02  0.31061578064E+02  0.50000000000E+02  0.47000000000E+01 0. -1.
         -5    1    3    3    0  501 -0.29620089704E+02  0.25213858374E+02 -0.31061578064E+02  0.50000000000E+02  0.47000000000E+01 0.  1.
</event>
<event>
 5    1  0.8909620E-001  0.1000000E+03  0.7546771E-02  0.1163815E+00
         11   -1    0    0    0    0  0.00000000000E+00  0.00000000000E+00  0.50000000000E+02  0.50000000000E+02  0.00000000000E+00 0.  1.
        -11   -1    0    0    0    0 -0.00000000000E+00 -0.00000000000E+00 -0.50000000000E+02  0.50000000000E+02  0.00000000000E+00 0. -1.
         23    2    1    2    0    0  0.00000000000E+00  0.00000000000E+00  0.00000000000E+00  0.10000000000E+03  0.10000000000E+03 0.  0.
          5    1    3    3  501    0  0.28207985428E+02  0.39849028519E+02 -0.97095048401E+01  0.50000000000E+02  0.47000000000E+01 0. -1.
         -5    1    3    3    0  501 -0.28207985428E+02 -0.39849028519E+02  0.97095048401E+01  0.50000000000E+02  0.47000000000E+01 0.  1.
</event>
<event>
 5    1  0.8909620E-001  0.1000000E+03  0.7546771E-02  0.1163815E+00
         11   -1    0    0    0    0  0.00000000000E+00  0.00000000000E+00  0.50000000000E+02  0.50000000000E+02  0.00000000000E+00 0. -1.
        -11   -1    0    0    0    0 -0.00000000000E+00 -0.00000000000E+00 -0.50000000000E+02  0.50000000000E+02  0.00000000000E+00 0.  1.
         23    2    1    2    0    0  0.00000000000E+00  0.00000000000E+00  0.00000000000E+00  0.10000000000E+03  0.10000000000E+03 0.  0.
          5    1    3    3  501    0 -0.32077747805E+02 -0.15210008485E+02  0.34893892556E+02  0.50000000000E+02  0.47000000000E+01 0. -1.
         -5    1    3    3    0  501  0.32077747805E+02  0.15210008485E+02 -0.34893892556E+02  0.50000000000E+02  0.47000000000E+01 0.  1.
</event>
<event>
 5    1  0.8909620E-001  0.1000000E+03  0.7546771E-02  0.1163815E+00
         11   -1    0    0    0    0  0.00000000000E+00  0.00000000000E+00  0.50000000000E+02  0.50000000000E+02  0.00000000000E+00 0. -1.
        -11   -1    0    0    0    0 -0.00000000000E+00 -0.00000000000E+00 -0.50000000000E+02  0.50000000000E+02  0.00000000000E+00 0.  1.
         23    2    1    2    0    0  0.00000000000E+00  0.00000000000E+00  0.00000000000E+00  0.10000000000E+03  0.10000000000E+03 0.  0.
          5    1    3    3  501    0  0.26782359134E+02 -0.11625562673E+02  0.40317012932E+02  0.50000000000E+02  0.47000000000E+01 0. -1.
         -5    1    3    3    0  501 -0.26782359134E+02  0.11625562673E+02 -0.40317012932E+02  0.50000000000E+02  0.47000000000E+01 0.  1.
</event>
<event>
 5    1  0.8909620E-001  0.1000000E+03  0.7546771E-02  0.1163815E+00
         11   -1    0    0    0    0  0.00000000000E+00  0.00000000000E+00  0.50000000000E+02  0.50000000000E+02  0.00000000000E+00 0.  1.
        -11   -1    0    0    0    0 -0.00000000000E+00 -0.00000000000E+00 -0.50000000000E+02  0.50000000000E+02  0.00000000000E+00 0. -1.
         23    2    1    2    0    0  0.00000000000E+00  0.00000000000E+00  0.00000000000E+00  0.10000000000E+03  0.10000000000E+03 0.  0.
          5    1    3    3  501    0 -0.26788349614E+02  0.25074560610E+02 -0.33638679153E+02  0.50000000000E+02  0.47000000000E+01 0. -1.
         -5    1    3    3    0  501  0.26788349614E+02 -0.25074560610E+02  0.33638679153E+02  0.50000000000E+02  0.47000000000E+01 0.  1.
</event>
<event>
 5    1  0.8909620E-001  0.1000000E+03  0.7546771E-02  0.1163815E+00
         11   -1    0    0    0    0  0.00000000000E+00  0.00000000000E+00  0.50000000000E+02  0.50000000000E+02  0.00000000000E+00 0. -1.
        -11   -1    0    0    0    0 -0.00000000000E+00 -0.00000000000E+00 -0.50000000000E+02  0.50000000000E+02  0.00000000000E+00 0.  1.
         23    2    1    2    0    0  0.00000000000E+00  0.00000000000E+00  0.00000000000E+00  0.10000000000E+03  0.10000000000E+03 0.  0.
          5    1    3    3  501    0  0.41494448629E+02  0.26458034404E+02  0.74895359278E+01  0.50000000000E+02  0.47000000000E+01 0. -1.
         -5    1    3    3    0  501 -0.41494448629E+02 -0.26458034404E+02 -0.74895359278E+01  0.50000000000E+02  0.47000000000E+01 0.  1.
</event>
<event>
 5    1  0.8909620E-001  0.1000000E+03  0.7546771E-02  0.1163815E+00
         11   -1    0    0    0    0  0.00000000000E+00  0.00000000000E+00  0.50000000000E+02  0.50000000000E+02  0.00000000000E+00 0. -1.
        -11   -1    0    0    0    0 -0.00000000000E+00 -0.00000000000E+00 -0.50000000000E+02  0.50000000000E+02  0.00000000000E+00 0.  1.
         23    2    1    2    0    0  0.00000000000E+00  0.00000000000E+00  0.00000000000E+00  0.10000000000E+03  0.10000000000E+03 0.  0.
          5    1    3    3  501    0 -0.18841807203E+02  0.23987851052E+02  0.39338013464E+02  0.50000000000E+02  0.47000000000E+01 0. -1.
         -5    1    3    3    0  501  0.18841807203E+02 -0.23987851052E+02 -0.39338013464E+02  0.50000000000E+02  0.47000000000E+01 0.  1.
</event>
<event>
 5    1  0.8909620E-001  0.1000000E+03  0.7546771E-02  0.1163815E+00
         11   -1    0    0    0    0  0.00000000000E+00  0.00000000000E+00  0.50000000000E+02  0.50000000000E+02  0.00000000000E+00 0. -1.
        -11   -1    0    0    0    0 -0.00000000000E+00 -0.00000000000E+00 -0.50000000000E+02  0.50000000000E+02  0.00000000000E+00 0.  1.
         23    2    1    2    0    0  0.00000000000E+00  0.00000000000E+00  0.00000000000E+00  0.10000000000E+03  0.10000000000E+03 0.  0.
          5    1    3    3  501    0  0.48666613383E+02 -0.75914325900E+01  0.72000620176E+01  0.50000000000E+02  0.47000000000E+01 0. -1.
         -5    1    3    3    0  501 -0.48666613383E+02  0.75914325900E+01 -0.72000620176E+01  0.50000000000E+02  0.47000000000E+01 0.  1.
</event>
<event>
 5    1  0.8909620E-001  0.1000000E+03  0.7546771E-02  0.1163815E+00
         11   -1    0    0    0    0  0.00000000000E+00  0.00000000000E+00  0.50000000000E+02  0.50000000000E+02  0.00000000000E+00 0. -1.
        -11   -1    0    0    0    0 -0.00000000000E+00 -0.00000000000E+00 -0.50000000000E+02  0.50000000000E+02  0.00000000000E+00 0.  1.
         23    2    1    2    0    0  0.00000000000E+00  0.00000000000E+00  0.00000000000E+00  0.10000000000E+03  0.10000000000E+03 0.  0.
          5    1    3    3  501    0  0.83376632718E+01  0.48472692874E+02  0.76675561082E+01  0.50000000000E+02  0.47000000000E+01 0. -1.
         -5    1    3    3    0  501 -0.83376632718E+01 -0.48472692874E+02 -0.76675561082E+01  0.50000000000E+02  0.47000000000E+01 0.  1.
</event>
<event>
 5    1  0.8909620E-001  0.1000000E+03  0.7546771E-02  0.1163815E+00
         11   -1    0    0    0    0  0.00000000000E+00  0.00000000000E+00  0.50000000000E+02  0.50000000000E+02  0.00000000000E+00 0. -1.
        -11   -1    0    0    0    0 -0.00000000000E+00 -0.00000000000E+00 -0.50000000000E+02  0.50000000000E+02  0.00000000000E+00 0.  1.
         23    2    1    2    0    0  0.00000000000E+00  0.00000000000E+00  0.00000000000E+00  0.10000000000E+03  0.10000000000E+03 0.  0.
          5    1    3    3  501    0 -0.43350067498E+02 -0.24383681525E+02  0.20292173819E+01  0.50000000000E+02  0.47000000000E+01 0. -1.
         -5    1    3    3    0  501  0.43350067498E+02  0.24383681525E+02 -0.20292173819E+01  0.50000000000E+02  0.47000000000E+01 0.  1.
</event>
<event>
 5    1  0.8909620E-001  0.1000000E+03  0.7546771E-02  0.1163815E+00
         11   -1    0    0    0    0  0.00000000000E+00  0.00000000000E+00  0.50000000000E+02  0.50000000000E+02  0.00000000000E+00 0. -1.
        -11   -1    0    0    0    0 -0.00000000000E+00 -0.00000000000E+00 -0.50000000000E+02  0.50000000000E+02  0.00000000000E+00 0.  1.
         23    2    1    2    0    0  0.00000000000E+00  0.00000000000E+00  0.00000000000E+00  0.10000000000E+03  0.10000000000E+03 0.  0.
          5    1    3    3  501    0 -0.46990168801E+02  0.15824956326E+02 -0.44050872100E+01  0.50000000000E+02  0.47000000000E+01 0.  1.
         -5    1    3    3    0  501  0.46990168801E+02 -0.15824956326E+02  0.44050872100E+01  0.50000000000E+02  0.47000000000E+01 0. -1.
</event>
<event>
 5    1  0.8909620E-001  0.1000000E+03  0.7546771E-02  0.1163815E+00
         11   -1    0    0    0    0  0.00000000000E+00  0.00000000000E+00  0.50000000000E+02  0.50000000000E+02  0.00000000000E+00 0.  1.
        -11   -1    0    0    0    0 -0.00000000000E+00 -0.00000000000E+00 -0.50000000000E+02  0.50000000000E+02  0.00000000000E+00 0. -1.
         23    2    1    2    0    0  0.00000000000E+00  0.00000000000E+00  0.00000000000E+00  0.10000000000E+03  0.10000000000E+03 0.  0.
          5    1    3    3  501    0  0.24388531819E+02  0.22551164252E+02 -0.37074984917E+02  0.50000000000E+02  0.47000000000E+01 0. -1.
         -5    1    3    3    0  501 -0.24388531819E+02 -0.22551164252E+02  0.37074984917E+02  0.50000000000E+02  0.47000000000E+01 0.  1.
</event>
<event>
 5    1  0.8909620E-001  0.1000000E+03  0.7546771E-02  0.1163815E+00
         11   -1    0    0    0    0  0.00000000000E+00  0.00000000000E+00  0.50000000000E+02  0.50000000000E+02  0.00000000000E+00 0.  1.
        -11   -1    0    0    0    0 -0.00000000000E+00 -0.00000000000E+00 -0.50000000000E+02  0.50000000000E+02  0.00000000000E+00 0. -1.
         23    2    1    2    0    0  0.00000000000E+00  0.00000000000E+00  0.00000000000E+00  0.10000000000E+03  0.10000000000E+03 0.  0.
          5    1    3    3  501    0  0.63884785781E+01 -0.93663098381E+01 -0.48470295867E+02  0.50000000000E+02  0.47000000000E+01 0. -1.
         -5    1    3    3    0  501 -0.63884785781E+01  0.93663098381E+01  0.48470295867E+02  0.50000000000E+02  0.47000000000E+01 0.  1.
</event>
<event>
 5    1  0.8909620E-001  0.1000000E+03  0.7546771E-02  0.1163815E+00
         11   -1    0    0    0    0  0.00000000000E+00  0.00000000000E+00  0.50000000000E+02  0.50000000000E+02  0.00000000000E+00 0.  1.
        -11   -1    0    0    0    0 -0.00000000000E+00 -0.00000000000E+00 -0.50000000000E+02  0.50000000000E+02  0.00000000000E+00 0. -1.
         23    2    1    2    0    0  0.00000000000E+00  0.00000000000E+00  0.00000000000E+00  0.10000000000E+03  0.10000000000E+03 0.  0.
          5    1    3    3  501    0 -0.21636557968E+02 -0.41613493880E+02  0.16675925353E+02  0.50000000000E+02  0.47000000000E+01 0. -1.
         -5    1    3    3    0  501  0.21636557968E+02  0.41613493880E+02 -0.16675925353E+02  0.50000000000E+02  0.47000000000E+01 0.  1.
</event>
<event>
 5    1  0.8909620E-001  0.1000000E+03  0.7546771E-02  0.1163815E+00
         11   -1    0    0    0    0  0.00000000000E+00  0.00000000000E+00  0.50000000000E+02  0.50000000000E+02  0.00000000000E+00 0. -1.
        -11   -1    0    0    0    0 -0.00000000000E+00 -0.00000000000E+00 -0.50000000000E+02  0.50000000000E+02  0.00000000000E+00 0.  1.
         23    2    1    2    0    0  0.00000000000E+00  0.00000000000E+00  0.00000000000E+00  0.10000000000E+03  0.10000000000E+03 0.  0.
          5    1    3    3  501    0 -0.30763769383E+02  0.33327364475E+02  0.20513099971E+02  0.50000000000E+02  0.47000000000E+01 0. -1.
         -5    1    3    3    0  501  0.30763769383E+02 -0.33327364475E+02 -0.20513099971E+02  0.50000000000E+02  0.47000000000E+01 0.  1.
</event>
<event>
 5    1  0.8909620E-001  0.1000000E+03  0.7546771E-02  0.1163815E+00
         11   -1    0    0    0    0  0.00000000000E+00  0.00000000000E+00  0.50000000000E+02  0.50000000000E+02  0.00000000000E+00 0.  1.
        -11   -1    0    0    0    0 -0.00000000000E+00 -0.00000000000E+00 -0.50000000000E+02  0.50000000000E+02  0.00000000000E+00 0. -1.
         23    2    1    2    0    0  0.00000000000E+00  0.00000000000E+00  0.00000000000E+00  0.10000000000E+03  0.10000000000E+03 0.  0.
          5    1    3    3  501    0  0.47084115515E+02 -0.43180506614E+01  0.15567610757E+02  0.50000000000E+02  0.47000000000E+01 0. -1.
         -5    1    3    3    0  501 -0.47084115515E+02  0.43180506614E+01 -0.15567610757E+02  0.50000000000E+02  0.47000000000E+01 0.  1.
</event>
<event>
 5    1  0.8909620E-001  0.1000000E+03  0.7546771E-02  0.1163815E+00
         11   -1    0    0    0    0  0.00000000000E+00  0.00000000000E+00  0.50000000000E+02  0.50000000000E+02  0.00000000000E+00 0.  1.
        -11   -1    0    0    0    0 -0.00000000000E+00 -0.00000000000E+00 -0.50000000000E+02  0.50000000000E+02  0.00000000000E+00 0. -1.
         23    2    1    2    0    0  0.00000000000E+00  0.00000000000E+00  0.00000000000E+00  0.10000000000E+03  0.10000000000E+03 0.  0.
          5    1    3    3  501    0  0.49102270557E+02 -0.70242058901E+01 -0.41877867398E+01  0.50000000000E+02  0.47000000000E+01 0. -1.
         -5    1    3    3    0  501 -0.49102270557E+02  0.70242058901E+01  0.41877867398E+01  0.50000000000E+02  0.47000000000E+01 0.  1.
</event>
<event>
 5    1  0.8909620E-001  0.1000000E+03  0.7546771E-02  0.1163815E+00
         11   -1    0    0    0    0  0.00000000000E+00  0.00000000000E+00  0.50000000000E+02  0.50000000000E+02  0.00000000000E+00 0.  1.
        -11   -1    0    0    0    0 -0.00000000000E+00 -0.00000000000E+00 -0.50000000000E+02  0.50000000000E+02  0.00000000000E+00 0. -1.
         23    2    1    2    0    0  0.00000000000E+00  0.00000000000E+00  0.00000000000E+00  0.10000000000E+03  0.10000000000E+03 0.  0.
          5    1    3    3  501    0  0.47589843391E+02 -0.25493703887E+01  0.14374196208E+02  0.50000000000E+02  0.47000000000E+01 0. -1.
         -5    1    3    3    0  501 -0.47589843391E+02  0.25493703887E+01 -0.14374196208E+02  0.50000000000E+02  0.47000000000E+01 0.  1.
</event>
<event>
 5    1  0.8909620E-001  0.1000000E+03  0.7546771E-02  0.1163815E+00
         11   -1    0    0    0    0  0.00000000000E+00  0.00000000000E+00  0.50000000000E+02  0.50000000000E+02  0.00000000000E+00 0. -1.
        -11   -1    0    0    0    0 -0.00000000000E+00 -0.00000000000E+00 -0.50000000000E+02  0.50000000000E+02  0.00000000000E+00 0.  1.
         23    2    1    2    0    0  0.00000000000E+00  0.00000000000E+00  0.00000000000E+00  0.10000000000E+03  0.10000000000E+03 0.  0.
          5    1    3    3  501    0  0.33501479444E+02  0.13805800509E+02  0.34131521316E+02  0.50000000000E+02  0.47000000000E+01 0. -1.
         -5    1    3    3    0  501 -0.33501479444E+02 -0.13805800509E+02 -0.34131521316E+02  0.50000000000E+02  0.47000000000E+01 0.  1.
</event>
<event>
 5    1  0.8909620E-001  0.1000000E+03  0.7546771E-02  0.1163815E+00
         11   -1    0    0    0    0  0.00000000000E+00  0.00000000000E+00  0.50000000000E+02  0.50000000000E+02  0.00000000000E+00 0. -1.
        -11   -1    0    0    0    0 -0.00000000000E+00 -0.00000000000E+00 -0.50000000000E+02  0.50000000000E+02  0.00000000000E+00 0.  1.
         23    2    1    2    0    0  0.00000000000E+00  0.00000000000E+00  0.00000000000E+00  0.10000000000E+03  0.10000000000E+03 0.  0.
          5    1    3    3  501    0  0.36730519500E+02 -0.30171247145E+01  0.33461558477E+02  0.50000000000E+02  0.47000000000E+01 0. -1.
         -5    1    3    3    0  501 -0.36730519500E+02  0.30171247145E+01 -0.33461558477E+02  0.50000000000E+02  0.47000000000E+01 0.  1.
</event>
<event>
 5    1  0.8909620E-001  0.1000000E+03  0.7546771E-02  0.1163815E+00
         11   -1    0    0    0    0  0.00000000000E+00  0.00000000000E+00  0.50000000000E+02  0.50000000000E+02  0.00000000000E+00 0. -1.
        -11   -1    0    0    0    0 -0.00000000000E+00 -0.00000000000E+00 -0.50000000000E+02  0.50000000000E+02  0.00000000000E+00 0.  1.
         23    2    1    2    0    0  0.00000000000E+00  0.00000000000E+00  0.00000000000E+00  0.10000000000E+03  0.10000000000E+03 0.  0.
          5    1    3    3  501    0 -0.44610932757E+02  0.51756429386E+01 -0.21470617101E+02  0.50000000000E+02  0.47000000000E+01 0. -1.
         -5    1    3    3    0  501  0.44610932757E+02 -0.51756429386E+01  0.21470617101E+02  0.50000000000E+02  0.47000000000E+01 0.  1.
</event>
<event>
 5    1  0.8909620E-001  0.1000000E+03  0.7546771E-02  0.1163815E+00
         11   -1    0    0    0    0  0.00000000000E+00  0.00000000000E+00  0.50000000000E+02  0.50000000000E+02  0.00000000000E+00 0. -1.
        -11   -1    0    0    0    0 -0.00000000000E+00 -0.00000000000E+00 -0.50000000000E+02  0.50000000000E+02  0.00000000000E+00 0.  1.
         23    2    1    2    0    0  0.00000000000E+00  0.00000000000E+00  0.00000000000E+00  0.10000000000E+03  0.10000000000E+03 0.  0.
          5    1    3    3  501    0 -0.15886912156E+02 -0.31878472182E+02  0.34774689553E+02  0.50000000000E+02  0.47000000000E+01 0. -1.
         -5    1    3    3    0  501  0.15886912156E+02  0.31878472182E+02 -0.34774689553E+02  0.50000000000E+02  0.47000000000E+01 0.  1.
</event>
<event>
 5    1  0.8909620E-001  0.1000000E+03  0.7546771E-02  0.1163815E+00
         11   -1    0    0    0    0  0.00000000000E+00  0.00000000000E+00  0.50000000000E+02  0.50000000000E+02  0.00000000000E+00 0. -1.
        -11   -1    0    0    0    0 -0.00000000000E+00 -0.00000000000E+00 -0.50000000000E+02  0.50000000000E+02  0.00000000000E+00 0.  1.
         23    2    1    2    0    0  0.00000000000E+00  0.00000000000E+00  0.00000000000E+00  0.10000000000E+03  0.10000000000E+03 0.  0.
          5    1    3    3  501    0  0.47813880562E+02 -0.34536833221E+01  0.13409507714E+02  0.50000000000E+02  0.47000000000E+01 0. -1.
         -5    1    3    3    0  501 -0.47813880562E+02  0.34536833221E+01 -0.13409507714E+02  0.50000000000E+02  0.47000000000E+01 0.  1.
</event>
<event>
 5    1  0.8909620E-001  0.1000000E+03  0.7546771E-02  0.1163815E+00
         11   -1    0    0    0    0  0.00000000000E+00  0.00000000000E+00  0.50000000000E+02  0.50000000000E+02  0.00000000000E+00 0. -1.
        -11   -1    0    0    0    0 -0.00000000000E+00 -0.00000000000E+00 -0.50000000000E+02  0.50000000000E+02  0.00000000000E+00 0.  1.
         23    2    1    2    0    0  0.00000000000E+00  0.00000000000E+00  0.00000000000E+00  0.10000000000E+03  0.10000000000E+03 0.  0.
          5    1    3    3  501    0  0.90515122903E+01 -0.21354507960E+02  0.44045035078E+02  0.50000000000E+02  0.47000000000E+01 0. -1.
         -5    1    3    3    0  501 -0.90515122903E+01  0.21354507960E+02 -0.44045035078E+02  0.50000000000E+02  0.47000000000E+01 0.  1.
</event>
<event>
 5    1  0.8909620E-001  0.1000000E+03  0.7546771E-02  0.1163815E+00
         11   -1    0    0    0    0  0.00000000000E+00  0.00000000000E+00  0.50000000000E+02  0.50000000000E+02  0.00000000000E+00 0.  1.
        -11   -1    0    0    0    0 -0.00000000000E+00 -0.00000000000E+00 -0.50000000000E+02  0.50000000000E+02  0.00000000000E+00 0. -1.
         23    2    1    2    0    0  0.00000000000E+00  0.00000000000E+00  0.00000000000E+00  0.10000000000E+03  0.10000000000E+03 0.  0.
          5    1    3    3  501    0 -0.29810943910E+02 -0.21928856250E+02 -0.33291784073E+02  0.50000000000E+02  0.47000000000E+01 0. -1.
         -5    1    3    3    0  501  0.29810943910E+02  0.21928856250E+02  0.33291784073E+02  0.50000000000E+02  0.47000000000E+01 0.  1.
</event>
<event>
 5    1  0.8909620E-001  0.1000000E+03  0.7546771E-02  0.1163815E+00
         11   -1    0    0    0    0  0.00000000000E+00  0.00000000000E+00  0.50000000000E+02  0.50000000000E+02  0.00000000000E+00 0.  1.
        -11   -1    0    0    0    0 -0.00000000000E+00 -0.00000000000E+00 -0.50000000000E+02  0.50000000000E+02  0.00000000000E+00 0. -1.
         23    2    1    2    0    0  0.00000000000E+00  0.00000000000E+00  0.00000000000E+00  0.10000000000E+03  0.10000000000E+03 0.  0.
          5    1    3    3  501    0 -0.10275984907E+01 -0.36656000415E+02 -0.33662912454E+02  0.50000000000E+02  0.47000000000E+01 0. -1.
         -5    1    3    3    0  501  0.10275984907E+01  0.36656000415E+02  0.33662912454E+02  0.50000000000E+02  0.47000000000E+01 0.  1.
</event>
<event>
 5    1  0.8909620E-001  0.1000000E+03  0.7546771E-02  0.1163815E+00
         11   -1    0    0    0    0  0.00000000000E+00  0.00000000000E+00  0.50000000000E+02  0.50000000000E+02  0.00000000000E+00 0. -1.
        -11   -1    0    0    0    0 -0.00000000000E+00 -0.00000000000E+00 -0.50000000000E+02  0.50000000000E+02  0.00000000000E+00 0.  1.
         23    2    1    2    0    0  0.00000000000E+00  0.00000000000E+00  0.00000000000E+00  0.10000000000E+03  0.10000000000E+03 0.  0.
          5    1    3    3  501    0 -0.14342927811E+02 -0.15572891751E+00  0.47667244207E+02  0.50000000000E+02  0.47000000000E+01 0. -1.
         -5    1    3    3    0  501  0.14342927811E+02  0.15572891751E+00 -0.47667244207E+02  0.50000000000E+02  0.47000000000E+01 0.  1.
</event>
<event>
 5    1  0.8909620E-001  0.1000000E+03  0.7546771E-02  0.1163815E+00
         11   -1    0    0    0    0  0.00000000000E+00  0.00000000000E+00  0.50000000000E+02  0.50000000000E+02  0.00000000000E+00 0. -1.
        -11   -1    0    0    0    0 -0.00000000000E+00 -0.00000000000E+00 -0.50000000000E+02  0.50000000000E+02  0.00000000000E+00 0.  1.
         23    2    1    2    0    0  0.00000000000E+00  0.00000000000E+00  0.00000000000E+00  0.10000000000E+03  0.10000000000E+03 0.  0.
          5    1    3    3  501    0 -0.11842342434E+02 -0.41131898925E+02  0.25413299993E+02  0.50000000000E+02  0.47000000000E+01 0. -1.
         -5    1    3    3    0  501  0.11842342434E+02  0.41131898925E+02 -0.25413299993E+02  0.50000000000E+02  0.47000000000E+01 0.  1.
</event>
<event>
 5    1  0.8909620E-001  0.1000000E+03  0.7546771E-02  0.1163815E+00
         11   -1    0    0    0    0  0.00000000000E+00  0.00000000000E+00  0.50000000000E+02  0.50000000000E+02  0.00000000000E+00 0. -1.
        -11   -1    0    0    0    0 -0.00000000000E+00 -0.00000000000E+00 -0.50000000000E+02  0.50000000000E+02  0.00000000000E+00 0.  1.
         23    2    1    2    0    0  0.00000000000E+00  0.00000000000E+00  0.00000000000E+00  0.10000000000E+03  0.10000000000E+03 0.  0.
          5    1    3    3  501    0 -0.22665546190E+02  0.90656548077E+00  0.44309831357E+02  0.50000000000E+02  0.47000000000E+01 0. -1.
         -5    1    3    3    0  501  0.22665546190E+02 -0.90656548077E+00 -0.44309831357E+02  0.50000000000E+02  0.47000000000E+01 0.  1.
</event>
<event>
 5    1  0.8909620E-001  0.1000000E+03  0.7546771E-02  0.1163815E+00
         11   -1    0    0    0    0  0.00000000000E+00  0.00000000000E+00  0.50000000000E+02  0.50000000000E+02  0.00000000000E+00 0. -1.
        -11   -1    0    0    0    0 -0.00000000000E+00 -0.00000000000E+00 -0.50000000000E+02  0.50000000000E+02  0.00000000000E+00 0.  1.
         23    2    1    2    0    0  0.00000000000E+00  0.00000000000E+00  0.00000000000E+00  0.10000000000E+03  0.10000000000E+03 0.  0.
          5    1    3    3  501    0 -0.34242651494E+02  0.18039121768E+02  0.31304007802E+02  0.50000000000E+02  0.47000000000E+01 0. -1.
         -5    1    3    3    0  501  0.34242651494E+02 -0.18039121768E+02 -0.31304007802E+02  0.50000000000E+02  0.47000000000E+01 0.  1.
</event>
<event>
 5    1  0.8909620E-001  0.1000000E+03  0.7546771E-02  0.1163815E+00
         11   -1    0    0    0    0  0.00000000000E+00  0.00000000000E+00  0.50000000000E+02  0.50000000000E+02  0.00000000000E+00 0. -1.
        -11   -1    0    0    0    0 -0.00000000000E+00 -0.00000000000E+00 -0.50000000000E+02  0.50000000000E+02  0.00000000000E+00 0.  1.
         23    2    1    2    0    0  0.00000000000E+00  0.00000000000E+00  0.00000000000E+00  0.10000000000E+03  0.10000000000E+03 0.  0.
          5    1    3    3  501    0  0.29802280209E+02  0.33233146937E+02  0.22029344952E+02  0.50000000000E+02  0.47000000000E+01 0. -1.
         -5    1    3    3    0  501 -0.29802280209E+02 -0.33233146937E+02 -0.22029344952E+02  0.50000000000E+02  0.47000000000E+01 0.  1.
</event>
<event>
 5    1  0.8909620E-001  0.1000000E+03  0.7546771E-02  0.1163815E+00
         11   -1    0    0    0    0  0.00000000000E+00  0.00000000000E+00  0.50000000000E+02  0.50000000000E+02  0.00000000000E+00 0. -1.
        -11   -1    0    0    0    0 -0.00000000000E+00 -0.00000000000E+00 -0.50000000000E+02  0.50000000000E+02  0.00000000000E+00 0.  1.
         23    2    1    2    0    0  0.00000000000E+00  0.00000000000E+00  0.00000000000E+00  0.10000000000E+03  0.10000000000E+03 0.  0.
          5    1    3    3  501    0 -0.13516111509E+02 -0.31217613292E+02  0.36341234845E+02  0.50000000000E+02  0.47000000000E+01 0. -1.
         -5    1    3    3    0  501  0.13516111509E+02  0.31217613292E+02 -0.36341234845E+02  0.50000000000E+02  0.47000000000E+01 0.  1.
</event>
<event>
 5    1  0.8909620E-001  0.1000000E+03  0.7546771E-02  0.1163815E+00
         11   -1    0    0    0    0  0.00000000000E+00  0.00000000000E+00  0.50000000000E+02  0.50000000000E+02  0.00000000000E+00 0. -1.
        -11   -1    0    0    0    0 -0.00000000000E+00 -0.00000000000E+00 -0.50000000000E+02  0.50000000000E+02  0.00000000000E+00 0.  1.
         23    2    1    2    0    0  0.00000000000E+00  0.00000000000E+00  0.00000000000E+00  0.10000000000E+03  0.10000000000E+03 0.  0.
          5    1    3    3  501    0  0.25464027751E+02  0.33755231672E+02  0.26269328607E+02  0.50000000000E+02  0.47000000000E+01 0. -1.
         -5    1    3    3    0  501 -0.25464027751E+02 -0.33755231672E+02 -0.26269328607E+02  0.50000000000E+02  0.47000000000E+01 0.  1.
</event>
<event>
 5    1  0.8909620E-001  0.1000000E+03  0.7546771E-02  0.1163815E+00
         11   -1    0    0    0    0  0.00000000000E+00  0.00000000000E+00  0.50000000000E+02  0.50000000000E+02  0.00000000000E+00 0.  1.
        -11   -1    0    0    0    0 -0.00000000000E+00 -0.00000000000E+00 -0.50000000000E+02  0.50000000000E+02  0.00000000000E+00 0. -1.
         23    2    1    2    0    0  0.00000000000E+00  0.00000000000E+00  0.00000000000E+00  0.10000000000E+03  0.10000000000E+03 0.  0.
          5    1    3    3  501    0 -0.38280152272E+02 -0.27563967232E+02 -0.15898668261E+02  0.50000000000E+02  0.47000000000E+01 0. -1.
         -5    1    3    3    0  501  0.38280152272E+02  0.27563967232E+02  0.15898668261E+02  0.50000000000E+02  0.47000000000E+01 0.  1.
</event>
<event>
 5    1  0.8909620E-001  0.1000000E+03  0.7546771E-02  0.1163815E+00
         11   -1    0    0    0    0  0.00000000000E+00  0.00000000000E+00  0.50000000000E+02  0.50000000000E+02  0.00000000000E+00 0. -1.
        -11   -1    0    0    0    0 -0.00000000000E+00 -0.00000000000E+00 -0.50000000000E+02  0.50000000000E+02  0.00000000000E+00 0.  1.
         23    2    1    2    0    0  0.00000000000E+00  0.00000000000E+00  0.00000000000E+00  0.10000000000E+03  0.10000000000E+03 0.  0.
          5    1    3    3  501    0  0.43126598261E+02 -0.19376218055E+02  0.15574617051E+02  0.50000000000E+02  0.47000000000E+01 0. -1.
         -5    1    3    3    0  501 -0.43126598261E+02  0.19376218055E+02 -0.15574617051E+02  0.50000000000E+02  0.47000000000E+01 0.  1.
</event>
<event>
 5    1  0.8909620E-001  0.1000000E+03  0.7546771E-02  0.1163815E+00
         11   -1    0    0    0    0  0.00000000000E+00  0.00000000000E+00  0.50000000000E+02  0.50000000000E+02  0.00000000000E+00 0. -1.
        -11   -1    0    0    0    0 -0.00000000000E+00 -0.00000000000E+00 -0.50000000000E+02  0.50000000000E+02  0.00000000000E+00 0.  1.
         23    2    1    2    0    0  0.00000000000E+00  0.00000000000E+00  0.00000000000E+00  0.10000000000E+03  0.10000000000E+03 0.  0.
          5    1    3    3  501    0  0.41863431852E+02 -0.20761825138E+02 -0.17155456580E+02  0.50000000000E+02  0.47000000000E+01 0. -1.
         -5    1    3    3    0  501 -0.41863431852E+02  0.20761825138E+02  0.17155456580E+02  0.50000000000E+02  0.47000000000E+01 0.  1.
</event>
<event>
 5    1  0.8909620E-001  0.1000000E+03  0.7546771E-02  0.1163815E+00
         11   -1    0    0    0    0  0.00000000000E+00  0.00000000000E+00  0.50000000000E+02  0.50000000000E+02  0.00000000000E+00 0. -1.
        -11   -1    0    0    0    0 -0.00000000000E+00 -0.00000000000E+00 -0.50000000000E+02  0.50000000000E+02  0.00000000000E+00 0.  1.
         23    2    1    2    0    0  0.00000000000E+00  0.00000000000E+00  0.00000000000E+00  0.10000000000E+03  0.10000000000E+03 0.  0.
          5    1    3    3  501    0 -0.34351058957E+02  0.33401019933E+02 -0.13501356080E+02  0.50000000000E+02  0.47000000000E+01 0. -1.
         -5    1    3    3    0  501  0.34351058957E+02 -0.33401019933E+02  0.13501356080E+02  0.50000000000E+02  0.47000000000E+01 0.  1.
</event>
<event>
 5    1  0.8909620E-001  0.1000000E+03  0.7546771E-02  0.1163815E+00
         11   -1    0    0    0    0  0.00000000000E+00  0.00000000000E+00  0.50000000000E+02  0.50000000000E+02  0.00000000000E+00 0. -1.
        -11   -1    0    0    0    0 -0.00000000000E+00 -0.00000000000E+00 -0.50000000000E+02  0.50000000000E+02  0.00000000000E+00 0.  1.
         23    2    1    2    0    0  0.00000000000E+00  0.00000000000E+00  0.00000000000E+00  0.10000000000E+03  0.10000000000E+03 0.  0.
          5    1    3    3  501    0 -0.87929312588E+00  0.40870134787E+02  0.28403678039E+02  0.50000000000E+02  0.47000000000E+01 0. -1.
         -5    1    3    3    0  501  0.87929312588E+00 -0.40870134787E+02 -0.28403678039E+02  0.50000000000E+02  0.47000000000E+01 0.  1.
</event>
<event>
 5    1  0.8909620E-001  0.1000000E+03  0.7546771E-02  0.1163815E+00
         11   -1    0    0    0    0  0.00000000000E+00  0.00000000000E+00  0.50000000000E+02  0.50000000000E+02  0.00000000000E+00 0.  1.
        -11   -1    0    0    0    0 -0.00000000000E+00 -0.00000000000E+00 -0.50000000000E+02  0.50000000000E+02  0.00000000000E+00 0. -1.
         23    2    1    2    0    0  0.00000000000E+00  0.00000000000E+00  0.00000000000E+00  0.10000000000E+03  0.10000000000E+03 0.  0.
          5    1    3    3  501    0  0.19900411751E+01  0.42095878498E+02 -0.26493145333E+02  0.50000000000E+02  0.47000000000E+01 0. -1.
         -5    1    3    3    0  501 -0.19900411751E+01 -0.42095878498E+02  0.26493145333E+02  0.50000000000E+02  0.47000000000E+01 0.  1.
</event>
<event>
 5    1  0.8909620E-001  0.1000000E+03  0.7546771E-02  0.1163815E+00
         11   -1    0    0    0    0  0.00000000000E+00  0.00000000000E+00  0.50000000000E+02  0.50000000000E+02  0.00000000000E+00 0. -1.
        -11   -1    0    0    0    0 -0.00000000000E+00 -0.00000000000E+00 -0.50000000000E+02  0.50000000000E+02  0.00000000000E+00 0.  1.
         23    2    1    2    0    0  0.00000000000E+00  0.00000000000E+00  0.00000000000E+00  0.10000000000E+03  0.10000000000E+03 0.  0.
          5    1    3    3  501    0  0.30003861610E+02 -0.60574586139E+01  0.39255387956E+02  0.50000000000E+02  0.47000000000E+01 0. -1.
         -5    1    3    3    0  501 -0.30003861610E+02  0.60574586139E+01 -0.39255387956E+02  0.50000000000E+02  0.47000000000E+01 0.  1.
</event>
<event>
 5    1  0.8909620E-001  0.1000000E+03  0.7546771E-02  0.1163815E+00
         11   -1    0    0    0    0  0.00000000000E+00  0.00000000000E+00  0.50000000000E+02  0.50000000000E+02  0.00000000000E+00 0. -1.
        -11   -1    0    0    0    0 -0.00000000000E+00 -0.00000000000E+00 -0.50000000000E+02  0.50000000000E+02  0.00000000000E+00 0.  1.
         23    2    1    2    0    0  0.00000000000E+00  0.00000000000E+00  0.00000000000E+00  0.10000000000E+03  0.10000000000E+03 0.  0.
          5    1    3    3  501    0 -0.33717011487E+02  0.12333775440E-01  0.36620663351E+02  0.50000000000E+02  0.47000000000E+01 0. -1.
         -5    1    3    3    0  501  0.33717011487E+02 -0.12333775440E-01 -0.36620663351E+02  0.50000000000E+02  0.47000000000E+01 0.  1.
</event>
<event>
 5    1  0.8909620E-001  0.1000000E+03  0.7546771E-02  0.1163815E+00
         11   -1    0    0    0    0  0.00000000000E+00  0.00000000000E+00  0.50000000000E+02  0.50000000000E+02  0.00000000000E+00 0. -1.
        -11   -1    0    0    0    0 -0.00000000000E+00 -0.00000000000E+00 -0.50000000000E+02  0.50000000000E+02  0.00000000000E+00 0.  1.
         23    2    1    2    0    0  0.00000000000E+00  0.00000000000E+00  0.00000000000E+00  0.10000000000E+03  0.10000000000E+03 0.  0.
          5    1    3    3  501    0 -0.45305717204E+01  0.36402970884E+02  0.33648293133E+02  0.50000000000E+02  0.47000000000E+01 0. -1.
         -5    1    3    3    0  501  0.45305717204E+01 -0.36402970884E+02 -0.33648293133E+02  0.50000000000E+02  0.47000000000E+01 0.  1.
</event>
<event>
 5    1  0.8909620E-001  0.1000000E+03  0.7546771E-02  0.1163815E+00
         11   -1    0    0    0    0  0.00000000000E+00  0.00000000000E+00  0.50000000000E+02  0.50000000000E+02  0.00000000000E+00 0.  1.
        -11   -1    0    0    0    0 -0.00000000000E+00 -0.00000000000E+00 -0.50000000000E+02  0.50000000000E+02  0.00000000000E+00 0. -1.
         23    2    1    2    0    0  0.00000000000E+00  0.00000000000E+00  0.00000000000E+00  0.10000000000E+03  0.10000000000E+03 0.  0.
          5    1    3    3  501    0 -0.10810799208E+02  0.19918958005E+02 -0.44320105285E+02  0.50000000000E+02  0.47000000000E+01 0. -1.
         -5    1    3    3    0  501  0.10810799208E+02 -0.19918958005E+02  0.44320105285E+02  0.50000000000E+02  0.47000000000E+01 0.  1.
</event>
<event>
 5    1  0.8909620E-001  0.1000000E+03  0.7546771E-02  0.1163815E+00
         11   -1    0    0    0    0  0.00000000000E+00  0.00000000000E+00  0.50000000000E+02  0.50000000000E+02  0.00000000000E+00 0.  1.
        -11   -1    0    0    0    0 -0.00000000000E+00 -0.00000000000E+00 -0.50000000000E+02  0.50000000000E+02  0.00000000000E+00 0. -1.
         23    2    1    2    0    0  0.00000000000E+00  0.00000000000E+00  0.00000000000E+00  0.10000000000E+03  0.10000000000E+03 0.  0.
          5    1    3    3  501    0  0.40031478530E+02 -0.12456407870E+02 -0.26837075655E+02  0.50000000000E+02  0.47000000000E+01 0. -1.
         -5    1    3    3    0  501 -0.40031478530E+02  0.12456407870E+02  0.26837075655E+02  0.50000000000E+02  0.47000000000E+01 0.  1.
</event>
<event>
 5    1  0.8909620E-001  0.1000000E+03  0.7546771E-02  0.1163815E+00
         11   -1    0    0    0    0  0.00000000000E+00  0.00000000000E+00  0.50000000000E+02  0.50000000000E+02  0.00000000000E+00 0. -1.
        -11   -1    0    0    0    0 -0.00000000000E+00 -0.00000000000E+00 -0.50000000000E+02  0.50000000000E+02  0.00000000000E+00 0.  1.
         23    2    1    2    0    0  0.00000000000E+00  0.00000000000E+00  0.00000000000E+00  0.10000000000E+03  0.10000000000E+03 0.  0.
          5    1    3    3  501    0 -0.35499924016E+02  0.20623516156E+02 -0.28148463124E+02  0.50000000000E+02  0.47000000000E+01 0. -1.
         -5    1    3    3    0  501  0.35499924016E+02 -0.20623516156E+02  0.28148463124E+02  0.50000000000E+02  0.47000000000E+01 0.  1.
</event>
<event>
 5    1  0.8909620E-001  0.1000000E+03  0.7546771E-02  0.1163815E+00
         11   -1    0    0    0    0  0.00000000000E+00  0.00000000000E+00  0.50000000000E+02  0.50000000000E+02  0.00000000000E+00 0. -1.
        -11   -1    0    0    0    0 -0.00000000000E+00 -0.00000000000E+00 -0.50000000000E+02  0.50000000000E+02  0.00000000000E+00 0.  1.
         23    2    1    2    0    0  0.00000000000E+00  0.00000000000E+00  0.00000000000E+00  0.10000000000E+03  0.10000000000E+03 0.  0.
          5    1    3    3  501    0 -0.38114645263E+02 -0.18097132592E+02  0.26413587572E+02  0.50000000000E+02  0.47000000000E+01 0. -1.
         -5    1    3    3    0  501  0.38114645263E+02  0.18097132592E+02 -0.26413587572E+02  0.50000000000E+02  0.47000000000E+01 0.  1.
</event>
<event>
 5    1  0.8909620E-001  0.1000000E+03  0.7546771E-02  0.1163815E+00
         11   -1    0    0    0    0  0.00000000000E+00  0.00000000000E+00  0.50000000000E+02  0.50000000000E+02  0.00000000000E+00 0.  1.
        -11   -1    0    0    0    0 -0.00000000000E+00 -0.00000000000E+00 -0.50000000000E+02  0.50000000000E+02  0.00000000000E+00 0. -1.
         23    2    1    2    0    0  0.00000000000E+00  0.00000000000E+00  0.00000000000E+00  0.10000000000E+03  0.10000000000E+03 0.  0.
          5    1    3    3  501    0  0.41018590200E+02 -0.28202430343E+02 -0.90447301785E-01  0.50000000000E+02  0.47000000000E+01 0. -1.
         -5    1    3    3    0  501 -0.41018590200E+02  0.28202430343E+02  0.90447301785E-01  0.50000000000E+02  0.47000000000E+01 0.  1.
</event>
<event>
 5    1  0.8909620E-001  0.1000000E+03  0.7546771E-02  0.1163815E+00
         11   -1    0    0    0    0  0.00000000000E+00  0.00000000000E+00  0.50000000000E+02  0.50000000000E+02  0.00000000000E+00 0. -1.
        -11   -1    0    0    0    0 -0.00000000000E+00 -0.00000000000E+00 -0.50000000000E+02  0.50000000000E+02  0.00000000000E+00 0.  1.
         23    2    1    2    0    0  0.00000000000E+00  0.00000000000E+00  0.00000000000E+00  0.10000000000E+03  0.10000000000E+03 0.  0.
          5    1    3    3  501    0 -0.16982531882E+02  0.10262933590E+02  0.45652774341E+02  0.50000000000E+02  0.47000000000E+01 0. -1.
         -5    1    3    3    0  501  0.16982531882E+02 -0.10262933590E+02 -0.45652774341E+02  0.50000000000E+02  0.47000000000E+01 0.  1.
</event>
<event>
 5    1  0.8909620E-001  0.1000000E+03  0.7546771E-02  0.1163815E+00
         11   -1    0    0    0    0  0.00000000000E+00  0.00000000000E+00  0.50000000000E+02  0.50000000000E+02  0.00000000000E+00 0. -1.
        -11   -1    0    0    0    0 -0.00000000000E+00 -0.00000000000E+00 -0.50000000000E+02  0.50000000000E+02  0.00000000000E+00 0.  1.
         23    2    1    2    0    0  0.00000000000E+00  0.00000000000E+00  0.00000000000E+00  0.10000000000E+03  0.10000000000E+03 0.  0.
          5    1    3    3  501    0  0.17579579761E+02 -0.36474798503E+02  0.28956129741E+02  0.50000000000E+02  0.47000000000E+01 0. -1.
         -5    1    3    3    0  501 -0.17579579761E+02  0.36474798503E+02 -0.28956129741E+02  0.50000000000E+02  0.47000000000E+01 0.  1.
</event>
<event>
 5    1  0.8909620E-001  0.1000000E+03  0.7546771E-02  0.1163815E+00
         11   -1    0    0    0    0  0.00000000000E+00  0.00000000000E+00  0.50000000000E+02  0.50000000000E+02  0.00000000000E+00 0. -1.
        -11   -1    0    0    0    0 -0.00000000000E+00 -0.00000000000E+00 -0.50000000000E+02  0.50000000000E+02  0.00000000000E+00 0.  1.
         23    2    1    2    0    0  0.00000000000E+00  0.00000000000E+00  0.00000000000E+00  0.10000000000E+03  0.10000000000E+03 0.  0.
          5    1    3    3  501    0 -0.18370376359E+02 -0.14920444078E+02  0.43792917475E+02  0.50000000000E+02  0.47000000000E+01 0. -1.
         -5    1    3    3    0  501  0.18370376359E+02  0.14920444078E+02 -0.43792917475E+02  0.50000000000E+02  0.47000000000E+01 0.  1.
</event>
<event>
 5    1  0.8909620E-001  0.1000000E+03  0.7546771E-02  0.1163815E+00
         11   -1    0    0    0    0  0.00000000000E+00  0.00000000000E+00  0.50000000000E+02  0.50000000000E+02  0.00000000000E+00 0. -1.
        -11   -1    0    0    0    0 -0.00000000000E+00 -0.00000000000E+00 -0.50000000000E+02  0.50000000000E+02  0.00000000000E+00 0.  1.
         23    2    1    2    0    0  0.00000000000E+00  0.00000000000E+00  0.00000000000E+00  0.10000000000E+03  0.10000000000E+03 0.  0.
          5    1    3    3  501    0  0.33972184004E+02  0.86697150813E+01  0.35336054596E+02  0.50000000000E+02  0.47000000000E+01 0. -1.
         -5    1    3    3    0  501 -0.33972184004E+02 -0.86697150813E+01 -0.35336054596E+02  0.50000000000E+02  0.47000000000E+01 0.  1.
</event>
<event>
 5    1  0.8909620E-001  0.1000000E+03  0.7546771E-02  0.1163815E+00
         11   -1    0    0    0    0  0.00000000000E+00  0.00000000000E+00  0.50000000000E+02  0.50000000000E+02  0.00000000000E+00 0. -1.
        -11   -1    0    0    0    0 -0.00000000000E+00 -0.00000000000E+00 -0.50000000000E+02  0.50000000000E+02  0.00000000000E+00 0.  1.
         23    2    1    2    0    0  0.00000000000E+00  0.00000000000E+00  0.00000000000E+00  0.10000000000E+03  0.10000000000E+03 0.  0.
          5    1    3    3  501    0 -0.17714139363E+02  0.46077192317E+02  0.64040311411E+01  0.50000000000E+02  0.47000000000E+01 0. -1.
         -5    1    3    3    0  501  0.17714139363E+02 -0.46077192317E+02 -0.64040311411E+01  0.50000000000E+02  0.47000000000E+01 0.  1.
</event>
<event>
 5    1  0.8909620E-001  0.1000000E+03  0.7546771E-02  0.1163815E+00
         11   -1    0    0    0    0  0.00000000000E+00  0.00000000000E+00  0.50000000000E+02  0.50000000000E+02  0.00000000000E+00 0. -1.
        -11   -1    0    0    0    0 -0.00000000000E+00 -0.00000000000E+00 -0.50000000000E+02  0.50000000000E+02  0.00000000000E+00 0.  1.
         23    2    1    2    0    0  0.00000000000E+00  0.00000000000E+00  0.00000000000E+00  0.10000000000E+03  0.10000000000E+03 0.  0.
          5    1    3    3  501    0 -0.11132040215E+02  0.44875131030E+02  0.18444790475E+02  0.50000000000E+02  0.47000000000E+01 0. -1.
         -5    1    3    3    0  501  0.11132040215E+02 -0.44875131030E+02 -0.18444790475E+02  0.50000000000E+02  0.47000000000E+01 0.  1.
</event>
<event>
 5    1  0.8909620E-001  0.1000000E+03  0.7546771E-02  0.1163815E+00
         11   -1    0    0    0    0  0.00000000000E+00  0.00000000000E+00  0.50000000000E+02  0.50000000000E+02  0.00000000000E+00 0. -1.
        -11   -1    0    0    0    0 -0.00000000000E+00 -0.00000000000E+00 -0.50000000000E+02  0.50000000000E+02  0.00000000000E+00 0.  1.
         23    2    1    2    0    0  0.00000000000E+00  0.00000000000E+00  0.00000000000E+00  0.10000000000E+03  0.10000000000E+03 0.  0.
          5    1    3    3  501    0  0.48970308412E+02 -0.19738534735E+01 -0.87133688400E+01  0.50000000000E+02  0.47000000000E+01 0. -1.
         -5    1    3    3    0  501 -0.48970308412E+02  0.19738534735E+01  0.87133688400E+01  0.50000000000E+02  0.47000000000E+01 0.  1.
</event>
<event>
 5    1  0.8909620E-001  0.1000000E+03  0.7546771E-02  0.1163815E+00
         11   -1    0    0    0    0  0.00000000000E+00  0.00000000000E+00  0.50000000000E+02  0.50000000000E+02  0.00000000000E+00 0.  1.
        -11   -1    0    0    0    0 -0.00000000000E+00 -0.00000000000E+00 -0.50000000000E+02  0.50000000000E+02  0.00000000000E+00 0. -1.
         23    2    1    2    0    0  0.00000000000E+00  0.00000000000E+00  0.00000000000E+00  0.10000000000E+03  0.10000000000E+03 0.  0.
          5    1    3    3  501    0  0.13340601549E+02  0.22453485272E+01 -0.47905080736E+02  0.50000000000E+02  0.47000000000E+01 0. -1.
         -5    1    3    3    0  501 -0.13340601549E+02 -0.22453485272E+01  0.47905080736E+02  0.50000000000E+02  0.47000000000E+01 0.  1.
</event>
<event>
 5    1  0.8909620E-001  0.1000000E+03  0.7546771E-02  0.1163815E+00
         11   -1    0    0    0    0  0.00000000000E+00  0.00000000000E+00  0.50000000000E+02  0.50000000000E+02  0.00000000000E+00 0. -1.
        -11   -1    0    0    0    0 -0.00000000000E+00 -0.00000000000E+00 -0.50000000000E+02  0.50000000000E+02  0.00000000000E+00 0.  1.
         23    2    1    2    0    0  0.00000000000E+00  0.00000000000E+00  0.00000000000E+00  0.10000000000E+03  0.10000000000E+03 0.  0.
          5    1    3    3  501    0 -0.41747623745E+02 -0.73290434327E+01  0.26102318557E+02  0.50000000000E+02  0.47000000000E+01 0. -1.
         -5    1    3    3    0  501  0.41747623745E+02  0.73290434327E+01 -0.26102318557E+02  0.50000000000E+02  0.47000000000E+01 0.  1.
</event>
<event>
 5    1  0.8909620E-001  0.1000000E+03  0.7546771E-02  0.1163815E+00
         11   -1    0    0    0    0  0.00000000000E+00  0.00000000000E+00  0.50000000000E+02  0.50000000000E+02  0.00000000000E+00 0. -1.
        -11   -1    0    0    0    0 -0.00000000000E+00 -0.00000000000E+00 -0.50000000000E+02  0.50000000000E+02  0.00000000000E+00 0.  1.
         23    2    1    2    0    0  0.00000000000E+00  0.00000000000E+00  0.00000000000E+00  0.10000000000E+03  0.10000000000E+03 0.  0.
          5    1    3    3  501    0  0.45007540580E+01  0.27204726565E+02  0.41443407985E+02  0.50000000000E+02  0.47000000000E+01 0. -1.
         -5    1    3    3    0  501 -0.45007540580E+01 -0.27204726565E+02 -0.41443407985E+02  0.50000000000E+02  0.47000000000E+01 0.  1.
</event>
<event>
 5    1  0.8909620E-001  0.1000000E+03  0.7546771E-02  0.1163815E+00
         11   -1    0    0    0    0  0.00000000000E+00  0.00000000000E+00  0.50000000000E+02  0.50000000000E+02  0.00000000000E+00 0.  1.
        -11   -1    0    0    0    0 -0.00000000000E+00 -0.00000000000E+00 -0.50000000000E+02  0.50000000000E+02  0.00000000000E+00 0. -1.
         23    2    1    2    0    0  0.00000000000E+00  0.00000000000E+00  0.00000000000E+00  0.10000000000E+03  0.10000000000E+03 0.  0.
          5    1    3    3  501    0 -0.21346488376E+01 -0.24807214230E+02 -0.43104006734E+02  0.50000000000E+02  0.47000000000E+01 0. -1.
         -5    1    3    3    0  501  0.21346488376E+01  0.24807214230E+02  0.43104006734E+02  0.50000000000E+02  0.47000000000E+01 0.  1.
</event>
<event>
 5    1  0.8909620E-001  0.1000000E+03  0.7546771E-02  0.1163815E+00
         11   -1    0    0    0    0  0.00000000000E+00  0.00000000000E+00  0.50000000000E+02  0.50000000000E+02  0.00000000000E+00 0. -1.
        -11   -1    0    0    0    0 -0.00000000000E+00 -0.00000000000E+00 -0.50000000000E+02  0.50000000000E+02  0.00000000000E+00 0.  1.
         23    2    1    2    0    0  0.00000000000E+00  0.00000000000E+00  0.00000000000E+00  0.10000000000E+03  0.10000000000E+03 0.  0.
          5    1    3    3  501    0  0.74296743948E+00  0.48968500565E+02  0.89131336693E+01  0.50000000000E+02  0.47000000000E+01 0. -1.
         -5    1    3    3    0  501 -0.74296743948E+00 -0.48968500565E+02 -0.89131336693E+01  0.50000000000E+02  0.47000000000E+01 0.  1.
</event>
<event>
 5    1  0.8909620E-001  0.1000000E+03  0.7546771E-02  0.1163815E+00
         11   -1    0    0    0    0  0.00000000000E+00  0.00000000000E+00  0.50000000000E+02  0.50000000000E+02  0.00000000000E+00 0. -1.
        -11   -1    0    0    0    0 -0.00000000000E+00 -0.00000000000E+00 -0.50000000000E+02  0.50000000000E+02  0.00000000000E+00 0.  1.
         23    2    1    2    0    0  0.00000000000E+00  0.00000000000E+00  0.00000000000E+00  0.10000000000E+03  0.10000000000E+03 0.  0.
          5    1    3    3  501    0  0.62005601394E+00  0.49628767192E+02  0.38093303291E+01  0.50000000000E+02  0.47000000000E+01 0. -1.
         -5    1    3    3    0  501 -0.62005601394E+00 -0.49628767192E+02 -0.38093303291E+01  0.50000000000E+02  0.47000000000E+01 0.  1.
</event>
<event>
 5    1  0.8909620E-001  0.1000000E+03  0.7546771E-02  0.1163815E+00
         11   -1    0    0    0    0  0.00000000000E+00  0.00000000000E+00  0.50000000000E+02  0.50000000000E+02  0.00000000000E+00 0. -1.
        -11   -1    0    0    0    0 -0.00000000000E+00 -0.00000000000E+00 -0.50000000000E+02  0.50000000000E+02  0.00000000000E+00 0.  1.
         23    2    1    2    0    0  0.00000000000E+00  0.00000000000E+00  0.00000000000E+00  0.10000000000E+03  0.10000000000E+03 0.  0.
          5    1    3    3  501    0 -0.19361476190E+02 -0.43330973934E+02 -0.15015656419E+02  0.50000000000E+02  0.47000000000E+01 0. -1.
         -5    1    3    3    0  501  0.19361476190E+02  0.43330973934E+02  0.15015656419E+02  0.50000000000E+02  0.47000000000E+01 0.  1.
</event>
<event>
 5    1  0.8909620E-001  0.1000000E+03  0.7546771E-02  0.1163815E+00
         11   -1    0    0    0    0  0.00000000000E+00  0.00000000000E+00  0.50000000000E+02  0.50000000000E+02  0.00000000000E+00 0. -1.
        -11   -1    0    0    0    0 -0.00000000000E+00 -0.00000000000E+00 -0.50000000000E+02  0.50000000000E+02  0.00000000000E+00 0.  1.
         23    2    1    2    0    0  0.00000000000E+00  0.00000000000E+00  0.00000000000E+00  0.10000000000E+03  0.10000000000E+03 0.  0.
          5    1    3    3  501    0 -0.13382867811E+02 -0.18706127335E+02  0.44146230295E+02  0.50000000000E+02  0.47000000000E+01 0. -1.
         -5    1    3    3    0  501  0.13382867811E+02  0.18706127335E+02 -0.44146230295E+02  0.50000000000E+02  0.47000000000E+01 0.  1.
</event>
<event>
 5    1  0.8909620E-001  0.1000000E+03  0.7546771E-02  0.1163815E+00
         11   -1    0    0    0    0  0.00000000000E+00  0.00000000000E+00  0.50000000000E+02  0.50000000000E+02  0.00000000000E+00 0. -1.
        -11   -1    0    0    0    0 -0.00000000000E+00 -0.00000000000E+00 -0.50000000000E+02  0.50000000000E+02  0.00000000000E+00 0.  1.
         23    2    1    2    0    0  0.00000000000E+00  0.00000000000E+00  0.00000000000E+00  0.10000000000E+03  0.10000000000E+03 0.  0.
          5    1    3    3  501    0  0.18254974355E+02  0.68220078267E+01  0.45805306685E+02  0.50000000000E+02  0.47000000000E+01 0. -1.
         -5    1    3    3    0  501 -0.18254974355E+02 -0.68220078267E+01 -0.45805306685E+02  0.50000000000E+02  0.47000000000E+01 0.  1.
</event>
<event>
 5    1  0.8909620E-001  0.1000000E+03  0.7546771E-02  0.1163815E+00
         11   -1    0    0    0    0  0.00000000000E+00  0.00000000000E+00  0.50000000000E+02  0.50000000000E+02  0.00000000000E+00 0. -1.
        -11   -1    0    0    0    0 -0.00000000000E+00 -0.00000000000E+00 -0.50000000000E+02  0.50000000000E+02  0.00000000000E+00 0.  1.
         23    2    1    2    0    0  0.00000000000E+00  0.00000000000E+00  0.00000000000E+00  0.10000000000E+03  0.10000000000E+03 0.  0.
          5    1    3    3  501    0 -0.33907029522E+02  0.30246501200E+02  0.20331564478E+02  0.50000000000E+02  0.47000000000E+01 0. -1.
         -5    1    3    3    0  501  0.33907029522E+02 -0.30246501200E+02 -0.20331564478E+02  0.50000000000E+02  0.47000000000E+01 0.  1.
</event>
<event>
 5    1  0.8909620E-001  0.1000000E+03  0.7546771E-02  0.1163815E+00
         11   -1    0    0    0    0  0.00000000000E+00  0.00000000000E+00  0.50000000000E+02  0.50000000000E+02  0.00000000000E+00 0.  1.
        -11   -1    0    0    0    0 -0.00000000000E+00 -0.00000000000E+00 -0.50000000000E+02  0.50000000000E+02  0.00000000000E+00 0. -1.
         23    2    1    2    0    0  0.00000000000E+00  0.00000000000E+00  0.00000000000E+00  0.10000000000E+03  0.10000000000E+03 0.  0.
          5    1    3    3  501    0 -0.41930958733E+02  0.26685867075E+02 -0.27512175831E+01  0.50000000000E+02  0.47000000000E+01 0. -1.
         -5    1    3    3    0  501  0.41930958733E+02 -0.26685867075E+02  0.27512175831E+01  0.50000000000E+02  0.47000000000E+01 0.  1.
</event>
<event>
 5    1  0.8909620E-001  0.1000000E+03  0.7546771E-02  0.1163815E+00
         11   -1    0    0    0    0  0.00000000000E+00  0.00000000000E+00  0.50000000000E+02  0.50000000000E+02  0.00000000000E+00 0. -1.
        -11   -1    0    0    0    0 -0.00000000000E+00 -0.00000000000E+00 -0.50000000000E+02  0.50000000000E+02  0.00000000000E+00 0.  1.
         23    2    1    2    0    0  0.00000000000E+00  0.00000000000E+00  0.00000000000E+00  0.10000000000E+03  0.10000000000E+03 0.  0.
          5    1    3    3  501    0  0.22066638469E+02  0.34977213022E+02  0.27705018245E+02  0.50000000000E+02  0.47000000000E+01 0. -1.
         -5    1    3    3    0  501 -0.22066638469E+02 -0.34977213022E+02 -0.27705018245E+02  0.50000000000E+02  0.47000000000E+01 0.  1.
</event>
<event>
 5    1  0.8909620E-001  0.1000000E+03  0.7546771E-02  0.1163815E+00
         11   -1    0    0    0    0  0.00000000000E+00  0.00000000000E+00  0.50000000000E+02  0.50000000000E+02  0.00000000000E+00 0.  1.
        -11   -1    0    0    0    0 -0.00000000000E+00 -0.00000000000E+00 -0.50000000000E+02  0.50000000000E+02  0.00000000000E+00 0. -1.
         23    2    1    2    0    0  0.00000000000E+00  0.00000000000E+00  0.00000000000E+00  0.10000000000E+03  0.10000000000E+03 0.  0.
          5    1    3    3  501    0 -0.23840665682E+02  0.73710606250E+01 -0.43072034142E+02  0.50000000000E+02  0.47000000000E+01 0. -1.
         -5    1    3    3    0  501  0.23840665682E+02 -0.73710606250E+01  0.43072034142E+02  0.50000000000E+02  0.47000000000E+01 0.  1.
</event>
<event>
 5    1  0.8909620E-001  0.1000000E+03  0.7546771E-02  0.1163815E+00
         11   -1    0    0    0    0  0.00000000000E+00  0.00000000000E+00  0.50000000000E+02  0.50000000000E+02  0.00000000000E+00 0. -1.
        -11   -1    0    0    0    0 -0.00000000000E+00 -0.00000000000E+00 -0.50000000000E+02  0.50000000000E+02  0.00000000000E+00 0.  1.
         23    2    1    2    0    0  0.00000000000E+00  0.00000000000E+00  0.00000000000E+00  0.10000000000E+03  0.10000000000E+03 0.  0.
          5    1    3    3  501    0 -0.45679153208E+02  0.17236539746E+02 -0.97070417612E+01  0.50000000000E+02  0.47000000000E+01 0. -1.
         -5    1    3    3    0  501  0.45679153208E+02 -0.17236539746E+02  0.97070417612E+01  0.50000000000E+02  0.47000000000E+01 0.  1.
</event>
<event>
 5    1  0.8909620E-001  0.1000000E+03  0.7546771E-02  0.1163815E+00
         11   -1    0    0    0    0  0.00000000000E+00  0.00000000000E+00  0.50000000000E+02  0.50000000000E+02  0.00000000000E+00 0. -1.
        -11   -1    0    0    0    0 -0.00000000000E+00 -0.00000000000E+00 -0.50000000000E+02  0.50000000000E+02  0.00000000000E+00 0.  1.
         23    2    1    2    0    0  0.00000000000E+00  0.00000000000E+00  0.00000000000E+00  0.10000000000E+03  0.10000000000E+03 0.  0.
          5    1    3    3  501    0  0.10333845694E+02  0.42045222141E+02 -0.24562592051E+02  0.50000000000E+02  0.47000000000E+01 0. -1.
         -5    1    3    3    0  501 -0.10333845694E+02 -0.42045222141E+02  0.24562592051E+02  0.50000000000E+02  0.47000000000E+01 0.  1.
</event>
<event>
 5    1  0.8909620E-001  0.1000000E+03  0.7546771E-02  0.1163815E+00
         11   -1    0    0    0    0  0.00000000000E+00  0.00000000000E+00  0.50000000000E+02  0.50000000000E+02  0.00000000000E+00 0.  1.
        -11   -1    0    0    0    0 -0.00000000000E+00 -0.00000000000E+00 -0.50000000000E+02  0.50000000000E+02  0.00000000000E+00 0. -1.
         23    2    1    2    0    0  0.00000000000E+00  0.00000000000E+00  0.00000000000E+00  0.10000000000E+03  0.10000000000E+03 0.  0.
          5    1    3    3  501    0 -0.36413141080E+02 -0.99588322101E+01 -0.32447108002E+02  0.50000000000E+02  0.47000000000E+01 0. -1.
         -5    1    3    3    0  501  0.36413141080E+02  0.99588322101E+01  0.32447108002E+02  0.50000000000E+02  0.47000000000E+01 0.  1.
</event>
<event>
 5    1  0.8909620E-001  0.1000000E+03  0.7546771E-02  0.1163815E+00
         11   -1    0    0    0    0  0.00000000000E+00  0.00000000000E+00  0.50000000000E+02  0.50000000000E+02  0.00000000000E+00 0. -1.
        -11   -1    0    0    0    0 -0.00000000000E+00 -0.00000000000E+00 -0.50000000000E+02  0.50000000000E+02  0.00000000000E+00 0.  1.
         23    2    1    2    0    0  0.00000000000E+00  0.00000000000E+00  0.00000000000E+00  0.10000000000E+03  0.10000000000E+03 0.  0.
          5    1    3    3  501    0 -0.46167042552E+02  0.13492844177E+02  0.12824092094E+02  0.50000000000E+02  0.47000000000E+01 0. -1.
         -5    1    3    3    0  501  0.46167042552E+02 -0.13492844177E+02 -0.12824092094E+02  0.50000000000E+02  0.47000000000E+01 0.  1.
</event>
<event>
 5    1  0.8909620E-001  0.1000000E+03  0.7546771E-02  0.1163815E+00
         11   -1    0    0    0    0  0.00000000000E+00  0.00000000000E+00  0.50000000000E+02  0.50000000000E+02  0.00000000000E+00 0. -1.
        -11   -1    0    0    0    0 -0.00000000000E+00 -0.00000000000E+00 -0.50000000000E+02  0.50000000000E+02  0.00000000000E+00 0.  1.
         23    2    1    2    0    0  0.00000000000E+00  0.00000000000E+00  0.00000000000E+00  0.10000000000E+03  0.10000000000E+03 0.  0.
          5    1    3    3  501    0  0.47997379950E+02 -0.18716773128E+01  0.13063626678E+02  0.50000000000E+02  0.47000000000E+01 0. -1.
         -5    1    3    3    0  501 -0.47997379950E+02  0.18716773128E+01 -0.13063626678E+02  0.50000000000E+02  0.47000000000E+01 0.  1.
</event>
<event>
 5    1  0.8909620E-001  0.1000000E+03  0.7546771E-02  0.1163815E+00
         11   -1    0    0    0    0  0.00000000000E+00  0.00000000000E+00  0.50000000000E+02  0.50000000000E+02  0.00000000000E+00 0. -1.
        -11   -1    0    0    0    0 -0.00000000000E+00 -0.00000000000E+00 -0.50000000000E+02  0.50000000000E+02  0.00000000000E+00 0.  1.
         23    2    1    2    0    0  0.00000000000E+00  0.00000000000E+00  0.00000000000E+00  0.10000000000E+03  0.10000000000E+03 0.  0.
          5    1    3    3  501    0 -0.45004055920E+02  0.92673149361E+01  0.19148415722E+02  0.50000000000E+02  0.47000000000E+01 0. -1.
         -5    1    3    3    0  501  0.45004055920E+02 -0.92673149361E+01 -0.19148415722E+02  0.50000000000E+02  0.47000000000E+01 0.  1.
</event>
<event>
 5    1  0.8909620E-001  0.1000000E+03  0.7546771E-02  0.1163815E+00
         11   -1    0    0    0    0  0.00000000000E+00  0.00000000000E+00  0.50000000000E+02  0.50000000000E+02  0.00000000000E+00 0. -1.
        -11   -1    0    0    0    0 -0.00000000000E+00 -0.00000000000E+00 -0.50000000000E+02  0.50000000000E+02  0.00000000000E+00 0.  1.
         23    2    1    2    0    0  0.00000000000E+00  0.00000000000E+00  0.00000000000E+00  0.10000000000E+03  0.10000000000E+03 0.  0.
          5    1    3    3  501    0 -0.45730870306E+02  0.16279768108E+02 -0.11025726797E+02  0.50000000000E+02  0.47000000000E+01 0. -1.
         -5    1    3    3    0  501  0.45730870306E+02 -0.16279768108E+02  0.11025726797E+02  0.50000000000E+02  0.47000000000E+01 0.  1.
</event>
<event>
 5    1  0.8909620E-001  0.1000000E+03  0.7546771E-02  0.1163815E+00
         11   -1    0    0    0    0  0.00000000000E+00  0.00000000000E+00  0.50000000000E+02  0.50000000000E+02  0.00000000000E+00 0. -1.
        -11   -1    0    0    0    0 -0.00000000000E+00 -0.00000000000E+00 -0.50000000000E+02  0.50000000000E+02  0.00000000000E+00 0.  1.
         23    2    1    2    0    0  0.00000000000E+00  0.00000000000E+00  0.00000000000E+00  0.10000000000E+03  0.10000000000E+03 0.  0.
          5    1    3    3  501    0  0.42214265462E+02 -0.85803107529E+01  0.24944820282E+02  0.50000000000E+02  0.47000000000E+01 0. -1.
         -5    1    3    3    0  501 -0.42214265462E+02  0.85803107529E+01 -0.24944820282E+02  0.50000000000E+02  0.47000000000E+01 0.  1.
</event>
<event>
 5    1  0.8909620E-001  0.1000000E+03  0.7546771E-02  0.1163815E+00
         11   -1    0    0    0    0  0.00000000000E+00  0.00000000000E+00  0.50000000000E+02  0.50000000000E+02  0.00000000000E+00 0. -1.
        -11   -1    0    0    0    0 -0.00000000000E+00 -0.00000000000E+00 -0.50000000000E+02  0.50000000000E+02  0.00000000000E+00 0.  1.
         23    2    1    2    0    0  0.00000000000E+00  0.00000000000E+00  0.00000000000E+00  0.10000000000E+03  0.10000000000E+03 0.  0.
          5    1    3    3  501    0 -0.36997547236E+02  0.40328944145E+01  0.33057937944E+02  0.50000000000E+02  0.47000000000E+01 0. -1.
         -5    1    3    3    0  501  0.36997547236E+02 -0.40328944145E+01 -0.33057937944E+02  0.50000000000E+02  0.47000000000E+01 0.  1.
</event>
<event>
 5    1  0.8909620E-001  0.1000000E+03  0.7546771E-02  0.1163815E+00
         11   -1    0    0    0    0  0.00000000000E+00  0.00000000000E+00  0.50000000000E+02  0.50000000000E+02  0.00000000000E+00 0. -1.
        -11   -1    0    0    0    0 -0.00000000000E+00 -0.00000000000E+00 -0.50000000000E+02  0.50000000000E+02  0.00000000000E+00 0.  1.
         23    2    1    2    0    0  0.00000000000E+00  0.00000000000E+00  0.00000000000E+00  0.10000000000E+03  0.10000000000E+03 0.  0.
          5    1    3    3  501    0  0.28814271051E+02  0.33135784741E+02  0.23444989942E+02  0.50000000000E+02  0.47000000000E+01 0. -1.
         -5    1    3    3    0  501 -0.28814271051E+02 -0.33135784741E+02 -0.23444989942E+02  0.50000000000E+02  0.47000000000E+01 0.  1.
</event>
<event>
 5    1  0.8909620E-001  0.1000000E+03  0.7546771E-02  0.1163815E+00
         11   -1    0    0    0    0  0.00000000000E+00  0.00000000000E+00  0.50000000000E+02  0.50000000000E+02  0.00000000000E+00 0. -1.
        -11   -1    0    0    0    0 -0.00000000000E+00 -0.00000000000E+00 -0.50000000000E+02  0.50000000000E+02  0.00000000000E+00 0.  1.
         23    2    1    2    0    0  0.00000000000E+00  0.00000000000E+00  0.00000000000E+00  0.10000000000E+03  0.10000000000E+03 0.  0.
          5    1    3    3  501    0 -0.47999367451E+02  0.12669721149E+02 -0.36672728770E+01  0.50000000000E+02  0.47000000000E+01 0. -1.
         -5    1    3    3    0  501  0.47999367451E+02 -0.12669721149E+02  0.36672728770E+01  0.50000000000E+02  0.47000000000E+01 0.  1.
</event>
<event>
 5    1  0.8909620E-001  0.1000000E+03  0.7546771E-02  0.1163815E+00
         11   -1    0    0    0    0  0.00000000000E+00  0.00000000000E+00  0.50000000000E+02  0.50000000000E+02  0.00000000000E+00 0. -1.
        -11   -1    0    0    0    0 -0.00000000000E+00 -0.00000000000E+00 -0.50000000000E+02  0.50000000000E+02  0.00000000000E+00 0.  1.
         23    2    1    2    0    0  0.00000000000E+00  0.00000000000E+00  0.00000000000E+00  0.10000000000E+03  0.10000000000E+03 0.  0.
          5    1    3    3  501    0 -0.45458596845E+01 -0.42757103711E+02  0.25081372410E+02  0.50000000000E+02  0.47000000000E+01 0. -1.
         -5    1    3    3    0  501  0.45458596845E+01  0.42757103711E+02 -0.25081372410E+02  0.50000000000E+02  0.47000000000E+01 0.  1.
</event>
<event>
 5    1  0.8909620E-001  0.1000000E+03  0.7546771E-02  0.1163815E+00
         11   -1    0    0    0    0  0.00000000000E+00  0.00000000000E+00  0.50000000000E+02  0.50000000000E+02  0.00000000000E+00 0.  1.
        -11   -1    0    0    0    0 -0.00000000000E+00 -0.00000000000E+00 -0.50000000000E+02  0.50000000000E+02  0.00000000000E+00 0. -1.
         23    2    1    2    0    0  0.00000000000E+00  0.00000000000E+00  0.00000000000E+00  0.10000000000E+03  0.10000000000E+03 0.  0.
          5    1    3    3  501    0 -0.12515835221E+02 -0.53704833939E+01 -0.47879241607E+02  0.50000000000E+02  0.47000000000E+01 0. -1.
         -5    1    3    3    0  501  0.12515835221E+02  0.53704833939E+01  0.47879241607E+02  0.50000000000E+02  0.47000000000E+01 0.  1.
</event>
<event>
 5    1  0.8909620E-001  0.1000000E+03  0.7546771E-02  0.1163815E+00
         11   -1    0    0    0    0  0.00000000000E+00  0.00000000000E+00  0.50000000000E+02  0.50000000000E+02  0.00000000000E+00 0. -1.
        -11   -1    0    0    0    0 -0.00000000000E+00 -0.00000000000E+00 -0.50000000000E+02  0.50000000000E+02  0.00000000000E+00 0.  1.
         23    2    1    2    0    0  0.00000000000E+00  0.00000000000E+00  0.00000000000E+00  0.10000000000E+03  0.10000000000E+03 0.  0.
          5    1    3    3  501    0  0.17864850737E+02 -0.19503038831E+02  0.42170944790E+02  0.50000000000E+02  0.47000000000E+01 0. -1.
         -5    1    3    3    0  501 -0.17864850737E+02  0.19503038831E+02 -0.42170944790E+02  0.50000000000E+02  0.47000000000E+01 0.  1.
</event>
<event>
 5    1  0.8909620E-001  0.1000000E+03  0.7546771E-02  0.1163815E+00
         11   -1    0    0    0    0  0.00000000000E+00  0.00000000000E+00  0.50000000000E+02  0.50000000000E+02  0.00000000000E+00 0. -1.
        -11   -1    0    0    0    0 -0.00000000000E+00 -0.00000000000E+00 -0.50000000000E+02  0.50000000000E+02  0.00000000000E+00 0.  1.
         23    2    1    2    0    0  0.00000000000E+00  0.00000000000E+00  0.00000000000E+00  0.10000000000E+03  0.10000000000E+03 0.  0.
          5    1    3    3  501    0  0.43089729014E+02  0.24913263506E+02 -0.71732484204E+00  0.50000000000E+02  0.47000000000E+01 0. -1.
         -5    1    3    3    0  501 -0.43089729014E+02 -0.24913263506E+02  0.71732484204E+00  0.50000000000E+02  0.47000000000E+01 0.  1.
</event>
<event>
 5    1  0.8909620E-001  0.1000000E+03  0.7546771E-02  0.1163815E+00
         11   -1    0    0    0    0  0.00000000000E+00  0.00000000000E+00  0.50000000000E+02  0.50000000000E+02  0.00000000000E+00 0. -1.
        -11   -1    0    0    0    0 -0.00000000000E+00 -0.00000000000E+00 -0.50000000000E+02  0.50000000000E+02  0.00000000000E+00 0.  1.
         23    2    1    2    0    0  0.00000000000E+00  0.00000000000E+00  0.00000000000E+00  0.10000000000E+03  0.10000000000E+03 0.  0.
          5    1    3    3  501    0 -0.33833721131E+02 -0.24238472192E+02  0.27307247760E+02  0.50000000000E+02  0.47000000000E+01 0. -1.
         -5    1    3    3    0  501  0.33833721131E+02  0.24238472192E+02 -0.27307247760E+02  0.50000000000E+02  0.47000000000E+01 0.  1.
</event>
<event>
 5    1  0.8909620E-001  0.1000000E+03  0.7546771E-02  0.1163815E+00
         11   -1    0    0    0    0  0.00000000000E+00  0.00000000000E+00  0.50000000000E+02  0.50000000000E+02  0.00000000000E+00 0. -1.
        -11   -1    0    0    0    0 -0.00000000000E+00 -0.00000000000E+00 -0.50000000000E+02  0.50000000000E+02  0.00000000000E+00 0.  1.
         23    2    1    2    0    0  0.00000000000E+00  0.00000000000E+00  0.00000000000E+00  0.10000000000E+03  0.10000000000E+03 0.  0.
          5    1    3    3  501    0  0.46096046661E+02 -0.58609342079E+01 -0.17852560950E+02  0.50000000000E+02  0.47000000000E+01 0. -1.
         -5    1    3    3    0  501 -0.46096046661E+02  0.58609342079E+01  0.17852560950E+02  0.50000000000E+02  0.47000000000E+01 0.  1.
</event>
<event>
 5    1  0.8909620E-001  0.1000000E+03  0.7546771E-02  0.1163815E+00
         11   -1    0    0    0    0  0.00000000000E+00  0.00000000000E+00  0.50000000000E+02  0.50000000000E+02  0.00000000000E+00 0. -1.
        -11   -1    0    0    0    0 -0.00000000000E+00 -0.00000000000E+00 -0.50000000000E+02  0.50000000000E+02  0.00000000000E+00 0.  1.
         23    2    1    2    0    0  0.00000000000E+00  0.00000000000E+00  0.00000000000E+00  0.10000000000E+03  0.10000000000E+03 0.  0.
          5    1    3    3  501    0 -0.22514207527E+02 -0.16537285578E+02  0.41201197133E+02  0.50000000000E+02  0.47000000000E+01 0. -1.
         -5    1    3    3    0  501  0.22514207527E+02  0.16537285578E+02 -0.41201197133E+02  0.50000000000E+02  0.47000000000E+01 0.  1.
</event>
<event>
 5    1  0.8909620E-001  0.1000000E+03  0.7546771E-02  0.1163815E+00
         11   -1    0    0    0    0  0.00000000000E+00  0.00000000000E+00  0.50000000000E+02  0.50000000000E+02  0.00000000000E+00 0. -1.
        -11   -1    0    0    0    0 -0.00000000000E+00 -0.00000000000E+00 -0.50000000000E+02  0.50000000000E+02  0.00000000000E+00 0.  1.
         23    2    1    2    0    0  0.00000000000E+00  0.00000000000E+00  0.00000000000E+00  0.10000000000E+03  0.10000000000E+03 0.  0.
          5    1    3    3  501    0 -0.26126641137E+02 -0.36453319963E+02  0.21597779668E+02  0.50000000000E+02  0.47000000000E+01 0. -1.
         -5    1    3    3    0  501  0.26126641137E+02  0.36453319963E+02 -0.21597779668E+02  0.50000000000E+02  0.47000000000E+01 0.  1.
</event>
<event>
 5    1  0.8909620E-001  0.1000000E+03  0.7546771E-02  0.1163815E+00
         11   -1    0    0    0    0  0.00000000000E+00  0.00000000000E+00  0.50000000000E+02  0.50000000000E+02  0.00000000000E+00 0.  1.
        -11   -1    0    0    0    0 -0.00000000000E+00 -0.00000000000E+00 -0.50000000000E+02  0.50000000000E+02  0.00000000000E+00 0. -1.
         23    2    1    2    0    0  0.00000000000E+00  0.00000000000E+00  0.00000000000E+00  0.10000000000E+03  0.10000000000E+03 0.  0.
          5    1    3    3  501    0 -0.30149170869E+01  0.11308519135E+02 -0.48383237489E+02  0.50000000000E+02  0.47000000000E+01 0. -1.
         -5    1    3    3    0  501  0.30149170869E+01 -0.11308519135E+02  0.48383237489E+02  0.50000000000E+02  0.47000000000E+01 0.  1.
</event>
<event>
 5    1  0.8909620E-001  0.1000000E+03  0.7546771E-02  0.1163815E+00
         11   -1    0    0    0    0  0.00000000000E+00  0.00000000000E+00  0.50000000000E+02  0.50000000000E+02  0.00000000000E+00 0. -1.
        -11   -1    0    0    0    0 -0.00000000000E+00 -0.00000000000E+00 -0.50000000000E+02  0.50000000000E+02  0.00000000000E+00 0.  1.
         23    2    1    2    0    0  0.00000000000E+00  0.00000000000E+00  0.00000000000E+00  0.10000000000E+03  0.10000000000E+03 0.  0.
          5    1    3    3  501    0  0.19351441520E+02  0.11205581182E+02  0.44473212853E+02  0.50000000000E+02  0.47000000000E+01 0. -1.
         -5    1    3    3    0  501 -0.19351441520E+02 -0.11205581182E+02 -0.44473212853E+02  0.50000000000E+02  0.47000000000E+01 0.  1.
</event>
<event>
 5    1  0.8909620E-001  0.1000000E+03  0.7546771E-02  0.1163815E+00
         11   -1    0    0    0    0  0.00000000000E+00  0.00000000000E+00  0.50000000000E+02  0.50000000000E+02  0.00000000000E+00 0. -1.
        -11   -1    0    0    0    0 -0.00000000000E+00 -0.00000000000E+00 -0.50000000000E+02  0.50000000000E+02  0.00000000000E+00 0.  1.
         23    2    1    2    0    0  0.00000000000E+00  0.00000000000E+00  0.00000000000E+00  0.10000000000E+03  0.10000000000E+03 0.  0.
          5    1    3    3  501    0 -0.92656948530E+01 -0.30510087692E+02  0.38225533978E+02  0.50000000000E+02  0.47000000000E+01 0. -1.
         -5    1    3    3    0  501  0.92656948530E+01  0.30510087692E+02 -0.38225533978E+02  0.50000000000E+02  0.47000000000E+01 0.  1.
</event>
<event>
 5    1  0.8909620E-001  0.1000000E+03  0.7546771E-02  0.1163815E+00
         11   -1    0    0    0    0  0.00000000000E+00  0.00000000000E+00  0.50000000000E+02  0.50000000000E+02  0.00000000000E+00 0.  1.
        -11   -1    0    0    0    0 -0.00000000000E+00 -0.00000000000E+00 -0.50000000000E+02  0.50000000000E+02  0.00000000000E+00 0. -1.
         23    2    1    2    0    0  0.00000000000E+00  0.00000000000E+00  0.00000000000E+00  0.10000000000E+03  0.10000000000E+03 0.  0.
          5    1    3    3  501    0  0.25843531087E+02  0.37080328075E+01 -0.42382453842E+02  0.50000000000E+02  0.47000000000E+01 0. -1.
         -5    1    3    3    0  501 -0.25843531087E+02 -0.37080328075E+01  0.42382453842E+02  0.50000000000E+02  0.47000000000E+01 0.  1.
</event>
<event>
 5    1  0.8909620E-001  0.1000000E+03  0.7546771E-02  0.1163815E+00
         11   -1    0    0    0    0  0.00000000000E+00  0.00000000000E+00  0.50000000000E+02  0.50000000000E+02  0.00000000000E+00 0.  1.
        -11   -1    0    0    0    0 -0.00000000000E+00 -0.00000000000E+00 -0.50000000000E+02  0.50000000000E+02  0.00000000000E+00 0. -1.
         23    2    1    2    0    0  0.00000000000E+00  0.00000000000E+00  0.00000000000E+00  0.10000000000E+03  0.10000000000E+03 0.  0.
          5    1    3    3  501    0  0.36333728601E+01 -0.16865278996E+02 -0.46693371757E+02  0.50000000000E+02  0.47000000000E+01 0. -1.
         -5    1    3    3    0  501 -0.36333728601E+01  0.16865278996E+02  0.46693371757E+02  0.50000000000E+02  0.47000000000E+01 0.  1.
</event>
<event>
 5    1  0.8909620E-001  0.1000000E+03  0.7546771E-02  0.1163815E+00
         11   -1    0    0    0    0  0.00000000000E+00  0.00000000000E+00  0.50000000000E+02  0.50000000000E+02  0.00000000000E+00 0.  1.
        -11   -1    0    0    0    0 -0.00000000000E+00 -0.00000000000E+00 -0.50000000000E+02  0.50000000000E+02  0.00000000000E+00 0. -1.
         23    2    1    2    0    0  0.00000000000E+00  0.00000000000E+00  0.00000000000E+00  0.10000000000E+03  0.10000000000E+03 0.  0.
          5    1    3    3  501    0  0.18763061135E+02 -0.25068186986E+02  0.38696815607E+02  0.50000000000E+02  0.47000000000E+01 0.  1.
         -5    1    3    3    0  501 -0.18763061135E+02  0.25068186986E+02 -0.38696815607E+02  0.50000000000E+02  0.47000000000E+01 0. -1.
</event>
<event>
 5    1  0.8909620E-001  0.1000000E+03  0.7546771E-02  0.1163815E+00
         11   -1    0    0    0    0  0.00000000000E+00  0.00000000000E+00  0.50000000000E+02  0.50000000000E+02  0.00000000000E+00 0. -1.
        -11   -1    0    0    0    0 -0.00000000000E+00 -0.00000000000E+00 -0.50000000000E+02  0.50000000000E+02  0.00000000000E+00 0.  1.
         23    2    1    2    0    0  0.00000000000E+00  0.00000000000E+00  0.00000000000E+00  0.10000000000E+03  0.10000000000E+03 0.  0.
          5    1    3    3  501    0  0.14956324821E+02 -0.39564623175E+02  0.26246122397E+02  0.50000000000E+02  0.47000000000E+01 0. -1.
         -5    1    3    3    0  501 -0.14956324821E+02  0.39564623175E+02 -0.26246122397E+02  0.50000000000E+02  0.47000000000E+01 0.  1.
</event>
<event>
 5    1  0.8909620E-001  0.1000000E+03  0.7546771E-02  0.1163815E+00
         11   -1    0    0    0    0  0.00000000000E+00  0.00000000000E+00  0.50000000000E+02  0.50000000000E+02  0.00000000000E+00 0. -1.
        -11   -1    0    0    0    0 -0.00000000000E+00 -0.00000000000E+00 -0.50000000000E+02  0.50000000000E+02  0.00000000000E+00 0.  1.
         23    2    1    2    0    0  0.00000000000E+00  0.00000000000E+00  0.00000000000E+00  0.10000000000E+03  0.10000000000E+03 0.  0.
          5    1    3    3  501    0 -0.47301373548E+02  0.13961010766E+02 -0.67513138608E+01  0.50000000000E+02  0.47000000000E+01 0. -1.
         -5    1    3    3    0  501  0.47301373548E+02 -0.13961010766E+02  0.67513138608E+01  0.50000000000E+02  0.47000000000E+01 0.  1.
</event>
<event>
 5    1  0.8909620E-001  0.1000000E+03  0.7546771E-02  0.1163815E+00
         11   -1    0    0    0    0  0.00000000000E+00  0.00000000000E+00  0.50000000000E+02  0.50000000000E+02  0.00000000000E+00 0. -1.
        -11   -1    0    0    0    0 -0.00000000000E+00 -0.00000000000E+00 -0.50000000000E+02  0.50000000000E+02  0.00000000000E+00 0.  1.
         23    2    1    2    0    0  0.00000000000E+00  0.00000000000E+00  0.00000000000E+00  0.10000000000E+03  0.10000000000E+03 0.  0.
          5    1    3    3  501    0 -0.53734282057E+01 -0.45811467569E+02 -0.18717524102E+02  0.50000000000E+02  0.47000000000E+01 0. -1.
         -5    1    3    3    0  501  0.53734282057E+01  0.45811467569E+02  0.18717524102E+02  0.50000000000E+02  0.47000000000E+01 0.  1.
</event>
<event>
 5    1  0.8909620E-001  0.1000000E+03  0.7546771E-02  0.1163815E+00
         11   -1    0    0    0    0  0.00000000000E+00  0.00000000000E+00  0.50000000000E+02  0.50000000000E+02  0.00000000000E+00 0. -1.
        -11   -1    0    0    0    0 -0.00000000000E+00 -0.00000000000E+00 -0.50000000000E+02  0.50000000000E+02  0.00000000000E+00 0.  1.
         23    2    1    2    0    0  0.00000000000E+00  0.00000000000E+00  0.00000000000E+00  0.10000000000E+03  0.10000000000E+03 0.  0.
          5    1    3    3  501    0 -0.33447528719E+02 -0.52131958308E+01  0.36496512324E+02  0.50000000000E+02  0.47000000000E+01 0. -1.
         -5    1    3    3    0  501  0.33447528719E+02  0.52131958308E+01 -0.36496512324E+02  0.50000000000E+02  0.47000000000E+01 0.  1.
</event>
<event>
 5    1  0.8909620E-001  0.1000000E+03  0.7546771E-02  0.1163815E+00
         11   -1    0    0    0    0  0.00000000000E+00  0.00000000000E+00  0.50000000000E+02  0.50000000000E+02  0.00000000000E+00 0. -1.
        -11   -1    0    0    0    0 -0.00000000000E+00 -0.00000000000E+00 -0.50000000000E+02  0.50000000000E+02  0.00000000000E+00 0.  1.
         23    2    1    2    0    0  0.00000000000E+00  0.00000000000E+00  0.00000000000E+00  0.10000000000E+03  0.10000000000E+03 0.  0.
          5    1    3    3  501    0  0.23125417390E+02 -0.42994743707E+02 -0.97250750179E+01  0.50000000000E+02  0.47000000000E+01 0. -1.
         -5    1    3    3    0  501 -0.23125417390E+02  0.42994743707E+02  0.97250750179E+01  0.50000000000E+02  0.47000000000E+01 0.  1.
</event>
<event>
 5    1  0.8909620E-001  0.1000000E+03  0.7546771E-02  0.1163815E+00
         11   -1    0    0    0    0  0.00000000000E+00  0.00000000000E+00  0.50000000000E+02  0.50000000000E+02  0.00000000000E+00 0. -1.
        -11   -1    0    0    0    0 -0.00000000000E+00 -0.00000000000E+00 -0.50000000000E+02  0.50000000000E+02  0.00000000000E+00 0.  1.
         23    2    1    2    0    0  0.00000000000E+00  0.00000000000E+00  0.00000000000E+00  0.10000000000E+03  0.10000000000E+03 0.  0.
          5    1    3    3  501    0  0.47614763647E+02 -0.14400461582E+02  0.18360253373E+01  0.50000000000E+02  0.47000000000E+01 0. -1.
         -5    1    3    3    0  501 -0.47614763647E+02  0.14400461582E+02 -0.18360253373E+01  0.50000000000E+02  0.47000000000E+01 0.  1.
</event>
<event>
 5    1  0.8909620E-001  0.1000000E+03  0.7546771E-02  0.1163815E+00
         11   -1    0    0    0    0  0.00000000000E+00  0.00000000000E+00  0.50000000000E+02  0.50000000000E+02  0.00000000000E+00 0. -1.
        -11   -1    0    0    0    0 -0.00000000000E+00 -0.00000000000E+00 -0.50000000000E+02  0.50000000000E+02  0.00000000000E+00 0.  1.
         23    2    1    2    0    0  0.00000000000E+00  0.00000000000E+00  0.00000000000E+00  0.10000000000E+03  0.10000000000E+03 0.  0.
          5    1    3    3  501    0 -0.22814914945E+02 -0.78194895656E+01  0.43545898073E+02  0.50000000000E+02  0.47000000000E+01 0. -1.
         -5    1    3    3    0  501  0.22814914945E+02  0.78194895656E+01 -0.43545898073E+02  0.50000000000E+02  0.47000000000E+01 0.  1.
</event>
<event>
 5    1  0.8909620E-001  0.1000000E+03  0.7546771E-02  0.1163815E+00
         11   -1    0    0    0    0  0.00000000000E+00  0.00000000000E+00  0.50000000000E+02  0.50000000000E+02  0.00000000000E+00 0. -1.
        -11   -1    0    0    0    0 -0.00000000000E+00 -0.00000000000E+00 -0.50000000000E+02  0.50000000000E+02  0.00000000000E+00 0.  1.
         23    2    1    2    0    0  0.00000000000E+00  0.00000000000E+00  0.00000000000E+00  0.10000000000E+03  0.10000000000E+03 0.  0.
          5    1    3    3  501    0 -0.28343532061E+02 -0.33134432842E+01  0.40786949922E+02  0.50000000000E+02  0.47000000000E+01 0. -1.
         -5    1    3    3    0  501  0.28343532061E+02  0.33134432842E+01 -0.40786949922E+02  0.50000000000E+02  0.47000000000E+01 0.  1.
</event>
<event>
 5    1  0.8909620E-001  0.1000000E+03  0.7546771E-02  0.1163815E+00
         11   -1    0    0    0    0  0.00000000000E+00  0.00000000000E+00  0.50000000000E+02  0.50000000000E+02  0.00000000000E+00 0. -1.
        -11   -1    0    0    0    0 -0.00000000000E+00 -0.00000000000E+00 -0.50000000000E+02  0.50000000000E+02  0.00000000000E+00 0.  1.
         23    2    1    2    0    0  0.00000000000E+00  0.00000000000E+00  0.00000000000E+00  0.10000000000E+03  0.10000000000E+03 0.  0.
          5    1    3    3  501    0  0.10849667078E+02 -0.24005230561E+02  0.42236756859E+02  0.50000000000E+02  0.47000000000E+01 0. -1.
         -5    1    3    3    0  501 -0.10849667078E+02  0.24005230561E+02 -0.42236756859E+02  0.50000000000E+02  0.47000000000E+01 0.  1.
</event>
<event>
 5    1  0.8909620E-001  0.1000000E+03  0.7546771E-02  0.1163815E+00
         11   -1    0    0    0    0  0.00000000000E+00  0.00000000000E+00  0.50000000000E+02  0.50000000000E+02  0.00000000000E+00 0.  1.
        -11   -1    0    0    0    0 -0.00000000000E+00 -0.00000000000E+00 -0.50000000000E+02  0.50000000000E+02  0.00000000000E+00 0. -1.
         23    2    1    2    0    0  0.00000000000E+00  0.00000000000E+00  0.00000000000E+00  0.10000000000E+03  0.10000000000E+03 0.  0.
          5    1    3    3  501    0  0.27348424873E+02  0.11676543760E+02 -0.39920320424E+02  0.50000000000E+02  0.47000000000E+01 0. -1.
         -5    1    3    3    0  501 -0.27348424873E+02 -0.11676543760E+02  0.39920320424E+02  0.50000000000E+02  0.47000000000E+01 0.  1.
</event>
<event>
 5    1  0.8909620E-001  0.1000000E+03  0.7546771E-02  0.1163815E+00
         11   -1    0    0    0    0  0.00000000000E+00  0.00000000000E+00  0.50000000000E+02  0.50000000000E+02  0.00000000000E+00 0.  1.
        -11   -1    0    0    0    0 -0.00000000000E+00 -0.00000000000E+00 -0.50000000000E+02  0.50000000000E+02  0.00000000000E+00 0. -1.
         23    2    1    2    0    0  0.00000000000E+00  0.00000000000E+00  0.00000000000E+00  0.10000000000E+03  0.10000000000E+03 0.  0.
          5    1    3    3  501    0 -0.40948578785E+02 -0.26662943740E+02  0.94979643407E+01  0.50000000000E+02  0.47000000000E+01 0.  1.
         -5    1    3    3    0  501  0.40948578785E+02  0.26662943740E+02 -0.94979643407E+01  0.50000000000E+02  0.47000000000E+01 0. -1.
</event>
<event>
 5    1  0.8909620E-001  0.1000000E+03  0.7546771E-02  0.1163815E+00
         11   -1    0    0    0    0  0.00000000000E+00  0.00000000000E+00  0.50000000000E+02  0.50000000000E+02  0.00000000000E+00 0. -1.
        -11   -1    0    0    0    0 -0.00000000000E+00 -0.00000000000E+00 -0.50000000000E+02  0.50000000000E+02  0.00000000000E+00 0.  1.
         23    2    1    2    0    0  0.00000000000E+00  0.00000000000E+00  0.00000000000E+00  0.10000000000E+03  0.10000000000E+03 0.  0.
          5    1    3    3  501    0  0.28221140472E+02 -0.34223352026E+01  0.40862756297E+02  0.50000000000E+02  0.47000000000E+01 0. -1.
         -5    1    3    3    0  501 -0.28221140472E+02  0.34223352026E+01 -0.40862756297E+02  0.50000000000E+02  0.47000000000E+01 0.  1.
</event>
<event>
 5    1  0.8909620E-001  0.1000000E+03  0.7546771E-02  0.1163815E+00
         11   -1    0    0    0    0  0.00000000000E+00  0.00000000000E+00  0.50000000000E+02  0.50000000000E+02  0.00000000000E+00 0. -1.
        -11   -1    0    0    0    0 -0.00000000000E+00 -0.00000000000E+00 -0.50000000000E+02  0.50000000000E+02  0.00000000000E+00 0.  1.
         23    2    1    2    0    0  0.00000000000E+00  0.00000000000E+00  0.00000000000E+00  0.10000000000E+03  0.10000000000E+03 0.  0.
          5    1    3    3  501    0 -0.42268575768E+02 -0.12145929380E+01  0.26264087011E+02  0.50000000000E+02  0.47000000000E+01 0. -1.
         -5    1    3    3    0  501  0.42268575768E+02  0.12145929380E+01 -0.26264087011E+02  0.50000000000E+02  0.47000000000E+01 0.  1.
</event>
<event>
 5    1  0.8909620E-001  0.1000000E+03  0.7546771E-02  0.1163815E+00
         11   -1    0    0    0    0  0.00000000000E+00  0.00000000000E+00  0.50000000000E+02  0.50000000000E+02  0.00000000000E+00 0. -1.
        -11   -1    0    0    0    0 -0.00000000000E+00 -0.00000000000E+00 -0.50000000000E+02  0.50000000000E+02  0.00000000000E+00 0.  1.
         23    2    1    2    0    0  0.00000000000E+00  0.00000000000E+00  0.00000000000E+00  0.10000000000E+03  0.10000000000E+03 0.  0.
          5    1    3    3  501    0 -0.17404491757E+02  0.33772261027E+02 -0.32162525582E+02  0.50000000000E+02  0.47000000000E+01 0. -1.
         -5    1    3    3    0  501  0.17404491757E+02 -0.33772261027E+02  0.32162525582E+02  0.50000000000E+02  0.47000000000E+01 0.  1.
</event>
<event>
 5    1  0.8909620E-001  0.1000000E+03  0.7546771E-02  0.1163815E+00
         11   -1    0    0    0    0  0.00000000000E+00  0.00000000000E+00  0.50000000000E+02  0.50000000000E+02  0.00000000000E+00 0.  1.
        -11   -1    0    0    0    0 -0.00000000000E+00 -0.00000000000E+00 -0.50000000000E+02  0.50000000000E+02  0.00000000000E+00 0. -1.
         23    2    1    2    0    0  0.00000000000E+00  0.00000000000E+00  0.00000000000E+00  0.10000000000E+03  0.10000000000E+03 0.  0.
          5    1    3    3  501    0  0.38916185690E+02  0.13800299694E+02 -0.27802737630E+02  0.50000000000E+02  0.47000000000E+01 0. -1.
         -5    1    3    3    0  501 -0.38916185690E+02 -0.13800299694E+02  0.27802737630E+02  0.50000000000E+02  0.47000000000E+01 0.  1.
</event>
<event>
 5    1  0.8909620E-001  0.1000000E+03  0.7546771E-02  0.1163815E+00
         11   -1    0    0    0    0  0.00000000000E+00  0.00000000000E+00  0.50000000000E+02  0.50000000000E+02  0.00000000000E+00 0. -1.
        -11   -1    0    0    0    0 -0.00000000000E+00 -0.00000000000E+00 -0.50000000000E+02  0.50000000000E+02  0.00000000000E+00 0.  1.
         23    2    1    2    0    0  0.00000000000E+00  0.00000000000E+00  0.00000000000E+00  0.10000000000E+03  0.10000000000E+03 0.  0.
          5    1    3    3  501    0  0.41478228817E+02  0.25064396697E+02  0.11368489454E+02  0.50000000000E+02  0.47000000000E+01 0. -1.
         -5    1    3    3    0  501 -0.41478228817E+02 -0.25064396697E+02 -0.11368489454E+02  0.50000000000E+02  0.47000000000E+01 0.  1.
</event>
<event>
 5    1  0.8909620E-001  0.1000000E+03  0.7546771E-02  0.1163815E+00
         11   -1    0    0    0    0  0.00000000000E+00  0.00000000000E+00  0.50000000000E+02  0.50000000000E+02  0.00000000000E+00 0. -1.
        -11   -1    0    0    0    0 -0.00000000000E+00 -0.00000000000E+00 -0.50000000000E+02  0.50000000000E+02  0.00000000000E+00 0.  1.
         23    2    1    2    0    0  0.00000000000E+00  0.00000000000E+00  0.00000000000E+00  0.10000000000E+03  0.10000000000E+03 0.  0.
          5    1    3    3  501    0 -0.25409074428E+02  0.13686757200E+02  0.40558126363E+02  0.50000000000E+02  0.47000000000E+01 0. -1.
         -5    1    3    3    0  501  0.25409074428E+02 -0.13686757200E+02 -0.40558126363E+02  0.50000000000E+02  0.47000000000E+01 0.  1.
</event>
<event>
 5    1  0.8909620E-001  0.1000000E+03  0.7546771E-02  0.1163815E+00
         11   -1    0    0    0    0  0.00000000000E+00  0.00000000000E+00  0.50000000000E+02  0.50000000000E+02  0.00000000000E+00 0.  1.
        -11   -1    0    0    0    0 -0.00000000000E+00 -0.00000000000E+00 -0.50000000000E+02  0.50000000000E+02  0.00000000000E+00 0. -1.
         23    2    1    2    0    0  0.00000000000E+00  0.00000000000E+00  0.00000000000E+00  0.10000000000E+03  0.10000000000E+03 0.  0.
          5    1    3    3  501    0  0.35501591119E+02  0.16670132576E+02 -0.30653771512E+02  0.50000000000E+02  0.47000000000E+01 0. -1.
         -5    1    3    3    0  501 -0.35501591119E+02 -0.16670132576E+02  0.30653771512E+02  0.50000000000E+02  0.47000000000E+01 0.  1.
</event>
<event>
 5    1  0.8909620E-001  0.1000000E+03  0.7546771E-02  0.1163815E+00
         11   -1    0    0    0    0  0.00000000000E+00  0.00000000000E+00  0.50000000000E+02  0.50000000000E+02  0.00000000000E+00 0.  1.
        -11   -1    0    0    0    0 -0.00000000000E+00 -0.00000000000E+00 -0.50000000000E+02  0.50000000000E+02  0.00000000000E+00 0. -1.
         23    2    1    2    0    0  0.00000000000E+00  0.00000000000E+00  0.00000000000E+00  0.10000000000E+03  0.10000000000E+03 0.  0.
          5    1    3    3  501    0 -0.63522377230E+01  0.25429740830E+02 -0.42318877079E+02  0.50000000000E+02  0.47000000000E+01 0. -1.
         -5    1    3    3    0  501  0.63522377230E+01 -0.25429740830E+02  0.42318877079E+02  0.50000000000E+02  0.47000000000E+01 0.  1.
</event>
<event>
 5    1  0.8909620E-001  0.1000000E+03  0.7546771E-02  0.1163815E+00
         11   -1    0    0    0    0  0.00000000000E+00  0.00000000000E+00  0.50000000000E+02  0.50000000000E+02  0.00000000000E+00 0.  1.
        -11   -1    0    0    0    0 -0.00000000000E+00 -0.00000000000E+00 -0.50000000000E+02  0.50000000000E+02  0.00000000000E+00 0. -1.
         23    2    1    2    0    0  0.00000000000E+00  0.00000000000E+00  0.00000000000E+00  0.10000000000E+03  0.10000000000E+03 0.  0.
          5    1    3    3  501    0 -0.45524049103E+02  0.20134093683E+02 -0.29870518703E+00  0.50000000000E+02  0.47000000000E+01 0. -1.
         -5    1    3    3    0  501  0.45524049103E+02 -0.20134093683E+02  0.29870518703E+00  0.50000000000E+02  0.47000000000E+01 0.  1.
</event>
<event>
 5    1  0.8909620E-001  0.1000000E+03  0.7546771E-02  0.1163815E+00
         11   -1    0    0    0    0  0.00000000000E+00  0.00000000000E+00  0.50000000000E+02  0.50000000000E+02  0.00000000000E+00 0. -1.
        -11   -1    0    0    0    0 -0.00000000000E+00 -0.00000000000E+00 -0.50000000000E+02  0.50000000000E+02  0.00000000000E+00 0.  1.
         23    2    1    2    0    0  0.00000000000E+00  0.00000000000E+00  0.00000000000E+00  0.10000000000E+03  0.10000000000E+03 0.  0.
          5    1    3    3  501    0  0.35724152796E+02  0.25761379973E+02  0.23195823091E+02  0.50000000000E+02  0.47000000000E+01 0. -1.
         -5    1    3    3    0  501 -0.35724152796E+02 -0.25761379973E+02 -0.23195823091E+02  0.50000000000E+02  0.47000000000E+01 0.  1.
</event>
<event>
 5    1  0.8909620E-001  0.1000000E+03  0.7546771E-02  0.1163815E+00
         11   -1    0    0    0    0  0.00000000000E+00  0.00000000000E+00  0.50000000000E+02  0.50000000000E+02  0.00000000000E+00 0.  1.
        -11   -1    0    0    0    0 -0.00000000000E+00 -0.00000000000E+00 -0.50000000000E+02  0.50000000000E+02  0.00000000000E+00 0. -1.
         23    2    1    2    0    0  0.00000000000E+00  0.00000000000E+00  0.00000000000E+00  0.10000000000E+03  0.10000000000E+03 0.  0.
          5    1    3    3  501    0  0.69357101686E+01  0.43264412447E+02 -0.23621950387E+02  0.50000000000E+02  0.47000000000E+01 0. -1.
         -5    1    3    3    0  501 -0.69357101686E+01 -0.43264412447E+02  0.23621950387E+02  0.50000000000E+02  0.47000000000E+01 0.  1.
</event>
<event>
 5    1  0.8909620E-001  0.1000000E+03  0.7546771E-02  0.1163815E+00
         11   -1    0    0    0    0  0.00000000000E+00  0.00000000000E+00  0.50000000000E+02  0.50000000000E+02  0.00000000000E+00 0. -1.
        -11   -1    0    0    0    0 -0.00000000000E+00 -0.00000000000E+00 -0.50000000000E+02  0.50000000000E+02  0.00000000000E+00 0.  1.
         23    2    1    2    0    0  0.00000000000E+00  0.00000000000E+00  0.00000000000E+00  0.10000000000E+03  0.10000000000E+03 0.  0.
          5    1    3    3  501    0  0.33215465327E+02  0.37057807240E+02  0.11669557384E+01  0.50000000000E+02  0.47000000000E+01 0. -1.
         -5    1    3    3    0  501 -0.33215465327E+02 -0.37057807240E+02 -0.11669557384E+01  0.50000000000E+02  0.47000000000E+01 0.  1.
</event>
<event>
 5    1  0.8909620E-001  0.1000000E+03  0.7546771E-02  0.1163815E+00
         11   -1    0    0    0    0  0.00000000000E+00  0.00000000000E+00  0.50000000000E+02  0.50000000000E+02  0.00000000000E+00 0. -1.
        -11   -1    0    0    0    0 -0.00000000000E+00 -0.00000000000E+00 -0.50000000000E+02  0.50000000000E+02  0.00000000000E+00 0.  1.
         23    2    1    2    0    0  0.00000000000E+00  0.00000000000E+00  0.00000000000E+00  0.10000000000E+03  0.10000000000E+03 0.  0.
          5    1    3    3  501    0 -0.46522742163E+02  0.12950716672E+02  0.12075735972E+02  0.50000000000E+02  0.47000000000E+01 0. -1.
         -5    1    3    3    0  501  0.46522742163E+02 -0.12950716672E+02 -0.12075735972E+02  0.50000000000E+02  0.47000000000E+01 0.  1.
</event>
<event>
 5    1  0.8909620E-001  0.1000000E+03  0.7546771E-02  0.1163815E+00
         11   -1    0    0    0    0  0.00000000000E+00  0.00000000000E+00  0.50000000000E+02  0.50000000000E+02  0.00000000000E+00 0. -1.
        -11   -1    0    0    0    0 -0.00000000000E+00 -0.00000000000E+00 -0.50000000000E+02  0.50000000000E+02  0.00000000000E+00 0.  1.
         23    2    1    2    0    0  0.00000000000E+00  0.00000000000E+00  0.00000000000E+00  0.10000000000E+03  0.10000000000E+03 0.  0.
          5    1    3    3  501    0  0.25635082828E+02  0.38217478930E+02  0.18978325337E+02  0.50000000000E+02  0.47000000000E+01 0. -1.
         -5    1    3    3    0  501 -0.25635082828E+02 -0.38217478930E+02 -0.18978325337E+02  0.50000000000E+02  0.47000000000E+01 0.  1.
</event>
<event>
 5    1  0.8909620E-001  0.1000000E+03  0.7546771E-02  0.1163815E+00
         11   -1    0    0    0    0  0.00000000000E+00  0.00000000000E+00  0.50000000000E+02  0.50000000000E+02  0.00000000000E+00 0. -1.
        -11   -1    0    0    0    0 -0.00000000000E+00 -0.00000000000E+00 -0.50000000000E+02  0.50000000000E+02  0.00000000000E+00 0.  1.
         23    2    1    2    0    0  0.00000000000E+00  0.00000000000E+00  0.00000000000E+00  0.10000000000E+03  0.10000000000E+03 0.  0.
          5    1    3    3  501    0 -0.34245586679E+02 -0.64673320445E+01  0.35543261094E+02  0.50000000000E+02  0.47000000000E+01 0. -1.
         -5    1    3    3    0  501  0.34245586679E+02  0.64673320445E+01 -0.35543261094E+02  0.50000000000E+02  0.47000000000E+01 0.  1.
</event>
<event>
 5    1  0.8909620E-001  0.1000000E+03  0.7546771E-02  0.1163815E+00
         11   -1    0    0    0    0  0.00000000000E+00  0.00000000000E+00  0.50000000000E+02  0.50000000000E+02  0.00000000000E+00 0. -1.
        -11   -1    0    0    0    0 -0.00000000000E+00 -0.00000000000E+00 -0.50000000000E+02  0.50000000000E+02  0.00000000000E+00 0.  1.
         23    2    1    2    0    0  0.00000000000E+00  0.00000000000E+00  0.00000000000E+00  0.10000000000E+03  0.10000000000E+03 0.  0.
          5    1    3    3  501    0 -0.14659539806E+02  0.11643975087E+02  0.46124025592E+02  0.50000000000E+02  0.47000000000E+01 0. -1.
         -5    1    3    3    0  501  0.14659539806E+02 -0.11643975087E+02 -0.46124025592E+02  0.50000000000E+02  0.47000000000E+01 0.  1.
</event>
<event>
 5    1  0.8909620E-001  0.1000000E+03  0.7546771E-02  0.1163815E+00
         11   -1    0    0    0    0  0.00000000000E+00  0.00000000000E+00  0.50000000000E+02  0.50000000000E+02  0.00000000000E+00 0. -1.
        -11   -1    0    0    0    0 -0.00000000000E+00 -0.00000000000E+00 -0.50000000000E+02  0.50000000000E+02  0.00000000000E+00 0.  1.
         23    2    1    2    0    0  0.00000000000E+00  0.00000000000E+00  0.00000000000E+00  0.10000000000E+03  0.10000000000E+03 0.  0.
          5    1    3    3  501    0 -0.13605244967E+02  0.36788942688E+01  0.47741732754E+02  0.50000000000E+02  0.47000000000E+01 0. -1.
         -5    1    3    3    0  501  0.13605244967E+02 -0.36788942688E+01 -0.47741732754E+02  0.50000000000E+02  0.47000000000E+01 0.  1.
</event>
<event>
 5    1  0.8909620E-001  0.1000000E+03  0.7546771E-02  0.1163815E+00
         11   -1    0    0    0    0  0.00000000000E+00  0.00000000000E+00  0.50000000000E+02  0.50000000000E+02  0.00000000000E+00 0.  1.
        -11   -1    0    0    0    0 -0.00000000000E+00 -0.00000000000E+00 -0.50000000000E+02  0.50000000000E+02  0.00000000000E+00 0. -1.
         23    2    1    2    0    0  0.00000000000E+00  0.00000000000E+00  0.00000000000E+00  0.10000000000E+03  0.10000000000E+03 0.  0.
          5    1    3    3  501    0 -0.18792973467E+02  0.25556425970E+02 -0.38361481201E+02  0.50000000000E+02  0.47000000000E+01 0. -1.
         -5    1    3    3    0  501  0.18792973467E+02 -0.25556425970E+02  0.38361481201E+02  0.50000000000E+02  0.47000000000E+01 0.  1.
</event>
<event>
 5    1  0.8909620E-001  0.1000000E+03  0.7546771E-02  0.1163815E+00
         11   -1    0    0    0    0  0.00000000000E+00  0.00000000000E+00  0.50000000000E+02  0.50000000000E+02  0.00000000000E+00 0. -1.
        -11   -1    0    0    0    0 -0.00000000000E+00 -0.00000000000E+00 -0.50000000000E+02  0.50000000000E+02  0.00000000000E+00 0.  1.
         23    2    1    2    0    0  0.00000000000E+00  0.00000000000E+00  0.00000000000E+00  0.10000000000E+03  0.10000000000E+03 0.  0.
          5    1    3    3  501    0  0.32930034096E+02  0.19881083215E+02  0.31595338020E+02  0.50000000000E+02  0.47000000000E+01 0. -1.
         -5    1    3    3    0  501 -0.32930034096E+02 -0.19881083215E+02 -0.31595338020E+02  0.50000000000E+02  0.47000000000E+01 0.  1.
</event>
<event>
 5    1  0.8909620E-001  0.1000000E+03  0.7546771E-02  0.1163815E+00
         11   -1    0    0    0    0  0.00000000000E+00  0.00000000000E+00  0.50000000000E+02  0.50000000000E+02  0.00000000000E+00 0.  1.
        -11   -1    0    0    0    0 -0.00000000000E+00 -0.00000000000E+00 -0.50000000000E+02  0.50000000000E+02  0.00000000000E+00 0. -1.
         23    2    1    2    0    0  0.00000000000E+00  0.00000000000E+00  0.00000000000E+00  0.10000000000E+03  0.10000000000E+03 0.  0.
          5    1    3    3  501    0 -0.48030662254E+02 -0.12828760267E+02 -0.25275271373E+01  0.50000000000E+02  0.47000000000E+01 0. -1.
         -5    1    3    3    0  501  0.48030662254E+02  0.12828760267E+02  0.25275271373E+01  0.50000000000E+02  0.47000000000E+01 0.  1.
</event>
<event>
 5    1  0.8909620E-001  0.1000000E+03  0.7546771E-02  0.1163815E+00
         11   -1    0    0    0    0  0.00000000000E+00  0.00000000000E+00  0.50000000000E+02  0.50000000000E+02  0.00000000000E+00 0.  1.
        -11   -1    0    0    0    0 -0.00000000000E+00 -0.00000000000E+00 -0.50000000000E+02  0.50000000000E+02  0.00000000000E+00 0. -1.
         23    2    1    2    0    0  0.00000000000E+00  0.00000000000E+00  0.00000000000E+00  0.10000000000E+03  0.10000000000E+03 0.  0.
          5    1    3    3  501    0  0.21741757340E+02  0.35601228551E+02 -0.27161710429E+02  0.50000000000E+02  0.47000000000E+01 0. -1.
         -5    1    3    3    0  501 -0.21741757340E+02 -0.35601228551E+02  0.27161710429E+02  0.50000000000E+02  0.47000000000E+01 0.  1.
</event>
<event>
 5    1  0.8909620E-001  0.1000000E+03  0.7546771E-02  0.1163815E+00
         11   -1    0    0    0    0  0.00000000000E+00  0.00000000000E+00  0.50000000000E+02  0.50000000000E+02  0.00000000000E+00 0.  1.
        -11   -1    0    0    0    0 -0.00000000000E+00 -0.00000000000E+00 -0.50000000000E+02  0.50000000000E+02  0.00000000000E+00 0. -1.
         23    2    1    2    0    0  0.00000000000E+00  0.00000000000E+00  0.00000000000E+00  0.10000000000E+03  0.10000000000E+03 0.  0.
          5    1    3    3  501    0  0.73771433554E+01  0.43363284415E+01 -0.49037577546E+02  0.50000000000E+02  0.47000000000E+01 0. -1.
         -5    1    3    3    0  501 -0.73771433554E+01 -0.43363284415E+01  0.49037577546E+02  0.50000000000E+02  0.47000000000E+01 0.  1.
</event>
<event>
 5    1  0.8909620E-001  0.1000000E+03  0.7546771E-02  0.1163815E+00
         11   -1    0    0    0    0  0.00000000000E+00  0.00000000000E+00  0.50000000000E+02  0.50000000000E+02  0.00000000000E+00 0.  1.
        -11   -1    0    0    0    0 -0.00000000000E+00 -0.00000000000E+00 -0.50000000000E+02  0.50000000000E+02  0.00000000000E+00 0. -1.
         23    2    1    2    0    0  0.00000000000E+00  0.00000000000E+00  0.00000000000E+00  0.10000000000E+03  0.10000000000E+03 0.  0.
          5    1    3    3  501    0 -0.45629519663E+02 -0.10589181251E+02  0.16844173347E+02  0.50000000000E+02  0.47000000000E+01 0.  1.
         -5    1    3    3    0  501  0.45629519663E+02  0.10589181251E+02 -0.16844173347E+02  0.50000000000E+02  0.47000000000E+01 0. -1.
</event>
<event>
 5    1  0.8909620E-001  0.1000000E+03  0.7546771E-02  0.1163815E+00
         11   -1    0    0    0    0  0.00000000000E+00  0.00000000000E+00  0.50000000000E+02  0.50000000000E+02  0.00000000000E+00 0. -1.
        -11   -1    0    0    0    0 -0.00000000000E+00 -0.00000000000E+00 -0.50000000000E+02  0.50000000000E+02  0.00000000000E+00 0.  1.
         23    2    1    2    0    0  0.00000000000E+00  0.00000000000E+00  0.00000000000E+00  0.10000000000E+03  0.10000000000E+03 0.  0.
          5    1    3    3  501    0  0.44688909066E+02  0.76849284762E+01  0.20536632655E+02  0.50000000000E+02  0.47000000000E+01 0. -1.
         -5    1    3    3    0  501 -0.44688909066E+02 -0.76849284762E+01 -0.20536632655E+02  0.50000000000E+02  0.47000000000E+01 0.  1.
</event>
<event>
 5    1  0.8909620E-001  0.1000000E+03  0.7546771E-02  0.1163815E+00
         11   -1    0    0    0    0  0.00000000000E+00  0.00000000000E+00  0.50000000000E+02  0.50000000000E+02  0.00000000000E+00 0. -1.
        -11   -1    0    0    0    0 -0.00000000000E+00 -0.00000000000E+00 -0.50000000000E+02  0.50000000000E+02  0.00000000000E+00 0.  1.
         23    2    1    2    0    0  0.00000000000E+00  0.00000000000E+00  0.00000000000E+00  0.10000000000E+03  0.10000000000E+03 0.  0.
          5    1    3    3  501    0 -0.26653549966E+02 -0.24720257380E-01  0.42041618227E+02  0.50000000000E+02  0.47000000000E+01 0. -1.
         -5    1    3    3    0  501  0.26653549966E+02  0.24720257380E-01 -0.42041618227E+02  0.50000000000E+02  0.47000000000E+01 0.  1.
</event>
<event>
 5    1  0.8909620E-001  0.1000000E+03  0.7546771E-02  0.1163815E+00
         11   -1    0    0    0    0  0.00000000000E+00  0.00000000000E+00  0.50000000000E+02  0.50000000000E+02  0.00000000000E+00 0. -1.
        -11   -1    0    0    0    0 -0.00000000000E+00 -0.00000000000E+00 -0.50000000000E+02  0.50000000000E+02  0.00000000000E+00 0.  1.
         23    2    1    2    0    0  0.00000000000E+00  0.00000000000E+00  0.00000000000E+00  0.10000000000E+03  0.10000000000E+03 0.  0.
          5    1    3    3  501    0 -0.20085904693E+02 -0.32353544474E+01  0.45431254817E+02  0.50000000000E+02  0.47000000000E+01 0. -1.
         -5    1    3    3    0  501  0.20085904693E+02  0.32353544474E+01 -0.45431254817E+02  0.50000000000E+02  0.47000000000E+01 0.  1.
</event>
<event>
 5    1  0.8909620E-001  0.1000000E+03  0.7546771E-02  0.1163815E+00
         11   -1    0    0    0    0  0.00000000000E+00  0.00000000000E+00  0.50000000000E+02  0.50000000000E+02  0.00000000000E+00 0. -1.
        -11   -1    0    0    0    0 -0.00000000000E+00 -0.00000000000E+00 -0.50000000000E+02  0.50000000000E+02  0.00000000000E+00 0.  1.
         23    2    1    2    0    0  0.00000000000E+00  0.00000000000E+00  0.00000000000E+00  0.10000000000E+03  0.10000000000E+03 0.  0.
          5    1    3    3  501    0  0.16772833525E+02  0.37473249895E+02  0.28148491928E+02  0.50000000000E+02  0.47000000000E+01 0. -1.
         -5    1    3    3    0  501 -0.16772833525E+02 -0.37473249895E+02 -0.28148491928E+02  0.50000000000E+02  0.47000000000E+01 0.  1.
</event>
<event>
 5    1  0.8909620E-001  0.1000000E+03  0.7546771E-02  0.1163815E+00
         11   -1    0    0    0    0  0.00000000000E+00  0.00000000000E+00  0.50000000000E+02  0.50000000000E+02  0.00000000000E+00 0. -1.
        -11   -1    0    0    0    0 -0.00000000000E+00 -0.00000000000E+00 -0.50000000000E+02  0.50000000000E+02  0.00000000000E+00 0.  1.
         23    2    1    2    0    0  0.00000000000E+00  0.00000000000E+00  0.00000000000E+00  0.10000000000E+03  0.10000000000E+03 0.  0.
          5    1    3    3  501    0 -0.41791121796E+02 -0.20025603147E+02  0.18176560666E+02  0.50000000000E+02  0.47000000000E+01 0. -1.
         -5    1    3    3    0  501  0.41791121796E+02  0.20025603147E+02 -0.18176560666E+02  0.50000000000E+02  0.47000000000E+01 0.  1.
</event>
<event>
 5    1  0.8909620E-001  0.1000000E+03  0.7546771E-02  0.1163815E+00
         11   -1    0    0    0    0  0.00000000000E+00  0.00000000000E+00  0.50000000000E+02  0.50000000000E+02  0.00000000000E+00 0. -1.
        -11   -1    0    0    0    0 -0.00000000000E+00 -0.00000000000E+00 -0.50000000000E+02  0.50000000000E+02  0.00000000000E+00 0.  1.
         23    2    1    2    0    0  0.00000000000E+00  0.00000000000E+00  0.00000000000E+00  0.10000000000E+03  0.10000000000E+03 0.  0.
          5    1    3    3  501    0  0.14378058345E+01 -0.49538441099E+02 -0.46675012401E+01  0.50000000000E+02  0.47000000000E+01 0. -1.
         -5    1    3    3    0  501 -0.14378058345E+01  0.49538441099E+02  0.46675012401E+01  0.50000000000E+02  0.47000000000E+01 0.  1.
</event>
<event>
 5    1  0.8909620E-001  0.1000000E+03  0.7546771E-02  0.1163815E+00
         11   -1    0    0    0    0  0.00000000000E+00  0.00000000000E+00  0.50000000000E+02  0.50000000000E+02  0.00000000000E+00 0. -1.
        -11   -1    0    0    0    0 -0.00000000000E+00 -0.00000000000E+00 -0.50000000000E+02  0.50000000000E+02  0.00000000000E+00 0.  1.
         23    2    1    2    0    0  0.00000000000E+00  0.00000000000E+00  0.00000000000E+00  0.10000000000E+03  0.10000000000E+03 0.  0.
          5    1    3    3  501    0 -0.35461484607E+02  0.70471960101E+00  0.34927016473E+02  0.50000000000E+02  0.47000000000E+01 0. -1.
         -5    1    3    3    0  501  0.35461484607E+02 -0.70471960101E+00 -0.34927016473E+02  0.50000000000E+02  0.47000000000E+01 0.  1.
</event>
<event>
 5    1  0.8909620E-001  0.1000000E+03  0.7546771E-02  0.1163815E+00
         11   -1    0    0    0    0  0.00000000000E+00  0.00000000000E+00  0.50000000000E+02  0.50000000000E+02  0.00000000000E+00 0.  1.
        -11   -1    0    0    0    0 -0.00000000000E+00 -0.00000000000E+00 -0.50000000000E+02  0.50000000000E+02  0.00000000000E+00 0. -1.
         23    2    1    2    0    0  0.00000000000E+00  0.00000000000E+00  0.00000000000E+00  0.10000000000E+03  0.10000000000E+03 0.  0.
          5    1    3    3  501    0  0.20255982148E+02 -0.46295593021E+01 -0.45234636816E+02  0.50000000000E+02  0.47000000000E+01 0. -1.
         -5    1    3    3    0  501 -0.20255982148E+02  0.46295593021E+01  0.45234636816E+02  0.50000000000E+02  0.47000000000E+01 0.  1.
</event>
<event>
 5    1  0.8909620E-001  0.1000000E+03  0.7546771E-02  0.1163815E+00
         11   -1    0    0    0    0  0.00000000000E+00  0.00000000000E+00  0.50000000000E+02  0.50000000000E+02  0.00000000000E+00 0. -1.
        -11   -1    0    0    0    0 -0.00000000000E+00 -0.00000000000E+00 -0.50000000000E+02  0.50000000000E+02  0.00000000000E+00 0.  1.
         23    2    1    2    0    0  0.00000000000E+00  0.00000000000E+00  0.00000000000E+00  0.10000000000E+03  0.10000000000E+03 0.  0.
          5    1    3    3  501    0 -0.31096999614E+02  0.25233490043E+02  0.29566156248E+02  0.50000000000E+02  0.47000000000E+01 0. -1.
         -5    1    3    3    0  501  0.31096999614E+02 -0.25233490043E+02 -0.29566156248E+02  0.50000000000E+02  0.47000000000E+01 0.  1.
</event>
<event>
 5    1  0.8909620E-001  0.1000000E+03  0.7546771E-02  0.1163815E+00
         11   -1    0    0    0    0  0.00000000000E+00  0.00000000000E+00  0.50000000000E+02  0.50000000000E+02  0.00000000000E+00 0. -1.
        -11   -1    0    0    0    0 -0.00000000000E+00 -0.00000000000E+00 -0.50000000000E+02  0.50000000000E+02  0.00000000000E+00 0.  1.
         23    2    1    2    0    0  0.00000000000E+00  0.00000000000E+00  0.00000000000E+00  0.10000000000E+03  0.10000000000E+03 0.  0.
          5    1    3    3  501    0 -0.34491461931E+02 -0.16474303893E+02  0.31888028555E+02  0.50000000000E+02  0.47000000000E+01 0. -1.
         -5    1    3    3    0  501  0.34491461931E+02  0.16474303893E+02 -0.31888028555E+02  0.50000000000E+02  0.47000000000E+01 0.  1.
</event>
<event>
 5    1  0.8909620E-001  0.1000000E+03  0.7546771E-02  0.1163815E+00
         11   -1    0    0    0    0  0.00000000000E+00  0.00000000000E+00  0.50000000000E+02  0.50000000000E+02  0.00000000000E+00 0. -1.
        -11   -1    0    0    0    0 -0.00000000000E+00 -0.00000000000E+00 -0.50000000000E+02  0.50000000000E+02  0.00000000000E+00 0.  1.
         23    2    1    2    0    0  0.00000000000E+00  0.00000000000E+00  0.00000000000E+00  0.10000000000E+03  0.10000000000E+03 0.  0.
          5    1    3    3  501    0  0.18658316586E+02 -0.46018043843E+02  0.34809284719E+01  0.50000000000E+02  0.47000000000E+01 0. -1.
         -5    1    3    3    0  501 -0.18658316586E+02  0.46018043843E+02 -0.34809284719E+01  0.50000000000E+02  0.47000000000E+01 0.  1.
</event>
<event>
 5    1  0.8909620E-001  0.1000000E+03  0.7546771E-02  0.1163815E+00
         11   -1    0    0    0    0  0.00000000000E+00  0.00000000000E+00  0.50000000000E+02  0.50000000000E+02  0.00000000000E+00 0. -1.
        -11   -1    0    0    0    0 -0.00000000000E+00 -0.00000000000E+00 -0.50000000000E+02  0.50000000000E+02  0.00000000000E+00 0.  1.
         23    2    1    2    0    0  0.00000000000E+00  0.00000000000E+00  0.00000000000E+00  0.10000000000E+03  0.10000000000E+03 0.  0.
          5    1    3    3  501    0  0.37372187474E+01  0.18194078456E+02  0.46183532835E+02  0.50000000000E+02  0.47000000000E+01 0. -1.
         -5    1    3    3    0  501 -0.37372187474E+01 -0.18194078456E+02 -0.46183532835E+02  0.50000000000E+02  0.47000000000E+01 0.  1.
</event>
<event>
 5    1  0.8909620E-001  0.1000000E+03  0.7546771E-02  0.1163815E+00
         11   -1    0    0    0    0  0.00000000000E+00  0.00000000000E+00  0.50000000000E+02  0.50000000000E+02  0.00000000000E+00 0. -1.
        -11   -1    0    0    0    0 -0.00000000000E+00 -0.00000000000E+00 -0.50000000000E+02  0.50000000000E+02  0.00000000000E+00 0.  1.
         23    2    1    2    0    0  0.00000000000E+00  0.00000000000E+00  0.00000000000E+00  0.10000000000E+03  0.10000000000E+03 0.  0.
          5    1    3    3  501    0 -0.18325962941E+02  0.21426594285E+02  0.41024019058E+02  0.50000000000E+02  0.47000000000E+01 0. -1.
         -5    1    3    3    0  501  0.18325962941E+02 -0.21426594285E+02 -0.41024019058E+02  0.50000000000E+02  0.47000000000E+01 0.  1.
</event>
<event>
 5    1  0.8909620E-001  0.1000000E+03  0.7546771E-02  0.1163815E+00
         11   -1    0    0    0    0  0.00000000000E+00  0.00000000000E+00  0.50000000000E+02  0.50000000000E+02  0.00000000000E+00 0.  1.
        -11   -1    0    0    0    0 -0.00000000000E+00 -0.00000000000E+00 -0.50000000000E+02  0.50000000000E+02  0.00000000000E+00 0. -1.
         23    2    1    2    0    0  0.00000000000E+00  0.00000000000E+00  0.00000000000E+00  0.10000000000E+03  0.10000000000E+03 0.  0.
          5    1    3    3  501    0 -0.40007184531E+02  0.29552112496E+02 -0.20019572769E+01  0.50000000000E+02  0.47000000000E+01 0. -1.
         -5    1    3    3    0  501  0.40007184531E+02 -0.29552112496E+02  0.20019572769E+01  0.50000000000E+02  0.47000000000E+01 0.  1.
</event>
<event>
 5    1  0.8909620E-001  0.1000000E+03  0.7546771E-02  0.1163815E+00
         11   -1    0    0    0    0  0.00000000000E+00  0.00000000000E+00  0.50000000000E+02  0.50000000000E+02  0.00000000000E+00 0. -1.
        -11   -1    0    0    0    0 -0.00000000000E+00 -0.00000000000E+00 -0.50000000000E+02  0.50000000000E+02  0.00000000000E+00 0.  1.
         23    2    1    2    0    0  0.00000000000E+00  0.00000000000E+00  0.00000000000E+00  0.10000000000E+03  0.10000000000E+03 0.  0.
          5    1    3    3  501    0  0.20290846102E+02 -0.41153032508E+02  0.19303354109E+02  0.50000000000E+02  0.47000000000E+01 0. -1.
         -5    1    3    3    0  501 -0.20290846102E+02  0.41153032508E+02 -0.19303354109E+02  0.50000000000E+02  0.47000000000E+01 0.  1.
</event>
<event>
 5    1  0.8909620E-001  0.1000000E+03  0.7546771E-02  0.1163815E+00
         11   -1    0    0    0    0  0.00000000000E+00  0.00000000000E+00  0.50000000000E+02  0.50000000000E+02  0.00000000000E+00 0.  1.
        -11   -1    0    0    0    0 -0.00000000000E+00 -0.00000000000E+00 -0.50000000000E+02  0.50000000000E+02  0.00000000000E+00 0. -1.
         23    2    1    2    0    0  0.00000000000E+00  0.00000000000E+00  0.00000000000E+00  0.10000000000E+03  0.10000000000E+03 0.  0.
          5    1    3    3  501    0  0.32895233235E+02 -0.18973638187E+02 -0.32184075012E+02  0.50000000000E+02  0.47000000000E+01 0. -1.
         -5    1    3    3    0  501 -0.32895233235E+02  0.18973638187E+02  0.32184075012E+02  0.50000000000E+02  0.47000000000E+01 0.  1.
</event>
<event>
 5    1  0.8909620E-001  0.1000000E+03  0.7546771E-02  0.1163815E+00
         11   -1    0    0    0    0  0.00000000000E+00  0.00000000000E+00  0.50000000000E+02  0.50000000000E+02  0.00000000000E+00 0. -1.
        -11   -1    0    0    0    0 -0.00000000000E+00 -0.00000000000E+00 -0.50000000000E+02  0.50000000000E+02  0.00000000000E+00 0.  1.
         23    2    1    2    0    0  0.00000000000E+00  0.00000000000E+00  0.00000000000E+00  0.10000000000E+03  0.10000000000E+03 0.  0.
          5    1    3    3  501    0  0.92973935456E+01 -0.54658047595E+01  0.48596228780E+02  0.50000000000E+02  0.47000000000E+01 0. -1.
         -5    1    3    3    0  501 -0.92973935456E+01  0.54658047595E+01 -0.48596228780E+02  0.50000000000E+02  0.47000000000E+01 0.  1.
</event>
<event>
 5    1  0.8909620E-001  0.1000000E+03  0.7546771E-02  0.1163815E+00
         11   -1    0    0    0    0  0.00000000000E+00  0.00000000000E+00  0.50000000000E+02  0.50000000000E+02  0.00000000000E+00 0.  1.
        -11   -1    0    0    0    0 -0.00000000000E+00 -0.00000000000E+00 -0.50000000000E+02  0.50000000000E+02  0.00000000000E+00 0. -1.
         23    2    1    2    0    0  0.00000000000E+00  0.00000000000E+00  0.00000000000E+00  0.10000000000E+03  0.10000000000E+03 0.  0.
          5    1    3    3  501    0 -0.62188915321E+01 -0.46866306756E+02 -0.15581549319E+02  0.50000000000E+02  0.47000000000E+01 0. -1.
         -5    1    3    3    0  501  0.62188915321E+01  0.46866306756E+02  0.15581549319E+02  0.50000000000E+02  0.47000000000E+01 0.  1.
</event>
<event>
 5    1  0.8909620E-001  0.1000000E+03  0.7546771E-02  0.1163815E+00
         11   -1    0    0    0    0  0.00000000000E+00  0.00000000000E+00  0.50000000000E+02  0.50000000000E+02  0.00000000000E+00 0. -1.
        -11   -1    0    0    0    0 -0.00000000000E+00 -0.00000000000E+00 -0.50000000000E+02  0.50000000000E+02  0.00000000000E+00 0.  1.
         23    2    1    2    0    0  0.00000000000E+00  0.00000000000E+00  0.00000000000E+00  0.10000000000E+03  0.10000000000E+03 0.  0.
          5    1    3    3  501    0  0.45188846251E+02 -0.19619441449E+02 -0.71383255550E+01  0.50000000000E+02  0.47000000000E+01 0. -1.
         -5    1    3    3    0  501 -0.45188846251E+02  0.19619441449E+02  0.71383255550E+01  0.50000000000E+02  0.47000000000E+01 0.  1.
</event>
<event>
 5    1  0.8909620E-001  0.1000000E+03  0.7546771E-02  0.1163815E+00
         11   -1    0    0    0    0  0.00000000000E+00  0.00000000000E+00  0.50000000000E+02  0.50000000000E+02  0.00000000000E+00 0.  1.
        -11   -1    0    0    0    0 -0.00000000000E+00 -0.00000000000E+00 -0.50000000000E+02  0.50000000000E+02  0.00000000000E+00 0. -1.
         23    2    1    2    0    0  0.00000000000E+00  0.00000000000E+00  0.00000000000E+00  0.10000000000E+03  0.10000000000E+03 0.  0.
          5    1    3    3  501    0 -0.73124016049E+01  0.44402981893E+02  0.21279426256E+02  0.50000000000E+02  0.47000000000E+01 0. -1.
         -5    1    3    3    0  501  0.73124016049E+01 -0.44402981893E+02 -0.21279426256E+02  0.50000000000E+02  0.47000000000E+01 0.  1.
</event>
<event>
 5    1  0.8909620E-001  0.1000000E+03  0.7546771E-02  0.1163815E+00
         11   -1    0    0    0    0  0.00000000000E+00  0.00000000000E+00  0.50000000000E+02  0.50000000000E+02  0.00000000000E+00 0. -1.
        -11   -1    0    0    0    0 -0.00000000000E+00 -0.00000000000E+00 -0.50000000000E+02  0.50000000000E+02  0.00000000000E+00 0.  1.
         23    2    1    2    0    0  0.00000000000E+00  0.00000000000E+00  0.00000000000E+00  0.10000000000E+03  0.10000000000E+03 0.  0.
          5    1    3    3  501    0  0.75605244347E+01 -0.31915496711E+02  0.37445287287E+02  0.50000000000E+02  0.47000000000E+01 0. -1.
         -5    1    3    3    0  501 -0.75605244347E+01  0.31915496711E+02 -0.37445287287E+02  0.50000000000E+02  0.47000000000E+01 0.  1.
</event>
<event>
 5    1  0.8909620E-001  0.1000000E+03  0.7546771E-02  0.1163815E+00
         11   -1    0    0    0    0  0.00000000000E+00  0.00000000000E+00  0.50000000000E+02  0.50000000000E+02  0.00000000000E+00 0. -1.
        -11   -1    0    0    0    0 -0.00000000000E+00 -0.00000000000E+00 -0.50000000000E+02  0.50000000000E+02  0.00000000000E+00 0.  1.
         23    2    1    2    0    0  0.00000000000E+00  0.00000000000E+00  0.00000000000E+00  0.10000000000E+03  0.10000000000E+03 0.  0.
          5    1    3    3  501    0  0.43840483884E+02  0.31130469691E+01  0.23371583415E+02  0.50000000000E+02  0.47000000000E+01 0. -1.
         -5    1    3    3    0  501 -0.43840483884E+02 -0.31130469691E+01 -0.23371583415E+02  0.50000000000E+02  0.47000000000E+01 0.  1.
</event>
<event>
 5    1  0.8909620E-001  0.1000000E+03  0.7546771E-02  0.1163815E+00
         11   -1    0    0    0    0  0.00000000000E+00  0.00000000000E+00  0.50000000000E+02  0.50000000000E+02  0.00000000000E+00 0.  1.
        -11   -1    0    0    0    0 -0.00000000000E+00 -0.00000000000E+00 -0.50000000000E+02  0.50000000000E+02  0.00000000000E+00 0. -1.
         23    2    1    2    0    0  0.00000000000E+00  0.00000000000E+00  0.00000000000E+00  0.10000000000E+03  0.10000000000E+03 0.  0.
          5    1    3    3  501    0  0.61444590433E+01 -0.36363740227E+02 -0.33434024881E+02  0.50000000000E+02  0.47000000000E+01 0. -1.
         -5    1    3    3    0  501 -0.61444590433E+01  0.36363740227E+02  0.33434024881E+02  0.50000000000E+02  0.47000000000E+01 0.  1.
</event>
<event>
 5    1  0.8909620E-001  0.1000000E+03  0.7546771E-02  0.1163815E+00
         11   -1    0    0    0    0  0.00000000000E+00  0.00000000000E+00  0.50000000000E+02  0.50000000000E+02  0.00000000000E+00 0. -1.
        -11   -1    0    0    0    0 -0.00000000000E+00 -0.00000000000E+00 -0.50000000000E+02  0.50000000000E+02  0.00000000000E+00 0.  1.
         23    2    1    2    0    0  0.00000000000E+00  0.00000000000E+00  0.00000000000E+00  0.10000000000E+03  0.10000000000E+03 0.  0.
          5    1    3    3  501    0 -0.80013338913E+01 -0.29984938213E+02  0.38920330630E+02  0.50000000000E+02  0.47000000000E+01 0. -1.
         -5    1    3    3    0  501  0.80013338913E+01  0.29984938213E+02 -0.38920330630E+02  0.50000000000E+02  0.47000000000E+01 0.  1.
</event>
<event>
 5    1  0.8909620E-001  0.1000000E+03  0.7546771E-02  0.1163815E+00
         11   -1    0    0    0    0  0.00000000000E+00  0.00000000000E+00  0.50000000000E+02  0.50000000000E+02  0.00000000000E+00 0. -1.
        -11   -1    0    0    0    0 -0.00000000000E+00 -0.00000000000E+00 -0.50000000000E+02  0.50000000000E+02  0.00000000000E+00 0.  1.
         23    2    1    2    0    0  0.00000000000E+00  0.00000000000E+00  0.00000000000E+00  0.10000000000E+03  0.10000000000E+03 0.  0.
          5    1    3    3  501    0 -0.16351099906E+02  0.25235506797E+02  0.39670149087E+02  0.50000000000E+02  0.47000000000E+01 0. -1.
         -5    1    3    3    0  501  0.16351099906E+02 -0.25235506797E+02 -0.39670149087E+02  0.50000000000E+02  0.47000000000E+01 0.  1.
</event>
<event>
 5    1  0.8909620E-001  0.1000000E+03  0.7546771E-02  0.1163815E+00
         11   -1    0    0    0    0  0.00000000000E+00  0.00000000000E+00  0.50000000000E+02  0.50000000000E+02  0.00000000000E+00 0. -1.
        -11   -1    0    0    0    0 -0.00000000000E+00 -0.00000000000E+00 -0.50000000000E+02  0.50000000000E+02  0.00000000000E+00 0.  1.
         23    2    1    2    0    0  0.00000000000E+00  0.00000000000E+00  0.00000000000E+00  0.10000000000E+03  0.10000000000E+03 0.  0.
          5    1    3    3  501    0 -0.15175125778E+02  0.23582073681E+02  0.41127987533E+02  0.50000000000E+02  0.47000000000E+01 0. -1.
         -5    1    3    3    0  501  0.15175125778E+02 -0.23582073681E+02 -0.41127987533E+02  0.50000000000E+02  0.47000000000E+01 0.  1.
</event>
<event>
 5    1  0.8909620E-001  0.1000000E+03  0.7546771E-02  0.1163815E+00
         11   -1    0    0    0    0  0.00000000000E+00  0.00000000000E+00  0.50000000000E+02  0.50000000000E+02  0.00000000000E+00 0. -1.
        -11   -1    0    0    0    0 -0.00000000000E+00 -0.00000000000E+00 -0.50000000000E+02  0.50000000000E+02  0.00000000000E+00 0.  1.
         23    2    1    2    0    0  0.00000000000E+00  0.00000000000E+00  0.00000000000E+00  0.10000000000E+03  0.10000000000E+03 0.  0.
          5    1    3    3  501    0  0.22300006323E+02  0.18086255461E+02  0.40663338297E+02  0.50000000000E+02  0.47000000000E+01 0. -1.
         -5    1    3    3    0  501 -0.22300006323E+02 -0.18086255461E+02 -0.40663338297E+02  0.50000000000E+02  0.47000000000E+01 0.  1.
</event>
<event>
 5    1  0.8909620E-001  0.1000000E+03  0.7546771E-02  0.1163815E+00
         11   -1    0    0    0    0  0.00000000000E+00  0.00000000000E+00  0.50000000000E+02  0.50000000000E+02  0.00000000000E+00 0.  1.
        -11   -1    0    0    0    0 -0.00000000000E+00 -0.00000000000E+00 -0.50000000000E+02  0.50000000000E+02  0.00000000000E+00 0. -1.
         23    2    1    2    0    0  0.00000000000E+00  0.00000000000E+00  0.00000000000E+00  0.10000000000E+03  0.10000000000E+03 0.  0.
          5    1    3    3  501    0 -0.45506136646E+02 -0.11398156150E+02 -0.16648830709E+02  0.50000000000E+02  0.47000000000E+01 0. -1.
         -5    1    3    3    0  501  0.45506136646E+02  0.11398156150E+02  0.16648830709E+02  0.50000000000E+02  0.47000000000E+01 0.  1.
</event>
<event>
 5    1  0.8909620E-001  0.1000000E+03  0.7546771E-02  0.1163815E+00
         11   -1    0    0    0    0  0.00000000000E+00  0.00000000000E+00  0.50000000000E+02  0.50000000000E+02  0.00000000000E+00 0. -1.
        -11   -1    0    0    0    0 -0.00000000000E+00 -0.00000000000E+00 -0.50000000000E+02  0.50000000000E+02  0.00000000000E+00 0.  1.
         23    2    1    2    0    0  0.00000000000E+00  0.00000000000E+00  0.00000000000E+00  0.10000000000E+03  0.10000000000E+03 0.  0.
          5    1    3    3  501    0 -0.36952628828E+02 -0.22916161209E+02  0.24233505280E+02  0.50000000000E+02  0.47000000000E+01 0. -1.
         -5    1    3    3    0  501  0.36952628828E+02  0.22916161209E+02 -0.24233505280E+02  0.50000000000E+02  0.47000000000E+01 0.  1.
</event>
<event>
 5    1  0.8909620E-001  0.1000000E+03  0.7546771E-02  0.1163815E+00
         11   -1    0    0    0    0  0.00000000000E+00  0.00000000000E+00  0.50000000000E+02  0.50000000000E+02  0.00000000000E+00 0. -1.
        -11   -1    0    0    0    0 -0.00000000000E+00 -0.00000000000E+00 -0.50000000000E+02  0.50000000000E+02  0.00000000000E+00 0.  1.
         23    2    1    2    0    0  0.00000000000E+00  0.00000000000E+00  0.00000000000E+00  0.10000000000E+03  0.10000000000E+03 0.  0.
          5    1    3    3  501    0 -0.16343162779E+02 -0.39888996005E+02  0.24893353091E+02  0.50000000000E+02  0.47000000000E+01 0. -1.
         -5    1    3    3    0  501  0.16343162779E+02  0.39888996005E+02 -0.24893353091E+02  0.50000000000E+02  0.47000000000E+01 0.  1.
</event>
<event>
 5    1  0.8909620E-001  0.1000000E+03  0.7546771E-02  0.1163815E+00
         11   -1    0    0    0    0  0.00000000000E+00  0.00000000000E+00  0.50000000000E+02  0.50000000000E+02  0.00000000000E+00 0. -1.
        -11   -1    0    0    0    0 -0.00000000000E+00 -0.00000000000E+00 -0.50000000000E+02  0.50000000000E+02  0.00000000000E+00 0.  1.
         23    2    1    2    0    0  0.00000000000E+00  0.00000000000E+00  0.00000000000E+00  0.10000000000E+03  0.10000000000E+03 0.  0.
          5    1    3    3  501    0  0.44994726617E+02 -0.18338497656E+02 -0.10820539744E+02  0.50000000000E+02  0.47000000000E+01 0. -1.
         -5    1    3    3    0  501 -0.44994726617E+02  0.18338497656E+02  0.10820539744E+02  0.50000000000E+02  0.47000000000E+01 0.  1.
</event>
<event>
 5    1  0.8909620E-001  0.1000000E+03  0.7546771E-02  0.1163815E+00
         11   -1    0    0    0    0  0.00000000000E+00  0.00000000000E+00  0.50000000000E+02  0.50000000000E+02  0.00000000000E+00 0. -1.
        -11   -1    0    0    0    0 -0.00000000000E+00 -0.00000000000E+00 -0.50000000000E+02  0.50000000000E+02  0.00000000000E+00 0.  1.
         23    2    1    2    0    0  0.00000000000E+00  0.00000000000E+00  0.00000000000E+00  0.10000000000E+03  0.10000000000E+03 0.  0.
          5    1    3    3  501    0 -0.21933516668E+02 -0.96916669216E+00  0.44675402208E+02  0.50000000000E+02  0.47000000000E+01 0. -1.
         -5    1    3    3    0  501  0.21933516668E+02  0.96916669216E+00 -0.44675402208E+02  0.50000000000E+02  0.47000000000E+01 0.  1.
</event>
<event>
 5    1  0.8909620E-001  0.1000000E+03  0.7546771E-02  0.1163815E+00
         11   -1    0    0    0    0  0.00000000000E+00  0.00000000000E+00  0.50000000000E+02  0.50000000000E+02  0.00000000000E+00 0. -1.
        -11   -1    0    0    0    0 -0.00000000000E+00 -0.00000000000E+00 -0.50000000000E+02  0.50000000000E+02  0.00000000000E+00 0.  1.
         23    2    1    2    0    0  0.00000000000E+00  0.00000000000E+00  0.00000000000E+00  0.10000000000E+03  0.10000000000E+03 0.  0.
          5    1    3    3  501    0  0.27693778130E+02 -0.34646231341E+02 -0.22596533070E+02  0.50000000000E+02  0.47000000000E+01 0. -1.
         -5    1    3    3    0  501 -0.27693778130E+02  0.34646231341E+02  0.22596533070E+02  0.50000000000E+02  0.47000000000E+01 0.  1.
</event>
<event>
 5    1  0.8909620E-001  0.1000000E+03  0.7546771E-02  0.1163815E+00
         11   -1    0    0    0    0  0.00000000000E+00  0.00000000000E+00  0.50000000000E+02  0.50000000000E+02  0.00000000000E+00 0.  1.
        -11   -1    0    0    0    0 -0.00000000000E+00 -0.00000000000E+00 -0.50000000000E+02  0.50000000000E+02  0.00000000000E+00 0. -1.
         23    2    1    2    0    0  0.00000000000E+00  0.00000000000E+00  0.00000000000E+00  0.10000000000E+03  0.10000000000E+03 0.  0.
          5    1    3    3  501    0 -0.34798828606E+02 -0.10883402542E+02  0.33889571800E+02  0.50000000000E+02  0.47000000000E+01 0. -1.
         -5    1    3    3    0  501  0.34798828606E+02  0.10883402542E+02 -0.33889571800E+02  0.50000000000E+02  0.47000000000E+01 0.  1.
</event>
<event>
 5    1  0.8909620E-001  0.1000000E+03  0.7546771E-02  0.1163815E+00
         11   -1    0    0    0    0  0.00000000000E+00  0.00000000000E+00  0.50000000000E+02  0.50000000000E+02  0.00000000000E+00 0. -1.
        -11   -1    0    0    0    0 -0.00000000000E+00 -0.00000000000E+00 -0.50000000000E+02  0.50000000000E+02  0.00000000000E+00 0.  1.
         23    2    1    2    0    0  0.00000000000E+00  0.00000000000E+00  0.00000000000E+00  0.10000000000E+03  0.10000000000E+03 0.  0.
          5    1    3    3  501    0  0.18307236929E+01 -0.10964347045E+02  0.48521557525E+02  0.50000000000E+02  0.47000000000E+01 0. -1.
         -5    1    3    3    0  501 -0.18307236929E+01  0.10964347045E+02 -0.48521557525E+02  0.50000000000E+02  0.47000000000E+01 0.  1.
</event>
<event>
 5    1  0.8909620E-001  0.1000000E+03  0.7546771E-02  0.1163815E+00
         11   -1    0    0    0    0  0.00000000000E+00  0.00000000000E+00  0.50000000000E+02  0.50000000000E+02  0.00000000000E+00 0. -1.
        -11   -1    0    0    0    0 -0.00000000000E+00 -0.00000000000E+00 -0.50000000000E+02  0.50000000000E+02  0.00000000000E+00 0.  1.
         23    2    1    2    0    0  0.00000000000E+00  0.00000000000E+00  0.00000000000E+00  0.10000000000E+03  0.10000000000E+03 0.  0.
          5    1    3    3  501    0  0.37350165597E+02  0.31810694125E+02 -0.84234713252E+01  0.50000000000E+02  0.47000000000E+01 0. -1.
         -5    1    3    3    0  501 -0.37350165597E+02 -0.31810694125E+02  0.84234713252E+01  0.50000000000E+02  0.47000000000E+01 0.  1.
</event>
<event>
 5    1  0.8909620E-001  0.1000000E+03  0.7546771E-02  0.1163815E+00
         11   -1    0    0    0    0  0.00000000000E+00  0.00000000000E+00  0.50000000000E+02  0.50000000000E+02  0.00000000000E+00 0. -1.
        -11   -1    0    0    0    0 -0.00000000000E+00 -0.00000000000E+00 -0.50000000000E+02  0.50000000000E+02  0.00000000000E+00 0.  1.
         23    2    1    2    0    0  0.00000000000E+00  0.00000000000E+00  0.00000000000E+00  0.10000000000E+03  0.10000000000E+03 0.  0.
          5    1    3    3  501    0  0.31360307601E+02  0.20529722779E+02  0.32756245050E+02  0.50000000000E+02  0.47000000000E+01 0. -1.
         -5    1    3    3    0  501 -0.31360307601E+02 -0.20529722779E+02 -0.32756245050E+02  0.50000000000E+02  0.47000000000E+01 0.  1.
</event>
<event>
 5    1  0.8909620E-001  0.1000000E+03  0.7546771E-02  0.1163815E+00
         11   -1    0    0    0    0  0.00000000000E+00  0.00000000000E+00  0.50000000000E+02  0.50000000000E+02  0.00000000000E+00 0. -1.
        -11   -1    0    0    0    0 -0.00000000000E+00 -0.00000000000E+00 -0.50000000000E+02  0.50000000000E+02  0.00000000000E+00 0.  1.
         23    2    1    2    0    0  0.00000000000E+00  0.00000000000E+00  0.00000000000E+00  0.10000000000E+03  0.10000000000E+03 0.  0.
          5    1    3    3  501    0 -0.43620232855E+02  0.15439710472E+02 -0.18352128657E+02  0.50000000000E+02  0.47000000000E+01 0. -1.
         -5    1    3    3    0  501  0.43620232855E+02 -0.15439710472E+02  0.18352128657E+02  0.50000000000E+02  0.47000000000E+01 0.  1.
</event>
<event>
 5    1  0.8909620E-001  0.1000000E+03  0.7546771E-02  0.1163815E+00
         11   -1    0    0    0    0  0.00000000000E+00  0.00000000000E+00  0.50000000000E+02  0.50000000000E+02  0.00000000000E+00 0. -1.
        -11   -1    0    0    0    0 -0.00000000000E+00 -0.00000000000E+00 -0.50000000000E+02  0.50000000000E+02  0.00000000000E+00 0.  1.
         23    2    1    2    0    0  0.00000000000E+00  0.00000000000E+00  0.00000000000E+00  0.10000000000E+03  0.10000000000E+03 0.  0.
          5    1    3    3  501    0  0.11788241481E+02  0.34789818207E+01  0.48237371905E+02  0.50000000000E+02  0.47000000000E+01 0. -1.
         -5    1    3    3    0  501 -0.11788241481E+02 -0.34789818207E+01 -0.48237371905E+02  0.50000000000E+02  0.47000000000E+01 0.  1.
</event>
<event>
 5    1  0.8909620E-001  0.1000000E+03  0.7546771E-02  0.1163815E+00
         11   -1    0    0    0    0  0.00000000000E+00  0.00000000000E+00  0.50000000000E+02  0.50000000000E+02  0.00000000000E+00 0. -1.
        -11   -1    0    0    0    0 -0.00000000000E+00 -0.00000000000E+00 -0.50000000000E+02  0.50000000000E+02  0.00000000000E+00 0.  1.
         23    2    1    2    0    0  0.00000000000E+00  0.00000000000E+00  0.00000000000E+00  0.10000000000E+03  0.10000000000E+03 0.  0.
          5    1    3    3  501    0  0.45076080950E+01 -0.28522549861E+02  0.40546955726E+02  0.50000000000E+02  0.47000000000E+01 0. -1.
         -5    1    3    3    0  501 -0.45076080950E+01  0.28522549861E+02 -0.40546955726E+02  0.50000000000E+02  0.47000000000E+01 0.  1.
</event>
<event>
 5    1  0.8909620E-001  0.1000000E+03  0.7546771E-02  0.1163815E+00
         11   -1    0    0    0    0  0.00000000000E+00  0.00000000000E+00  0.50000000000E+02  0.50000000000E+02  0.00000000000E+00 0. -1.
        -11   -1    0    0    0    0 -0.00000000000E+00 -0.00000000000E+00 -0.50000000000E+02  0.50000000000E+02  0.00000000000E+00 0.  1.
         23    2    1    2    0    0  0.00000000000E+00  0.00000000000E+00  0.00000000000E+00  0.10000000000E+03  0.10000000000E+03 0.  0.
          5    1    3    3  501    0 -0.18348219263E+02 -0.42342984192E+02 -0.18663454654E+02  0.50000000000E+02  0.47000000000E+01 0. -1.
         -5    1    3    3    0  501  0.18348219263E+02  0.42342984192E+02  0.18663454654E+02  0.50000000000E+02  0.47000000000E+01 0.  1.
</event>
<event>
 5    1  0.8909620E-001  0.1000000E+03  0.7546771E-02  0.1163815E+00
         11   -1    0    0    0    0  0.00000000000E+00  0.00000000000E+00  0.50000000000E+02  0.50000000000E+02  0.00000000000E+00 0. -1.
        -11   -1    0    0    0    0 -0.00000000000E+00 -0.00000000000E+00 -0.50000000000E+02  0.50000000000E+02  0.00000000000E+00 0.  1.
         23    2    1    2    0    0  0.00000000000E+00  0.00000000000E+00  0.00000000000E+00  0.10000000000E+03  0.10000000000E+03 0.  0.
          5    1    3    3  501    0  0.27395195277E+02 -0.40387335469E+02  0.98120542960E+01  0.50000000000E+02  0.47000000000E+01 0. -1.
         -5    1    3    3    0  501 -0.27395195277E+02  0.40387335469E+02 -0.98120542960E+01  0.50000000000E+02  0.47000000000E+01 0.  1.
</event>
<event>
 5    1  0.8909620E-001  0.1000000E+03  0.7546771E-02  0.1163815E+00
         11   -1    0    0    0    0  0.00000000000E+00  0.00000000000E+00  0.50000000000E+02  0.50000000000E+02  0.00000000000E+00 0. -1.
        -11   -1    0    0    0    0 -0.00000000000E+00 -0.00000000000E+00 -0.50000000000E+02  0.50000000000E+02  0.00000000000E+00 0.  1.
         23    2    1    2    0    0  0.00000000000E+00  0.00000000000E+00  0.00000000000E+00  0.10000000000E+03  0.10000000000E+03 0.  0.
          5    1    3    3  501    0 -0.25015709209E+02 -0.38643849305E+02  0.18941415038E+02  0.50000000000E+02  0.47000000000E+01 0. -1.
         -5    1    3    3    0  501  0.25015709209E+02  0.38643849305E+02 -0.18941415038E+02  0.50000000000E+02  0.47000000000E+01 0.  1.
</event>
<event>
 5    1  0.8909620E-001  0.1000000E+03  0.7546771E-02  0.1163815E+00
         11   -1    0    0    0    0  0.00000000000E+00  0.00000000000E+00  0.50000000000E+02  0.50000000000E+02  0.00000000000E+00 0. -1.
        -11   -1    0    0    0    0 -0.00000000000E+00 -0.00000000000E+00 -0.50000000000E+02  0.50000000000E+02  0.00000000000E+00 0.  1.
         23    2    1    2    0    0  0.00000000000E+00  0.00000000000E+00  0.00000000000E+00  0.10000000000E+03  0.10000000000E+03 0.  0.
          5    1    3    3  501    0 -0.32419579574E+02  0.19533366595E+02  0.32331539550E+02  0.50000000000E+02  0.47000000000E+01 0. -1.
         -5    1    3    3    0  501  0.32419579574E+02 -0.19533366595E+02 -0.32331539550E+02  0.50000000000E+02  0.47000000000E+01 0.  1.
</event>
<event>
 5    1  0.8909620E-001  0.1000000E+03  0.7546771E-02  0.1163815E+00
         11   -1    0    0    0    0  0.00000000000E+00  0.00000000000E+00  0.50000000000E+02  0.50000000000E+02  0.00000000000E+00 0.  1.
        -11   -1    0    0    0    0 -0.00000000000E+00 -0.00000000000E+00 -0.50000000000E+02  0.50000000000E+02  0.00000000000E+00 0. -1.
         23    2    1    2    0    0  0.00000000000E+00  0.00000000000E+00  0.00000000000E+00  0.10000000000E+03  0.10000000000E+03 0.  0.
          5    1    3    3  501    0  0.17714505483E+02 -0.34431720897E+01 -0.46392357792E+02  0.50000000000E+02  0.47000000000E+01 0. -1.
         -5    1    3    3    0  501 -0.17714505483E+02  0.34431720897E+01  0.46392357792E+02  0.50000000000E+02  0.47000000000E+01 0.  1.
</event>
<event>
 5    1  0.8909620E-001  0.1000000E+03  0.7546771E-02  0.1163815E+00
         11   -1    0    0    0    0  0.00000000000E+00  0.00000000000E+00  0.50000000000E+02  0.50000000000E+02  0.00000000000E+00 0. -1.
        -11   -1    0    0    0    0 -0.00000000000E+00 -0.00000000000E+00 -0.50000000000E+02  0.50000000000E+02  0.00000000000E+00 0.  1.
         23    2    1    2    0    0  0.00000000000E+00  0.00000000000E+00  0.00000000000E+00  0.10000000000E+03  0.10000000000E+03 0.  0.
          5    1    3    3  501    0 -0.28766655059E+02 -0.14292659626E+02  0.38027745628E+02  0.50000000000E+02  0.47000000000E+01 0. -1.
         -5    1    3    3    0  501  0.28766655059E+02  0.14292659626E+02 -0.38027745628E+02  0.50000000000E+02  0.47000000000E+01 0.  1.
</event>
<event>
 5    1  0.8909620E-001  0.1000000E+03  0.7546771E-02  0.1163815E+00
         11   -1    0    0    0    0  0.00000000000E+00  0.00000000000E+00  0.50000000000E+02  0.50000000000E+02  0.00000000000E+00 0. -1.
        -11   -1    0    0    0    0 -0.00000000000E+00 -0.00000000000E+00 -0.50000000000E+02  0.50000000000E+02  0.00000000000E+00 0.  1.
         23    2    1    2    0    0  0.00000000000E+00  0.00000000000E+00  0.00000000000E+00  0.10000000000E+03  0.10000000000E+03 0.  0.
          5    1    3    3  501    0 -0.23530791044E+02  0.16664496513E+02  0.40577166348E+02  0.50000000000E+02  0.47000000000E+01 0. -1.
         -5    1    3    3    0  501  0.23530791044E+02 -0.16664496513E+02 -0.40577166348E+02  0.50000000000E+02  0.47000000000E+01 0.  1.
</event>
<event>
 5    1  0.8909620E-001  0.1000000E+03  0.7546771E-02  0.1163815E+00
         11   -1    0    0    0    0  0.00000000000E+00  0.00000000000E+00  0.50000000000E+02  0.50000000000E+02  0.00000000000E+00 0. -1.
        -11   -1    0    0    0    0 -0.00000000000E+00 -0.00000000000E+00 -0.50000000000E+02  0.50000000000E+02  0.00000000000E+00 0.  1.
         23    2    1    2    0    0  0.00000000000E+00  0.00000000000E+00  0.00000000000E+00  0.10000000000E+03  0.10000000000E+03 0.  0.
          5    1    3    3  501    0  0.16638234946E+02  0.46607736403E+02  0.53663810242E+01  0.50000000000E+02  0.47000000000E+01 0. -1.
         -5    1    3    3    0  501 -0.16638234946E+02 -0.46607736403E+02 -0.53663810242E+01  0.50000000000E+02  0.47000000000E+01 0.  1.
</event>
<event>
 5    1  0.8909620E-001  0.1000000E+03  0.7546771E-02  0.1163815E+00
         11   -1    0    0    0    0  0.00000000000E+00  0.00000000000E+00  0.50000000000E+02  0.50000000000E+02  0.00000000000E+00 0.  1.
        -11   -1    0    0    0    0 -0.00000000000E+00 -0.00000000000E+00 -0.50000000000E+02  0.50000000000E+02  0.00000000000E+00 0. -1.
         23    2    1    2    0    0  0.00000000000E+00  0.00000000000E+00  0.00000000000E+00  0.10000000000E+03  0.10000000000E+03 0.  0.
          5    1    3    3  501    0  0.42308273801E+01 -0.41837177804E+02 -0.26639456697E+02  0.50000000000E+02  0.47000000000E+01 0. -1.
         -5    1    3    3    0  501 -0.42308273801E+01  0.41837177804E+02  0.26639456697E+02  0.50000000000E+02  0.47000000000E+01 0.  1.
</event>
<event>
 5    1  0.8909620E-001  0.1000000E+03  0.7546771E-02  0.1163815E+00
         11   -1    0    0    0    0  0.00000000000E+00  0.00000000000E+00  0.50000000000E+02  0.50000000000E+02  0.00000000000E+00 0. -1.
        -11   -1    0    0    0    0 -0.00000000000E+00 -0.00000000000E+00 -0.50000000000E+02  0.50000000000E+02  0.00000000000E+00 0.  1.
         23    2    1    2    0    0  0.00000000000E+00  0.00000000000E+00  0.00000000000E+00  0.10000000000E+03  0.10000000000E+03 0.  0.
          5    1    3    3  501    0 -0.25858960874E+02 -0.86473662181E+01  0.41646694947E+02  0.50000000000E+02  0.47000000000E+01 0. -1.
         -5    1    3    3    0  501  0.25858960874E+02  0.86473662181E+01 -0.41646694947E+02  0.50000000000E+02  0.47000000000E+01 0.  1.
</event>
<event>
 5    1  0.8909620E-001  0.1000000E+03  0.7546771E-02  0.1163815E+00
         11   -1    0    0    0    0  0.00000000000E+00  0.00000000000E+00  0.50000000000E+02  0.50000000000E+02  0.00000000000E+00 0. -1.
        -11   -1    0    0    0    0 -0.00000000000E+00 -0.00000000000E+00 -0.50000000000E+02  0.50000000000E+02  0.00000000000E+00 0.  1.
         23    2    1    2    0    0  0.00000000000E+00  0.00000000000E+00  0.00000000000E+00  0.10000000000E+03  0.10000000000E+03 0.  0.
          5    1    3    3  501    0 -0.35740938010E+01 -0.46316899281E+02  0.17885208820E+02  0.50000000000E+02  0.47000000000E+01 0. -1.
         -5    1    3    3    0  501  0.35740938010E+01  0.46316899281E+02 -0.17885208820E+02  0.50000000000E+02  0.47000000000E+01 0.  1.
</event>
<event>
 5    1  0.8909620E-001  0.1000000E+03  0.7546771E-02  0.1163815E+00
         11   -1    0    0    0    0  0.00000000000E+00  0.00000000000E+00  0.50000000000E+02  0.50000000000E+02  0.00000000000E+00 0. -1.
        -11   -1    0    0    0    0 -0.00000000000E+00 -0.00000000000E+00 -0.50000000000E+02  0.50000000000E+02  0.00000000000E+00 0.  1.
         23    2    1    2    0    0  0.00000000000E+00  0.00000000000E+00  0.00000000000E+00  0.10000000000E+03  0.10000000000E+03 0.  0.
          5    1    3    3  501    0  0.17195080566E+02  0.43980267892E+02 -0.15747229613E+02  0.50000000000E+02  0.47000000000E+01 0. -1.
         -5    1    3    3    0  501 -0.17195080566E+02 -0.43980267892E+02  0.15747229613E+02  0.50000000000E+02  0.47000000000E+01 0.  1.
</event>
<event>
 5    1  0.8909620E-001  0.1000000E+03  0.7546771E-02  0.1163815E+00
         11   -1    0    0    0    0  0.00000000000E+00  0.00000000000E+00  0.50000000000E+02  0.50000000000E+02  0.00000000000E+00 0. -1.
        -11   -1    0    0    0    0 -0.00000000000E+00 -0.00000000000E+00 -0.50000000000E+02  0.50000000000E+02  0.00000000000E+00 0.  1.
         23    2    1    2    0    0  0.00000000000E+00  0.00000000000E+00  0.00000000000E+00  0.10000000000E+03  0.10000000000E+03 0.  0.
          5    1    3    3  501    0 -0.36235525052E+02  0.88659294398E+01  0.32958944452E+02  0.50000000000E+02  0.47000000000E+01 0. -1.
         -5    1    3    3    0  501  0.36235525052E+02 -0.88659294398E+01 -0.32958944452E+02  0.50000000000E+02  0.47000000000E+01 0.  1.
</event>
<event>
 5    1  0.8909620E-001  0.1000000E+03  0.7546771E-02  0.1163815E+00
         11   -1    0    0    0    0  0.00000000000E+00  0.00000000000E+00  0.50000000000E+02  0.50000000000E+02  0.00000000000E+00 0.  1.
        -11   -1    0    0    0    0 -0.00000000000E+00 -0.00000000000E+00 -0.50000000000E+02  0.50000000000E+02  0.00000000000E+00 0. -1.
         23    2    1    2    0    0  0.00000000000E+00  0.00000000000E+00  0.00000000000E+00  0.10000000000E+03  0.10000000000E+03 0.  0.
          5    1    3    3  501    0 -0.30189778772E+02  0.39098219073E+02  0.61495140434E+01  0.50000000000E+02  0.47000000000E+01 0. -1.
         -5    1    3    3    0  501  0.30189778772E+02 -0.39098219073E+02 -0.61495140434E+01  0.50000000000E+02  0.47000000000E+01 0.  1.
</event>
<event>
 5    1  0.8909620E-001  0.1000000E+03  0.7546771E-02  0.1163815E+00
         11   -1    0    0    0    0  0.00000000000E+00  0.00000000000E+00  0.50000000000E+02  0.50000000000E+02  0.00000000000E+00 0.  1.
        -11   -1    0    0    0    0 -0.00000000000E+00 -0.00000000000E+00 -0.50000000000E+02  0.50000000000E+02  0.00000000000E+00 0. -1.
         23    2    1    2    0    0  0.00000000000E+00  0.00000000000E+00  0.00000000000E+00  0.10000000000E+03  0.10000000000E+03 0.  0.
          5    1    3    3  501    0  0.21874784907E+02 -0.44713312810E+02 -0.35134427608E+00  0.50000000000E+02  0.47000000000E+01 0. -1.
         -5    1    3    3    0  501 -0.21874784907E+02  0.44713312810E+02  0.35134427608E+00  0.50000000000E+02  0.47000000000E+01 0.  1.
</event>
<event>
 5    1  0.8909620E-001  0.1000000E+03  0.7546771E-02  0.1163815E+00
         11   -1    0    0    0    0  0.00000000000E+00  0.00000000000E+00  0.50000000000E+02  0.50000000000E+02  0.00000000000E+00 0.  1.
        -11   -1    0    0    0    0 -0.00000000000E+00 -0.00000000000E+00 -0.50000000000E+02  0.50000000000E+02  0.00000000000E+00 0. -1.
         23    2    1    2    0    0  0.00000000000E+00  0.00000000000E+00  0.00000000000E+00  0.10000000000E+03  0.10000000000E+03 0.  0.
          5    1    3    3  501    0  0.42019208164E+02 -0.26484470058E+02 -0.32968152883E+01  0.50000000000E+02  0.47000000000E+01 0. -1.
         -5    1    3    3    0  501 -0.42019208164E+02  0.26484470058E+02  0.32968152883E+01  0.50000000000E+02  0.47000000000E+01 0.  1.
</event>
<event>
 5    1  0.8909620E-001  0.1000000E+03  0.7546771E-02  0.1163815E+00
         11   -1    0    0    0    0  0.00000000000E+00  0.00000000000E+00  0.50000000000E+02  0.50000000000E+02  0.00000000000E+00 0. -1.
        -11   -1    0    0    0    0 -0.00000000000E+00 -0.00000000000E+00 -0.50000000000E+02  0.50000000000E+02  0.00000000000E+00 0.  1.
         23    2    1    2    0    0  0.00000000000E+00  0.00000000000E+00  0.00000000000E+00  0.10000000000E+03  0.10000000000E+03 0.  0.
          5    1    3    3  501    0  0.46380678924E+02  0.11123634754E+02  0.14248065569E+02  0.50000000000E+02  0.47000000000E+01 0. -1.
         -5    1    3    3    0  501 -0.46380678924E+02 -0.11123634754E+02 -0.14248065569E+02  0.50000000000E+02  0.47000000000E+01 0.  1.
</event>
<event>
 5    1  0.8909620E-001  0.1000000E+03  0.7546771E-02  0.1163815E+00
         11   -1    0    0    0    0  0.00000000000E+00  0.00000000000E+00  0.50000000000E+02  0.50000000000E+02  0.00000000000E+00 0.  1.
        -11   -1    0    0    0    0 -0.00000000000E+00 -0.00000000000E+00 -0.50000000000E+02  0.50000000000E+02  0.00000000000E+00 0. -1.
         23    2    1    2    0    0  0.00000000000E+00  0.00000000000E+00  0.00000000000E+00  0.10000000000E+03  0.10000000000E+03 0.  0.
          5    1    3    3  501    0 -0.35245932789E+02  0.14214943779E+02 -0.32149177208E+02  0.50000000000E+02  0.47000000000E+01 0. -1.
         -5    1    3    3    0  501  0.35245932789E+02 -0.14214943779E+02  0.32149177208E+02  0.50000000000E+02  0.47000000000E+01 0.  1.
</event>
<event>
 5    1  0.8909620E-001  0.1000000E+03  0.7546771E-02  0.1163815E+00
         11   -1    0    0    0    0  0.00000000000E+00  0.00000000000E+00  0.50000000000E+02  0.50000000000E+02  0.00000000000E+00 0. -1.
        -11   -1    0    0    0    0 -0.00000000000E+00 -0.00000000000E+00 -0.50000000000E+02  0.50000000000E+02  0.00000000000E+00 0.  1.
         23    2    1    2    0    0  0.00000000000E+00  0.00000000000E+00  0.00000000000E+00  0.10000000000E+03  0.10000000000E+03 0.  0.
          5    1    3    3  501    0 -0.31617886313E+02  0.94041184921E+01  0.37279777635E+02  0.50000000000E+02  0.47000000000E+01 0. -1.
         -5    1    3    3    0  501  0.31617886313E+02 -0.94041184921E+01 -0.37279777635E+02  0.50000000000E+02  0.47000000000E+01 0.  1.
</event>
<event>
 5    1  0.8909620E-001  0.1000000E+03  0.7546771E-02  0.1163815E+00
         11   -1    0    0    0    0  0.00000000000E+00  0.00000000000E+00  0.50000000000E+02  0.50000000000E+02  0.00000000000E+00 0.  1.
        -11   -1    0    0    0    0 -0.00000000000E+00 -0.00000000000E+00 -0.50000000000E+02  0.50000000000E+02  0.00000000000E+00 0. -1.
         23    2    1    2    0    0  0.00000000000E+00  0.00000000000E+00  0.00000000000E+00  0.10000000000E+03  0.10000000000E+03 0.  0.
          5    1    3    3  501    0  0.70325492031E+01 -0.24063824479E+02 -0.43004483524E+02  0.50000000000E+02  0.47000000000E+01 0. -1.
         -5    1    3    3    0  501 -0.70325492031E+01  0.24063824479E+02  0.43004483524E+02  0.50000000000E+02  0.47000000000E+01 0.  1.
</event>
<event>
 5    1  0.8909620E-001  0.1000000E+03  0.7546771E-02  0.1163815E+00
         11   -1    0    0    0    0  0.00000000000E+00  0.00000000000E+00  0.50000000000E+02  0.50000000000E+02  0.00000000000E+00 0. -1.
        -11   -1    0    0    0    0 -0.00000000000E+00 -0.00000000000E+00 -0.50000000000E+02  0.50000000000E+02  0.00000000000E+00 0.  1.
         23    2    1    2    0    0  0.00000000000E+00  0.00000000000E+00  0.00000000000E+00  0.10000000000E+03  0.10000000000E+03 0.  0.
          5    1    3    3  501    0  0.39038542109E+02  0.11119495742E+02  0.28814216013E+02  0.50000000000E+02  0.47000000000E+01 0. -1.
         -5    1    3    3    0  501 -0.39038542109E+02 -0.11119495742E+02 -0.28814216013E+02  0.50000000000E+02  0.47000000000E+01 0.  1.
</event>
<event>
 5    1  0.8909620E-001  0.1000000E+03  0.7546771E-02  0.1163815E+00
         11   -1    0    0    0    0  0.00000000000E+00  0.00000000000E+00  0.50000000000E+02  0.50000000000E+02  0.00000000000E+00 0. -1.
        -11   -1    0    0    0    0 -0.00000000000E+00 -0.00000000000E+00 -0.50000000000E+02  0.50000000000E+02  0.00000000000E+00 0.  1.
         23    2    1    2    0    0  0.00000000000E+00  0.00000000000E+00  0.00000000000E+00  0.10000000000E+03  0.10000000000E+03 0.  0.
          5    1    3    3  501    0 -0.44985387520E+02  0.36088565600E+01  0.21004786693E+02  0.50000000000E+02  0.47000000000E+01 0. -1.
         -5    1    3    3    0  501  0.44985387520E+02 -0.36088565600E+01 -0.21004786693E+02  0.50000000000E+02  0.47000000000E+01 0.  1.
</event>
<event>
 5    1  0.8909620E-001  0.1000000E+03  0.7546771E-02  0.1163815E+00
         11   -1    0    0    0    0  0.00000000000E+00  0.00000000000E+00  0.50000000000E+02  0.50000000000E+02  0.00000000000E+00 0. -1.
        -11   -1    0    0    0    0 -0.00000000000E+00 -0.00000000000E+00 -0.50000000000E+02  0.50000000000E+02  0.00000000000E+00 0.  1.
         23    2    1    2    0    0  0.00000000000E+00  0.00000000000E+00  0.00000000000E+00  0.10000000000E+03  0.10000000000E+03 0.  0.
          5    1    3    3  501    0  0.78110184134E+01  0.22633955979E+02  0.43641746392E+02  0.50000000000E+02  0.47000000000E+01 0. -1.
         -5    1    3    3    0  501 -0.78110184134E+01 -0.22633955979E+02 -0.43641746392E+02  0.50000000000E+02  0.47000000000E+01 0.  1.
</event>
<event>
 5    1  0.8909620E-001  0.1000000E+03  0.7546771E-02  0.1163815E+00
         11   -1    0    0    0    0  0.00000000000E+00  0.00000000000E+00  0.50000000000E+02  0.50000000000E+02  0.00000000000E+00 0. -1.
        -11   -1    0    0    0    0 -0.00000000000E+00 -0.00000000000E+00 -0.50000000000E+02  0.50000000000E+02  0.00000000000E+00 0.  1.
         23    2    1    2    0    0  0.00000000000E+00  0.00000000000E+00  0.00000000000E+00  0.10000000000E+03  0.10000000000E+03 0.  0.
          5    1    3    3  501    0  0.59081718111E+01  0.30666123331E+01  0.49331525363E+02  0.50000000000E+02  0.47000000000E+01 0. -1.
         -5    1    3    3    0  501 -0.59081718111E+01 -0.30666123331E+01 -0.49331525363E+02  0.50000000000E+02  0.47000000000E+01 0.  1.
</event>
<event>
 5    1  0.8909620E-001  0.1000000E+03  0.7546771E-02  0.1163815E+00
         11   -1    0    0    0    0  0.00000000000E+00  0.00000000000E+00  0.50000000000E+02  0.50000000000E+02  0.00000000000E+00 0.  1.
        -11   -1    0    0    0    0 -0.00000000000E+00 -0.00000000000E+00 -0.50000000000E+02  0.50000000000E+02  0.00000000000E+00 0. -1.
         23    2    1    2    0    0  0.00000000000E+00  0.00000000000E+00  0.00000000000E+00  0.10000000000E+03  0.10000000000E+03 0.  0.
          5    1    3    3  501    0  0.33424492448E+02 -0.19072553410E+02 -0.31574531050E+02  0.50000000000E+02  0.47000000000E+01 0. -1.
         -5    1    3    3    0  501 -0.33424492448E+02  0.19072553410E+02  0.31574531050E+02  0.50000000000E+02  0.47000000000E+01 0.  1.
</event>
<event>
 5    1  0.8909620E-001  0.1000000E+03  0.7546771E-02  0.1163815E+00
         11   -1    0    0    0    0  0.00000000000E+00  0.00000000000E+00  0.50000000000E+02  0.50000000000E+02  0.00000000000E+00 0.  1.
        -11   -1    0    0    0    0 -0.00000000000E+00 -0.00000000000E+00 -0.50000000000E+02  0.50000000000E+02  0.00000000000E+00 0. -1.
         23    2    1    2    0    0  0.00000000000E+00  0.00000000000E+00  0.00000000000E+00  0.10000000000E+03  0.10000000000E+03 0.  0.
          5    1    3    3  501    0  0.35876685993E+02  0.85242586969E+01 -0.33438158081E+02  0.50000000000E+02  0.47000000000E+01 0. -1.
         -5    1    3    3    0  501 -0.35876685993E+02 -0.85242586969E+01  0.33438158081E+02  0.50000000000E+02  0.47000000000E+01 0.  1.
</event>
<event>
 5    1  0.8909620E-001  0.1000000E+03  0.7546771E-02  0.1163815E+00
         11   -1    0    0    0    0  0.00000000000E+00  0.00000000000E+00  0.50000000000E+02  0.50000000000E+02  0.00000000000E+00 0. -1.
        -11   -1    0    0    0    0 -0.00000000000E+00 -0.00000000000E+00 -0.50000000000E+02  0.50000000000E+02  0.00000000000E+00 0.  1.
         23    2    1    2    0    0  0.00000000000E+00  0.00000000000E+00  0.00000000000E+00  0.10000000000E+03  0.10000000000E+03 0.  0.
          5    1    3    3  501    0 -0.50164634217E+01 -0.11012909399E+02  0.48285203958E+02  0.50000000000E+02  0.47000000000E+01 0. -1.
         -5    1    3    3    0  501  0.50164634217E+01  0.11012909399E+02 -0.48285203958E+02  0.50000000000E+02  0.47000000000E+01 0.  1.
</event>
<event>
 5    1  0.8909620E-001  0.1000000E+03  0.7546771E-02  0.1163815E+00
         11   -1    0    0    0    0  0.00000000000E+00  0.00000000000E+00  0.50000000000E+02  0.50000000000E+02  0.00000000000E+00 0. -1.
        -11   -1    0    0    0    0 -0.00000000000E+00 -0.00000000000E+00 -0.50000000000E+02  0.50000000000E+02  0.00000000000E+00 0.  1.
         23    2    1    2    0    0  0.00000000000E+00  0.00000000000E+00  0.00000000000E+00  0.10000000000E+03  0.10000000000E+03 0.  0.
          5    1    3    3  501    0 -0.42785884864E+02 -0.29183334707E+01  0.25273729170E+02  0.50000000000E+02  0.47000000000E+01 0. -1.
         -5    1    3    3    0  501  0.42785884864E+02  0.29183334707E+01 -0.25273729170E+02  0.50000000000E+02  0.47000000000E+01 0.  1.
</event>
<event>
 5    1  0.8909620E-001  0.1000000E+03  0.7546771E-02  0.1163815E+00
         11   -1    0    0    0    0  0.00000000000E+00  0.00000000000E+00  0.50000000000E+02  0.50000000000E+02  0.00000000000E+00 0. -1.
        -11   -1    0    0    0    0 -0.00000000000E+00 -0.00000000000E+00 -0.50000000000E+02  0.50000000000E+02  0.00000000000E+00 0.  1.
         23    2    1    2    0    0  0.00000000000E+00  0.00000000000E+00  0.00000000000E+00  0.10000000000E+03  0.10000000000E+03 0.  0.
          5    1    3    3  501    0  0.40674056922E+02  0.26012725553E+02  0.12118960468E+02  0.50000000000E+02  0.47000000000E+01 0. -1.
         -5    1    3    3    0  501 -0.40674056922E+02 -0.26012725553E+02 -0.12118960468E+02  0.50000000000E+02  0.47000000000E+01 0.  1.
</event>
<event>
 5    1  0.8909620E-001  0.1000000E+03  0.7546771E-02  0.1163815E+00
         11   -1    0    0    0    0  0.00000000000E+00  0.00000000000E+00  0.50000000000E+02  0.50000000000E+02  0.00000000000E+00 0. -1.
        -11   -1    0    0    0    0 -0.00000000000E+00 -0.00000000000E+00 -0.50000000000E+02  0.50000000000E+02  0.00000000000E+00 0.  1.
         23    2    1    2    0    0  0.00000000000E+00  0.00000000000E+00  0.00000000000E+00  0.10000000000E+03  0.10000000000E+03 0.  0.
          5    1    3    3  501    0 -0.29091287366E+02  0.28941590627E+02  0.28177851788E+02  0.50000000000E+02  0.47000000000E+01 0. -1.
         -5    1    3    3    0  501  0.29091287366E+02 -0.28941590627E+02 -0.28177851788E+02  0.50000000000E+02  0.47000000000E+01 0.  1.
</event>
<event>
 5    1  0.8909620E-001  0.1000000E+03  0.7546771E-02  0.1163815E+00
         11   -1    0    0    0    0  0.00000000000E+00  0.00000000000E+00  0.50000000000E+02  0.50000000000E+02  0.00000000000E+00 0. -1.
        -11   -1    0    0    0    0 -0.00000000000E+00 -0.00000000000E+00 -0.50000000000E+02  0.50000000000E+02  0.00000000000E+00 0.  1.
         23    2    1    2    0    0  0.00000000000E+00  0.00000000000E+00  0.00000000000E+00  0.10000000000E+03  0.10000000000E+03 0.  0.
          5    1    3    3  501    0  0.14340958647E+02  0.47640933122E+02 -0.16088494003E+01  0.50000000000E+02  0.47000000000E+01 0. -1.
         -5    1    3    3    0  501 -0.14340958647E+02 -0.47640933122E+02  0.16088494003E+01  0.50000000000E+02  0.47000000000E+01 0.  1.
</event>
<event>
 5    1  0.8909620E-001  0.1000000E+03  0.7546771E-02  0.1163815E+00
         11   -1    0    0    0    0  0.00000000000E+00  0.00000000000E+00  0.50000000000E+02  0.50000000000E+02  0.00000000000E+00 0.  1.
        -11   -1    0    0    0    0 -0.00000000000E+00 -0.00000000000E+00 -0.50000000000E+02  0.50000000000E+02  0.00000000000E+00 0. -1.
         23    2    1    2    0    0  0.00000000000E+00  0.00000000000E+00  0.00000000000E+00  0.10000000000E+03  0.10000000000E+03 0.  0.
          5    1    3    3  501    0 -0.22771830108E+02 -0.39954821667E+02 -0.19051666045E+02  0.50000000000E+02  0.47000000000E+01 0. -1.
         -5    1    3    3    0  501  0.22771830108E+02  0.39954821667E+02  0.19051666045E+02  0.50000000000E+02  0.47000000000E+01 0.  1.
</event>
<event>
 5    1  0.8909620E-001  0.1000000E+03  0.7546771E-02  0.1163815E+00
         11   -1    0    0    0    0  0.00000000000E+00  0.00000000000E+00  0.50000000000E+02  0.50000000000E+02  0.00000000000E+00 0.  1.
        -11   -1    0    0    0    0 -0.00000000000E+00 -0.00000000000E+00 -0.50000000000E+02  0.50000000000E+02  0.00000000000E+00 0. -1.
         23    2    1    2    0    0  0.00000000000E+00  0.00000000000E+00  0.00000000000E+00  0.10000000000E+03  0.10000000000E+03 0.  0.
          5    1    3    3  501    0  0.31216463231E+02 -0.35820310726E+02 -0.14844115427E+02  0.50000000000E+02  0.47000000000E+01 0. -1.
         -5    1    3    3    0  501 -0.31216463231E+02  0.35820310726E+02  0.14844115427E+02  0.50000000000E+02  0.47000000000E+01 0.  1.
</event>
<event>
 5    1  0.8909620E-001  0.1000000E+03  0.7546771E-02  0.1163815E+00
         11   -1    0    0    0    0  0.00000000000E+00  0.00000000000E+00  0.50000000000E+02  0.50000000000E+02  0.00000000000E+00 0. -1.
        -11   -1    0    0    0    0 -0.00000000000E+00 -0.00000000000E+00 -0.50000000000E+02  0.50000000000E+02  0.00000000000E+00 0.  1.
         23    2    1    2    0    0  0.00000000000E+00  0.00000000000E+00  0.00000000000E+00  0.10000000000E+03  0.10000000000E+03 0.  0.
          5    1    3    3  501    0  0.28660810317E+02  0.15470340120E+02  0.37644873868E+02  0.50000000000E+02  0.47000000000E+01 0. -1.
         -5    1    3    3    0  501 -0.28660810317E+02 -0.15470340120E+02 -0.37644873868E+02  0.50000000000E+02  0.47000000000E+01 0.  1.
</event>
<event>
 5    1  0.8909620E-001  0.1000000E+03  0.7546771E-02  0.1163815E+00
         11   -1    0    0    0    0  0.00000000000E+00  0.00000000000E+00  0.50000000000E+02  0.50000000000E+02  0.00000000000E+00 0.  1.
        -11   -1    0    0    0    0 -0.00000000000E+00 -0.00000000000E+00 -0.50000000000E+02  0.50000000000E+02  0.00000000000E+00 0. -1.
         23    2    1    2    0    0  0.00000000000E+00  0.00000000000E+00  0.00000000000E+00  0.10000000000E+03  0.10000000000E+03 0.  0.
          5    1    3    3  501    0 -0.25672465563E+01 -0.28844873331E+02 -0.40488177628E+02  0.50000000000E+02  0.47000000000E+01 0. -1.
         -5    1    3    3    0  501  0.25672465563E+01  0.28844873331E+02  0.40488177628E+02  0.50000000000E+02  0.47000000000E+01 0.  1.
</event>
<event>
 5    1  0.8909620E-001  0.1000000E+03  0.7546771E-02  0.1163815E+00
         11   -1    0    0    0    0  0.00000000000E+00  0.00000000000E+00  0.50000000000E+02  0.50000000000E+02  0.00000000000E+00 0.  1.
        -11   -1    0    0    0    0 -0.00000000000E+00 -0.00000000000E+00 -0.50000000000E+02  0.50000000000E+02  0.00000000000E+00 0. -1.
         23    2    1    2    0    0  0.00000000000E+00  0.00000000000E+00  0.00000000000E+00  0.10000000000E+03  0.10000000000E+03 0.  0.
          5    1    3    3  501    0  0.78162266781E+01  0.45918228940E+02  0.17559409202E+02  0.50000000000E+02  0.47000000000E+01 0. -1.
         -5    1    3    3    0  501 -0.78162266781E+01 -0.45918228940E+02 -0.17559409202E+02  0.50000000000E+02  0.47000000000E+01 0.  1.
</event>
<event>
 5    1  0.8909620E-001  0.1000000E+03  0.7546771E-02  0.1163815E+00
         11   -1    0    0    0    0  0.00000000000E+00  0.00000000000E+00  0.50000000000E+02  0.50000000000E+02  0.00000000000E+00 0.  1.
        -11   -1    0    0    0    0 -0.00000000000E+00 -0.00000000000E+00 -0.50000000000E+02  0.50000000000E+02  0.00000000000E+00 0. -1.
         23    2    1    2    0    0  0.00000000000E+00  0.00000000000E+00  0.00000000000E+00  0.10000000000E+03  0.10000000000E+03 0.  0.
          5    1    3    3  501    0  0.15035373677E+02  0.47412496115E+02 -0.19755380255E+01  0.50000000000E+02  0.47000000000E+01 0. -1.
         -5    1    3    3    0  501 -0.15035373677E+02 -0.47412496115E+02  0.19755380255E+01  0.50000000000E+02  0.47000000000E+01 0.  1.
</event>
<event>
 5    1  0.8909620E-001  0.1000000E+03  0.7546771E-02  0.1163815E+00
         11   -1    0    0    0    0  0.00000000000E+00  0.00000000000E+00  0.50000000000E+02  0.50000000000E+02  0.00000000000E+00 0. -1.
        -11   -1    0    0    0    0 -0.00000000000E+00 -0.00000000000E+00 -0.50000000000E+02  0.50000000000E+02  0.00000000000E+00 0.  1.
         23    2    1    2    0    0  0.00000000000E+00  0.00000000000E+00  0.00000000000E+00  0.10000000000E+03  0.10000000000E+03 0.  0.
          5    1    3    3  501    0  0.28155160321E+02 -0.18635605240E+02 -0.36577467991E+02  0.50000000000E+02  0.47000000000E+01 0. -1.
         -5    1    3    3    0  501 -0.28155160321E+02  0.18635605240E+02  0.36577467991E+02  0.50000000000E+02  0.47000000000E+01 0.  1.
</event>
<event>
 5    1  0.8909620E-001  0.1000000E+03  0.7546771E-02  0.1163815E+00
         11   -1    0    0    0    0  0.00000000000E+00  0.00000000000E+00  0.50000000000E+02  0.50000000000E+02  0.00000000000E+00 0. -1.
        -11   -1    0    0    0    0 -0.00000000000E+00 -0.00000000000E+00 -0.50000000000E+02  0.50000000000E+02  0.00000000000E+00 0.  1.
         23    2    1    2    0    0  0.00000000000E+00  0.00000000000E+00  0.00000000000E+00  0.10000000000E+03  0.10000000000E+03 0.  0.
          5    1    3    3  501    0  0.35196998469E+02 -0.17480059557E+02  0.30553703812E+02  0.50000000000E+02  0.47000000000E+01 0. -1.
         -5    1    3    3    0  501 -0.35196998469E+02  0.17480059557E+02 -0.30553703812E+02  0.50000000000E+02  0.47000000000E+01 0.  1.
</event>
<event>
 5    1  0.8909620E-001  0.1000000E+03  0.7546771E-02  0.1163815E+00
         11   -1    0    0    0    0  0.00000000000E+00  0.00000000000E+00  0.50000000000E+02  0.50000000000E+02  0.00000000000E+00 0.  1.
        -11   -1    0    0    0    0 -0.00000000000E+00 -0.00000000000E+00 -0.50000000000E+02  0.50000000000E+02  0.00000000000E+00 0. -1.
         23    2    1    2    0    0  0.00000000000E+00  0.00000000000E+00  0.00000000000E+00  0.10000000000E+03  0.10000000000E+03 0.  0.
          5    1    3    3  501    0 -0.30698452764E+02 -0.38883619203E+02  0.48558372721E+01  0.50000000000E+02  0.47000000000E+01 0. -1.
         -5    1    3    3    0  501  0.30698452764E+02  0.38883619203E+02 -0.48558372721E+01  0.50000000000E+02  0.47000000000E+01 0.  1.
</event>
<event>
 5    1  0.8909620E-001  0.1000000E+03  0.7546771E-02  0.1163815E+00
         11   -1    0    0    0    0  0.00000000000E+00  0.00000000000E+00  0.50000000000E+02  0.50000000000E+02  0.00000000000E+00 0. -1.
        -11   -1    0    0    0    0 -0.00000000000E+00 -0.00000000000E+00 -0.50000000000E+02  0.50000000000E+02  0.00000000000E+00 0.  1.
         23    2    1    2    0    0  0.00000000000E+00  0.00000000000E+00  0.00000000000E+00  0.10000000000E+03  0.10000000000E+03 0.  0.
          5    1    3    3  501    0  0.40664099549E+02  0.28108605649E+02  0.58521189628E+01  0.50000000000E+02  0.47000000000E+01 0. -1.
         -5    1    3    3    0  501 -0.40664099549E+02 -0.28108605649E+02 -0.58521189628E+01  0.50000000000E+02  0.47000000000E+01 0.  1.
</event>
<event>
 5    1  0.8909620E-001  0.1000000E+03  0.7546771E-02  0.1163815E+00
         11   -1    0    0    0    0  0.00000000000E+00  0.00000000000E+00  0.50000000000E+02  0.50000000000E+02  0.00000000000E+00 0.  1.
        -11   -1    0    0    0    0 -0.00000000000E+00 -0.00000000000E+00 -0.50000000000E+02  0.50000000000E+02  0.00000000000E+00 0. -1.
         23    2    1    2    0    0  0.00000000000E+00  0.00000000000E+00  0.00000000000E+00  0.10000000000E+03  0.10000000000E+03 0.  0.
          5    1    3    3  501    0 -0.28839080979E+01  0.12345596689E+02 -0.48137088783E+02  0.50000000000E+02  0.47000000000E+01 0. -1.
         -5    1    3    3    0  501  0.28839080979E+01 -0.12345596689E+02  0.48137088783E+02  0.50000000000E+02  0.47000000000E+01 0.  1.
</event>
<event>
 5    1  0.8909620E-001  0.1000000E+03  0.7546771E-02  0.1163815E+00
         11   -1    0    0    0    0  0.00000000000E+00  0.00000000000E+00  0.50000000000E+02  0.50000000000E+02  0.00000000000E+00 0. -1.
        -11   -1    0    0    0    0 -0.00000000000E+00 -0.00000000000E+00 -0.50000000000E+02  0.50000000000E+02  0.00000000000E+00 0.  1.
         23    2    1    2    0    0  0.00000000000E+00  0.00000000000E+00  0.00000000000E+00  0.10000000000E+03  0.10000000000E+03 0.  0.
          5    1    3    3  501    0  0.29747323792E+02  0.39809669160E+02 -0.28630348639E+01  0.50000000000E+02  0.47000000000E+01 0. -1.
         -5    1    3    3    0  501 -0.29747323792E+02 -0.39809669160E+02  0.28630348639E+01  0.50000000000E+02  0.47000000000E+01 0.  1.
</event>
<event>
 5    1  0.8909620E-001  0.1000000E+03  0.7546771E-02  0.1163815E+00
         11   -1    0    0    0    0  0.00000000000E+00  0.00000000000E+00  0.50000000000E+02  0.50000000000E+02  0.00000000000E+00 0. -1.
        -11   -1    0    0    0    0 -0.00000000000E+00 -0.00000000000E+00 -0.50000000000E+02  0.50000000000E+02  0.00000000000E+00 0.  1.
         23    2    1    2    0    0  0.00000000000E+00  0.00000000000E+00  0.00000000000E+00  0.10000000000E+03  0.10000000000E+03 0.  0.
          5    1    3    3  501    0 -0.39346432451E+02 -0.10306153038E+02  0.28697586361E+02  0.50000000000E+02  0.47000000000E+01 0. -1.
         -5    1    3    3    0  501  0.39346432451E+02  0.10306153038E+02 -0.28697586361E+02  0.50000000000E+02  0.47000000000E+01 0.  1.
</event>
<event>
 5    1  0.8909620E-001  0.1000000E+03  0.7546771E-02  0.1163815E+00
         11   -1    0    0    0    0  0.00000000000E+00  0.00000000000E+00  0.50000000000E+02  0.50000000000E+02  0.00000000000E+00 0. -1.
        -11   -1    0    0    0    0 -0.00000000000E+00 -0.00000000000E+00 -0.50000000000E+02  0.50000000000E+02  0.00000000000E+00 0.  1.
         23    2    1    2    0    0  0.00000000000E+00  0.00000000000E+00  0.00000000000E+00  0.10000000000E+03  0.10000000000E+03 0.  0.
          5    1    3    3  501    0  0.45565537938E+01  0.15614789713E+02  0.47046000465E+02  0.50000000000E+02  0.47000000000E+01 0. -1.
         -5    1    3    3    0  501 -0.45565537938E+01 -0.15614789713E+02 -0.47046000465E+02  0.50000000000E+02  0.47000000000E+01 0.  1.
</event>
<event>
 5    1  0.8909620E-001  0.1000000E+03  0.7546771E-02  0.1163815E+00
         11   -1    0    0    0    0  0.00000000000E+00  0.00000000000E+00  0.50000000000E+02  0.50000000000E+02  0.00000000000E+00 0.  1.
        -11   -1    0    0    0    0 -0.00000000000E+00 -0.00000000000E+00 -0.50000000000E+02  0.50000000000E+02  0.00000000000E+00 0. -1.
         23    2    1    2    0    0  0.00000000000E+00  0.00000000000E+00  0.00000000000E+00  0.10000000000E+03  0.10000000000E+03 0.  0.
          5    1    3    3  501    0 -0.46439595420E+02  0.51251324773E+01 -0.17175767647E+02  0.50000000000E+02  0.47000000000E+01 0. -1.
         -5    1    3    3    0  501  0.46439595420E+02 -0.51251324773E+01  0.17175767647E+02  0.50000000000E+02  0.47000000000E+01 0.  1.
</event>
<event>
 5    1  0.8909620E-001  0.1000000E+03  0.7546771E-02  0.1163815E+00
         11   -1    0    0    0    0  0.00000000000E+00  0.00000000000E+00  0.50000000000E+02  0.50000000000E+02  0.00000000000E+00 0. -1.
        -11   -1    0    0    0    0 -0.00000000000E+00 -0.00000000000E+00 -0.50000000000E+02  0.50000000000E+02  0.00000000000E+00 0.  1.
         23    2    1    2    0    0  0.00000000000E+00  0.00000000000E+00  0.00000000000E+00  0.10000000000E+03  0.10000000000E+03 0.  0.
          5    1    3    3  501    0 -0.42769145167E+02  0.20445780786E+02  0.15188162157E+02  0.50000000000E+02  0.47000000000E+01 0. -1.
         -5    1    3    3    0  501  0.42769145167E+02 -0.20445780786E+02 -0.15188162157E+02  0.50000000000E+02  0.47000000000E+01 0.  1.
</event>
<event>
 5    1  0.8909620E-001  0.1000000E+03  0.7546771E-02  0.1163815E+00
         11   -1    0    0    0    0  0.00000000000E+00  0.00000000000E+00  0.50000000000E+02  0.50000000000E+02  0.00000000000E+00 0.  1.
        -11   -1    0    0    0    0 -0.00000000000E+00 -0.00000000000E+00 -0.50000000000E+02  0.50000000000E+02  0.00000000000E+00 0. -1.
         23    2    1    2    0    0  0.00000000000E+00  0.00000000000E+00  0.00000000000E+00  0.10000000000E+03  0.10000000000E+03 0.  0.
          5    1    3    3  501    0  0.33919217519E+02  0.52882031340E+01 -0.36047629471E+02  0.50000000000E+02  0.47000000000E+01 0. -1.
         -5    1    3    3    0  501 -0.33919217519E+02 -0.52882031340E+01  0.36047629471E+02  0.50000000000E+02  0.47000000000E+01 0.  1.
</event>
<event>
 5    1  0.8909620E-001  0.1000000E+03  0.7546771E-02  0.1163815E+00
         11   -1    0    0    0    0  0.00000000000E+00  0.00000000000E+00  0.50000000000E+02  0.50000000000E+02  0.00000000000E+00 0. -1.
        -11   -1    0    0    0    0 -0.00000000000E+00 -0.00000000000E+00 -0.50000000000E+02  0.50000000000E+02  0.00000000000E+00 0.  1.
         23    2    1    2    0    0  0.00000000000E+00  0.00000000000E+00  0.00000000000E+00  0.10000000000E+03  0.10000000000E+03 0.  0.
          5    1    3    3  501    0  0.15498612849E+02  0.45280866270E+02  0.13687444964E+02  0.50000000000E+02  0.47000000000E+01 0. -1.
         -5    1    3    3    0  501 -0.15498612849E+02 -0.45280866270E+02 -0.13687444964E+02  0.50000000000E+02  0.47000000000E+01 0.  1.
</event>
<event>
 5    1  0.8909620E-001  0.1000000E+03  0.7546771E-02  0.1163815E+00
         11   -1    0    0    0    0  0.00000000000E+00  0.00000000000E+00  0.50000000000E+02  0.50000000000E+02  0.00000000000E+00 0.  1.
        -11   -1    0    0    0    0 -0.00000000000E+00 -0.00000000000E+00 -0.50000000000E+02  0.50000000000E+02  0.00000000000E+00 0. -1.
         23    2    1    2    0    0  0.00000000000E+00  0.00000000000E+00  0.00000000000E+00  0.10000000000E+03  0.10000000000E+03 0.  0.
          5    1    3    3  501    0  0.47344508448E+01 -0.49137625960E+02  0.64022410290E+01  0.50000000000E+02  0.47000000000E+01 0. -1.
         -5    1    3    3    0  501 -0.47344508448E+01  0.49137625960E+02 -0.64022410290E+01  0.50000000000E+02  0.47000000000E+01 0.  1.
</event>
<event>
 5    1  0.8909620E-001  0.1000000E+03  0.7546771E-02  0.1163815E+00
         11   -1    0    0    0    0  0.00000000000E+00  0.00000000000E+00  0.50000000000E+02  0.50000000000E+02  0.00000000000E+00 0.  1.
        -11   -1    0    0    0    0 -0.00000000000E+00 -0.00000000000E+00 -0.50000000000E+02  0.50000000000E+02  0.00000000000E+00 0. -1.
         23    2    1    2    0    0  0.00000000000E+00  0.00000000000E+00  0.00000000000E+00  0.10000000000E+03  0.10000000000E+03 0.  0.
          5    1    3    3  501    0 -0.12608993560E+02  0.35141353408E+02 -0.32924285293E+02  0.50000000000E+02  0.47000000000E+01 0. -1.
         -5    1    3    3    0  501  0.12608993560E+02 -0.35141353408E+02  0.32924285293E+02  0.50000000000E+02  0.47000000000E+01 0.  1.
</event>
<event>
 5    1  0.8909620E-001  0.1000000E+03  0.7546771E-02  0.1163815E+00
         11   -1    0    0    0    0  0.00000000000E+00  0.00000000000E+00  0.50000000000E+02  0.50000000000E+02  0.00000000000E+00 0. -1.
        -11   -1    0    0    0    0 -0.00000000000E+00 -0.00000000000E+00 -0.50000000000E+02  0.50000000000E+02  0.00000000000E+00 0.  1.
         23    2    1    2    0    0  0.00000000000E+00  0.00000000000E+00  0.00000000000E+00  0.10000000000E+03  0.10000000000E+03 0.  0.
          5    1    3    3  501    0 -0.34220654515E+02 -0.24384797481E+02  0.26687796020E+02  0.50000000000E+02  0.47000000000E+01 0. -1.
         -5    1    3    3    0  501  0.34220654515E+02  0.24384797481E+02 -0.26687796020E+02  0.50000000000E+02  0.47000000000E+01 0.  1.
</event>
<event>
 5    1  0.8909620E-001  0.1000000E+03  0.7546771E-02  0.1163815E+00
         11   -1    0    0    0    0  0.00000000000E+00  0.00000000000E+00  0.50000000000E+02  0.50000000000E+02  0.00000000000E+00 0. -1.
        -11   -1    0    0    0    0 -0.00000000000E+00 -0.00000000000E+00 -0.50000000000E+02  0.50000000000E+02  0.00000000000E+00 0.  1.
         23    2    1    2    0    0  0.00000000000E+00  0.00000000000E+00  0.00000000000E+00  0.10000000000E+03  0.10000000000E+03 0.  0.
          5    1    3    3  501    0  0.52082015634E+01 -0.14621238887E+02  0.47296976752E+02  0.50000000000E+02  0.47000000000E+01 0. -1.
         -5    1    3    3    0  501 -0.52082015634E+01  0.14621238887E+02 -0.47296976752E+02  0.50000000000E+02  0.47000000000E+01 0.  1.
</event>
<event>
 5    1  0.8909620E-001  0.1000000E+03  0.7546771E-02  0.1163815E+00
         11   -1    0    0    0    0  0.00000000000E+00  0.00000000000E+00  0.50000000000E+02  0.50000000000E+02  0.00000000000E+00 0. -1.
        -11   -1    0    0    0    0 -0.00000000000E+00 -0.00000000000E+00 -0.50000000000E+02  0.50000000000E+02  0.00000000000E+00 0.  1.
         23    2    1    2    0    0  0.00000000000E+00  0.00000000000E+00  0.00000000000E+00  0.10000000000E+03  0.10000000000E+03 0.  0.
          5    1    3    3  501    0 -0.12646969235E+02 -0.35617463040E+02  0.32393834225E+02  0.50000000000E+02  0.47000000000E+01 0. -1.
         -5    1    3    3    0  501  0.12646969235E+02  0.35617463040E+02 -0.32393834225E+02  0.50000000000E+02  0.47000000000E+01 0.  1.
</event>
<event>
 5    1  0.8909620E-001  0.1000000E+03  0.7546771E-02  0.1163815E+00
         11   -1    0    0    0    0  0.00000000000E+00  0.00000000000E+00  0.50000000000E+02  0.50000000000E+02  0.00000000000E+00 0. -1.
        -11   -1    0    0    0    0 -0.00000000000E+00 -0.00000000000E+00 -0.50000000000E+02  0.50000000000E+02  0.00000000000E+00 0.  1.
         23    2    1    2    0    0  0.00000000000E+00  0.00000000000E+00  0.00000000000E+00  0.10000000000E+03  0.10000000000E+03 0.  0.
          5    1    3    3  501    0  0.71208851209E+01 -0.43749742993E+02  0.22653100962E+02  0.50000000000E+02  0.47000000000E+01 0. -1.
         -5    1    3    3    0  501 -0.71208851209E+01  0.43749742993E+02 -0.22653100962E+02  0.50000000000E+02  0.47000000000E+01 0.  1.
</event>
<event>
 5    1  0.8909620E-001  0.1000000E+03  0.7546771E-02  0.1163815E+00
         11   -1    0    0    0    0  0.00000000000E+00  0.00000000000E+00  0.50000000000E+02  0.50000000000E+02  0.00000000000E+00 0. -1.
        -11   -1    0    0    0    0 -0.00000000000E+00 -0.00000000000E+00 -0.50000000000E+02  0.50000000000E+02  0.00000000000E+00 0.  1.
         23    2    1    2    0    0  0.00000000000E+00  0.00000000000E+00  0.00000000000E+00  0.10000000000E+03  0.10000000000E+03 0.  0.
          5    1    3    3  501    0  0.15020247575E+02  0.29736383773E+02  0.36987155107E+02  0.50000000000E+02  0.47000000000E+01 0. -1.
         -5    1    3    3    0  501 -0.15020247575E+02 -0.29736383773E+02 -0.36987155107E+02  0.50000000000E+02  0.47000000000E+01 0.  1.
</event>
<event>
 5    1  0.8909620E-001  0.1000000E+03  0.7546771E-02  0.1163815E+00
         11   -1    0    0    0    0  0.00000000000E+00  0.00000000000E+00  0.50000000000E+02  0.50000000000E+02  0.00000000000E+00 0. -1.
        -11   -1    0    0    0    0 -0.00000000000E+00 -0.00000000000E+00 -0.50000000000E+02  0.50000000000E+02  0.00000000000E+00 0.  1.
         23    2    1    2    0    0  0.00000000000E+00  0.00000000000E+00  0.00000000000E+00  0.10000000000E+03  0.10000000000E+03 0.  0.
          5    1    3    3  501    0 -0.27368684118E+02 -0.53986883391E+01  0.41227652054E+02  0.50000000000E+02  0.47000000000E+01 0. -1.
         -5    1    3    3    0  501  0.27368684118E+02  0.53986883391E+01 -0.41227652054E+02  0.50000000000E+02  0.47000000000E+01 0.  1.
</event>
<event>
 5    1  0.8909620E-001  0.1000000E+03  0.7546771E-02  0.1163815E+00
         11   -1    0    0    0    0  0.00000000000E+00  0.00000000000E+00  0.50000000000E+02  0.50000000000E+02  0.00000000000E+00 0.  1.
        -11   -1    0    0    0    0 -0.00000000000E+00 -0.00000000000E+00 -0.50000000000E+02  0.50000000000E+02  0.00000000000E+00 0. -1.
         23    2    1    2    0    0  0.00000000000E+00  0.00000000000E+00  0.00000000000E+00  0.10000000000E+03  0.10000000000E+03 0.  0.
          5    1    3    3  501    0  0.40048835268E+02 -0.22850344904E+02 -0.18757999132E+02  0.50000000000E+02  0.47000000000E+01 0. -1.
         -5    1    3    3    0  501 -0.40048835268E+02  0.22850344904E+02  0.18757999132E+02  0.50000000000E+02  0.47000000000E+01 0.  1.
</event>
<event>
 5    1  0.8909620E-001  0.1000000E+03  0.7546771E-02  0.1163815E+00
         11   -1    0    0    0    0  0.00000000000E+00  0.00000000000E+00  0.50000000000E+02  0.50000000000E+02  0.00000000000E+00 0. -1.
        -11   -1    0    0    0    0 -0.00000000000E+00 -0.00000000000E+00 -0.50000000000E+02  0.50000000000E+02  0.00000000000E+00 0.  1.
         23    2    1    2    0    0  0.00000000000E+00  0.00000000000E+00  0.00000000000E+00  0.10000000000E+03  0.10000000000E+03 0.  0.
          5    1    3    3  501    0  0.14714928579E+02  0.20740828137E+02  0.42792510152E+02  0.50000000000E+02  0.47000000000E+01 0. -1.
         -5    1    3    3    0  501 -0.14714928579E+02 -0.20740828137E+02 -0.42792510152E+02  0.50000000000E+02  0.47000000000E+01 0.  1.
</event>
<event>
 5    1  0.8909620E-001  0.1000000E+03  0.7546771E-02  0.1163815E+00
         11   -1    0    0    0    0  0.00000000000E+00  0.00000000000E+00  0.50000000000E+02  0.50000000000E+02  0.00000000000E+00 0.  1.
        -11   -1    0    0    0    0 -0.00000000000E+00 -0.00000000000E+00 -0.50000000000E+02  0.50000000000E+02  0.00000000000E+00 0. -1.
         23    2    1    2    0    0  0.00000000000E+00  0.00000000000E+00  0.00000000000E+00  0.10000000000E+03  0.10000000000E+03 0.  0.
          5    1    3    3  501    0  0.40867925021E+02  0.19989245928E+02 -0.20202790691E+02  0.50000000000E+02  0.47000000000E+01 0. -1.
         -5    1    3    3    0  501 -0.40867925021E+02 -0.19989245928E+02  0.20202790691E+02  0.50000000000E+02  0.47000000000E+01 0.  1.
</event>
<event>
 5    1  0.8909620E-001  0.1000000E+03  0.7546771E-02  0.1163815E+00
         11   -1    0    0    0    0  0.00000000000E+00  0.00000000000E+00  0.50000000000E+02  0.50000000000E+02  0.00000000000E+00 0.  1.
        -11   -1    0    0    0    0 -0.00000000000E+00 -0.00000000000E+00 -0.50000000000E+02  0.50000000000E+02  0.00000000000E+00 0. -1.
         23    2    1    2    0    0  0.00000000000E+00  0.00000000000E+00  0.00000000000E+00  0.10000000000E+03  0.10000000000E+03 0.  0.
          5    1    3    3  501    0 -0.12569415573E+01 -0.35861102320E+02 -0.34500890399E+02  0.50000000000E+02  0.47000000000E+01 0. -1.
         -5    1    3    3    0  501  0.12569415573E+01  0.35861102320E+02  0.34500890399E+02  0.50000000000E+02  0.47000000000E+01 0.  1.
</event>
<event>
 5    1  0.8909620E-001  0.1000000E+03  0.7546771E-02  0.1163815E+00
         11   -1    0    0    0    0  0.00000000000E+00  0.00000000000E+00  0.50000000000E+02  0.50000000000E+02  0.00000000000E+00 0.  1.
        -11   -1    0    0    0    0 -0.00000000000E+00 -0.00000000000E+00 -0.50000000000E+02  0.50000000000E+02  0.00000000000E+00 0. -1.
         23    2    1    2    0    0  0.00000000000E+00  0.00000000000E+00  0.00000000000E+00  0.10000000000E+03  0.10000000000E+03 0.  0.
          5    1    3    3  501    0  0.15091687578E+02  0.34387775122E+02 -0.32674636773E+02  0.50000000000E+02  0.47000000000E+01 0. -1.
         -5    1    3    3    0  501 -0.15091687578E+02 -0.34387775122E+02  0.32674636773E+02  0.50000000000E+02  0.47000000000E+01 0.  1.
</event>
<event>
 5    1  0.8909620E-001  0.1000000E+03  0.7546771E-02  0.1163815E+00
         11   -1    0    0    0    0  0.00000000000E+00  0.00000000000E+00  0.50000000000E+02  0.50000000000E+02  0.00000000000E+00 0. -1.
        -11   -1    0    0    0    0 -0.00000000000E+00 -0.00000000000E+00 -0.50000000000E+02  0.50000000000E+02  0.00000000000E+00 0.  1.
         23    2    1    2    0    0  0.00000000000E+00  0.00000000000E+00  0.00000000000E+00  0.10000000000E+03  0.10000000000E+03 0.  0.
          5    1    3    3  501    0  0.64556334177E+01  0.40064510398E+01  0.49195356968E+02  0.50000000000E+02  0.47000000000E+01 0. -1.
         -5    1    3    3    0  501 -0.64556334177E+01 -0.40064510398E+01 -0.49195356968E+02  0.50000000000E+02  0.47000000000E+01 0.  1.
</event>
<event>
 5    1  0.8909620E-001  0.1000000E+03  0.7546771E-02  0.1163815E+00
         11   -1    0    0    0    0  0.00000000000E+00  0.00000000000E+00  0.50000000000E+02  0.50000000000E+02  0.00000000000E+00 0. -1.
        -11   -1    0    0    0    0 -0.00000000000E+00 -0.00000000000E+00 -0.50000000000E+02  0.50000000000E+02  0.00000000000E+00 0.  1.
         23    2    1    2    0    0  0.00000000000E+00  0.00000000000E+00  0.00000000000E+00  0.10000000000E+03  0.10000000000E+03 0.  0.
          5    1    3    3  501    0 -0.43703119594E+02  0.19381818697E+02  0.13866955027E+02  0.50000000000E+02  0.47000000000E+01 0. -1.
         -5    1    3    3    0  501  0.43703119594E+02 -0.19381818697E+02 -0.13866955027E+02  0.50000000000E+02  0.47000000000E+01 0.  1.
</event>
<event>
 5    1  0.8909620E-001  0.1000000E+03  0.7546771E-02  0.1163815E+00
         11   -1    0    0    0    0  0.00000000000E+00  0.00000000000E+00  0.50000000000E+02  0.50000000000E+02  0.00000000000E+00 0. -1.
        -11   -1    0    0    0    0 -0.00000000000E+00 -0.00000000000E+00 -0.50000000000E+02  0.50000000000E+02  0.00000000000E+00 0.  1.
         23    2    1    2    0    0  0.00000000000E+00  0.00000000000E+00  0.00000000000E+00  0.10000000000E+03  0.10000000000E+03 0.  0.
          5    1    3    3  501    0  0.32084089318E+02 -0.37059247834E+02  0.86679503144E+01  0.50000000000E+02  0.47000000000E+01 0. -1.
         -5    1    3    3    0  501 -0.32084089318E+02  0.37059247834E+02 -0.86679503144E+01  0.50000000000E+02  0.47000000000E+01 0.  1.
</event>
<event>
 5    1  0.8909620E-001  0.1000000E+03  0.7546771E-02  0.1163815E+00
         11   -1    0    0    0    0  0.00000000000E+00  0.00000000000E+00  0.50000000000E+02  0.50000000000E+02  0.00000000000E+00 0. -1.
        -11   -1    0    0    0    0 -0.00000000000E+00 -0.00000000000E+00 -0.50000000000E+02  0.50000000000E+02  0.00000000000E+00 0.  1.
         23    2    1    2    0    0  0.00000000000E+00  0.00000000000E+00  0.00000000000E+00  0.10000000000E+03  0.10000000000E+03 0.  0.
          5    1    3    3  501    0 -0.10315803822E+02 -0.20221971027E+02  0.44300858674E+02  0.50000000000E+02  0.47000000000E+01 0. -1.
         -5    1    3    3    0  501  0.10315803822E+02  0.20221971027E+02 -0.44300858674E+02  0.50000000000E+02  0.47000000000E+01 0.  1.
</event>
<event>
 5    1  0.8909620E-001  0.1000000E+03  0.7546771E-02  0.1163815E+00
         11   -1    0    0    0    0  0.00000000000E+00  0.00000000000E+00  0.50000000000E+02  0.50000000000E+02  0.00000000000E+00 0. -1.
        -11   -1    0    0    0    0 -0.00000000000E+00 -0.00000000000E+00 -0.50000000000E+02  0.50000000000E+02  0.00000000000E+00 0.  1.
         23    2    1    2    0    0  0.00000000000E+00  0.00000000000E+00  0.00000000000E+00  0.10000000000E+03  0.10000000000E+03 0.  0.
          5    1    3    3  501    0 -0.33862581323E+02 -0.30971058525E+02 -0.19288056407E+02  0.50000000000E+02  0.47000000000E+01 0. -1.
         -5    1    3    3    0  501  0.33862581323E+02  0.30971058525E+02  0.19288056407E+02  0.50000000000E+02  0.47000000000E+01 0.  1.
</event>
<event>
 5    1  0.8909620E-001  0.1000000E+03  0.7546771E-02  0.1163815E+00
         11   -1    0    0    0    0  0.00000000000E+00  0.00000000000E+00  0.50000000000E+02  0.50000000000E+02  0.00000000000E+00 0. -1.
        -11   -1    0    0    0    0 -0.00000000000E+00 -0.00000000000E+00 -0.50000000000E+02  0.50000000000E+02  0.00000000000E+00 0.  1.
         23    2    1    2    0    0  0.00000000000E+00  0.00000000000E+00  0.00000000000E+00  0.10000000000E+03  0.10000000000E+03 0.  0.
          5    1    3    3  501    0  0.22139097184E+02 -0.15025299558E+02  0.41976311761E+02  0.50000000000E+02  0.47000000000E+01 0. -1.
         -5    1    3    3    0  501 -0.22139097184E+02  0.15025299558E+02 -0.41976311761E+02  0.50000000000E+02  0.47000000000E+01 0.  1.
</event>
<event>
 5    1  0.8909620E-001  0.1000000E+03  0.7546771E-02  0.1163815E+00
         11   -1    0    0    0    0  0.00000000000E+00  0.00000000000E+00  0.50000000000E+02  0.50000000000E+02  0.00000000000E+00 0.  1.
        -11   -1    0    0    0    0 -0.00000000000E+00 -0.00000000000E+00 -0.50000000000E+02  0.50000000000E+02  0.00000000000E+00 0. -1.
         23    2    1    2    0    0  0.00000000000E+00  0.00000000000E+00  0.00000000000E+00  0.10000000000E+03  0.10000000000E+03 0.  0.
          5    1    3    3  501    0 -0.26277952838E+02 -0.16371428900E+01 -0.42245697507E+02  0.50000000000E+02  0.47000000000E+01 0. -1.
         -5    1    3    3    0  501  0.26277952838E+02  0.16371428900E+01  0.42245697507E+02  0.50000000000E+02  0.47000000000E+01 0.  1.
</event>
<event>
 5    1  0.8909620E-001  0.1000000E+03  0.7546771E-02  0.1163815E+00
         11   -1    0    0    0    0  0.00000000000E+00  0.00000000000E+00  0.50000000000E+02  0.50000000000E+02  0.00000000000E+00 0. -1.
        -11   -1    0    0    0    0 -0.00000000000E+00 -0.00000000000E+00 -0.50000000000E+02  0.50000000000E+02  0.00000000000E+00 0.  1.
         23    2    1    2    0    0  0.00000000000E+00  0.00000000000E+00  0.00000000000E+00  0.10000000000E+03  0.10000000000E+03 0.  0.
          5    1    3    3  501    0  0.18838108021E+02 -0.15215147675E+02  0.43491780458E+02  0.50000000000E+02  0.47000000000E+01 0. -1.
         -5    1    3    3    0  501 -0.18838108021E+02  0.15215147675E+02 -0.43491780458E+02  0.50000000000E+02  0.47000000000E+01 0.  1.
</event>
<event>
 5    1  0.8909620E-001  0.1000000E+03  0.7546771E-02  0.1163815E+00
         11   -1    0    0    0    0  0.00000000000E+00  0.00000000000E+00  0.50000000000E+02  0.50000000000E+02  0.00000000000E+00 0. -1.
        -11   -1    0    0    0    0 -0.00000000000E+00 -0.00000000000E+00 -0.50000000000E+02  0.50000000000E+02  0.00000000000E+00 0.  1.
         23    2    1    2    0    0  0.00000000000E+00  0.00000000000E+00  0.00000000000E+00  0.10000000000E+03  0.10000000000E+03 0.  0.
          5    1    3    3  501    0  0.17184910109E+02  0.73491728579E+01  0.46136520489E+02  0.50000000000E+02  0.47000000000E+01 0. -1.
         -5    1    3    3    0  501 -0.17184910109E+02 -0.73491728579E+01 -0.46136520489E+02  0.50000000000E+02  0.47000000000E+01 0.  1.
</event>
<event>
 5    1  0.8909620E-001  0.1000000E+03  0.7546771E-02  0.1163815E+00
         11   -1    0    0    0    0  0.00000000000E+00  0.00000000000E+00  0.50000000000E+02  0.50000000000E+02  0.00000000000E+00 0.  1.
        -11   -1    0    0    0    0 -0.00000000000E+00 -0.00000000000E+00 -0.50000000000E+02  0.50000000000E+02  0.00000000000E+00 0. -1.
         23    2    1    2    0    0  0.00000000000E+00  0.00000000000E+00  0.00000000000E+00  0.10000000000E+03  0.10000000000E+03 0.  0.
          5    1    3    3  501    0 -0.18749161203E+02 -0.42707065676E+02 -0.17392110153E+02  0.50000000000E+02  0.47000000000E+01 0. -1.
         -5    1    3    3    0  501  0.18749161203E+02  0.42707065676E+02  0.17392110153E+02  0.50000000000E+02  0.47000000000E+01 0.  1.
</event>
<event>
 5    1  0.8909620E-001  0.1000000E+03  0.7546771E-02  0.1163815E+00
         11   -1    0    0    0    0  0.00000000000E+00  0.00000000000E+00  0.50000000000E+02  0.50000000000E+02  0.00000000000E+00 0. -1.
        -11   -1    0    0    0    0 -0.00000000000E+00 -0.00000000000E+00 -0.50000000000E+02  0.50000000000E+02  0.00000000000E+00 0.  1.
         23    2    1    2    0    0  0.00000000000E+00  0.00000000000E+00  0.00000000000E+00  0.10000000000E+03  0.10000000000E+03 0.  0.
          5    1    3    3  501    0  0.31515202471E+02 -0.38512747479E+02 -0.12125571511E+01  0.50000000000E+02  0.47000000000E+01 0. -1.
         -5    1    3    3    0  501 -0.31515202471E+02  0.38512747479E+02  0.12125571511E+01  0.50000000000E+02  0.47000000000E+01 0.  1.
</event>
<event>
 5    1  0.8909620E-001  0.1000000E+03  0.7546771E-02  0.1163815E+00
         11   -1    0    0    0    0  0.00000000000E+00  0.00000000000E+00  0.50000000000E+02  0.50000000000E+02  0.00000000000E+00 0. -1.
        -11   -1    0    0    0    0 -0.00000000000E+00 -0.00000000000E+00 -0.50000000000E+02  0.50000000000E+02  0.00000000000E+00 0.  1.
         23    2    1    2    0    0  0.00000000000E+00  0.00000000000E+00  0.00000000000E+00  0.10000000000E+03  0.10000000000E+03 0.  0.
          5    1    3    3  501    0  0.19312530225E+02 -0.45706123258E+02  0.39857838715E+01  0.50000000000E+02  0.47000000000E+01 0. -1.
         -5    1    3    3    0  501 -0.19312530225E+02  0.45706123258E+02 -0.39857838715E+01  0.50000000000E+02  0.47000000000E+01 0.  1.
</event>
<event>
 5    1  0.8909620E-001  0.1000000E+03  0.7546771E-02  0.1163815E+00
         11   -1    0    0    0    0  0.00000000000E+00  0.00000000000E+00  0.50000000000E+02  0.50000000000E+02  0.00000000000E+00 0. -1.
        -11   -1    0    0    0    0 -0.00000000000E+00 -0.00000000000E+00 -0.50000000000E+02  0.50000000000E+02  0.00000000000E+00 0.  1.
         23    2    1    2    0    0  0.00000000000E+00  0.00000000000E+00  0.00000000000E+00  0.10000000000E+03  0.10000000000E+03 0.  0.
          5    1    3    3  501    0 -0.43970550997E+02  0.19044954512E+02  0.13482965278E+02  0.50000000000E+02  0.47000000000E+01 0. -1.
         -5    1    3    3    0  501  0.43970550997E+02 -0.19044954512E+02 -0.13482965278E+02  0.50000000000E+02  0.47000000000E+01 0.  1.
</event>
<event>
 5    1  0.8909620E-001  0.1000000E+03  0.7546771E-02  0.1163815E+00
         11   -1    0    0    0    0  0.00000000000E+00  0.00000000000E+00  0.50000000000E+02  0.50000000000E+02  0.00000000000E+00 0. -1.
        -11   -1    0    0    0    0 -0.00000000000E+00 -0.00000000000E+00 -0.50000000000E+02  0.50000000000E+02  0.00000000000E+00 0.  1.
         23    2    1    2    0    0  0.00000000000E+00  0.00000000000E+00  0.00000000000E+00  0.10000000000E+03  0.10000000000E+03 0.  0.
          5    1    3    3  501    0  0.27891833625E+02 -0.18497839020E+02  0.36848141997E+02  0.50000000000E+02  0.47000000000E+01 0. -1.
         -5    1    3    3    0  501 -0.27891833625E+02  0.18497839020E+02 -0.36848141997E+02  0.50000000000E+02  0.47000000000E+01 0.  1.
</event>
<event>
 5    1  0.8909620E-001  0.1000000E+03  0.7546771E-02  0.1163815E+00
         11   -1    0    0    0    0  0.00000000000E+00  0.00000000000E+00  0.50000000000E+02  0.50000000000E+02  0.00000000000E+00 0.  1.
        -11   -1    0    0    0    0 -0.00000000000E+00 -0.00000000000E+00 -0.50000000000E+02  0.50000000000E+02  0.00000000000E+00 0. -1.
         23    2    1    2    0    0  0.00000000000E+00  0.00000000000E+00  0.00000000000E+00  0.10000000000E+03  0.10000000000E+03 0.  0.
          5    1    3    3  501    0  0.12965831879E+02 -0.39299716054E+02 -0.27664589673E+02  0.50000000000E+02  0.47000000000E+01 0. -1.
         -5    1    3    3    0  501 -0.12965831879E+02  0.39299716054E+02  0.27664589673E+02  0.50000000000E+02  0.47000000000E+01 0.  1.
</event>
<event>
 5    1  0.8909620E-001  0.1000000E+03  0.7546771E-02  0.1163815E+00
         11   -1    0    0    0    0  0.00000000000E+00  0.00000000000E+00  0.50000000000E+02  0.50000000000E+02  0.00000000000E+00 0.  1.
        -11   -1    0    0    0    0 -0.00000000000E+00 -0.00000000000E+00 -0.50000000000E+02  0.50000000000E+02  0.00000000000E+00 0. -1.
         23    2    1    2    0    0  0.00000000000E+00  0.00000000000E+00  0.00000000000E+00  0.10000000000E+03  0.10000000000E+03 0.  0.
          5    1    3    3  501    0 -0.26363737401E+02  0.21563687840E+02 -0.36302489129E+02  0.50000000000E+02  0.47000000000E+01 0. -1.
         -5    1    3    3    0  501  0.26363737401E+02 -0.21563687840E+02  0.36302489129E+02  0.50000000000E+02  0.47000000000E+01 0.  1.
</event>
<event>
 5    1  0.8909620E-001  0.1000000E+03  0.7546771E-02  0.1163815E+00
         11   -1    0    0    0    0  0.00000000000E+00  0.00000000000E+00  0.50000000000E+02  0.50000000000E+02  0.00000000000E+00 0. -1.
        -11   -1    0    0    0    0 -0.00000000000E+00 -0.00000000000E+00 -0.50000000000E+02  0.50000000000E+02  0.00000000000E+00 0.  1.
         23    2    1    2    0    0  0.00000000000E+00  0.00000000000E+00  0.00000000000E+00  0.10000000000E+03  0.10000000000E+03 0.  0.
          5    1    3    3  501    0  0.14355222078E+02 -0.24251698025E+01  0.47602060360E+02  0.50000000000E+02  0.47000000000E+01 0. -1.
         -5    1    3    3    0  501 -0.14355222078E+02  0.24251698025E+01 -0.47602060360E+02  0.50000000000E+02  0.47000000000E+01 0.  1.
</event>
<event>
 5    1  0.8909620E-001  0.1000000E+03  0.7546771E-02  0.1163815E+00
         11   -1    0    0    0    0  0.00000000000E+00  0.00000000000E+00  0.50000000000E+02  0.50000000000E+02  0.00000000000E+00 0. -1.
        -11   -1    0    0    0    0 -0.00000000000E+00 -0.00000000000E+00 -0.50000000000E+02  0.50000000000E+02  0.00000000000E+00 0.  1.
         23    2    1    2    0    0  0.00000000000E+00  0.00000000000E+00  0.00000000000E+00  0.10000000000E+03  0.10000000000E+03 0.  0.
          5    1    3    3  501    0 -0.24491507013E+02 -0.42978211813E+02  0.55632179158E+01  0.50000000000E+02  0.47000000000E+01 0. -1.
         -5    1    3    3    0  501  0.24491507013E+02  0.42978211813E+02 -0.55632179158E+01  0.50000000000E+02  0.47000000000E+01 0.  1.
</event>
<event>
 5    1  0.8909620E-001  0.1000000E+03  0.7546771E-02  0.1163815E+00
         11   -1    0    0    0    0  0.00000000000E+00  0.00000000000E+00  0.50000000000E+02  0.50000000000E+02  0.00000000000E+00 0.  1.
        -11   -1    0    0    0    0 -0.00000000000E+00 -0.00000000000E+00 -0.50000000000E+02  0.50000000000E+02  0.00000000000E+00 0. -1.
         23    2    1    2    0    0  0.00000000000E+00  0.00000000000E+00  0.00000000000E+00  0.10000000000E+03  0.10000000000E+03 0.  0.
          5    1    3    3  501    0 -0.13603529855E+02 -0.11389369182E+02 -0.46509528541E+02  0.50000000000E+02  0.47000000000E+01 0. -1.
         -5    1    3    3    0  501  0.13603529855E+02  0.11389369182E+02  0.46509528541E+02  0.50000000000E+02  0.47000000000E+01 0.  1.
</event>
<event>
 5    1  0.8909620E-001  0.1000000E+03  0.7546771E-02  0.1163815E+00
         11   -1    0    0    0    0  0.00000000000E+00  0.00000000000E+00  0.50000000000E+02  0.50000000000E+02  0.00000000000E+00 0.  1.
        -11   -1    0    0    0    0 -0.00000000000E+00 -0.00000000000E+00 -0.50000000000E+02  0.50000000000E+02  0.00000000000E+00 0. -1.
         23    2    1    2    0    0  0.00000000000E+00  0.00000000000E+00  0.00000000000E+00  0.10000000000E+03  0.10000000000E+03 0.  0.
          5    1    3    3  501    0 -0.36258370372E+02  0.24537467758E+02 -0.23688673538E+02  0.50000000000E+02  0.47000000000E+01 0. -1.
         -5    1    3    3    0  501  0.36258370372E+02 -0.24537467758E+02  0.23688673538E+02  0.50000000000E+02  0.47000000000E+01 0.  1.
</event>
<event>
 5    1  0.8909620E-001  0.1000000E+03  0.7546771E-02  0.1163815E+00
         11   -1    0    0    0    0  0.00000000000E+00  0.00000000000E+00  0.50000000000E+02  0.50000000000E+02  0.00000000000E+00 0.  1.
        -11   -1    0    0    0    0 -0.00000000000E+00 -0.00000000000E+00 -0.50000000000E+02  0.50000000000E+02  0.00000000000E+00 0. -1.
         23    2    1    2    0    0  0.00000000000E+00  0.00000000000E+00  0.00000000000E+00  0.10000000000E+03  0.10000000000E+03 0.  0.
          5    1    3    3  501    0  0.20921581684E+02  0.17527916201E+02 -0.41628951146E+02  0.50000000000E+02  0.47000000000E+01 0. -1.
         -5    1    3    3    0  501 -0.20921581684E+02 -0.17527916201E+02  0.41628951146E+02  0.50000000000E+02  0.47000000000E+01 0.  1.
</event>
<event>
 5    1  0.8909620E-001  0.1000000E+03  0.7546771E-02  0.1163815E+00
         11   -1    0    0    0    0  0.00000000000E+00  0.00000000000E+00  0.50000000000E+02  0.50000000000E+02  0.00000000000E+00 0. -1.
        -11   -1    0    0    0    0 -0.00000000000E+00 -0.00000000000E+00 -0.50000000000E+02  0.50000000000E+02  0.00000000000E+00 0.  1.
         23    2    1    2    0    0  0.00000000000E+00  0.00000000000E+00  0.00000000000E+00  0.10000000000E+03  0.10000000000E+03 0.  0.
          5    1    3    3  501    0  0.28240148126E+01  0.27122483512E+02  0.41644997641E+02  0.50000000000E+02  0.47000000000E+01 0. -1.
         -5    1    3    3    0  501 -0.28240148126E+01 -0.27122483512E+02 -0.41644997641E+02  0.50000000000E+02  0.47000000000E+01 0.  1.
</event>
<event>
 5    1  0.8909620E-001  0.1000000E+03  0.7546771E-02  0.1163815E+00
         11   -1    0    0    0    0  0.00000000000E+00  0.00000000000E+00  0.50000000000E+02  0.50000000000E+02  0.00000000000E+00 0.  1.
        -11   -1    0    0    0    0 -0.00000000000E+00 -0.00000000000E+00 -0.50000000000E+02  0.50000000000E+02  0.00000000000E+00 0. -1.
         23    2    1    2    0    0  0.00000000000E+00  0.00000000000E+00  0.00000000000E+00  0.10000000000E+03  0.10000000000E+03 0.  0.
          5    1    3    3  501    0 -0.40517990894E+02  0.19775250562E+02 -0.21098385700E+02  0.50000000000E+02  0.47000000000E+01 0. -1.
         -5    1    3    3    0  501  0.40517990894E+02 -0.19775250562E+02  0.21098385700E+02  0.50000000000E+02  0.47000000000E+01 0.  1.
</event>
<event>
 5    1  0.8909620E-001  0.1000000E+03  0.7546771E-02  0.1163815E+00
         11   -1    0    0    0    0  0.00000000000E+00  0.00000000000E+00  0.50000000000E+02  0.50000000000E+02  0.00000000000E+00 0. -1.
        -11   -1    0    0    0    0 -0.00000000000E+00 -0.00000000000E+00 -0.50000000000E+02  0.50000000000E+02  0.00000000000E+00 0.  1.
         23    2    1    2    0    0  0.00000000000E+00  0.00000000000E+00  0.00000000000E+00  0.10000000000E+03  0.10000000000E+03 0.  0.
          5    1    3    3  501    0  0.24307711000E+02  0.14569624002E+02  0.40923969045E+02  0.50000000000E+02  0.47000000000E+01 0. -1.
         -5    1    3    3    0  501 -0.24307711000E+02 -0.14569624002E+02 -0.40923969045E+02  0.50000000000E+02  0.47000000000E+01 0.  1.
</event>
<event>
 5    1  0.8909620E-001  0.1000000E+03  0.7546771E-02  0.1163815E+00
         11   -1    0    0    0    0  0.00000000000E+00  0.00000000000E+00  0.50000000000E+02  0.50000000000E+02  0.00000000000E+00 0. -1.
        -11   -1    0    0    0    0 -0.00000000000E+00 -0.00000000000E+00 -0.50000000000E+02  0.50000000000E+02  0.00000000000E+00 0.  1.
         23    2    1    2    0    0  0.00000000000E+00  0.00000000000E+00  0.00000000000E+00  0.10000000000E+03  0.10000000000E+03 0.  0.
          5    1    3    3  501    0 -0.23776248388E+01  0.48653229624E+02 -0.10252811678E+02  0.50000000000E+02  0.47000000000E+01 0. -1.
         -5    1    3    3    0  501  0.23776248388E+01 -0.48653229624E+02  0.10252811678E+02  0.50000000000E+02  0.47000000000E+01 0.  1.
</event>
<event>
 5    1  0.8909620E-001  0.1000000E+03  0.7546771E-02  0.1163815E+00
         11   -1    0    0    0    0  0.00000000000E+00  0.00000000000E+00  0.50000000000E+02  0.50000000000E+02  0.00000000000E+00 0.  1.
        -11   -1    0    0    0    0 -0.00000000000E+00 -0.00000000000E+00 -0.50000000000E+02  0.50000000000E+02  0.00000000000E+00 0. -1.
         23    2    1    2    0    0  0.00000000000E+00  0.00000000000E+00  0.00000000000E+00  0.10000000000E+03  0.10000000000E+03 0.  0.
          5    1    3    3  501    0  0.16745572506E+02  0.35382743411E+02 -0.30749914962E+02  0.50000000000E+02  0.47000000000E+01 0. -1.
         -5    1    3    3    0  501 -0.16745572506E+02 -0.35382743411E+02  0.30749914962E+02  0.50000000000E+02  0.47000000000E+01 0.  1.
</event>
<event>
 5    1  0.8909620E-001  0.1000000E+03  0.7546771E-02  0.1163815E+00
         11   -1    0    0    0    0  0.00000000000E+00  0.00000000000E+00  0.50000000000E+02  0.50000000000E+02  0.00000000000E+00 0. -1.
        -11   -1    0    0    0    0 -0.00000000000E+00 -0.00000000000E+00 -0.50000000000E+02  0.50000000000E+02  0.00000000000E+00 0.  1.
         23    2    1    2    0    0  0.00000000000E+00  0.00000000000E+00  0.00000000000E+00  0.10000000000E+03  0.10000000000E+03 0.  0.
          5    1    3    3  501    0 -0.74149740393E+01 -0.26516797865E+02  0.41470321809E+02  0.50000000000E+02  0.47000000000E+01 0. -1.
         -5    1    3    3    0  501  0.74149740393E+01  0.26516797865E+02 -0.41470321809E+02  0.50000000000E+02  0.47000000000E+01 0.  1.
</event>
<event>
 5    1  0.8909620E-001  0.1000000E+03  0.7546771E-02  0.1163815E+00
         11   -1    0    0    0    0  0.00000000000E+00  0.00000000000E+00  0.50000000000E+02  0.50000000000E+02  0.00000000000E+00 0. -1.
        -11   -1    0    0    0    0 -0.00000000000E+00 -0.00000000000E+00 -0.50000000000E+02  0.50000000000E+02  0.00000000000E+00 0.  1.
         23    2    1    2    0    0  0.00000000000E+00  0.00000000000E+00  0.00000000000E+00  0.10000000000E+03  0.10000000000E+03 0.  0.
          5    1    3    3  501    0  0.24388121875E+02  0.18780384687E+02  0.39120667970E+02  0.50000000000E+02  0.47000000000E+01 0. -1.
         -5    1    3    3    0  501 -0.24388121875E+02 -0.18780384687E+02 -0.39120667970E+02  0.50000000000E+02  0.47000000000E+01 0.  1.
</event>
<event>
 5    1  0.8909620E-001  0.1000000E+03  0.7546771E-02  0.1163815E+00
         11   -1    0    0    0    0  0.00000000000E+00  0.00000000000E+00  0.50000000000E+02  0.50000000000E+02  0.00000000000E+00 0. -1.
        -11   -1    0    0    0    0 -0.00000000000E+00 -0.00000000000E+00 -0.50000000000E+02  0.50000000000E+02  0.00000000000E+00 0.  1.
         23    2    1    2    0    0  0.00000000000E+00  0.00000000000E+00  0.00000000000E+00  0.10000000000E+03  0.10000000000E+03 0.  0.
          5    1    3    3  501    0  0.67730106517E+01  0.37151961990E+01  0.49175539081E+02  0.50000000000E+02  0.47000000000E+01 0. -1.
         -5    1    3    3    0  501 -0.67730106517E+01 -0.37151961990E+01 -0.49175539081E+02  0.50000000000E+02  0.47000000000E+01 0.  1.
</event>
