<event>
 4    1  0.4933936E-004  0.1000000E+04  0.7546771E-02  0.8684367E-01
         11   -1    0    0    0    0  0.00000000000E+00  0.00000000000E+00  0.50000000000E+03  0.50000000000E+03  0.00000000000E+00 0.  1.
        -11   -1    0    0    0    0 -0.00000000000E+00 -0.00000000000E+00 -0.50000000000E+03  0.50000000000E+03  0.00000000000E+00 0. -1.
          5    1    1    2  501    0  0.42403199745E+03 -0.12350894893E+03 -0.23435083673E+03  0.50000000000E+03  0.47000000000E+01 0. -1.
         -5    1    1    2    0  501 -0.42403199745E+03  0.12350894893E+03  0.23435083673E+03  0.50000000000E+03  0.47000000000E+01 0.  1.
</event>
<event>
 4    1  0.4933936E-004  0.1000000E+04  0.7546771E-02  0.8684367E-01
         11   -1    0    0    0    0  0.00000000000E+00  0.00000000000E+00  0.50000000000E+03  0.50000000000E+03  0.00000000000E+00 0. -1.
        -11   -1    0    0    0    0 -0.00000000000E+00 -0.00000000000E+00 -0.50000000000E+03  0.50000000000E+03  0.00000000000E+00 0.  1.
          5    1    1    2  501    0  0.58326353398E+02  0.15782427614E+03  0.47081572230E+03  0.50000000000E+03  0.47000000000E+01 0. -1.
         -5    1    1    2    0  501 -0.58326353398E+02 -0.15782427614E+03 -0.47081572230E+03  0.50000000000E+03  0.47000000000E+01 0.  1.
</event>
<event>
 4    1  0.4933936E-004  0.1000000E+04  0.7546771E-02  0.8684367E-01
         11   -1    0    0    0    0  0.00000000000E+00  0.00000000000E+00  0.50000000000E+03  0.50000000000E+03  0.00000000000E+00 0. -1.
        -11   -1    0    0    0    0 -0.00000000000E+00 -0.00000000000E+00 -0.50000000000E+03  0.50000000000E+03  0.00000000000E+00 0.  1.
          5    1    1    2  501    0 -0.25742917420E+03 -0.31136203968E+03  0.29455357835E+03  0.50000000000E+03  0.47000000000E+01 0. -1.
         -5    1    1    2    0  501  0.25742917420E+03  0.31136203968E+03 -0.29455357835E+03  0.50000000000E+03  0.47000000000E+01 0.  1.
</event>
<event>
 4    1  0.4933936E-004  0.1000000E+04  0.7546771E-02  0.8684367E-01
         11   -1    0    0    0    0  0.00000000000E+00  0.00000000000E+00  0.50000000000E+03  0.50000000000E+03  0.00000000000E+00 0. -1.
        -11   -1    0    0    0    0 -0.00000000000E+00 -0.00000000000E+00 -0.50000000000E+03  0.50000000000E+03  0.00000000000E+00 0.  1.
          5    1    1    2  501    0 -0.28595685713E+03 -0.27614177379E+03  0.30323638737E+03  0.50000000000E+03  0.47000000000E+01 0. -1.
         -5    1    1    2    0  501  0.28595685713E+03  0.27614177379E+03 -0.30323638737E+03  0.50000000000E+03  0.47000000000E+01 0.  1.
</event>
<event>
 4    1  0.4933936E-004  0.1000000E+04  0.7546771E-02  0.8684367E-01
         11   -1    0    0    0    0  0.00000000000E+00  0.00000000000E+00  0.50000000000E+03  0.50000000000E+03  0.00000000000E+00 0. -1.
        -11   -1    0    0    0    0 -0.00000000000E+00 -0.00000000000E+00 -0.50000000000E+03  0.50000000000E+03  0.00000000000E+00 0.  1.
          5    1    1    2  501    0  0.26788104894E+02  0.46764800869E+03  0.17483033891E+03  0.50000000000E+03  0.47000000000E+01 0. -1.
         -5    1    1    2    0  501 -0.26788104894E+02 -0.46764800869E+03 -0.17483033891E+03  0.50000000000E+03  0.47000000000E+01 0.  1.
</event>
<event>
 4    1  0.4933936E-004  0.1000000E+04  0.7546771E-02  0.8684367E-01
         11   -1    0    0    0    0  0.00000000000E+00  0.00000000000E+00  0.50000000000E+03  0.50000000000E+03  0.00000000000E+00 0.  1.
        -11   -1    0    0    0    0 -0.00000000000E+00 -0.00000000000E+00 -0.50000000000E+03  0.50000000000E+03  0.00000000000E+00 0. -1.
          5    1    1    2  501    0  0.45811664821E+03 -0.35818771726E+01  0.20023540344E+03  0.50000000000E+03  0.47000000000E+01 0.  1.
         -5    1    1    2    0  501 -0.45811664821E+03  0.35818771726E+01 -0.20023540344E+03  0.50000000000E+03  0.47000000000E+01 0. -1.
</event>
<event>
 4    1  0.4933936E-004  0.1000000E+04  0.7546771E-02  0.8684367E-01
         11   -1    0    0    0    0  0.00000000000E+00  0.00000000000E+00  0.50000000000E+03  0.50000000000E+03  0.00000000000E+00 0.  1.
        -11   -1    0    0    0    0 -0.00000000000E+00 -0.00000000000E+00 -0.50000000000E+03  0.50000000000E+03  0.00000000000E+00 0. -1.
          5    1    1    2  501    0 -0.23397963507E+03 -0.20385737805E+03  0.39201225719E+03  0.50000000000E+03  0.47000000000E+01 0.  1.
         -5    1    1    2    0  501  0.23397963507E+03  0.20385737805E+03 -0.39201225719E+03  0.50000000000E+03  0.47000000000E+01 0. -1.
</event>
<event>
 4    1  0.4933936E-004  0.1000000E+04  0.7546771E-02  0.8684367E-01
         11   -1    0    0    0    0  0.00000000000E+00  0.00000000000E+00  0.50000000000E+03  0.50000000000E+03  0.00000000000E+00 0.  1.
        -11   -1    0    0    0    0 -0.00000000000E+00 -0.00000000000E+00 -0.50000000000E+03  0.50000000000E+03  0.00000000000E+00 0. -1.
          5    1    1    2  501    0  0.31590428870E+03  0.27717316035E+03  0.27084576711E+03  0.50000000000E+03  0.47000000000E+01 0.  1.
         -5    1    1    2    0  501 -0.31590428870E+03 -0.27717316035E+03 -0.27084576711E+03  0.50000000000E+03  0.47000000000E+01 0. -1.
</event>
<event>
 4    1  0.4933936E-004  0.1000000E+04  0.7546771E-02  0.8684367E-01
         11   -1    0    0    0    0  0.00000000000E+00  0.00000000000E+00  0.50000000000E+03  0.50000000000E+03  0.00000000000E+00 0. -1.
        -11   -1    0    0    0    0 -0.00000000000E+00 -0.00000000000E+00 -0.50000000000E+03  0.50000000000E+03  0.00000000000E+00 0.  1.
          5    1    1    2  501    0  0.24434092989E+02 -0.45906132149E+03  0.19657972483E+03  0.50000000000E+03  0.47000000000E+01 0. -1.
         -5    1    1    2    0  501 -0.24434092989E+02  0.45906132149E+03 -0.19657972483E+03  0.50000000000E+03  0.47000000000E+01 0.  1.
</event>
<event>
 4    1  0.4933936E-004  0.1000000E+04  0.7546771E-02  0.8684367E-01
         11   -1    0    0    0    0  0.00000000000E+00  0.00000000000E+00  0.50000000000E+03  0.50000000000E+03  0.00000000000E+00 0. -1.
        -11   -1    0    0    0    0 -0.00000000000E+00 -0.00000000000E+00 -0.50000000000E+03  0.50000000000E+03  0.00000000000E+00 0.  1.
          5    1    1    2  501    0 -0.42371343737E+03 -0.24815338657E+03  0.94152693666E+02  0.50000000000E+03  0.47000000000E+01 0. -1.
         -5    1    1    2    0  501  0.42371343737E+03  0.24815338657E+03 -0.94152693666E+02  0.50000000000E+03  0.47000000000E+01 0.  1.
</event>
<event>
 4    1  0.4933936E-004  0.1000000E+04  0.7546771E-02  0.8684367E-01
         11   -1    0    0    0    0  0.00000000000E+00  0.00000000000E+00  0.50000000000E+03  0.50000000000E+03  0.00000000000E+00 0.  1.
        -11   -1    0    0    0    0 -0.00000000000E+00 -0.00000000000E+00 -0.50000000000E+03  0.50000000000E+03  0.00000000000E+00 0. -1.
          5    1    1    2  501    0 -0.18021601843E+03  0.98991678831E+02  0.45574197110E+03  0.50000000000E+03  0.47000000000E+01 0.  1.
         -5    1    1    2    0  501  0.18021601843E+03 -0.98991678831E+02 -0.45574197110E+03  0.50000000000E+03  0.47000000000E+01 0. -1.
</event>
<event>
 4    1  0.4933936E-004  0.1000000E+04  0.7546771E-02  0.8684367E-01
         11   -1    0    0    0    0  0.00000000000E+00  0.00000000000E+00  0.50000000000E+03  0.50000000000E+03  0.00000000000E+00 0. -1.
        -11   -1    0    0    0    0 -0.00000000000E+00 -0.00000000000E+00 -0.50000000000E+03  0.50000000000E+03  0.00000000000E+00 0.  1.
          5    1    1    2  501    0 -0.47937773654E+02 -0.14754549277E+03  0.47530012352E+03  0.50000000000E+03  0.47000000000E+01 0. -1.
         -5    1    1    2    0  501  0.47937773654E+02  0.14754549277E+03 -0.47530012352E+03  0.50000000000E+03  0.47000000000E+01 0.  1.
</event>
<event>
 4    1  0.4933936E-004  0.1000000E+04  0.7546771E-02  0.8684367E-01
         11   -1    0    0    0    0  0.00000000000E+00  0.00000000000E+00  0.50000000000E+03  0.50000000000E+03  0.00000000000E+00 0.  1.
        -11   -1    0    0    0    0 -0.00000000000E+00 -0.00000000000E+00 -0.50000000000E+03  0.50000000000E+03  0.00000000000E+00 0. -1.
          5    1    1    2  501    0 -0.30440760780E+03 -0.37262919809E+02  0.39487389521E+03  0.50000000000E+03  0.47000000000E+01 0.  1.
         -5    1    1    2    0  501  0.30440760780E+03  0.37262919809E+02 -0.39487389521E+03  0.50000000000E+03  0.47000000000E+01 0. -1.
</event>
<event>
 4    1  0.4933936E-004  0.1000000E+04  0.7546771E-02  0.8684367E-01
         11   -1    0    0    0    0  0.00000000000E+00  0.00000000000E+00  0.50000000000E+03  0.50000000000E+03  0.00000000000E+00 0. -1.
        -11   -1    0    0    0    0 -0.00000000000E+00 -0.00000000000E+00 -0.50000000000E+03  0.50000000000E+03  0.00000000000E+00 0.  1.
          5    1    1    2  501    0  0.31870184961E+03 -0.34004131547E+03  0.18104956456E+03  0.50000000000E+03  0.47000000000E+01 0. -1.
         -5    1    1    2    0  501 -0.31870184961E+03  0.34004131547E+03 -0.18104956456E+03  0.50000000000E+03  0.47000000000E+01 0.  1.
</event>
<event>
 4    1  0.4933936E-004  0.1000000E+04  0.7546771E-02  0.8684367E-01
         11   -1    0    0    0    0  0.00000000000E+00  0.00000000000E+00  0.50000000000E+03  0.50000000000E+03  0.00000000000E+00 0. -1.
        -11   -1    0    0    0    0 -0.00000000000E+00 -0.00000000000E+00 -0.50000000000E+03  0.50000000000E+03  0.00000000000E+00 0.  1.
          5    1    1    2  501    0  0.97261157080E+02 -0.27874210013E+03  0.40351086595E+03  0.50000000000E+03  0.47000000000E+01 0. -1.
         -5    1    1    2    0  501 -0.97261157080E+02  0.27874210013E+03 -0.40351086595E+03  0.50000000000E+03  0.47000000000E+01 0.  1.
</event>
<event>
 4    1  0.4933936E-004  0.1000000E+04  0.7546771E-02  0.8684367E-01
         11   -1    0    0    0    0  0.00000000000E+00  0.00000000000E+00  0.50000000000E+03  0.50000000000E+03  0.00000000000E+00 0. -1.
        -11   -1    0    0    0    0 -0.00000000000E+00 -0.00000000000E+00 -0.50000000000E+03  0.50000000000E+03  0.00000000000E+00 0.  1.
          5    1    1    2  501    0 -0.39624660077E+03  0.24094686313E+03  0.18684525823E+03  0.50000000000E+03  0.47000000000E+01 0. -1.
         -5    1    1    2    0  501  0.39624660077E+03 -0.24094686313E+03 -0.18684525823E+03  0.50000000000E+03  0.47000000000E+01 0.  1.
</event>
<event>
 4    1  0.4933936E-004  0.1000000E+04  0.7546771E-02  0.8684367E-01
         11   -1    0    0    0    0  0.00000000000E+00  0.00000000000E+00  0.50000000000E+03  0.50000000000E+03  0.00000000000E+00 0. -1.
        -11   -1    0    0    0    0 -0.00000000000E+00 -0.00000000000E+00 -0.50000000000E+03  0.50000000000E+03  0.00000000000E+00 0.  1.
          5    1    1    2  501    0 -0.22675490533E+03  0.49489421247E+02  0.44284412618E+03  0.50000000000E+03  0.47000000000E+01 0. -1.
         -5    1    1    2    0  501  0.22675490533E+03 -0.49489421247E+02 -0.44284412618E+03  0.50000000000E+03  0.47000000000E+01 0.  1.
</event>
<event>
 4    1  0.4933936E-004  0.1000000E+04  0.7546771E-02  0.8684367E-01
         11   -1    0    0    0    0  0.00000000000E+00  0.00000000000E+00  0.50000000000E+03  0.50000000000E+03  0.00000000000E+00 0. -1.
        -11   -1    0    0    0    0 -0.00000000000E+00 -0.00000000000E+00 -0.50000000000E+03  0.50000000000E+03  0.00000000000E+00 0.  1.
          5    1    1    2  501    0  0.15338755761E+03 -0.11290644737E+03  0.46227946235E+03  0.50000000000E+03  0.47000000000E+01 0. -1.
         -5    1    1    2    0  501 -0.15338755761E+03  0.11290644737E+03 -0.46227946235E+03  0.50000000000E+03  0.47000000000E+01 0.  1.
</event>
<event>
 4    1  0.4933936E-004  0.1000000E+04  0.7546771E-02  0.8684367E-01
         11   -1    0    0    0    0  0.00000000000E+00  0.00000000000E+00  0.50000000000E+03  0.50000000000E+03  0.00000000000E+00 0. -1.
        -11   -1    0    0    0    0 -0.00000000000E+00 -0.00000000000E+00 -0.50000000000E+03  0.50000000000E+03  0.00000000000E+00 0.  1.
          5    1    1    2  501    0 -0.47773280105E+03 -0.52236735577E+02 -0.13791520678E+03  0.50000000000E+03  0.47000000000E+01 0. -1.
         -5    1    1    2    0  501  0.47773280105E+03  0.52236735577E+02  0.13791520678E+03  0.50000000000E+03  0.47000000000E+01 0.  1.
</event>
<event>
 4    1  0.4933936E-004  0.1000000E+04  0.7546771E-02  0.8684367E-01
         11   -1    0    0    0    0  0.00000000000E+00  0.00000000000E+00  0.50000000000E+03  0.50000000000E+03  0.00000000000E+00 0. -1.
        -11   -1    0    0    0    0 -0.00000000000E+00 -0.00000000000E+00 -0.50000000000E+03  0.50000000000E+03  0.00000000000E+00 0.  1.
          5    1    1    2  501    0 -0.23898305043E+03 -0.65945513573E+02  0.43418452396E+03  0.50000000000E+03  0.47000000000E+01 0. -1.
         -5    1    1    2    0  501  0.23898305043E+03  0.65945513573E+02 -0.43418452396E+03  0.50000000000E+03  0.47000000000E+01 0.  1.
</event>
<event>
 4    1  0.4933936E-004  0.1000000E+04  0.7546771E-02  0.8684367E-01
         11   -1    0    0    0    0  0.00000000000E+00  0.00000000000E+00  0.50000000000E+03  0.50000000000E+03  0.00000000000E+00 0. -1.
        -11   -1    0    0    0    0 -0.00000000000E+00 -0.00000000000E+00 -0.50000000000E+03  0.50000000000E+03  0.00000000000E+00 0.  1.
          5    1    1    2  501    0  0.24073741828E+03 -0.37426547868E+03  0.22792269942E+03  0.50000000000E+03  0.47000000000E+01 0. -1.
         -5    1    1    2    0  501 -0.24073741828E+03  0.37426547868E+03 -0.22792269942E+03  0.50000000000E+03  0.47000000000E+01 0.  1.
</event>
<event>
 4    1  0.4933936E-004  0.1000000E+04  0.7546771E-02  0.8684367E-01
         11   -1    0    0    0    0  0.00000000000E+00  0.00000000000E+00  0.50000000000E+03  0.50000000000E+03  0.00000000000E+00 0. -1.
        -11   -1    0    0    0    0 -0.00000000000E+00 -0.00000000000E+00 -0.50000000000E+03  0.50000000000E+03  0.00000000000E+00 0.  1.
          5    1    1    2  501    0 -0.40397261062E+03  0.16249652213E+03  0.24572122448E+03  0.50000000000E+03  0.47000000000E+01 0. -1.
         -5    1    1    2    0  501  0.40397261062E+03 -0.16249652213E+03 -0.24572122448E+03  0.50000000000E+03  0.47000000000E+01 0.  1.
</event>
<event>
 4    1  0.4933936E-004  0.1000000E+04  0.7546771E-02  0.8684367E-01
         11   -1    0    0    0    0  0.00000000000E+00  0.00000000000E+00  0.50000000000E+03  0.50000000000E+03  0.00000000000E+00 0. -1.
        -11   -1    0    0    0    0 -0.00000000000E+00 -0.00000000000E+00 -0.50000000000E+03  0.50000000000E+03  0.00000000000E+00 0.  1.
          5    1    1    2  501    0  0.10159695587E+03  0.11643999056E+03  0.47549731561E+03  0.50000000000E+03  0.47000000000E+01 0. -1.
         -5    1    1    2    0  501 -0.10159695587E+03 -0.11643999056E+03 -0.47549731561E+03  0.50000000000E+03  0.47000000000E+01 0.  1.
</event>
<event>
 4    1  0.4933936E-004  0.1000000E+04  0.7546771E-02  0.8684367E-01
         11   -1    0    0    0    0  0.00000000000E+00  0.00000000000E+00  0.50000000000E+03  0.50000000000E+03  0.00000000000E+00 0. -1.
        -11   -1    0    0    0    0 -0.00000000000E+00 -0.00000000000E+00 -0.50000000000E+03  0.50000000000E+03  0.00000000000E+00 0.  1.
          5    1    1    2  501    0  0.29061542442E+03  0.28148826856E+03  0.29374298248E+03  0.50000000000E+03  0.47000000000E+01 0. -1.
         -5    1    1    2    0  501 -0.29061542442E+03 -0.28148826856E+03 -0.29374298248E+03  0.50000000000E+03  0.47000000000E+01 0.  1.
</event>
<event>
 4    1  0.4933936E-004  0.1000000E+04  0.7546771E-02  0.8684367E-01
         11   -1    0    0    0    0  0.00000000000E+00  0.00000000000E+00  0.50000000000E+03  0.50000000000E+03  0.00000000000E+00 0. -1.
        -11   -1    0    0    0    0 -0.00000000000E+00 -0.00000000000E+00 -0.50000000000E+03  0.50000000000E+03  0.00000000000E+00 0.  1.
          5    1    1    2  501    0 -0.15220802838E+03 -0.39315113759E+02  0.47462084649E+03  0.50000000000E+03  0.47000000000E+01 0. -1.
         -5    1    1    2    0  501  0.15220802838E+03  0.39315113759E+02 -0.47462084649E+03  0.50000000000E+03  0.47000000000E+01 0.  1.
</event>
<event>
 4    1  0.4933936E-004  0.1000000E+04  0.7546771E-02  0.8684367E-01
         11   -1    0    0    0    0  0.00000000000E+00  0.00000000000E+00  0.50000000000E+03  0.50000000000E+03  0.00000000000E+00 0. -1.
        -11   -1    0    0    0    0 -0.00000000000E+00 -0.00000000000E+00 -0.50000000000E+03  0.50000000000E+03  0.00000000000E+00 0.  1.
          5    1    1    2  501    0  0.29630328716E+03 -0.33222804606E+02  0.40134588234E+03  0.50000000000E+03  0.47000000000E+01 0. -1.
         -5    1    1    2    0  501 -0.29630328716E+03  0.33222804606E+02 -0.40134588234E+03  0.50000000000E+03  0.47000000000E+01 0.  1.
</event>
<event>
 4    1  0.4933936E-004  0.1000000E+04  0.7546771E-02  0.8684367E-01
         11   -1    0    0    0    0  0.00000000000E+00  0.00000000000E+00  0.50000000000E+03  0.50000000000E+03  0.00000000000E+00 0.  1.
        -11   -1    0    0    0    0 -0.00000000000E+00 -0.00000000000E+00 -0.50000000000E+03  0.50000000000E+03  0.00000000000E+00 0. -1.
          5    1    1    2  501    0  0.42777810468E+03  0.20947644701E+03  0.15199809637E+03  0.50000000000E+03  0.47000000000E+01 0.  1.
         -5    1    1    2    0  501 -0.42777810468E+03 -0.20947644701E+03 -0.15199809637E+03  0.50000000000E+03  0.47000000000E+01 0. -1.
</event>
<event>
 4    1  0.4933936E-004  0.1000000E+04  0.7546771E-02  0.8684367E-01
         11   -1    0    0    0    0  0.00000000000E+00  0.00000000000E+00  0.50000000000E+03  0.50000000000E+03  0.00000000000E+00 0. -1.
        -11   -1    0    0    0    0 -0.00000000000E+00 -0.00000000000E+00 -0.50000000000E+03  0.50000000000E+03  0.00000000000E+00 0.  1.
          5    1    1    2  501    0 -0.24869709368E+03 -0.15438862885E+03  0.40532926970E+03  0.50000000000E+03  0.47000000000E+01 0. -1.
         -5    1    1    2    0  501  0.24869709368E+03  0.15438862885E+03 -0.40532926970E+03  0.50000000000E+03  0.47000000000E+01 0.  1.
</event>
<event>
 4    1  0.4933936E-004  0.1000000E+04  0.7546771E-02  0.8684367E-01
         11   -1    0    0    0    0  0.00000000000E+00  0.00000000000E+00  0.50000000000E+03  0.50000000000E+03  0.00000000000E+00 0. -1.
        -11   -1    0    0    0    0 -0.00000000000E+00 -0.00000000000E+00 -0.50000000000E+03  0.50000000000E+03  0.00000000000E+00 0.  1.
          5    1    1    2  501    0 -0.21046287470E+03 -0.54119765264E+02  0.45028251063E+03  0.50000000000E+03  0.47000000000E+01 0. -1.
         -5    1    1    2    0  501  0.21046287470E+03  0.54119765264E+02 -0.45028251063E+03  0.50000000000E+03  0.47000000000E+01 0.  1.
</event>
<event>
 4    1  0.4933936E-004  0.1000000E+04  0.7546771E-02  0.8684367E-01
         11   -1    0    0    0    0  0.00000000000E+00  0.00000000000E+00  0.50000000000E+03  0.50000000000E+03  0.00000000000E+00 0. -1.
        -11   -1    0    0    0    0 -0.00000000000E+00 -0.00000000000E+00 -0.50000000000E+03  0.50000000000E+03  0.00000000000E+00 0.  1.
          5    1    1    2  501    0  0.43286726294E+03 -0.22355007380E+03  0.11237974541E+03  0.50000000000E+03  0.47000000000E+01 0. -1.
         -5    1    1    2    0  501 -0.43286726294E+03  0.22355007380E+03 -0.11237974541E+03  0.50000000000E+03  0.47000000000E+01 0.  1.
</event>
<event>
 4    1  0.4933936E-004  0.1000000E+04  0.7546771E-02  0.8684367E-01
         11   -1    0    0    0    0  0.00000000000E+00  0.00000000000E+00  0.50000000000E+03  0.50000000000E+03  0.00000000000E+00 0. -1.
        -11   -1    0    0    0    0 -0.00000000000E+00 -0.00000000000E+00 -0.50000000000E+03  0.50000000000E+03  0.00000000000E+00 0.  1.
          5    1    1    2  501    0  0.14875995608E+03  0.13102479355E+03  0.45899987902E+03  0.50000000000E+03  0.47000000000E+01 0. -1.
         -5    1    1    2    0  501 -0.14875995608E+03 -0.13102479355E+03 -0.45899987902E+03  0.50000000000E+03  0.47000000000E+01 0.  1.
</event>
<event>
 4    1  0.4933936E-004  0.1000000E+04  0.7546771E-02  0.8684367E-01
         11   -1    0    0    0    0  0.00000000000E+00  0.00000000000E+00  0.50000000000E+03  0.50000000000E+03  0.00000000000E+00 0. -1.
        -11   -1    0    0    0    0 -0.00000000000E+00 -0.00000000000E+00 -0.50000000000E+03  0.50000000000E+03  0.00000000000E+00 0.  1.
          5    1    1    2  501    0  0.13353159486E+03  0.46679454713E+03  0.11937367359E+03  0.50000000000E+03  0.47000000000E+01 0. -1.
         -5    1    1    2    0  501 -0.13353159486E+03 -0.46679454713E+03 -0.11937367359E+03  0.50000000000E+03  0.47000000000E+01 0.  1.
</event>
<event>
 4    1  0.4933936E-004  0.1000000E+04  0.7546771E-02  0.8684367E-01
         11   -1    0    0    0    0  0.00000000000E+00  0.00000000000E+00  0.50000000000E+03  0.50000000000E+03  0.00000000000E+00 0. -1.
        -11   -1    0    0    0    0 -0.00000000000E+00 -0.00000000000E+00 -0.50000000000E+03  0.50000000000E+03  0.00000000000E+00 0.  1.
          5    1    1    2  501    0  0.15315420636E+03 -0.46222447105E+03  0.11344706889E+03  0.50000000000E+03  0.47000000000E+01 0. -1.
         -5    1    1    2    0  501 -0.15315420636E+03  0.46222447105E+03 -0.11344706889E+03  0.50000000000E+03  0.47000000000E+01 0.  1.
</event>
<event>
 4    1  0.4933936E-004  0.1000000E+04  0.7546771E-02  0.8684367E-01
         11   -1    0    0    0    0  0.00000000000E+00  0.00000000000E+00  0.50000000000E+03  0.50000000000E+03  0.00000000000E+00 0. -1.
        -11   -1    0    0    0    0 -0.00000000000E+00 -0.00000000000E+00 -0.50000000000E+03  0.50000000000E+03  0.00000000000E+00 0.  1.
          5    1    1    2  501    0 -0.25359785712E+03 -0.10654626132E+03  0.41750919878E+03  0.50000000000E+03  0.47000000000E+01 0. -1.
         -5    1    1    2    0  501  0.25359785712E+03  0.10654626132E+03 -0.41750919878E+03  0.50000000000E+03  0.47000000000E+01 0.  1.
</event>
<event>
 4    1  0.4933936E-004  0.1000000E+04  0.7546771E-02  0.8684367E-01
         11   -1    0    0    0    0  0.00000000000E+00  0.00000000000E+00  0.50000000000E+03  0.50000000000E+03  0.00000000000E+00 0. -1.
        -11   -1    0    0    0    0 -0.00000000000E+00 -0.00000000000E+00 -0.50000000000E+03  0.50000000000E+03  0.00000000000E+00 0.  1.
          5    1    1    2  501    0  0.34762572566E+03 -0.34056793962E+03  0.11466360958E+03  0.50000000000E+03  0.47000000000E+01 0. -1.
         -5    1    1    2    0  501 -0.34762572566E+03  0.34056793962E+03 -0.11466360958E+03  0.50000000000E+03  0.47000000000E+01 0.  1.
</event>
<event>
 4    1  0.4933936E-004  0.1000000E+04  0.7546771E-02  0.8684367E-01
         11   -1    0    0    0    0  0.00000000000E+00  0.00000000000E+00  0.50000000000E+03  0.50000000000E+03  0.00000000000E+00 0. -1.
        -11   -1    0    0    0    0 -0.00000000000E+00 -0.00000000000E+00 -0.50000000000E+03  0.50000000000E+03  0.00000000000E+00 0.  1.
          5    1    1    2  501    0 -0.80327961690E+02  0.15147334234E+03  0.46966068085E+03  0.50000000000E+03  0.47000000000E+01 0. -1.
         -5    1    1    2    0  501  0.80327961690E+02 -0.15147334234E+03 -0.46966068085E+03  0.50000000000E+03  0.47000000000E+01 0.  1.
</event>
<event>
 4    1  0.4933936E-004  0.1000000E+04  0.7546771E-02  0.8684367E-01
         11   -1    0    0    0    0  0.00000000000E+00  0.00000000000E+00  0.50000000000E+03  0.50000000000E+03  0.00000000000E+00 0.  1.
        -11   -1    0    0    0    0 -0.00000000000E+00 -0.00000000000E+00 -0.50000000000E+03  0.50000000000E+03  0.00000000000E+00 0. -1.
          5    1    1    2  501    0  0.36523731483E+03  0.31340298241E+03  0.13549237790E+03  0.50000000000E+03  0.47000000000E+01 0.  1.
         -5    1    1    2    0  501 -0.36523731483E+03 -0.31340298241E+03 -0.13549237790E+03  0.50000000000E+03  0.47000000000E+01 0. -1.
</event>
<event>
 4    1  0.4933936E-004  0.1000000E+04  0.7546771E-02  0.8684367E-01
         11   -1    0    0    0    0  0.00000000000E+00  0.00000000000E+00  0.50000000000E+03  0.50000000000E+03  0.00000000000E+00 0. -1.
        -11   -1    0    0    0    0 -0.00000000000E+00 -0.00000000000E+00 -0.50000000000E+03  0.50000000000E+03  0.00000000000E+00 0.  1.
          5    1    1    2  501    0  0.50981148583E+02  0.41896758238E+02  0.49560417082E+03  0.50000000000E+03  0.47000000000E+01 0. -1.
         -5    1    1    2    0  501 -0.50981148583E+02 -0.41896758238E+02 -0.49560417082E+03  0.50000000000E+03  0.47000000000E+01 0.  1.
</event>
<event>
 4    1  0.4933936E-004  0.1000000E+04  0.7546771E-02  0.8684367E-01
         11   -1    0    0    0    0  0.00000000000E+00  0.00000000000E+00  0.50000000000E+03  0.50000000000E+03  0.00000000000E+00 0.  1.
        -11   -1    0    0    0    0 -0.00000000000E+00 -0.00000000000E+00 -0.50000000000E+03  0.50000000000E+03  0.00000000000E+00 0. -1.
          5    1    1    2  501    0 -0.16788190546E+03 -0.45477070985E+03  0.12238127832E+03  0.50000000000E+03  0.47000000000E+01 0. -1.
         -5    1    1    2    0  501  0.16788190546E+03  0.45477070985E+03 -0.12238127832E+03  0.50000000000E+03  0.47000000000E+01 0.  1.
</event>
<event>
 4    1  0.4933936E-004  0.1000000E+04  0.7546771E-02  0.8684367E-01
         11   -1    0    0    0    0  0.00000000000E+00  0.00000000000E+00  0.50000000000E+03  0.50000000000E+03  0.00000000000E+00 0.  1.
        -11   -1    0    0    0    0 -0.00000000000E+00 -0.00000000000E+00 -0.50000000000E+03  0.50000000000E+03  0.00000000000E+00 0. -1.
          5    1    1    2  501    0 -0.27859347412E+03  0.41461468047E+03 -0.21406842703E+02  0.50000000000E+03  0.47000000000E+01 0.  1.
         -5    1    1    2    0  501  0.27859347412E+03 -0.41461468047E+03  0.21406842703E+02  0.50000000000E+03  0.47000000000E+01 0. -1.
</event>
<event>
 4    1  0.4933936E-004  0.1000000E+04  0.7546771E-02  0.8684367E-01
         11   -1    0    0    0    0  0.00000000000E+00  0.00000000000E+00  0.50000000000E+03  0.50000000000E+03  0.00000000000E+00 0. -1.
        -11   -1    0    0    0    0 -0.00000000000E+00 -0.00000000000E+00 -0.50000000000E+03  0.50000000000E+03  0.00000000000E+00 0.  1.
          5    1    1    2  501    0  0.39669368019E+03 -0.27828330715E+03  0.12316832004E+03  0.50000000000E+03  0.47000000000E+01 0. -1.
         -5    1    1    2    0  501 -0.39669368019E+03  0.27828330715E+03 -0.12316832004E+03  0.50000000000E+03  0.47000000000E+01 0.  1.
</event>
<event>
 4    1  0.4933936E-004  0.1000000E+04  0.7546771E-02  0.8684367E-01
         11   -1    0    0    0    0  0.00000000000E+00  0.00000000000E+00  0.50000000000E+03  0.50000000000E+03  0.00000000000E+00 0. -1.
        -11   -1    0    0    0    0 -0.00000000000E+00 -0.00000000000E+00 -0.50000000000E+03  0.50000000000E+03  0.00000000000E+00 0.  1.
          5    1    1    2  501    0 -0.44940688062E+03  0.21780201318E+03 -0.23950964633E+02  0.50000000000E+03  0.47000000000E+01 0. -1.
         -5    1    1    2    0  501  0.44940688062E+03 -0.21780201318E+03  0.23950964633E+02  0.50000000000E+03  0.47000000000E+01 0.  1.
</event>
<event>
 4    1  0.4933936E-004  0.1000000E+04  0.7546771E-02  0.8684367E-01
         11   -1    0    0    0    0  0.00000000000E+00  0.00000000000E+00  0.50000000000E+03  0.50000000000E+03  0.00000000000E+00 0.  1.
        -11   -1    0    0    0    0 -0.00000000000E+00 -0.00000000000E+00 -0.50000000000E+03  0.50000000000E+03  0.00000000000E+00 0. -1.
          5    1    1    2  501    0  0.16823226854E+03 -0.33573407636E+03  0.33008853932E+03  0.50000000000E+03  0.47000000000E+01 0.  1.
         -5    1    1    2    0  501 -0.16823226854E+03  0.33573407636E+03 -0.33008853932E+03  0.50000000000E+03  0.47000000000E+01 0. -1.
</event>
<event>
 4    1  0.4933936E-004  0.1000000E+04  0.7546771E-02  0.8684367E-01
         11   -1    0    0    0    0  0.00000000000E+00  0.00000000000E+00  0.50000000000E+03  0.50000000000E+03  0.00000000000E+00 0. -1.
        -11   -1    0    0    0    0 -0.00000000000E+00 -0.00000000000E+00 -0.50000000000E+03  0.50000000000E+03  0.00000000000E+00 0.  1.
          5    1    1    2  501    0  0.48836215944E+03  0.87923245565E+02  0.61235725826E+02  0.50000000000E+03  0.47000000000E+01 0. -1.
         -5    1    1    2    0  501 -0.48836215944E+03 -0.87923245565E+02 -0.61235725826E+02  0.50000000000E+03  0.47000000000E+01 0.  1.
</event>
<event>
 4    1  0.4933936E-004  0.1000000E+04  0.7546771E-02  0.8684367E-01
         11   -1    0    0    0    0  0.00000000000E+00  0.00000000000E+00  0.50000000000E+03  0.50000000000E+03  0.00000000000E+00 0.  1.
        -11   -1    0    0    0    0 -0.00000000000E+00 -0.00000000000E+00 -0.50000000000E+03  0.50000000000E+03  0.00000000000E+00 0. -1.
          5    1    1    2  501    0 -0.23949637951E+03 -0.26513804159E+02  0.43808265475E+03  0.50000000000E+03  0.47000000000E+01 0.  1.
         -5    1    1    2    0  501  0.23949637951E+03  0.26513804159E+02 -0.43808265475E+03  0.50000000000E+03  0.47000000000E+01 0. -1.
</event>
<event>
 4    1  0.4933936E-004  0.1000000E+04  0.7546771E-02  0.8684367E-01
         11   -1    0    0    0    0  0.00000000000E+00  0.00000000000E+00  0.50000000000E+03  0.50000000000E+03  0.00000000000E+00 0. -1.
        -11   -1    0    0    0    0 -0.00000000000E+00 -0.00000000000E+00 -0.50000000000E+03  0.50000000000E+03  0.00000000000E+00 0.  1.
          5    1    1    2  501    0  0.17313372325E+03  0.20582506654E+02  0.46859255680E+03  0.50000000000E+03  0.47000000000E+01 0. -1.
         -5    1    1    2    0  501 -0.17313372325E+03 -0.20582506654E+02 -0.46859255680E+03  0.50000000000E+03  0.47000000000E+01 0.  1.
</event>
<event>
 4    1  0.4933936E-004  0.1000000E+04  0.7546771E-02  0.8684367E-01
         11   -1    0    0    0    0  0.00000000000E+00  0.00000000000E+00  0.50000000000E+03  0.50000000000E+03  0.00000000000E+00 0. -1.
        -11   -1    0    0    0    0 -0.00000000000E+00 -0.00000000000E+00 -0.50000000000E+03  0.50000000000E+03  0.00000000000E+00 0.  1.
          5    1    1    2  501    0  0.14305396801E+02  0.41226906883E+03  0.28250217788E+03  0.50000000000E+03  0.47000000000E+01 0. -1.
         -5    1    1    2    0  501 -0.14305396801E+02 -0.41226906883E+03 -0.28250217788E+03  0.50000000000E+03  0.47000000000E+01 0.  1.
</event>
<event>
 4    1  0.4933936E-004  0.1000000E+04  0.7546771E-02  0.8684367E-01
         11   -1    0    0    0    0  0.00000000000E+00  0.00000000000E+00  0.50000000000E+03  0.50000000000E+03  0.00000000000E+00 0. -1.
        -11   -1    0    0    0    0 -0.00000000000E+00 -0.00000000000E+00 -0.50000000000E+03  0.50000000000E+03  0.00000000000E+00 0.  1.
          5    1    1    2  501    0  0.21683525009E+03  0.40640014166E+03  0.19442044434E+03  0.50000000000E+03  0.47000000000E+01 0. -1.
         -5    1    1    2    0  501 -0.21683525009E+03 -0.40640014166E+03 -0.19442044434E+03  0.50000000000E+03  0.47000000000E+01 0.  1.
</event>
<event>
 4    1  0.4933936E-004  0.1000000E+04  0.7546771E-02  0.8684367E-01
         11   -1    0    0    0    0  0.00000000000E+00  0.00000000000E+00  0.50000000000E+03  0.50000000000E+03  0.00000000000E+00 0.  1.
        -11   -1    0    0    0    0 -0.00000000000E+00 -0.00000000000E+00 -0.50000000000E+03  0.50000000000E+03  0.00000000000E+00 0. -1.
          5    1    1    2  501    0 -0.40274398169E+03 -0.25872048246E+03  0.14435687433E+03  0.50000000000E+03  0.47000000000E+01 0.  1.
         -5    1    1    2    0  501  0.40274398169E+03  0.25872048246E+03 -0.14435687433E+03  0.50000000000E+03  0.47000000000E+01 0. -1.
</event>
<event>
 4    1  0.4933936E-004  0.1000000E+04  0.7546771E-02  0.8684367E-01
         11   -1    0    0    0    0  0.00000000000E+00  0.00000000000E+00  0.50000000000E+03  0.50000000000E+03  0.00000000000E+00 0.  1.
        -11   -1    0    0    0    0 -0.00000000000E+00 -0.00000000000E+00 -0.50000000000E+03  0.50000000000E+03  0.00000000000E+00 0. -1.
          5    1    1    2  501    0  0.67308826008E+02  0.44880996688E+03  0.20980239649E+03  0.50000000000E+03  0.47000000000E+01 0.  1.
         -5    1    1    2    0  501 -0.67308826008E+02 -0.44880996688E+03 -0.20980239649E+03  0.50000000000E+03  0.47000000000E+01 0. -1.
</event>
<event>
 4    1  0.4933936E-004  0.1000000E+04  0.7546771E-02  0.8684367E-01
         11   -1    0    0    0    0  0.00000000000E+00  0.00000000000E+00  0.50000000000E+03  0.50000000000E+03  0.00000000000E+00 0. -1.
        -11   -1    0    0    0    0 -0.00000000000E+00 -0.00000000000E+00 -0.50000000000E+03  0.50000000000E+03  0.00000000000E+00 0.  1.
          5    1    1    2  501    0  0.19969431686E+03  0.31789232122E+03  0.33021896057E+03  0.50000000000E+03  0.47000000000E+01 0. -1.
         -5    1    1    2    0  501 -0.19969431686E+03 -0.31789232122E+03 -0.33021896057E+03  0.50000000000E+03  0.47000000000E+01 0.  1.
</event>
<event>
 4    1  0.4933936E-004  0.1000000E+04  0.7546771E-02  0.8684367E-01
         11   -1    0    0    0    0  0.00000000000E+00  0.00000000000E+00  0.50000000000E+03  0.50000000000E+03  0.00000000000E+00 0. -1.
        -11   -1    0    0    0    0 -0.00000000000E+00 -0.00000000000E+00 -0.50000000000E+03  0.50000000000E+03  0.00000000000E+00 0.  1.
          5    1    1    2  501    0 -0.42377110258E+03  0.15503230192E+03 -0.21531592597E+03  0.50000000000E+03  0.47000000000E+01 0. -1.
         -5    1    1    2    0  501  0.42377110258E+03 -0.15503230192E+03  0.21531592597E+03  0.50000000000E+03  0.47000000000E+01 0.  1.
</event>
<event>
 4    1  0.4933936E-004  0.1000000E+04  0.7546771E-02  0.8684367E-01
         11   -1    0    0    0    0  0.00000000000E+00  0.00000000000E+00  0.50000000000E+03  0.50000000000E+03  0.00000000000E+00 0. -1.
        -11   -1    0    0    0    0 -0.00000000000E+00 -0.00000000000E+00 -0.50000000000E+03  0.50000000000E+03  0.00000000000E+00 0.  1.
          5    1    1    2  501    0 -0.21462417336E+03 -0.33810017017E+02  0.45030129575E+03  0.50000000000E+03  0.47000000000E+01 0. -1.
         -5    1    1    2    0  501  0.21462417336E+03  0.33810017017E+02 -0.45030129575E+03  0.50000000000E+03  0.47000000000E+01 0.  1.
</event>
<event>
 4    1  0.4933936E-004  0.1000000E+04  0.7546771E-02  0.8684367E-01
         11   -1    0    0    0    0  0.00000000000E+00  0.00000000000E+00  0.50000000000E+03  0.50000000000E+03  0.00000000000E+00 0. -1.
        -11   -1    0    0    0    0 -0.00000000000E+00 -0.00000000000E+00 -0.50000000000E+03  0.50000000000E+03  0.00000000000E+00 0.  1.
          5    1    1    2  501    0  0.40454662579E+03 -0.19613462086E+03  0.21874905272E+03  0.50000000000E+03  0.47000000000E+01 0. -1.
         -5    1    1    2    0  501 -0.40454662579E+03  0.19613462086E+03 -0.21874905272E+03  0.50000000000E+03  0.47000000000E+01 0.  1.
</event>
<event>
 4    1  0.4933936E-004  0.1000000E+04  0.7546771E-02  0.8684367E-01
         11   -1    0    0    0    0  0.00000000000E+00  0.00000000000E+00  0.50000000000E+03  0.50000000000E+03  0.00000000000E+00 0. -1.
        -11   -1    0    0    0    0 -0.00000000000E+00 -0.00000000000E+00 -0.50000000000E+03  0.50000000000E+03  0.00000000000E+00 0.  1.
          5    1    1    2  501    0 -0.12483398804E+03  0.26664656330E+03  0.40409651781E+03  0.50000000000E+03  0.47000000000E+01 0. -1.
         -5    1    1    2    0  501  0.12483398804E+03 -0.26664656330E+03 -0.40409651781E+03  0.50000000000E+03  0.47000000000E+01 0.  1.
</event>
<event>
 4    1  0.4933936E-004  0.1000000E+04  0.7546771E-02  0.8684367E-01
         11   -1    0    0    0    0  0.00000000000E+00  0.00000000000E+00  0.50000000000E+03  0.50000000000E+03  0.00000000000E+00 0. -1.
        -11   -1    0    0    0    0 -0.00000000000E+00 -0.00000000000E+00 -0.50000000000E+03  0.50000000000E+03  0.00000000000E+00 0.  1.
          5    1    1    2  501    0 -0.44345065551E+03 -0.22609756121E+03  0.47003392913E+02  0.50000000000E+03  0.47000000000E+01 0. -1.
         -5    1    1    2    0  501  0.44345065551E+03  0.22609756121E+03 -0.47003392913E+02  0.50000000000E+03  0.47000000000E+01 0.  1.
</event>
<event>
 4    1  0.4933936E-004  0.1000000E+04  0.7546771E-02  0.8684367E-01
         11   -1    0    0    0    0  0.00000000000E+00  0.00000000000E+00  0.50000000000E+03  0.50000000000E+03  0.00000000000E+00 0. -1.
        -11   -1    0    0    0    0 -0.00000000000E+00 -0.00000000000E+00 -0.50000000000E+03  0.50000000000E+03  0.00000000000E+00 0.  1.
          5    1    1    2  501    0 -0.27778495095E+03  0.41036924379E+03  0.66411706635E+02  0.50000000000E+03  0.47000000000E+01 0. -1.
         -5    1    1    2    0  501  0.27778495095E+03 -0.41036924379E+03 -0.66411706635E+02  0.50000000000E+03  0.47000000000E+01 0.  1.
</event>
<event>
 4    1  0.4933936E-004  0.1000000E+04  0.7546771E-02  0.8684367E-01
         11   -1    0    0    0    0  0.00000000000E+00  0.00000000000E+00  0.50000000000E+03  0.50000000000E+03  0.00000000000E+00 0. -1.
        -11   -1    0    0    0    0 -0.00000000000E+00 -0.00000000000E+00 -0.50000000000E+03  0.50000000000E+03  0.00000000000E+00 0.  1.
          5    1    1    2  501    0 -0.16933162099E+03  0.22173756549E+02  0.46990747669E+03  0.50000000000E+03  0.47000000000E+01 0. -1.
         -5    1    1    2    0  501  0.16933162099E+03 -0.22173756549E+02 -0.46990747669E+03  0.50000000000E+03  0.47000000000E+01 0.  1.
</event>
<event>
 4    1  0.4933936E-004  0.1000000E+04  0.7546771E-02  0.8684367E-01
         11   -1    0    0    0    0  0.00000000000E+00  0.00000000000E+00  0.50000000000E+03  0.50000000000E+03  0.00000000000E+00 0.  1.
        -11   -1    0    0    0    0 -0.00000000000E+00 -0.00000000000E+00 -0.50000000000E+03  0.50000000000E+03  0.00000000000E+00 0. -1.
          5    1    1    2  501    0 -0.58372374572E+02 -0.30511969959E+03  0.39175572084E+03  0.50000000000E+03  0.47000000000E+01 0.  1.
         -5    1    1    2    0  501  0.58372374572E+02  0.30511969959E+03 -0.39175572084E+03  0.50000000000E+03  0.47000000000E+01 0. -1.
</event>
<event>
 4    1  0.4933936E-004  0.1000000E+04  0.7546771E-02  0.8684367E-01
         11   -1    0    0    0    0  0.00000000000E+00  0.00000000000E+00  0.50000000000E+03  0.50000000000E+03  0.00000000000E+00 0.  1.
        -11   -1    0    0    0    0 -0.00000000000E+00 -0.00000000000E+00 -0.50000000000E+03  0.50000000000E+03  0.00000000000E+00 0. -1.
          5    1    1    2  501    0  0.45353558795E+03  0.35934642193E+02  0.20734532056E+03  0.50000000000E+03  0.47000000000E+01 0.  1.
         -5    1    1    2    0  501 -0.45353558795E+03 -0.35934642193E+02 -0.20734532056E+03  0.50000000000E+03  0.47000000000E+01 0. -1.
</event>
<event>
 4    1  0.4933936E-004  0.1000000E+04  0.7546771E-02  0.8684367E-01
         11   -1    0    0    0    0  0.00000000000E+00  0.00000000000E+00  0.50000000000E+03  0.50000000000E+03  0.00000000000E+00 0. -1.
        -11   -1    0    0    0    0 -0.00000000000E+00 -0.00000000000E+00 -0.50000000000E+03  0.50000000000E+03  0.00000000000E+00 0.  1.
          5    1    1    2  501    0  0.15707666643E+03 -0.38953907842E+03  0.27122709535E+03  0.50000000000E+03  0.47000000000E+01 0. -1.
         -5    1    1    2    0  501 -0.15707666643E+03  0.38953907842E+03 -0.27122709535E+03  0.50000000000E+03  0.47000000000E+01 0.  1.
</event>
<event>
 4    1  0.4933936E-004  0.1000000E+04  0.7546771E-02  0.8684367E-01
         11   -1    0    0    0    0  0.00000000000E+00  0.00000000000E+00  0.50000000000E+03  0.50000000000E+03  0.00000000000E+00 0.  1.
        -11   -1    0    0    0    0 -0.00000000000E+00 -0.00000000000E+00 -0.50000000000E+03  0.50000000000E+03  0.00000000000E+00 0. -1.
          5    1    1    2  501    0 -0.10245392181E+03  0.44628154230E+03  0.20078318880E+03  0.50000000000E+03  0.47000000000E+01 0.  1.
         -5    1    1    2    0  501  0.10245392181E+03 -0.44628154230E+03 -0.20078318880E+03  0.50000000000E+03  0.47000000000E+01 0. -1.
</event>
<event>
 4    1  0.4933936E-004  0.1000000E+04  0.7546771E-02  0.8684367E-01
         11   -1    0    0    0    0  0.00000000000E+00  0.00000000000E+00  0.50000000000E+03  0.50000000000E+03  0.00000000000E+00 0. -1.
        -11   -1    0    0    0    0 -0.00000000000E+00 -0.00000000000E+00 -0.50000000000E+03  0.50000000000E+03  0.00000000000E+00 0.  1.
          5    1    1    2  501    0  0.42391017674E+03  0.61725594508E+02  0.25781393103E+03  0.50000000000E+03  0.47000000000E+01 0. -1.
         -5    1    1    2    0  501 -0.42391017674E+03 -0.61725594508E+02 -0.25781393103E+03  0.50000000000E+03  0.47000000000E+01 0.  1.
</event>
<event>
 4    1  0.4933936E-004  0.1000000E+04  0.7546771E-02  0.8684367E-01
         11   -1    0    0    0    0  0.00000000000E+00  0.00000000000E+00  0.50000000000E+03  0.50000000000E+03  0.00000000000E+00 0. -1.
        -11   -1    0    0    0    0 -0.00000000000E+00 -0.00000000000E+00 -0.50000000000E+03  0.50000000000E+03  0.00000000000E+00 0.  1.
          5    1    1    2  501    0  0.28284775430E+03  0.76332109796E+02  0.40515239960E+03  0.50000000000E+03  0.47000000000E+01 0. -1.
         -5    1    1    2    0  501 -0.28284775430E+03 -0.76332109796E+02 -0.40515239960E+03  0.50000000000E+03  0.47000000000E+01 0.  1.
</event>
<event>
 4    1  0.4933936E-004  0.1000000E+04  0.7546771E-02  0.8684367E-01
         11   -1    0    0    0    0  0.00000000000E+00  0.00000000000E+00  0.50000000000E+03  0.50000000000E+03  0.00000000000E+00 0. -1.
        -11   -1    0    0    0    0 -0.00000000000E+00 -0.00000000000E+00 -0.50000000000E+03  0.50000000000E+03  0.00000000000E+00 0.  1.
          5    1    1    2  501    0  0.30887882220E+03 -0.33043671235E+03  0.21303371172E+03  0.50000000000E+03  0.47000000000E+01 0. -1.
         -5    1    1    2    0  501 -0.30887882220E+03  0.33043671235E+03 -0.21303371172E+03  0.50000000000E+03  0.47000000000E+01 0.  1.
</event>
<event>
 4    1  0.4933936E-004  0.1000000E+04  0.7546771E-02  0.8684367E-01
         11   -1    0    0    0    0  0.00000000000E+00  0.00000000000E+00  0.50000000000E+03  0.50000000000E+03  0.00000000000E+00 0.  1.
        -11   -1    0    0    0    0 -0.00000000000E+00 -0.00000000000E+00 -0.50000000000E+03  0.50000000000E+03  0.00000000000E+00 0. -1.
          5    1    1    2  501    0  0.24571683630E+03 -0.21144834059E+02 -0.43491843184E+03  0.50000000000E+03  0.47000000000E+01 0. -1.
         -5    1    1    2    0  501 -0.24571683630E+03  0.21144834059E+02  0.43491843184E+03  0.50000000000E+03  0.47000000000E+01 0.  1.
</event>
<event>
 4    1  0.4933936E-004  0.1000000E+04  0.7546771E-02  0.8684367E-01
         11   -1    0    0    0    0  0.00000000000E+00  0.00000000000E+00  0.50000000000E+03  0.50000000000E+03  0.00000000000E+00 0. -1.
        -11   -1    0    0    0    0 -0.00000000000E+00 -0.00000000000E+00 -0.50000000000E+03  0.50000000000E+03  0.00000000000E+00 0.  1.
          5    1    1    2  501    0 -0.19504811830E+03 -0.33050532468E+03  0.32046898743E+03  0.50000000000E+03  0.47000000000E+01 0. -1.
         -5    1    1    2    0  501  0.19504811830E+03  0.33050532468E+03 -0.32046898743E+03  0.50000000000E+03  0.47000000000E+01 0.  1.
</event>
<event>
 4    1  0.4933936E-004  0.1000000E+04  0.7546771E-02  0.8684367E-01
         11   -1    0    0    0    0  0.00000000000E+00  0.00000000000E+00  0.50000000000E+03  0.50000000000E+03  0.00000000000E+00 0. -1.
        -11   -1    0    0    0    0 -0.00000000000E+00 -0.00000000000E+00 -0.50000000000E+03  0.50000000000E+03  0.00000000000E+00 0.  1.
          5    1    1    2  501    0  0.99578221724E+02  0.43772737370E+03  0.22012913045E+03  0.50000000000E+03  0.47000000000E+01 0. -1.
         -5    1    1    2    0  501 -0.99578221724E+02 -0.43772737370E+03 -0.22012913045E+03  0.50000000000E+03  0.47000000000E+01 0.  1.
</event>
<event>
 4    1  0.4933936E-004  0.1000000E+04  0.7546771E-02  0.8684367E-01
         11   -1    0    0    0    0  0.00000000000E+00  0.00000000000E+00  0.50000000000E+03  0.50000000000E+03  0.00000000000E+00 0. -1.
        -11   -1    0    0    0    0 -0.00000000000E+00 -0.00000000000E+00 -0.50000000000E+03  0.50000000000E+03  0.00000000000E+00 0.  1.
          5    1    1    2  501    0  0.44345858588E+03  0.19081530899E+03  0.13004580140E+03  0.50000000000E+03  0.47000000000E+01 0. -1.
         -5    1    1    2    0  501 -0.44345858588E+03 -0.19081530899E+03 -0.13004580140E+03  0.50000000000E+03  0.47000000000E+01 0.  1.
</event>
<event>
 4    1  0.4933936E-004  0.1000000E+04  0.7546771E-02  0.8684367E-01
         11   -1    0    0    0    0  0.00000000000E+00  0.00000000000E+00  0.50000000000E+03  0.50000000000E+03  0.00000000000E+00 0.  1.
        -11   -1    0    0    0    0 -0.00000000000E+00 -0.00000000000E+00 -0.50000000000E+03  0.50000000000E+03  0.00000000000E+00 0. -1.
          5    1    1    2  501    0 -0.17690920290E+03 -0.14452883990E+01 -0.46763121695E+03  0.50000000000E+03  0.47000000000E+01 0. -1.
         -5    1    1    2    0  501  0.17690920290E+03  0.14452883990E+01  0.46763121695E+03  0.50000000000E+03  0.47000000000E+01 0.  1.
</event>
<event>
 4    1  0.4933936E-004  0.1000000E+04  0.7546771E-02  0.8684367E-01
         11   -1    0    0    0    0  0.00000000000E+00  0.00000000000E+00  0.50000000000E+03  0.50000000000E+03  0.00000000000E+00 0. -1.
        -11   -1    0    0    0    0 -0.00000000000E+00 -0.00000000000E+00 -0.50000000000E+03  0.50000000000E+03  0.00000000000E+00 0.  1.
          5    1    1    2  501    0 -0.45157981150E+03 -0.14692703064E+03 -0.15641621245E+03  0.50000000000E+03  0.47000000000E+01 0. -1.
         -5    1    1    2    0  501  0.45157981150E+03  0.14692703064E+03  0.15641621245E+03  0.50000000000E+03  0.47000000000E+01 0.  1.
</event>
<event>
 4    1  0.4933936E-004  0.1000000E+04  0.7546771E-02  0.8684367E-01
         11   -1    0    0    0    0  0.00000000000E+00  0.00000000000E+00  0.50000000000E+03  0.50000000000E+03  0.00000000000E+00 0.  1.
        -11   -1    0    0    0    0 -0.00000000000E+00 -0.00000000000E+00 -0.50000000000E+03  0.50000000000E+03  0.00000000000E+00 0. -1.
          5    1    1    2  501    0  0.33913596157E+03 -0.29701703824E+03  0.21620728148E+03  0.50000000000E+03  0.47000000000E+01 0. -1.
         -5    1    1    2    0  501 -0.33913596157E+03  0.29701703824E+03 -0.21620728148E+03  0.50000000000E+03  0.47000000000E+01 0.  1.
</event>
<event>
 4    1  0.4933936E-004  0.1000000E+04  0.7546771E-02  0.8684367E-01
         11   -1    0    0    0    0  0.00000000000E+00  0.00000000000E+00  0.50000000000E+03  0.50000000000E+03  0.00000000000E+00 0. -1.
        -11   -1    0    0    0    0 -0.00000000000E+00 -0.00000000000E+00 -0.50000000000E+03  0.50000000000E+03  0.00000000000E+00 0.  1.
          5    1    1    2  501    0 -0.38660408817E+03  0.51222469338E+02  0.31287608992E+03  0.50000000000E+03  0.47000000000E+01 0. -1.
         -5    1    1    2    0  501  0.38660408817E+03 -0.51222469338E+02 -0.31287608992E+03  0.50000000000E+03  0.47000000000E+01 0.  1.
</event>
<event>
 4    1  0.4933936E-004  0.1000000E+04  0.7546771E-02  0.8684367E-01
         11   -1    0    0    0    0  0.00000000000E+00  0.00000000000E+00  0.50000000000E+03  0.50000000000E+03  0.00000000000E+00 0. -1.
        -11   -1    0    0    0    0 -0.00000000000E+00 -0.00000000000E+00 -0.50000000000E+03  0.50000000000E+03  0.00000000000E+00 0.  1.
          5    1    1    2  501    0  0.22779801303E+03 -0.11068384024E+03  0.43108591112E+03  0.50000000000E+03  0.47000000000E+01 0. -1.
         -5    1    1    2    0  501 -0.22779801303E+03  0.11068384024E+03 -0.43108591112E+03  0.50000000000E+03  0.47000000000E+01 0.  1.
</event>
<event>
 4    1  0.4933936E-004  0.1000000E+04  0.7546771E-02  0.8684367E-01
         11   -1    0    0    0    0  0.00000000000E+00  0.00000000000E+00  0.50000000000E+03  0.50000000000E+03  0.00000000000E+00 0. -1.
        -11   -1    0    0    0    0 -0.00000000000E+00 -0.00000000000E+00 -0.50000000000E+03  0.50000000000E+03  0.00000000000E+00 0.  1.
          5    1    1    2  501    0  0.41772382678E+03 -0.26869227391E+03  0.57351342474E+02  0.50000000000E+03  0.47000000000E+01 0. -1.
         -5    1    1    2    0  501 -0.41772382678E+03  0.26869227391E+03 -0.57351342474E+02  0.50000000000E+03  0.47000000000E+01 0.  1.
</event>
<event>
 4    1  0.4933936E-004  0.1000000E+04  0.7546771E-02  0.8684367E-01
         11   -1    0    0    0    0  0.00000000000E+00  0.00000000000E+00  0.50000000000E+03  0.50000000000E+03  0.00000000000E+00 0. -1.
        -11   -1    0    0    0    0 -0.00000000000E+00 -0.00000000000E+00 -0.50000000000E+03  0.50000000000E+03  0.00000000000E+00 0.  1.
          5    1    1    2  501    0  0.64631457692E+01 -0.42039683314E+03  0.27055986478E+03  0.50000000000E+03  0.47000000000E+01 0. -1.
         -5    1    1    2    0  501 -0.64631457692E+01  0.42039683314E+03 -0.27055986478E+03  0.50000000000E+03  0.47000000000E+01 0.  1.
</event>
<event>
 4    1  0.4933936E-004  0.1000000E+04  0.7546771E-02  0.8684367E-01
         11   -1    0    0    0    0  0.00000000000E+00  0.00000000000E+00  0.50000000000E+03  0.50000000000E+03  0.00000000000E+00 0. -1.
        -11   -1    0    0    0    0 -0.00000000000E+00 -0.00000000000E+00 -0.50000000000E+03  0.50000000000E+03  0.00000000000E+00 0.  1.
          5    1    1    2  501    0  0.13829994679E+03  0.27184560235E+03  0.39617042192E+03  0.50000000000E+03  0.47000000000E+01 0. -1.
         -5    1    1    2    0  501 -0.13829994679E+03 -0.27184560235E+03 -0.39617042192E+03  0.50000000000E+03  0.47000000000E+01 0.  1.
</event>
<event>
 4    1  0.4933936E-004  0.1000000E+04  0.7546771E-02  0.8684367E-01
         11   -1    0    0    0    0  0.00000000000E+00  0.00000000000E+00  0.50000000000E+03  0.50000000000E+03  0.00000000000E+00 0. -1.
        -11   -1    0    0    0    0 -0.00000000000E+00 -0.00000000000E+00 -0.50000000000E+03  0.50000000000E+03  0.00000000000E+00 0.  1.
          5    1    1    2  501    0 -0.22906332910E+03 -0.35351796357E+03 -0.26931942131E+03  0.50000000000E+03  0.47000000000E+01 0.  1.
         -5    1    1    2    0  501  0.22906332910E+03  0.35351796357E+03  0.26931942131E+03  0.50000000000E+03  0.47000000000E+01 0. -1.
</event>
<event>
 4    1  0.4933936E-004  0.1000000E+04  0.7546771E-02  0.8684367E-01
         11   -1    0    0    0    0  0.00000000000E+00  0.00000000000E+00  0.50000000000E+03  0.50000000000E+03  0.00000000000E+00 0. -1.
        -11   -1    0    0    0    0 -0.00000000000E+00 -0.00000000000E+00 -0.50000000000E+03  0.50000000000E+03  0.00000000000E+00 0.  1.
          5    1    1    2  501    0  0.15549219930E+02  0.37597603776E+03  0.32920836986E+03  0.50000000000E+03  0.47000000000E+01 0. -1.
         -5    1    1    2    0  501 -0.15549219930E+02 -0.37597603776E+03 -0.32920836986E+03  0.50000000000E+03  0.47000000000E+01 0.  1.
</event>
<event>
 4    1  0.4933936E-004  0.1000000E+04  0.7546771E-02  0.8684367E-01
         11   -1    0    0    0    0  0.00000000000E+00  0.00000000000E+00  0.50000000000E+03  0.50000000000E+03  0.00000000000E+00 0. -1.
        -11   -1    0    0    0    0 -0.00000000000E+00 -0.00000000000E+00 -0.50000000000E+03  0.50000000000E+03  0.00000000000E+00 0.  1.
          5    1    1    2  501    0 -0.16729381667E+03 -0.67607382301E+02  0.46628310152E+03  0.50000000000E+03  0.47000000000E+01 0. -1.
         -5    1    1    2    0  501  0.16729381667E+03  0.67607382301E+02 -0.46628310152E+03  0.50000000000E+03  0.47000000000E+01 0.  1.
</event>
<event>
 4    1  0.4933936E-004  0.1000000E+04  0.7546771E-02  0.8684367E-01
         11   -1    0    0    0    0  0.00000000000E+00  0.00000000000E+00  0.50000000000E+03  0.50000000000E+03  0.00000000000E+00 0. -1.
        -11   -1    0    0    0    0 -0.00000000000E+00 -0.00000000000E+00 -0.50000000000E+03  0.50000000000E+03  0.00000000000E+00 0.  1.
          5    1    1    2  501    0 -0.34672002062E+02 -0.30860607653E+03  0.39183931886E+03  0.50000000000E+03  0.47000000000E+01 0. -1.
         -5    1    1    2    0  501  0.34672002062E+02  0.30860607653E+03 -0.39183931886E+03  0.50000000000E+03  0.47000000000E+01 0.  1.
</event>
<event>
 4    1  0.4933936E-004  0.1000000E+04  0.7546771E-02  0.8684367E-01
         11   -1    0    0    0    0  0.00000000000E+00  0.00000000000E+00  0.50000000000E+03  0.50000000000E+03  0.00000000000E+00 0. -1.
        -11   -1    0    0    0    0 -0.00000000000E+00 -0.00000000000E+00 -0.50000000000E+03  0.50000000000E+03  0.00000000000E+00 0.  1.
          5    1    1    2  501    0  0.11347085368E+03 -0.82813707619E+02  0.47983764462E+03  0.50000000000E+03  0.47000000000E+01 0. -1.
         -5    1    1    2    0  501 -0.11347085368E+03  0.82813707619E+02 -0.47983764462E+03  0.50000000000E+03  0.47000000000E+01 0.  1.
</event>
<event>
 4    1  0.4933936E-004  0.1000000E+04  0.7546771E-02  0.8684367E-01
         11   -1    0    0    0    0  0.00000000000E+00  0.00000000000E+00  0.50000000000E+03  0.50000000000E+03  0.00000000000E+00 0.  1.
        -11   -1    0    0    0    0 -0.00000000000E+00 -0.00000000000E+00 -0.50000000000E+03  0.50000000000E+03  0.00000000000E+00 0. -1.
          5    1    1    2  501    0 -0.11455691956E+03  0.40697061832E+03  0.26688862472E+03  0.50000000000E+03  0.47000000000E+01 0.  1.
         -5    1    1    2    0  501  0.11455691956E+03 -0.40697061832E+03 -0.26688862472E+03  0.50000000000E+03  0.47000000000E+01 0. -1.
</event>
<event>
 4    1  0.4933936E-004  0.1000000E+04  0.7546771E-02  0.8684367E-01
         11   -1    0    0    0    0  0.00000000000E+00  0.00000000000E+00  0.50000000000E+03  0.50000000000E+03  0.00000000000E+00 0. -1.
        -11   -1    0    0    0    0 -0.00000000000E+00 -0.00000000000E+00 -0.50000000000E+03  0.50000000000E+03  0.00000000000E+00 0.  1.
          5    1    1    2  501    0 -0.39485059932E+03 -0.26573371690E+03  0.15315516943E+03  0.50000000000E+03  0.47000000000E+01 0. -1.
         -5    1    1    2    0  501  0.39485059932E+03  0.26573371690E+03 -0.15315516943E+03  0.50000000000E+03  0.47000000000E+01 0.  1.
</event>
<event>
 4    1  0.4933936E-004  0.1000000E+04  0.7546771E-02  0.8684367E-01
         11   -1    0    0    0    0  0.00000000000E+00  0.00000000000E+00  0.50000000000E+03  0.50000000000E+03  0.00000000000E+00 0. -1.
        -11   -1    0    0    0    0 -0.00000000000E+00 -0.00000000000E+00 -0.50000000000E+03  0.50000000000E+03  0.00000000000E+00 0.  1.
          5    1    1    2  501    0 -0.51779703244E+02  0.45992807933E+03  0.18911090443E+03  0.50000000000E+03  0.47000000000E+01 0. -1.
         -5    1    1    2    0  501  0.51779703244E+02 -0.45992807933E+03 -0.18911090443E+03  0.50000000000E+03  0.47000000000E+01 0.  1.
</event>
<event>
 4    1  0.4933936E-004  0.1000000E+04  0.7546771E-02  0.8684367E-01
         11   -1    0    0    0    0  0.00000000000E+00  0.00000000000E+00  0.50000000000E+03  0.50000000000E+03  0.00000000000E+00 0. -1.
        -11   -1    0    0    0    0 -0.00000000000E+00 -0.00000000000E+00 -0.50000000000E+03  0.50000000000E+03  0.00000000000E+00 0.  1.
          5    1    1    2  501    0 -0.12677748422E+02 -0.92017365415E+02  0.49127384335E+03  0.50000000000E+03  0.47000000000E+01 0. -1.
         -5    1    1    2    0  501  0.12677748422E+02  0.92017365415E+02 -0.49127384335E+03  0.50000000000E+03  0.47000000000E+01 0.  1.
</event>
<event>
 4    1  0.4933936E-004  0.1000000E+04  0.7546771E-02  0.8684367E-01
         11   -1    0    0    0    0  0.00000000000E+00  0.00000000000E+00  0.50000000000E+03  0.50000000000E+03  0.00000000000E+00 0. -1.
        -11   -1    0    0    0    0 -0.00000000000E+00 -0.00000000000E+00 -0.50000000000E+03  0.50000000000E+03  0.00000000000E+00 0.  1.
          5    1    1    2  501    0  0.24286687828E+03  0.38150215432E+03  0.21318934234E+03  0.50000000000E+03  0.47000000000E+01 0. -1.
         -5    1    1    2    0  501 -0.24286687828E+03 -0.38150215432E+03 -0.21318934234E+03  0.50000000000E+03  0.47000000000E+01 0.  1.
</event>
<event>
 4    1  0.4933936E-004  0.1000000E+04  0.7546771E-02  0.8684367E-01
         11   -1    0    0    0    0  0.00000000000E+00  0.00000000000E+00  0.50000000000E+03  0.50000000000E+03  0.00000000000E+00 0. -1.
        -11   -1    0    0    0    0 -0.00000000000E+00 -0.00000000000E+00 -0.50000000000E+03  0.50000000000E+03  0.00000000000E+00 0.  1.
          5    1    1    2  501    0  0.15483887032E+03  0.10814282316E+03  0.46293408174E+03  0.50000000000E+03  0.47000000000E+01 0. -1.
         -5    1    1    2    0  501 -0.15483887032E+03 -0.10814282316E+03 -0.46293408174E+03  0.50000000000E+03  0.47000000000E+01 0.  1.
</event>
<event>
 4    1  0.4933936E-004  0.1000000E+04  0.7546771E-02  0.8684367E-01
         11   -1    0    0    0    0  0.00000000000E+00  0.00000000000E+00  0.50000000000E+03  0.50000000000E+03  0.00000000000E+00 0. -1.
        -11   -1    0    0    0    0 -0.00000000000E+00 -0.00000000000E+00 -0.50000000000E+03  0.50000000000E+03  0.00000000000E+00 0.  1.
          5    1    1    2  501    0  0.49034895490E+02 -0.34443670514E+03  0.35907777038E+03  0.50000000000E+03  0.47000000000E+01 0. -1.
         -5    1    1    2    0  501 -0.49034895490E+02  0.34443670514E+03 -0.35907777038E+03  0.50000000000E+03  0.47000000000E+01 0.  1.
</event>
<event>
 4    1  0.4933936E-004  0.1000000E+04  0.7546771E-02  0.8684367E-01
         11   -1    0    0    0    0  0.00000000000E+00  0.00000000000E+00  0.50000000000E+03  0.50000000000E+03  0.00000000000E+00 0.  1.
        -11   -1    0    0    0    0 -0.00000000000E+00 -0.00000000000E+00 -0.50000000000E+03  0.50000000000E+03  0.00000000000E+00 0. -1.
          5    1    1    2  501    0 -0.46852292739E+02  0.13673512004E+03  0.47862958498E+03  0.50000000000E+03  0.47000000000E+01 0.  1.
         -5    1    1    2    0  501  0.46852292739E+02 -0.13673512004E+03 -0.47862958498E+03  0.50000000000E+03  0.47000000000E+01 0. -1.
</event>
<event>
 4    1  0.4933936E-004  0.1000000E+04  0.7546771E-02  0.8684367E-01
         11   -1    0    0    0    0  0.00000000000E+00  0.00000000000E+00  0.50000000000E+03  0.50000000000E+03  0.00000000000E+00 0.  1.
        -11   -1    0    0    0    0 -0.00000000000E+00 -0.00000000000E+00 -0.50000000000E+03  0.50000000000E+03  0.00000000000E+00 0. -1.
          5    1    1    2  501    0  0.29584874928E+03 -0.19136341287E+03 -0.35472732030E+03  0.50000000000E+03  0.47000000000E+01 0. -1.
         -5    1    1    2    0  501 -0.29584874928E+03  0.19136341287E+03  0.35472732030E+03  0.50000000000E+03  0.47000000000E+01 0.  1.
</event>
<event>
 4    1  0.4933936E-004  0.1000000E+04  0.7546771E-02  0.8684367E-01
         11   -1    0    0    0    0  0.00000000000E+00  0.00000000000E+00  0.50000000000E+03  0.50000000000E+03  0.00000000000E+00 0. -1.
        -11   -1    0    0    0    0 -0.00000000000E+00 -0.00000000000E+00 -0.50000000000E+03  0.50000000000E+03  0.00000000000E+00 0.  1.
          5    1    1    2  501    0  0.29901339884E+03 -0.69924701893E+02  0.39456233142E+03  0.50000000000E+03  0.47000000000E+01 0. -1.
         -5    1    1    2    0  501 -0.29901339884E+03  0.69924701893E+02 -0.39456233142E+03  0.50000000000E+03  0.47000000000E+01 0.  1.
</event>
<event>
 4    1  0.4933936E-004  0.1000000E+04  0.7546771E-02  0.8684367E-01
         11   -1    0    0    0    0  0.00000000000E+00  0.00000000000E+00  0.50000000000E+03  0.50000000000E+03  0.00000000000E+00 0. -1.
        -11   -1    0    0    0    0 -0.00000000000E+00 -0.00000000000E+00 -0.50000000000E+03  0.50000000000E+03  0.00000000000E+00 0.  1.
          5    1    1    2  501    0 -0.24880397239E+03 -0.34087819799E+03  0.26809801837E+03  0.50000000000E+03  0.47000000000E+01 0. -1.
         -5    1    1    2    0  501  0.24880397239E+03  0.34087819799E+03 -0.26809801837E+03  0.50000000000E+03  0.47000000000E+01 0.  1.
</event>
<event>
 4    1  0.4933936E-004  0.1000000E+04  0.7546771E-02  0.8684367E-01
         11   -1    0    0    0    0  0.00000000000E+00  0.00000000000E+00  0.50000000000E+03  0.50000000000E+03  0.00000000000E+00 0. -1.
        -11   -1    0    0    0    0 -0.00000000000E+00 -0.00000000000E+00 -0.50000000000E+03  0.50000000000E+03  0.00000000000E+00 0.  1.
          5    1    1    2  501    0  0.10558107552E+03 -0.22483909422E+03  0.43391004621E+03  0.50000000000E+03  0.47000000000E+01 0. -1.
         -5    1    1    2    0  501 -0.10558107552E+03  0.22483909422E+03 -0.43391004621E+03  0.50000000000E+03  0.47000000000E+01 0.  1.
</event>
<event>
 4    1  0.4933936E-004  0.1000000E+04  0.7546771E-02  0.8684367E-01
         11   -1    0    0    0    0  0.00000000000E+00  0.00000000000E+00  0.50000000000E+03  0.50000000000E+03  0.00000000000E+00 0.  1.
        -11   -1    0    0    0    0 -0.00000000000E+00 -0.00000000000E+00 -0.50000000000E+03  0.50000000000E+03  0.00000000000E+00 0. -1.
          5    1    1    2  501    0 -0.39296904423E+02 -0.48151412320E+03  0.12875485412E+03  0.50000000000E+03  0.47000000000E+01 0.  1.
         -5    1    1    2    0  501  0.39296904423E+02  0.48151412320E+03 -0.12875485412E+03  0.50000000000E+03  0.47000000000E+01 0. -1.
</event>
<event>
 4    1  0.4933936E-004  0.1000000E+04  0.7546771E-02  0.8684367E-01
         11   -1    0    0    0    0  0.00000000000E+00  0.00000000000E+00  0.50000000000E+03  0.50000000000E+03  0.00000000000E+00 0. -1.
        -11   -1    0    0    0    0 -0.00000000000E+00 -0.00000000000E+00 -0.50000000000E+03  0.50000000000E+03  0.00000000000E+00 0.  1.
          5    1    1    2  501    0 -0.15933694586E+02  0.49929357936E+03 -0.20735211369E+02  0.50000000000E+03  0.47000000000E+01 0. -1.
         -5    1    1    2    0  501  0.15933694586E+02 -0.49929357936E+03  0.20735211369E+02  0.50000000000E+03  0.47000000000E+01 0.  1.
</event>
<event>
 4    1  0.4933936E-004  0.1000000E+04  0.7546771E-02  0.8684367E-01
         11   -1    0    0    0    0  0.00000000000E+00  0.00000000000E+00  0.50000000000E+03  0.50000000000E+03  0.00000000000E+00 0. -1.
        -11   -1    0    0    0    0 -0.00000000000E+00 -0.00000000000E+00 -0.50000000000E+03  0.50000000000E+03  0.00000000000E+00 0.  1.
          5    1    1    2  501    0  0.11956073190E+02  0.49881975907E+03  0.31840387452E+02  0.50000000000E+03  0.47000000000E+01 0. -1.
         -5    1    1    2    0  501 -0.11956073190E+02 -0.49881975907E+03 -0.31840387452E+02  0.50000000000E+03  0.47000000000E+01 0.  1.
</event>
<event>
 4    1  0.4933936E-004  0.1000000E+04  0.7546771E-02  0.8684367E-01
         11   -1    0    0    0    0  0.00000000000E+00  0.00000000000E+00  0.50000000000E+03  0.50000000000E+03  0.00000000000E+00 0. -1.
        -11   -1    0    0    0    0 -0.00000000000E+00 -0.00000000000E+00 -0.50000000000E+03  0.50000000000E+03  0.00000000000E+00 0.  1.
          5    1    1    2  501    0 -0.27152315496E+02  0.48758568508E+03 -0.10724206947E+03  0.50000000000E+03  0.47000000000E+01 0. -1.
         -5    1    1    2    0  501  0.27152315496E+02 -0.48758568508E+03  0.10724206947E+03  0.50000000000E+03  0.47000000000E+01 0.  1.
</event>
<event>
 4    1  0.4933936E-004  0.1000000E+04  0.7546771E-02  0.8684367E-01
         11   -1    0    0    0    0  0.00000000000E+00  0.00000000000E+00  0.50000000000E+03  0.50000000000E+03  0.00000000000E+00 0. -1.
        -11   -1    0    0    0    0 -0.00000000000E+00 -0.00000000000E+00 -0.50000000000E+03  0.50000000000E+03  0.00000000000E+00 0.  1.
          5    1    1    2  501    0 -0.29799235581E+03  0.19311659802E+03  0.35197222255E+03  0.50000000000E+03  0.47000000000E+01 0. -1.
         -5    1    1    2    0  501  0.29799235581E+03 -0.19311659802E+03 -0.35197222255E+03  0.50000000000E+03  0.47000000000E+01 0.  1.
</event>
<event>
 4    1  0.4933936E-004  0.1000000E+04  0.7546771E-02  0.8684367E-01
         11   -1    0    0    0    0  0.00000000000E+00  0.00000000000E+00  0.50000000000E+03  0.50000000000E+03  0.00000000000E+00 0. -1.
        -11   -1    0    0    0    0 -0.00000000000E+00 -0.00000000000E+00 -0.50000000000E+03  0.50000000000E+03  0.00000000000E+00 0.  1.
          5    1    1    2  501    0  0.16792778730E+03  0.44758331382E+03  0.14644912235E+03  0.50000000000E+03  0.47000000000E+01 0. -1.
         -5    1    1    2    0  501 -0.16792778730E+03 -0.44758331382E+03 -0.14644912235E+03  0.50000000000E+03  0.47000000000E+01 0.  1.
</event>
<event>
 4    1  0.4933936E-004  0.1000000E+04  0.7546771E-02  0.8684367E-01
         11   -1    0    0    0    0  0.00000000000E+00  0.00000000000E+00  0.50000000000E+03  0.50000000000E+03  0.00000000000E+00 0. -1.
        -11   -1    0    0    0    0 -0.00000000000E+00 -0.00000000000E+00 -0.50000000000E+03  0.50000000000E+03  0.00000000000E+00 0.  1.
          5    1    1    2  501    0 -0.26469882587E+03  0.40429462340E+03  0.12828990247E+03  0.50000000000E+03  0.47000000000E+01 0. -1.
         -5    1    1    2    0  501  0.26469882587E+03 -0.40429462340E+03 -0.12828990247E+03  0.50000000000E+03  0.47000000000E+01 0.  1.
</event>
<event>
 4    1  0.4933936E-004  0.1000000E+04  0.7546771E-02  0.8684367E-01
         11   -1    0    0    0    0  0.00000000000E+00  0.00000000000E+00  0.50000000000E+03  0.50000000000E+03  0.00000000000E+00 0. -1.
        -11   -1    0    0    0    0 -0.00000000000E+00 -0.00000000000E+00 -0.50000000000E+03  0.50000000000E+03  0.00000000000E+00 0.  1.
          5    1    1    2  501    0  0.21335374257E+02 -0.15786619111E+03  0.47392085574E+03  0.50000000000E+03  0.47000000000E+01 0. -1.
         -5    1    1    2    0  501 -0.21335374257E+02  0.15786619111E+03 -0.47392085574E+03  0.50000000000E+03  0.47000000000E+01 0.  1.
</event>
<event>
 4    1  0.4933936E-004  0.1000000E+04  0.7546771E-02  0.8684367E-01
         11   -1    0    0    0    0  0.00000000000E+00  0.00000000000E+00  0.50000000000E+03  0.50000000000E+03  0.00000000000E+00 0.  1.
        -11   -1    0    0    0    0 -0.00000000000E+00 -0.00000000000E+00 -0.50000000000E+03  0.50000000000E+03  0.00000000000E+00 0. -1.
          5    1    1    2  501    0 -0.26562423255E+03  0.31503277013E+02  0.42240883114E+03  0.50000000000E+03  0.47000000000E+01 0.  1.
         -5    1    1    2    0  501  0.26562423255E+03 -0.31503277013E+02 -0.42240883114E+03  0.50000000000E+03  0.47000000000E+01 0. -1.
</event>
<event>
 4    1  0.4933936E-004  0.1000000E+04  0.7546771E-02  0.8684367E-01
         11   -1    0    0    0    0  0.00000000000E+00  0.00000000000E+00  0.50000000000E+03  0.50000000000E+03  0.00000000000E+00 0. -1.
        -11   -1    0    0    0    0 -0.00000000000E+00 -0.00000000000E+00 -0.50000000000E+03  0.50000000000E+03  0.00000000000E+00 0.  1.
          5    1    1    2  501    0 -0.19083013234E+03  0.19107410614E+02  0.46173225732E+03  0.50000000000E+03  0.47000000000E+01 0. -1.
         -5    1    1    2    0  501  0.19083013234E+03 -0.19107410614E+02 -0.46173225732E+03  0.50000000000E+03  0.47000000000E+01 0.  1.
</event>
<event>
 4    1  0.4933936E-004  0.1000000E+04  0.7546771E-02  0.8684367E-01
         11   -1    0    0    0    0  0.00000000000E+00  0.00000000000E+00  0.50000000000E+03  0.50000000000E+03  0.00000000000E+00 0. -1.
        -11   -1    0    0    0    0 -0.00000000000E+00 -0.00000000000E+00 -0.50000000000E+03  0.50000000000E+03  0.00000000000E+00 0.  1.
          5    1    1    2  501    0  0.16856106849E+03 -0.44386876331E+03  0.15667034546E+03  0.50000000000E+03  0.47000000000E+01 0. -1.
         -5    1    1    2    0  501 -0.16856106849E+03  0.44386876331E+03 -0.15667034546E+03  0.50000000000E+03  0.47000000000E+01 0.  1.
</event>
<event>
 4    1  0.4933936E-004  0.1000000E+04  0.7546771E-02  0.8684367E-01
         11   -1    0    0    0    0  0.00000000000E+00  0.00000000000E+00  0.50000000000E+03  0.50000000000E+03  0.00000000000E+00 0. -1.
        -11   -1    0    0    0    0 -0.00000000000E+00 -0.00000000000E+00 -0.50000000000E+03  0.50000000000E+03  0.00000000000E+00 0.  1.
          5    1    1    2  501    0  0.42203923674E+03 -0.13729217202E+03  0.23024259413E+03  0.50000000000E+03  0.47000000000E+01 0. -1.
         -5    1    1    2    0  501 -0.42203923674E+03  0.13729217202E+03 -0.23024259413E+03  0.50000000000E+03  0.47000000000E+01 0.  1.
</event>
<event>
 4    1  0.4933936E-004  0.1000000E+04  0.7546771E-02  0.8684367E-01
         11   -1    0    0    0    0  0.00000000000E+00  0.00000000000E+00  0.50000000000E+03  0.50000000000E+03  0.00000000000E+00 0. -1.
        -11   -1    0    0    0    0 -0.00000000000E+00 -0.00000000000E+00 -0.50000000000E+03  0.50000000000E+03  0.00000000000E+00 0.  1.
          5    1    1    2  501    0 -0.36347605244E+03  0.33634378201E+03  0.68818090715E+02  0.50000000000E+03  0.47000000000E+01 0. -1.
         -5    1    1    2    0  501  0.36347605244E+03 -0.33634378201E+03 -0.68818090715E+02  0.50000000000E+03  0.47000000000E+01 0.  1.
</event>
<event>
 4    1  0.4933936E-004  0.1000000E+04  0.7546771E-02  0.8684367E-01
         11   -1    0    0    0    0  0.00000000000E+00  0.00000000000E+00  0.50000000000E+03  0.50000000000E+03  0.00000000000E+00 0. -1.
        -11   -1    0    0    0    0 -0.00000000000E+00 -0.00000000000E+00 -0.50000000000E+03  0.50000000000E+03  0.00000000000E+00 0.  1.
          5    1    1    2  501    0  0.49053760511E+03  0.56642900401E+02  0.78373144694E+02  0.50000000000E+03  0.47000000000E+01 0. -1.
         -5    1    1    2    0  501 -0.49053760511E+03 -0.56642900401E+02 -0.78373144694E+02  0.50000000000E+03  0.47000000000E+01 0.  1.
</event>
<event>
 4    1  0.4933936E-004  0.1000000E+04  0.7546771E-02  0.8684367E-01
         11   -1    0    0    0    0  0.00000000000E+00  0.00000000000E+00  0.50000000000E+03  0.50000000000E+03  0.00000000000E+00 0. -1.
        -11   -1    0    0    0    0 -0.00000000000E+00 -0.00000000000E+00 -0.50000000000E+03  0.50000000000E+03  0.00000000000E+00 0.  1.
          5    1    1    2  501    0  0.17400350423E+03 -0.17505893065E+03  0.43480462430E+03  0.50000000000E+03  0.47000000000E+01 0. -1.
         -5    1    1    2    0  501 -0.17400350423E+03  0.17505893065E+03 -0.43480462430E+03  0.50000000000E+03  0.47000000000E+01 0.  1.
</event>
<event>
 4    1  0.4933936E-004  0.1000000E+04  0.7546771E-02  0.8684367E-01
         11   -1    0    0    0    0  0.00000000000E+00  0.00000000000E+00  0.50000000000E+03  0.50000000000E+03  0.00000000000E+00 0. -1.
        -11   -1    0    0    0    0 -0.00000000000E+00 -0.00000000000E+00 -0.50000000000E+03  0.50000000000E+03  0.00000000000E+00 0.  1.
          5    1    1    2  501    0  0.32852232277E+03  0.70552779529E+02  0.37023411343E+03  0.50000000000E+03  0.47000000000E+01 0. -1.
         -5    1    1    2    0  501 -0.32852232277E+03 -0.70552779529E+02 -0.37023411343E+03  0.50000000000E+03  0.47000000000E+01 0.  1.
</event>
<event>
 4    1  0.4933936E-004  0.1000000E+04  0.7546771E-02  0.8684367E-01
         11   -1    0    0    0    0  0.00000000000E+00  0.00000000000E+00  0.50000000000E+03  0.50000000000E+03  0.00000000000E+00 0. -1.
        -11   -1    0    0    0    0 -0.00000000000E+00 -0.00000000000E+00 -0.50000000000E+03  0.50000000000E+03  0.00000000000E+00 0.  1.
          5    1    1    2  501    0 -0.16890444257E+03 -0.46977485140E+03 -0.27582390644E+02  0.50000000000E+03  0.47000000000E+01 0. -1.
         -5    1    1    2    0  501  0.16890444257E+03  0.46977485140E+03  0.27582390644E+02  0.50000000000E+03  0.47000000000E+01 0.  1.
</event>
<event>
 4    1  0.4933936E-004  0.1000000E+04  0.7546771E-02  0.8684367E-01
         11   -1    0    0    0    0  0.00000000000E+00  0.00000000000E+00  0.50000000000E+03  0.50000000000E+03  0.00000000000E+00 0. -1.
        -11   -1    0    0    0    0 -0.00000000000E+00 -0.00000000000E+00 -0.50000000000E+03  0.50000000000E+03  0.00000000000E+00 0.  1.
          5    1    1    2  501    0 -0.28929347112E+03 -0.33137948599E+03  0.23764434315E+03  0.50000000000E+03  0.47000000000E+01 0. -1.
         -5    1    1    2    0  501  0.28929347112E+03  0.33137948599E+03 -0.23764434315E+03  0.50000000000E+03  0.47000000000E+01 0.  1.
</event>
<event>
 4    1  0.4933936E-004  0.1000000E+04  0.7546771E-02  0.8684367E-01
         11   -1    0    0    0    0  0.00000000000E+00  0.00000000000E+00  0.50000000000E+03  0.50000000000E+03  0.00000000000E+00 0.  1.
        -11   -1    0    0    0    0 -0.00000000000E+00 -0.00000000000E+00 -0.50000000000E+03  0.50000000000E+03  0.00000000000E+00 0. -1.
          5    1    1    2  501    0 -0.47777372800E+03  0.72078862933E+02  0.12850996985E+03  0.50000000000E+03  0.47000000000E+01 0.  1.
         -5    1    1    2    0  501  0.47777372800E+03 -0.72078862933E+02 -0.12850996985E+03  0.50000000000E+03  0.47000000000E+01 0. -1.
</event>
<event>
 4    1  0.4933936E-004  0.1000000E+04  0.7546771E-02  0.8684367E-01
         11   -1    0    0    0    0  0.00000000000E+00  0.00000000000E+00  0.50000000000E+03  0.50000000000E+03  0.00000000000E+00 0. -1.
        -11   -1    0    0    0    0 -0.00000000000E+00 -0.00000000000E+00 -0.50000000000E+03  0.50000000000E+03  0.00000000000E+00 0.  1.
          5    1    1    2  501    0 -0.23606369455E+03 -0.44058958170E+03 -0.11517925755E+02  0.50000000000E+03  0.47000000000E+01 0. -1.
         -5    1    1    2    0  501  0.23606369455E+03  0.44058958170E+03  0.11517925755E+02  0.50000000000E+03  0.47000000000E+01 0.  1.
</event>
<event>
 4    1  0.4933936E-004  0.1000000E+04  0.7546771E-02  0.8684367E-01
         11   -1    0    0    0    0  0.00000000000E+00  0.00000000000E+00  0.50000000000E+03  0.50000000000E+03  0.00000000000E+00 0. -1.
        -11   -1    0    0    0    0 -0.00000000000E+00 -0.00000000000E+00 -0.50000000000E+03  0.50000000000E+03  0.00000000000E+00 0.  1.
          5    1    1    2  501    0  0.43053325918E+03 -0.57110076862E+02  0.24770438402E+03  0.50000000000E+03  0.47000000000E+01 0. -1.
         -5    1    1    2    0  501 -0.43053325918E+03  0.57110076862E+02 -0.24770438402E+03  0.50000000000E+03  0.47000000000E+01 0.  1.
</event>
<event>
 4    1  0.4933936E-004  0.1000000E+04  0.7546771E-02  0.8684367E-01
         11   -1    0    0    0    0  0.00000000000E+00  0.00000000000E+00  0.50000000000E+03  0.50000000000E+03  0.00000000000E+00 0. -1.
        -11   -1    0    0    0    0 -0.00000000000E+00 -0.00000000000E+00 -0.50000000000E+03  0.50000000000E+03  0.00000000000E+00 0.  1.
          5    1    1    2  501    0 -0.16215473010E+03  0.33173832575E+03  0.33709558991E+03  0.50000000000E+03  0.47000000000E+01 0. -1.
         -5    1    1    2    0  501  0.16215473010E+03 -0.33173832575E+03 -0.33709558991E+03  0.50000000000E+03  0.47000000000E+01 0.  1.
</event>
<event>
 4    1  0.4933936E-004  0.1000000E+04  0.7546771E-02  0.8684367E-01
         11   -1    0    0    0    0  0.00000000000E+00  0.00000000000E+00  0.50000000000E+03  0.50000000000E+03  0.00000000000E+00 0. -1.
        -11   -1    0    0    0    0 -0.00000000000E+00 -0.00000000000E+00 -0.50000000000E+03  0.50000000000E+03  0.00000000000E+00 0.  1.
          5    1    1    2  501    0  0.47355472138E+02 -0.47524434977E+03  0.14791273531E+03  0.50000000000E+03  0.47000000000E+01 0. -1.
         -5    1    1    2    0  501 -0.47355472138E+02  0.47524434977E+03 -0.14791273531E+03  0.50000000000E+03  0.47000000000E+01 0.  1.
</event>
<event>
 4    1  0.4933936E-004  0.1000000E+04  0.7546771E-02  0.8684367E-01
         11   -1    0    0    0    0  0.00000000000E+00  0.00000000000E+00  0.50000000000E+03  0.50000000000E+03  0.00000000000E+00 0. -1.
        -11   -1    0    0    0    0 -0.00000000000E+00 -0.00000000000E+00 -0.50000000000E+03  0.50000000000E+03  0.00000000000E+00 0.  1.
          5    1    1    2  501    0  0.10221675790E+03 -0.36276011889E+03  0.32853423041E+03  0.50000000000E+03  0.47000000000E+01 0.  1.
         -5    1    1    2    0  501 -0.10221675790E+03  0.36276011889E+03 -0.32853423041E+03  0.50000000000E+03  0.47000000000E+01 0. -1.
</event>
<event>
 4    1  0.4933936E-004  0.1000000E+04  0.7546771E-02  0.8684367E-01
         11   -1    0    0    0    0  0.00000000000E+00  0.00000000000E+00  0.50000000000E+03  0.50000000000E+03  0.00000000000E+00 0.  1.
        -11   -1    0    0    0    0 -0.00000000000E+00 -0.00000000000E+00 -0.50000000000E+03  0.50000000000E+03  0.00000000000E+00 0. -1.
          5    1    1    2  501    0  0.32938777637E+03 -0.34920925968E+03 -0.13976586039E+03  0.50000000000E+03  0.47000000000E+01 0.  1.
         -5    1    1    2    0  501 -0.32938777637E+03  0.34920925968E+03  0.13976586039E+03  0.50000000000E+03  0.47000000000E+01 0. -1.
</event>
<event>
 4    1  0.4933936E-004  0.1000000E+04  0.7546771E-02  0.8684367E-01
         11   -1    0    0    0    0  0.00000000000E+00  0.00000000000E+00  0.50000000000E+03  0.50000000000E+03  0.00000000000E+00 0. -1.
        -11   -1    0    0    0    0 -0.00000000000E+00 -0.00000000000E+00 -0.50000000000E+03  0.50000000000E+03  0.00000000000E+00 0.  1.
          5    1    1    2  501    0  0.19375531671E+03 -0.30549113346E+03  0.34512599818E+03  0.50000000000E+03  0.47000000000E+01 0. -1.
         -5    1    1    2    0  501 -0.19375531671E+03  0.30549113346E+03 -0.34512599818E+03  0.50000000000E+03  0.47000000000E+01 0.  1.
</event>
<event>
 4    1  0.4933936E-004  0.1000000E+04  0.7546771E-02  0.8684367E-01
         11   -1    0    0    0    0  0.00000000000E+00  0.00000000000E+00  0.50000000000E+03  0.50000000000E+03  0.00000000000E+00 0.  1.
        -11   -1    0    0    0    0 -0.00000000000E+00 -0.00000000000E+00 -0.50000000000E+03  0.50000000000E+03  0.00000000000E+00 0. -1.
          5    1    1    2  501    0  0.97839623270E+02 -0.48387995941E+03 -0.79154930374E+02  0.50000000000E+03  0.47000000000E+01 0.  1.
         -5    1    1    2    0  501 -0.97839623270E+02  0.48387995941E+03  0.79154930374E+02  0.50000000000E+03  0.47000000000E+01 0. -1.
</event>
<event>
 4    1  0.4933936E-004  0.1000000E+04  0.7546771E-02  0.8684367E-01
         11   -1    0    0    0    0  0.00000000000E+00  0.00000000000E+00  0.50000000000E+03  0.50000000000E+03  0.00000000000E+00 0.  1.
        -11   -1    0    0    0    0 -0.00000000000E+00 -0.00000000000E+00 -0.50000000000E+03  0.50000000000E+03  0.00000000000E+00 0. -1.
          5    1    1    2  501    0 -0.34896418601E+03 -0.94939924767E+02  0.34523661099E+03  0.50000000000E+03  0.47000000000E+01 0.  1.
         -5    1    1    2    0  501  0.34896418601E+03  0.94939924767E+02 -0.34523661099E+03  0.50000000000E+03  0.47000000000E+01 0. -1.
</event>
<event>
 4    1  0.4933936E-004  0.1000000E+04  0.7546771E-02  0.8684367E-01
         11   -1    0    0    0    0  0.00000000000E+00  0.00000000000E+00  0.50000000000E+03  0.50000000000E+03  0.00000000000E+00 0. -1.
        -11   -1    0    0    0    0 -0.00000000000E+00 -0.00000000000E+00 -0.50000000000E+03  0.50000000000E+03  0.00000000000E+00 0.  1.
          5    1    1    2  501    0 -0.25386649539E+02 -0.34848898289E+03  0.35761551536E+03  0.50000000000E+03  0.47000000000E+01 0. -1.
         -5    1    1    2    0  501  0.25386649539E+02  0.34848898289E+03 -0.35761551536E+03  0.50000000000E+03  0.47000000000E+01 0.  1.
</event>
<event>
 4    1  0.4933936E-004  0.1000000E+04  0.7546771E-02  0.8684367E-01
         11   -1    0    0    0    0  0.00000000000E+00  0.00000000000E+00  0.50000000000E+03  0.50000000000E+03  0.00000000000E+00 0. -1.
        -11   -1    0    0    0    0 -0.00000000000E+00 -0.00000000000E+00 -0.50000000000E+03  0.50000000000E+03  0.00000000000E+00 0.  1.
          5    1    1    2  501    0 -0.37463763598E+03  0.30715804225E+03  0.12360618426E+03  0.50000000000E+03  0.47000000000E+01 0. -1.
         -5    1    1    2    0  501  0.37463763598E+03 -0.30715804225E+03 -0.12360618426E+03  0.50000000000E+03  0.47000000000E+01 0.  1.
</event>
<event>
 4    1  0.4933936E-004  0.1000000E+04  0.7546771E-02  0.8684367E-01
         11   -1    0    0    0    0  0.00000000000E+00  0.00000000000E+00  0.50000000000E+03  0.50000000000E+03  0.00000000000E+00 0. -1.
        -11   -1    0    0    0    0 -0.00000000000E+00 -0.00000000000E+00 -0.50000000000E+03  0.50000000000E+03  0.00000000000E+00 0.  1.
          5    1    1    2  501    0  0.33165976597E+03 -0.37393585056E+03  0.12316221204E+02  0.50000000000E+03  0.47000000000E+01 0. -1.
         -5    1    1    2    0  501 -0.33165976597E+03  0.37393585056E+03 -0.12316221204E+02  0.50000000000E+03  0.47000000000E+01 0.  1.
</event>
<event>
 4    1  0.4933936E-004  0.1000000E+04  0.7546771E-02  0.8684367E-01
         11   -1    0    0    0    0  0.00000000000E+00  0.00000000000E+00  0.50000000000E+03  0.50000000000E+03  0.00000000000E+00 0. -1.
        -11   -1    0    0    0    0 -0.00000000000E+00 -0.00000000000E+00 -0.50000000000E+03  0.50000000000E+03  0.00000000000E+00 0.  1.
          5    1    1    2  501    0  0.39240387552E+03 -0.22436096411E+03  0.21368028983E+03  0.50000000000E+03  0.47000000000E+01 0. -1.
         -5    1    1    2    0  501 -0.39240387552E+03  0.22436096411E+03 -0.21368028983E+03  0.50000000000E+03  0.47000000000E+01 0.  1.
</event>
<event>
 4    1  0.4933936E-004  0.1000000E+04  0.7546771E-02  0.8684367E-01
         11   -1    0    0    0    0  0.00000000000E+00  0.00000000000E+00  0.50000000000E+03  0.50000000000E+03  0.00000000000E+00 0. -1.
        -11   -1    0    0    0    0 -0.00000000000E+00 -0.00000000000E+00 -0.50000000000E+03  0.50000000000E+03  0.00000000000E+00 0.  1.
          5    1    1    2  501    0 -0.26732210456E+03  0.50521982326E+02  0.41948102664E+03  0.50000000000E+03  0.47000000000E+01 0. -1.
         -5    1    1    2    0  501  0.26732210456E+03 -0.50521982326E+02 -0.41948102664E+03  0.50000000000E+03  0.47000000000E+01 0.  1.
</event>
<event>
 4    1  0.4933936E-004  0.1000000E+04  0.7546771E-02  0.8684367E-01
         11   -1    0    0    0    0  0.00000000000E+00  0.00000000000E+00  0.50000000000E+03  0.50000000000E+03  0.00000000000E+00 0. -1.
        -11   -1    0    0    0    0 -0.00000000000E+00 -0.00000000000E+00 -0.50000000000E+03  0.50000000000E+03  0.00000000000E+00 0.  1.
          5    1    1    2  501    0  0.47419586734E+03 -0.77722218020E+02  0.13811388858E+03  0.50000000000E+03  0.47000000000E+01 0. -1.
         -5    1    1    2    0  501 -0.47419586734E+03  0.77722218020E+02 -0.13811388858E+03  0.50000000000E+03  0.47000000000E+01 0.  1.
</event>
<event>
 4    1  0.4933936E-004  0.1000000E+04  0.7546771E-02  0.8684367E-01
         11   -1    0    0    0    0  0.00000000000E+00  0.00000000000E+00  0.50000000000E+03  0.50000000000E+03  0.00000000000E+00 0. -1.
        -11   -1    0    0    0    0 -0.00000000000E+00 -0.00000000000E+00 -0.50000000000E+03  0.50000000000E+03  0.00000000000E+00 0.  1.
          5    1    1    2  501    0  0.15412791923E+03 -0.71356856560E+02  0.47024535461E+03  0.50000000000E+03  0.47000000000E+01 0. -1.
         -5    1    1    2    0  501 -0.15412791923E+03  0.71356856560E+02 -0.47024535461E+03  0.50000000000E+03  0.47000000000E+01 0.  1.
</event>
<event>
 4    1  0.4933936E-004  0.1000000E+04  0.7546771E-02  0.8684367E-01
         11   -1    0    0    0    0  0.00000000000E+00  0.00000000000E+00  0.50000000000E+03  0.50000000000E+03  0.00000000000E+00 0. -1.
        -11   -1    0    0    0    0 -0.00000000000E+00 -0.00000000000E+00 -0.50000000000E+03  0.50000000000E+03  0.00000000000E+00 0.  1.
          5    1    1    2  501    0 -0.32158081762E+02 -0.13948239828E+03  0.47904950511E+03  0.50000000000E+03  0.47000000000E+01 0. -1.
         -5    1    1    2    0  501  0.32158081762E+02  0.13948239828E+03 -0.47904950511E+03  0.50000000000E+03  0.47000000000E+01 0.  1.
</event>
<event>
 4    1  0.4933936E-004  0.1000000E+04  0.7546771E-02  0.8684367E-01
         11   -1    0    0    0    0  0.00000000000E+00  0.00000000000E+00  0.50000000000E+03  0.50000000000E+03  0.00000000000E+00 0. -1.
        -11   -1    0    0    0    0 -0.00000000000E+00 -0.00000000000E+00 -0.50000000000E+03  0.50000000000E+03  0.00000000000E+00 0.  1.
          5    1    1    2  501    0  0.24756285932E+03 -0.18708242428E+03  0.39203406384E+03  0.50000000000E+03  0.47000000000E+01 0. -1.
         -5    1    1    2    0  501 -0.24756285932E+03  0.18708242428E+03 -0.39203406384E+03  0.50000000000E+03  0.47000000000E+01 0.  1.
</event>
<event>
 4    1  0.4933936E-004  0.1000000E+04  0.7546771E-02  0.8684367E-01
         11   -1    0    0    0    0  0.00000000000E+00  0.00000000000E+00  0.50000000000E+03  0.50000000000E+03  0.00000000000E+00 0. -1.
        -11   -1    0    0    0    0 -0.00000000000E+00 -0.00000000000E+00 -0.50000000000E+03  0.50000000000E+03  0.00000000000E+00 0.  1.
          5    1    1    2  501    0  0.49767518195E+03 -0.72017016239E+00  0.47924989546E+02  0.50000000000E+03  0.47000000000E+01 0. -1.
         -5    1    1    2    0  501 -0.49767518195E+03  0.72017016239E+00 -0.47924989546E+02  0.50000000000E+03  0.47000000000E+01 0.  1.
</event>
<event>
 4    1  0.4933936E-004  0.1000000E+04  0.7546771E-02  0.8684367E-01
         11   -1    0    0    0    0  0.00000000000E+00  0.00000000000E+00  0.50000000000E+03  0.50000000000E+03  0.00000000000E+00 0. -1.
        -11   -1    0    0    0    0 -0.00000000000E+00 -0.00000000000E+00 -0.50000000000E+03  0.50000000000E+03  0.00000000000E+00 0.  1.
          5    1    1    2  501    0  0.33146856167E+03 -0.17252111982E+03  0.33217911711E+03  0.50000000000E+03  0.47000000000E+01 0. -1.
         -5    1    1    2    0  501 -0.33146856167E+03  0.17252111982E+03 -0.33217911711E+03  0.50000000000E+03  0.47000000000E+01 0.  1.
</event>
<event>
 4    1  0.4933936E-004  0.1000000E+04  0.7546771E-02  0.8684367E-01
         11   -1    0    0    0    0  0.00000000000E+00  0.00000000000E+00  0.50000000000E+03  0.50000000000E+03  0.00000000000E+00 0. -1.
        -11   -1    0    0    0    0 -0.00000000000E+00 -0.00000000000E+00 -0.50000000000E+03  0.50000000000E+03  0.00000000000E+00 0.  1.
          5    1    1    2  501    0 -0.25413778581E+03  0.53045617407E+02  0.42729153783E+03  0.50000000000E+03  0.47000000000E+01 0. -1.
         -5    1    1    2    0  501  0.25413778581E+03 -0.53045617407E+02 -0.42729153783E+03  0.50000000000E+03  0.47000000000E+01 0.  1.
</event>
<event>
 4    1  0.4933936E-004  0.1000000E+04  0.7546771E-02  0.8684367E-01
         11   -1    0    0    0    0  0.00000000000E+00  0.00000000000E+00  0.50000000000E+03  0.50000000000E+03  0.00000000000E+00 0. -1.
        -11   -1    0    0    0    0 -0.00000000000E+00 -0.00000000000E+00 -0.50000000000E+03  0.50000000000E+03  0.00000000000E+00 0.  1.
          5    1    1    2  501    0  0.33640074385E+02  0.38756921764E+03  0.31406425606E+03  0.50000000000E+03  0.47000000000E+01 0. -1.
         -5    1    1    2    0  501 -0.33640074385E+02 -0.38756921764E+03 -0.31406425606E+03  0.50000000000E+03  0.47000000000E+01 0.  1.
</event>
<event>
 4    1  0.4933936E-004  0.1000000E+04  0.7546771E-02  0.8684367E-01
         11   -1    0    0    0    0  0.00000000000E+00  0.00000000000E+00  0.50000000000E+03  0.50000000000E+03  0.00000000000E+00 0. -1.
        -11   -1    0    0    0    0 -0.00000000000E+00 -0.00000000000E+00 -0.50000000000E+03  0.50000000000E+03  0.00000000000E+00 0.  1.
          5    1    1    2  501    0  0.12652259597E+03 -0.23963415462E+03  0.42017307702E+03  0.50000000000E+03  0.47000000000E+01 0. -1.
         -5    1    1    2    0  501 -0.12652259597E+03  0.23963415462E+03 -0.42017307702E+03  0.50000000000E+03  0.47000000000E+01 0.  1.
</event>
<event>
 4    1  0.4933936E-004  0.1000000E+04  0.7546771E-02  0.8684367E-01
         11   -1    0    0    0    0  0.00000000000E+00  0.00000000000E+00  0.50000000000E+03  0.50000000000E+03  0.00000000000E+00 0. -1.
        -11   -1    0    0    0    0 -0.00000000000E+00 -0.00000000000E+00 -0.50000000000E+03  0.50000000000E+03  0.00000000000E+00 0.  1.
          5    1    1    2  501    0  0.45885027640E+02  0.38090915213E+03  0.32059427952E+03  0.50000000000E+03  0.47000000000E+01 0. -1.
         -5    1    1    2    0  501 -0.45885027640E+02 -0.38090915213E+03 -0.32059427952E+03  0.50000000000E+03  0.47000000000E+01 0.  1.
</event>
<event>
 4    1  0.4933936E-004  0.1000000E+04  0.7546771E-02  0.8684367E-01
         11   -1    0    0    0    0  0.00000000000E+00  0.00000000000E+00  0.50000000000E+03  0.50000000000E+03  0.00000000000E+00 0. -1.
        -11   -1    0    0    0    0 -0.00000000000E+00 -0.00000000000E+00 -0.50000000000E+03  0.50000000000E+03  0.00000000000E+00 0.  1.
          5    1    1    2  501    0  0.47897843890E+03 -0.12393815350E+03 -0.72089521940E+02  0.50000000000E+03  0.47000000000E+01 0. -1.
         -5    1    1    2    0  501 -0.47897843890E+03  0.12393815350E+03  0.72089521940E+02  0.50000000000E+03  0.47000000000E+01 0.  1.
</event>
<event>
 4    1  0.4933936E-004  0.1000000E+04  0.7546771E-02  0.8684367E-01
         11   -1    0    0    0    0  0.00000000000E+00  0.00000000000E+00  0.50000000000E+03  0.50000000000E+03  0.00000000000E+00 0. -1.
        -11   -1    0    0    0    0 -0.00000000000E+00 -0.00000000000E+00 -0.50000000000E+03  0.50000000000E+03  0.00000000000E+00 0.  1.
          5    1    1    2  501    0  0.24452478591E+03  0.29598380114E+03  0.32027976604E+03  0.50000000000E+03  0.47000000000E+01 0. -1.
         -5    1    1    2    0  501 -0.24452478591E+03 -0.29598380114E+03 -0.32027976604E+03  0.50000000000E+03  0.47000000000E+01 0.  1.
</event>
<event>
 4    1  0.4933936E-004  0.1000000E+04  0.7546771E-02  0.8684367E-01
         11   -1    0    0    0    0  0.00000000000E+00  0.00000000000E+00  0.50000000000E+03  0.50000000000E+03  0.00000000000E+00 0. -1.
        -11   -1    0    0    0    0 -0.00000000000E+00 -0.00000000000E+00 -0.50000000000E+03  0.50000000000E+03  0.00000000000E+00 0.  1.
          5    1    1    2  501    0  0.22439394478E+02 -0.43983218584E+03  0.23668973758E+03  0.50000000000E+03  0.47000000000E+01 0. -1.
         -5    1    1    2    0  501 -0.22439394478E+02  0.43983218584E+03 -0.23668973758E+03  0.50000000000E+03  0.47000000000E+01 0.  1.
</event>
<event>
 4    1  0.4933936E-004  0.1000000E+04  0.7546771E-02  0.8684367E-01
         11   -1    0    0    0    0  0.00000000000E+00  0.00000000000E+00  0.50000000000E+03  0.50000000000E+03  0.00000000000E+00 0.  1.
        -11   -1    0    0    0    0 -0.00000000000E+00 -0.00000000000E+00 -0.50000000000E+03  0.50000000000E+03  0.00000000000E+00 0. -1.
          5    1    1    2  501    0  0.17686532764E+03  0.37645712654E+03 -0.27744656738E+03  0.50000000000E+03  0.47000000000E+01 0. -1.
         -5    1    1    2    0  501 -0.17686532764E+03 -0.37645712654E+03  0.27744656738E+03  0.50000000000E+03  0.47000000000E+01 0.  1.
</event>
<event>
 4    1  0.4933936E-004  0.1000000E+04  0.7546771E-02  0.8684367E-01
         11   -1    0    0    0    0  0.00000000000E+00  0.00000000000E+00  0.50000000000E+03  0.50000000000E+03  0.00000000000E+00 0. -1.
        -11   -1    0    0    0    0 -0.00000000000E+00 -0.00000000000E+00 -0.50000000000E+03  0.50000000000E+03  0.00000000000E+00 0.  1.
          5    1    1    2  501    0 -0.73204228404E+02  0.41445980130E+03  0.26989280104E+03  0.50000000000E+03  0.47000000000E+01 0. -1.
         -5    1    1    2    0  501  0.73204228404E+02 -0.41445980130E+03 -0.26989280104E+03  0.50000000000E+03  0.47000000000E+01 0.  1.
</event>
<event>
 4    1  0.4933936E-004  0.1000000E+04  0.7546771E-02  0.8684367E-01
         11   -1    0    0    0    0  0.00000000000E+00  0.00000000000E+00  0.50000000000E+03  0.50000000000E+03  0.00000000000E+00 0. -1.
        -11   -1    0    0    0    0 -0.00000000000E+00 -0.00000000000E+00 -0.50000000000E+03  0.50000000000E+03  0.00000000000E+00 0.  1.
          5    1    1    2  501    0 -0.47315165252E+01  0.69147310055E+02  0.49515065613E+03  0.50000000000E+03  0.47000000000E+01 0. -1.
         -5    1    1    2    0  501  0.47315165252E+01 -0.69147310055E+02 -0.49515065613E+03  0.50000000000E+03  0.47000000000E+01 0.  1.
</event>
<event>
 4    1  0.4933936E-004  0.1000000E+04  0.7546771E-02  0.8684367E-01
         11   -1    0    0    0    0  0.00000000000E+00  0.00000000000E+00  0.50000000000E+03  0.50000000000E+03  0.00000000000E+00 0. -1.
        -11   -1    0    0    0    0 -0.00000000000E+00 -0.00000000000E+00 -0.50000000000E+03  0.50000000000E+03  0.00000000000E+00 0.  1.
          5    1    1    2  501    0  0.17435752999E+02 -0.20155014100E+03  0.45722143998E+03  0.50000000000E+03  0.47000000000E+01 0. -1.
         -5    1    1    2    0  501 -0.17435752999E+02  0.20155014100E+03 -0.45722143998E+03  0.50000000000E+03  0.47000000000E+01 0.  1.
</event>
<event>
 4    1  0.4933936E-004  0.1000000E+04  0.7546771E-02  0.8684367E-01
         11   -1    0    0    0    0  0.00000000000E+00  0.00000000000E+00  0.50000000000E+03  0.50000000000E+03  0.00000000000E+00 0. -1.
        -11   -1    0    0    0    0 -0.00000000000E+00 -0.00000000000E+00 -0.50000000000E+03  0.50000000000E+03  0.00000000000E+00 0.  1.
          5    1    1    2  501    0 -0.88513585629E+02  0.30519988755E+03  0.38600036761E+03  0.50000000000E+03  0.47000000000E+01 0. -1.
         -5    1    1    2    0  501  0.88513585629E+02 -0.30519988755E+03 -0.38600036761E+03  0.50000000000E+03  0.47000000000E+01 0.  1.
</event>
<event>
 4    1  0.4933936E-004  0.1000000E+04  0.7546771E-02  0.8684367E-01
         11   -1    0    0    0    0  0.00000000000E+00  0.00000000000E+00  0.50000000000E+03  0.50000000000E+03  0.00000000000E+00 0. -1.
        -11   -1    0    0    0    0 -0.00000000000E+00 -0.00000000000E+00 -0.50000000000E+03  0.50000000000E+03  0.00000000000E+00 0.  1.
          5    1    1    2  501    0  0.30611170603E+03 -0.53079814315E+02  0.39173468923E+03  0.50000000000E+03  0.47000000000E+01 0. -1.
         -5    1    1    2    0  501 -0.30611170603E+03  0.53079814315E+02 -0.39173468923E+03  0.50000000000E+03  0.47000000000E+01 0.  1.
</event>
<event>
 4    1  0.4933936E-004  0.1000000E+04  0.7546771E-02  0.8684367E-01
         11   -1    0    0    0    0  0.00000000000E+00  0.00000000000E+00  0.50000000000E+03  0.50000000000E+03  0.00000000000E+00 0. -1.
        -11   -1    0    0    0    0 -0.00000000000E+00 -0.00000000000E+00 -0.50000000000E+03  0.50000000000E+03  0.00000000000E+00 0.  1.
          5    1    1    2  501    0 -0.84313627190E+02  0.32267147343E+03  0.37249462077E+03  0.50000000000E+03  0.47000000000E+01 0. -1.
         -5    1    1    2    0  501  0.84313627190E+02 -0.32267147343E+03 -0.37249462077E+03  0.50000000000E+03  0.47000000000E+01 0.  1.
</event>
<event>
 4    1  0.4933936E-004  0.1000000E+04  0.7546771E-02  0.8684367E-01
         11   -1    0    0    0    0  0.00000000000E+00  0.00000000000E+00  0.50000000000E+03  0.50000000000E+03  0.00000000000E+00 0.  1.
        -11   -1    0    0    0    0 -0.00000000000E+00 -0.00000000000E+00 -0.50000000000E+03  0.50000000000E+03  0.00000000000E+00 0. -1.
          5    1    1    2  501    0  0.29045971787E+03 -0.27053677715E+03  0.30400808296E+03  0.50000000000E+03  0.47000000000E+01 0.  1.
         -5    1    1    2    0  501 -0.29045971787E+03  0.27053677715E+03 -0.30400808296E+03  0.50000000000E+03  0.47000000000E+01 0. -1.
</event>
<event>
 4    1  0.4933936E-004  0.1000000E+04  0.7546771E-02  0.8684367E-01
         11   -1    0    0    0    0  0.00000000000E+00  0.00000000000E+00  0.50000000000E+03  0.50000000000E+03  0.00000000000E+00 0. -1.
        -11   -1    0    0    0    0 -0.00000000000E+00 -0.00000000000E+00 -0.50000000000E+03  0.50000000000E+03  0.00000000000E+00 0.  1.
          5    1    1    2  501    0  0.41594902250E+03  0.23873988924E+03 -0.14130670884E+03  0.50000000000E+03  0.47000000000E+01 0.  1.
         -5    1    1    2    0  501 -0.41594902250E+03 -0.23873988924E+03  0.14130670884E+03  0.50000000000E+03  0.47000000000E+01 0. -1.
</event>
<event>
 4    1  0.4933936E-004  0.1000000E+04  0.7546771E-02  0.8684367E-01
         11   -1    0    0    0    0  0.00000000000E+00  0.00000000000E+00  0.50000000000E+03  0.50000000000E+03  0.00000000000E+00 0. -1.
        -11   -1    0    0    0    0 -0.00000000000E+00 -0.00000000000E+00 -0.50000000000E+03  0.50000000000E+03  0.00000000000E+00 0.  1.
          5    1    1    2  501    0  0.98656188824E+02 -0.47809126672E+03  0.10804446814E+03  0.50000000000E+03  0.47000000000E+01 0. -1.
         -5    1    1    2    0  501 -0.98656188824E+02  0.47809126672E+03 -0.10804446814E+03  0.50000000000E+03  0.47000000000E+01 0.  1.
</event>
<event>
 4    1  0.4933936E-004  0.1000000E+04  0.7546771E-02  0.8684367E-01
         11   -1    0    0    0    0  0.00000000000E+00  0.00000000000E+00  0.50000000000E+03  0.50000000000E+03  0.00000000000E+00 0. -1.
        -11   -1    0    0    0    0 -0.00000000000E+00 -0.00000000000E+00 -0.50000000000E+03  0.50000000000E+03  0.00000000000E+00 0.  1.
          5    1    1    2  501    0  0.11336687688E+03 -0.10921557957E+03  0.47455012212E+03  0.50000000000E+03  0.47000000000E+01 0. -1.
         -5    1    1    2    0  501 -0.11336687688E+03  0.10921557957E+03 -0.47455012212E+03  0.50000000000E+03  0.47000000000E+01 0.  1.
</event>
<event>
 4    1  0.4933936E-004  0.1000000E+04  0.7546771E-02  0.8684367E-01
         11   -1    0    0    0    0  0.00000000000E+00  0.00000000000E+00  0.50000000000E+03  0.50000000000E+03  0.00000000000E+00 0. -1.
        -11   -1    0    0    0    0 -0.00000000000E+00 -0.00000000000E+00 -0.50000000000E+03  0.50000000000E+03  0.00000000000E+00 0.  1.
          5    1    1    2  501    0  0.44851460174E+03  0.22065061752E+03  0.11219046757E+02  0.50000000000E+03  0.47000000000E+01 0. -1.
         -5    1    1    2    0  501 -0.44851460174E+03 -0.22065061752E+03 -0.11219046757E+02  0.50000000000E+03  0.47000000000E+01 0.  1.
</event>
<event>
 4    1  0.4933936E-004  0.1000000E+04  0.7546771E-02  0.8684367E-01
         11   -1    0    0    0    0  0.00000000000E+00  0.00000000000E+00  0.50000000000E+03  0.50000000000E+03  0.00000000000E+00 0. -1.
        -11   -1    0    0    0    0 -0.00000000000E+00 -0.00000000000E+00 -0.50000000000E+03  0.50000000000E+03  0.00000000000E+00 0.  1.
          5    1    1    2  501    0 -0.39395006365E+03  0.13343876376E+03  0.27744432537E+03  0.50000000000E+03  0.47000000000E+01 0. -1.
         -5    1    1    2    0  501  0.39395006365E+03 -0.13343876376E+03 -0.27744432537E+03  0.50000000000E+03  0.47000000000E+01 0.  1.
</event>
<event>
 4    1  0.4933936E-004  0.1000000E+04  0.7546771E-02  0.8684367E-01
         11   -1    0    0    0    0  0.00000000000E+00  0.00000000000E+00  0.50000000000E+03  0.50000000000E+03  0.00000000000E+00 0. -1.
        -11   -1    0    0    0    0 -0.00000000000E+00 -0.00000000000E+00 -0.50000000000E+03  0.50000000000E+03  0.00000000000E+00 0.  1.
          5    1    1    2  501    0 -0.17471797524E+03  0.44377916371E+03  0.15003863831E+03  0.50000000000E+03  0.47000000000E+01 0. -1.
         -5    1    1    2    0  501  0.17471797524E+03 -0.44377916371E+03 -0.15003863831E+03  0.50000000000E+03  0.47000000000E+01 0.  1.
</event>
<event>
 4    1  0.4933936E-004  0.1000000E+04  0.7546771E-02  0.8684367E-01
         11   -1    0    0    0    0  0.00000000000E+00  0.00000000000E+00  0.50000000000E+03  0.50000000000E+03  0.00000000000E+00 0. -1.
        -11   -1    0    0    0    0 -0.00000000000E+00 -0.00000000000E+00 -0.50000000000E+03  0.50000000000E+03  0.00000000000E+00 0.  1.
          5    1    1    2  501    0 -0.32821948548E+03 -0.85835042290E+02  0.36726315479E+03  0.50000000000E+03  0.47000000000E+01 0. -1.
         -5    1    1    2    0  501  0.32821948548E+03  0.85835042290E+02 -0.36726315479E+03  0.50000000000E+03  0.47000000000E+01 0.  1.
</event>
<event>
 4    1  0.4933936E-004  0.1000000E+04  0.7546771E-02  0.8684367E-01
         11   -1    0    0    0    0  0.00000000000E+00  0.00000000000E+00  0.50000000000E+03  0.50000000000E+03  0.00000000000E+00 0. -1.
        -11   -1    0    0    0    0 -0.00000000000E+00 -0.00000000000E+00 -0.50000000000E+03  0.50000000000E+03  0.00000000000E+00 0.  1.
          5    1    1    2  501    0  0.30517285519E+03  0.27395999703E+03  0.28599538192E+03  0.50000000000E+03  0.47000000000E+01 0. -1.
         -5    1    1    2    0  501 -0.30517285519E+03 -0.27395999703E+03 -0.28599538192E+03  0.50000000000E+03  0.47000000000E+01 0.  1.
</event>
<event>
 4    1  0.4933936E-004  0.1000000E+04  0.7546771E-02  0.8684367E-01
         11   -1    0    0    0    0  0.00000000000E+00  0.00000000000E+00  0.50000000000E+03  0.50000000000E+03  0.00000000000E+00 0. -1.
        -11   -1    0    0    0    0 -0.00000000000E+00 -0.00000000000E+00 -0.50000000000E+03  0.50000000000E+03  0.00000000000E+00 0.  1.
          5    1    1    2  501    0  0.13667412382E+03 -0.96818473369E+02  0.47108839626E+03  0.50000000000E+03  0.47000000000E+01 0. -1.
         -5    1    1    2    0  501 -0.13667412382E+03  0.96818473369E+02 -0.47108839626E+03  0.50000000000E+03  0.47000000000E+01 0.  1.
</event>
<event>
 4    1  0.4933936E-004  0.1000000E+04  0.7546771E-02  0.8684367E-01
         11   -1    0    0    0    0  0.00000000000E+00  0.00000000000E+00  0.50000000000E+03  0.50000000000E+03  0.00000000000E+00 0. -1.
        -11   -1    0    0    0    0 -0.00000000000E+00 -0.00000000000E+00 -0.50000000000E+03  0.50000000000E+03  0.00000000000E+00 0.  1.
          5    1    1    2  501    0 -0.26622734331E+03  0.32408875882E+03  0.27215324374E+03  0.50000000000E+03  0.47000000000E+01 0. -1.
         -5    1    1    2    0  501  0.26622734331E+03 -0.32408875882E+03 -0.27215324374E+03  0.50000000000E+03  0.47000000000E+01 0.  1.
</event>
<event>
 4    1  0.4933936E-004  0.1000000E+04  0.7546771E-02  0.8684367E-01
         11   -1    0    0    0    0  0.00000000000E+00  0.00000000000E+00  0.50000000000E+03  0.50000000000E+03  0.00000000000E+00 0. -1.
        -11   -1    0    0    0    0 -0.00000000000E+00 -0.00000000000E+00 -0.50000000000E+03  0.50000000000E+03  0.00000000000E+00 0.  1.
          5    1    1    2  501    0  0.40896982540E+03  0.23335968552E+02  0.28666535278E+03  0.50000000000E+03  0.47000000000E+01 0. -1.
         -5    1    1    2    0  501 -0.40896982540E+03 -0.23335968552E+02 -0.28666535278E+03  0.50000000000E+03  0.47000000000E+01 0.  1.
</event>
<event>
 4    1  0.4933936E-004  0.1000000E+04  0.7546771E-02  0.8684367E-01
         11   -1    0    0    0    0  0.00000000000E+00  0.00000000000E+00  0.50000000000E+03  0.50000000000E+03  0.00000000000E+00 0. -1.
        -11   -1    0    0    0    0 -0.00000000000E+00 -0.00000000000E+00 -0.50000000000E+03  0.50000000000E+03  0.00000000000E+00 0.  1.
          5    1    1    2  501    0 -0.56962492414E+02  0.38338765394E+03  0.31582762904E+03  0.50000000000E+03  0.47000000000E+01 0. -1.
         -5    1    1    2    0  501  0.56962492414E+02 -0.38338765394E+03 -0.31582762904E+03  0.50000000000E+03  0.47000000000E+01 0.  1.
</event>
<event>
 4    1  0.4933936E-004  0.1000000E+04  0.7546771E-02  0.8684367E-01
         11   -1    0    0    0    0  0.00000000000E+00  0.00000000000E+00  0.50000000000E+03  0.50000000000E+03  0.00000000000E+00 0. -1.
        -11   -1    0    0    0    0 -0.00000000000E+00 -0.00000000000E+00 -0.50000000000E+03  0.50000000000E+03  0.00000000000E+00 0.  1.
          5    1    1    2  501    0  0.14320537408E+03 -0.12166324743E+03 -0.46332298136E+03  0.50000000000E+03  0.47000000000E+01 0.  1.
         -5    1    1    2    0  501 -0.14320537408E+03  0.12166324743E+03  0.46332298136E+03  0.50000000000E+03  0.47000000000E+01 0. -1.
</event>
<event>
 4    1  0.4933936E-004  0.1000000E+04  0.7546771E-02  0.8684367E-01
         11   -1    0    0    0    0  0.00000000000E+00  0.00000000000E+00  0.50000000000E+03  0.50000000000E+03  0.00000000000E+00 0.  1.
        -11   -1    0    0    0    0 -0.00000000000E+00 -0.00000000000E+00 -0.50000000000E+03  0.50000000000E+03  0.00000000000E+00 0. -1.
          5    1    1    2  501    0  0.11661917897E+03  0.33275748368E+03 -0.35447190883E+03  0.50000000000E+03  0.47000000000E+01 0. -1.
         -5    1    1    2    0  501 -0.11661917897E+03 -0.33275748368E+03  0.35447190883E+03  0.50000000000E+03  0.47000000000E+01 0.  1.
</event>
<event>
 4    1  0.4933936E-004  0.1000000E+04  0.7546771E-02  0.8684367E-01
         11   -1    0    0    0    0  0.00000000000E+00  0.00000000000E+00  0.50000000000E+03  0.50000000000E+03  0.00000000000E+00 0. -1.
        -11   -1    0    0    0    0 -0.00000000000E+00 -0.00000000000E+00 -0.50000000000E+03  0.50000000000E+03  0.00000000000E+00 0.  1.
          5    1    1    2  501    0  0.25795994548E+02 -0.36225403820E+03  0.34363423647E+03  0.50000000000E+03  0.47000000000E+01 0. -1.
         -5    1    1    2    0  501 -0.25795994548E+02  0.36225403820E+03 -0.34363423647E+03  0.50000000000E+03  0.47000000000E+01 0.  1.
</event>
<event>
 4    1  0.4933936E-004  0.1000000E+04  0.7546771E-02  0.8684367E-01
         11   -1    0    0    0    0  0.00000000000E+00  0.00000000000E+00  0.50000000000E+03  0.50000000000E+03  0.00000000000E+00 0. -1.
        -11   -1    0    0    0    0 -0.00000000000E+00 -0.00000000000E+00 -0.50000000000E+03  0.50000000000E+03  0.00000000000E+00 0.  1.
          5    1    1    2  501    0  0.52810997233E+01 -0.31760202059E+03  0.38610746756E+03  0.50000000000E+03  0.47000000000E+01 0. -1.
         -5    1    1    2    0  501 -0.52810997233E+01  0.31760202059E+03 -0.38610746756E+03  0.50000000000E+03  0.47000000000E+01 0.  1.
</event>
<event>
 4    1  0.4933936E-004  0.1000000E+04  0.7546771E-02  0.8684367E-01
         11   -1    0    0    0    0  0.00000000000E+00  0.00000000000E+00  0.50000000000E+03  0.50000000000E+03  0.00000000000E+00 0. -1.
        -11   -1    0    0    0    0 -0.00000000000E+00 -0.00000000000E+00 -0.50000000000E+03  0.50000000000E+03  0.00000000000E+00 0.  1.
          5    1    1    2  501    0 -0.14224881377E+03  0.32434171546E+03  0.35291023872E+03  0.50000000000E+03  0.47000000000E+01 0. -1.
         -5    1    1    2    0  501  0.14224881377E+03 -0.32434171546E+03 -0.35291023872E+03  0.50000000000E+03  0.47000000000E+01 0.  1.
</event>
<event>
 4    1  0.4933936E-004  0.1000000E+04  0.7546771E-02  0.8684367E-01
         11   -1    0    0    0    0  0.00000000000E+00  0.00000000000E+00  0.50000000000E+03  0.50000000000E+03  0.00000000000E+00 0.  1.
        -11   -1    0    0    0    0 -0.00000000000E+00 -0.00000000000E+00 -0.50000000000E+03  0.50000000000E+03  0.00000000000E+00 0. -1.
          5    1    1    2  501    0  0.37516171997E+02 -0.34418120865E+03  0.36070728084E+03  0.50000000000E+03  0.47000000000E+01 0.  1.
         -5    1    1    2    0  501 -0.37516171997E+02  0.34418120865E+03 -0.36070728084E+03  0.50000000000E+03  0.47000000000E+01 0. -1.
</event>
<event>
 4    1  0.4933936E-004  0.1000000E+04  0.7546771E-02  0.8684367E-01
         11   -1    0    0    0    0  0.00000000000E+00  0.00000000000E+00  0.50000000000E+03  0.50000000000E+03  0.00000000000E+00 0. -1.
        -11   -1    0    0    0    0 -0.00000000000E+00 -0.00000000000E+00 -0.50000000000E+03  0.50000000000E+03  0.00000000000E+00 0.  1.
          5    1    1    2  501    0  0.52296354135E+02 -0.39110800236E+03  0.30704646527E+03  0.50000000000E+03  0.47000000000E+01 0. -1.
         -5    1    1    2    0  501 -0.52296354135E+02  0.39110800236E+03 -0.30704646527E+03  0.50000000000E+03  0.47000000000E+01 0.  1.
</event>
<event>
 4    1  0.4933936E-004  0.1000000E+04  0.7546771E-02  0.8684367E-01
         11   -1    0    0    0    0  0.00000000000E+00  0.00000000000E+00  0.50000000000E+03  0.50000000000E+03  0.00000000000E+00 0. -1.
        -11   -1    0    0    0    0 -0.00000000000E+00 -0.00000000000E+00 -0.50000000000E+03  0.50000000000E+03  0.00000000000E+00 0.  1.
          5    1    1    2  501    0  0.32753109142E+03 -0.11534069792E+03  0.35971908145E+03  0.50000000000E+03  0.47000000000E+01 0. -1.
         -5    1    1    2    0  501 -0.32753109142E+03  0.11534069792E+03 -0.35971908145E+03  0.50000000000E+03  0.47000000000E+01 0.  1.
</event>
<event>
 4    1  0.4933936E-004  0.1000000E+04  0.7546771E-02  0.8684367E-01
         11   -1    0    0    0    0  0.00000000000E+00  0.00000000000E+00  0.50000000000E+03  0.50000000000E+03  0.00000000000E+00 0. -1.
        -11   -1    0    0    0    0 -0.00000000000E+00 -0.00000000000E+00 -0.50000000000E+03  0.50000000000E+03  0.00000000000E+00 0.  1.
          5    1    1    2  501    0 -0.23555167422E+03 -0.21592301980E+03  0.38453942359E+03  0.50000000000E+03  0.47000000000E+01 0. -1.
         -5    1    1    2    0  501  0.23555167422E+03  0.21592301980E+03 -0.38453942359E+03  0.50000000000E+03  0.47000000000E+01 0.  1.
</event>
<event>
 4    1  0.4933936E-004  0.1000000E+04  0.7546771E-02  0.8684367E-01
         11   -1    0    0    0    0  0.00000000000E+00  0.00000000000E+00  0.50000000000E+03  0.50000000000E+03  0.00000000000E+00 0. -1.
        -11   -1    0    0    0    0 -0.00000000000E+00 -0.00000000000E+00 -0.50000000000E+03  0.50000000000E+03  0.00000000000E+00 0.  1.
          5    1    1    2  501    0  0.37299129132E+03  0.26781609176E+03  0.19781291057E+03  0.50000000000E+03  0.47000000000E+01 0. -1.
         -5    1    1    2    0  501 -0.37299129132E+03 -0.26781609176E+03 -0.19781291057E+03  0.50000000000E+03  0.47000000000E+01 0.  1.
</event>
<event>
 4    1  0.4933936E-004  0.1000000E+04  0.7546771E-02  0.8684367E-01
         11   -1    0    0    0    0  0.00000000000E+00  0.00000000000E+00  0.50000000000E+03  0.50000000000E+03  0.00000000000E+00 0. -1.
        -11   -1    0    0    0    0 -0.00000000000E+00 -0.00000000000E+00 -0.50000000000E+03  0.50000000000E+03  0.00000000000E+00 0.  1.
          5    1    1    2  501    0 -0.34894521692E+03 -0.21707052040E+03  0.28477277742E+03  0.50000000000E+03  0.47000000000E+01 0. -1.
         -5    1    1    2    0  501  0.34894521692E+03  0.21707052040E+03 -0.28477277742E+03  0.50000000000E+03  0.47000000000E+01 0.  1.
</event>
<event>
 4    1  0.4933936E-004  0.1000000E+04  0.7546771E-02  0.8684367E-01
         11   -1    0    0    0    0  0.00000000000E+00  0.00000000000E+00  0.50000000000E+03  0.50000000000E+03  0.00000000000E+00 0. -1.
        -11   -1    0    0    0    0 -0.00000000000E+00 -0.00000000000E+00 -0.50000000000E+03  0.50000000000E+03  0.00000000000E+00 0.  1.
          5    1    1    2  501    0 -0.31954172952E+03  0.60367578668E+02 -0.37977196914E+03  0.50000000000E+03  0.47000000000E+01 0.  1.
         -5    1    1    2    0  501  0.31954172952E+03 -0.60367578668E+02  0.37977196914E+03  0.50000000000E+03  0.47000000000E+01 0. -1.
</event>
<event>
 4    1  0.4933936E-004  0.1000000E+04  0.7546771E-02  0.8684367E-01
         11   -1    0    0    0    0  0.00000000000E+00  0.00000000000E+00  0.50000000000E+03  0.50000000000E+03  0.00000000000E+00 0. -1.
        -11   -1    0    0    0    0 -0.00000000000E+00 -0.00000000000E+00 -0.50000000000E+03  0.50000000000E+03  0.00000000000E+00 0.  1.
          5    1    1    2  501    0 -0.35249283355E+03  0.21229755122E+03  0.28400081345E+03  0.50000000000E+03  0.47000000000E+01 0. -1.
         -5    1    1    2    0  501  0.35249283355E+03 -0.21229755122E+03 -0.28400081345E+03  0.50000000000E+03  0.47000000000E+01 0.  1.
</event>
<event>
 4    1  0.4933936E-004  0.1000000E+04  0.7546771E-02  0.8684367E-01
         11   -1    0    0    0    0  0.00000000000E+00  0.00000000000E+00  0.50000000000E+03  0.50000000000E+03  0.00000000000E+00 0. -1.
        -11   -1    0    0    0    0 -0.00000000000E+00 -0.00000000000E+00 -0.50000000000E+03  0.50000000000E+03  0.00000000000E+00 0.  1.
          5    1    1    2  501    0 -0.46303037106E+03 -0.32215540954E+02  0.18585732269E+03  0.50000000000E+03  0.47000000000E+01 0. -1.
         -5    1    1    2    0  501  0.46303037106E+03  0.32215540954E+02 -0.18585732269E+03  0.50000000000E+03  0.47000000000E+01 0.  1.
</event>
<event>
 4    1  0.4933936E-004  0.1000000E+04  0.7546771E-02  0.8684367E-01
         11   -1    0    0    0    0  0.00000000000E+00  0.00000000000E+00  0.50000000000E+03  0.50000000000E+03  0.00000000000E+00 0.  1.
        -11   -1    0    0    0    0 -0.00000000000E+00 -0.00000000000E+00 -0.50000000000E+03  0.50000000000E+03  0.00000000000E+00 0. -1.
          5    1    1    2  501    0  0.49395189858E+03 -0.65950442972E+02 -0.40496554925E+02  0.50000000000E+03  0.47000000000E+01 0.  1.
         -5    1    1    2    0  501 -0.49395189858E+03  0.65950442972E+02  0.40496554925E+02  0.50000000000E+03  0.47000000000E+01 0. -1.
</event>
<event>
 4    1  0.4933936E-004  0.1000000E+04  0.7546771E-02  0.8684367E-01
         11   -1    0    0    0    0  0.00000000000E+00  0.00000000000E+00  0.50000000000E+03  0.50000000000E+03  0.00000000000E+00 0. -1.
        -11   -1    0    0    0    0 -0.00000000000E+00 -0.00000000000E+00 -0.50000000000E+03  0.50000000000E+03  0.00000000000E+00 0.  1.
          5    1    1    2  501    0  0.31700295962E+03  0.20767096037E+03  0.32612851119E+03  0.50000000000E+03  0.47000000000E+01 0. -1.
         -5    1    1    2    0  501 -0.31700295962E+03 -0.20767096037E+03 -0.32612851119E+03  0.50000000000E+03  0.47000000000E+01 0.  1.
</event>
<event>
 4    1  0.4933936E-004  0.1000000E+04  0.7546771E-02  0.8684367E-01
         11   -1    0    0    0    0  0.00000000000E+00  0.00000000000E+00  0.50000000000E+03  0.50000000000E+03  0.00000000000E+00 0.  1.
        -11   -1    0    0    0    0 -0.00000000000E+00 -0.00000000000E+00 -0.50000000000E+03  0.50000000000E+03  0.00000000000E+00 0. -1.
          5    1    1    2  501    0 -0.88767965165E+02  0.14142622900E+03  0.47127145056E+03  0.50000000000E+03  0.47000000000E+01 0.  1.
         -5    1    1    2    0  501  0.88767965165E+02 -0.14142622900E+03 -0.47127145056E+03  0.50000000000E+03  0.47000000000E+01 0. -1.
</event>
<event>
 4    1  0.4933936E-004  0.1000000E+04  0.7546771E-02  0.8684367E-01
         11   -1    0    0    0    0  0.00000000000E+00  0.00000000000E+00  0.50000000000E+03  0.50000000000E+03  0.00000000000E+00 0. -1.
        -11   -1    0    0    0    0 -0.00000000000E+00 -0.00000000000E+00 -0.50000000000E+03  0.50000000000E+03  0.00000000000E+00 0.  1.
          5    1    1    2  501    0  0.37118216632E+03 -0.32699861863E+03  0.72619644868E+02  0.50000000000E+03  0.47000000000E+01 0. -1.
         -5    1    1    2    0  501 -0.37118216632E+03  0.32699861863E+03 -0.72619644868E+02  0.50000000000E+03  0.47000000000E+01 0.  1.
</event>
<event>
 4    1  0.4933936E-004  0.1000000E+04  0.7546771E-02  0.8684367E-01
         11   -1    0    0    0    0  0.00000000000E+00  0.00000000000E+00  0.50000000000E+03  0.50000000000E+03  0.00000000000E+00 0. -1.
        -11   -1    0    0    0    0 -0.00000000000E+00 -0.00000000000E+00 -0.50000000000E+03  0.50000000000E+03  0.00000000000E+00 0.  1.
          5    1    1    2  501    0  0.43296568357E+03  0.53225469127E+02 -0.24430652117E+03  0.50000000000E+03  0.47000000000E+01 0. -1.
         -5    1    1    2    0  501 -0.43296568357E+03 -0.53225469127E+02  0.24430652117E+03  0.50000000000E+03  0.47000000000E+01 0.  1.
</event>
<event>
 4    1  0.4933936E-004  0.1000000E+04  0.7546771E-02  0.8684367E-01
         11   -1    0    0    0    0  0.00000000000E+00  0.00000000000E+00  0.50000000000E+03  0.50000000000E+03  0.00000000000E+00 0. -1.
        -11   -1    0    0    0    0 -0.00000000000E+00 -0.00000000000E+00 -0.50000000000E+03  0.50000000000E+03  0.00000000000E+00 0.  1.
          5    1    1    2  501    0  0.26364012951E+03 -0.30692375832E+03  0.29371686824E+03  0.50000000000E+03  0.47000000000E+01 0. -1.
         -5    1    1    2    0  501 -0.26364012951E+03  0.30692375832E+03 -0.29371686824E+03  0.50000000000E+03  0.47000000000E+01 0.  1.
</event>
<event>
 4    1  0.4933936E-004  0.1000000E+04  0.7546771E-02  0.8684367E-01
         11   -1    0    0    0    0  0.00000000000E+00  0.00000000000E+00  0.50000000000E+03  0.50000000000E+03  0.00000000000E+00 0. -1.
        -11   -1    0    0    0    0 -0.00000000000E+00 -0.00000000000E+00 -0.50000000000E+03  0.50000000000E+03  0.00000000000E+00 0.  1.
          5    1    1    2  501    0 -0.32661039488E+03  0.13682301360E+03  0.35296320333E+03  0.50000000000E+03  0.47000000000E+01 0. -1.
         -5    1    1    2    0  501  0.32661039488E+03 -0.13682301360E+03 -0.35296320333E+03  0.50000000000E+03  0.47000000000E+01 0.  1.
</event>
<event>
 4    1  0.4933936E-004  0.1000000E+04  0.7546771E-02  0.8684367E-01
         11   -1    0    0    0    0  0.00000000000E+00  0.00000000000E+00  0.50000000000E+03  0.50000000000E+03  0.00000000000E+00 0. -1.
        -11   -1    0    0    0    0 -0.00000000000E+00 -0.00000000000E+00 -0.50000000000E+03  0.50000000000E+03  0.00000000000E+00 0.  1.
          5    1    1    2  501    0  0.20893122198E+03  0.45062227707E+03  0.57142085087E+02  0.50000000000E+03  0.47000000000E+01 0.  1.
         -5    1    1    2    0  501 -0.20893122198E+03 -0.45062227707E+03 -0.57142085087E+02  0.50000000000E+03  0.47000000000E+01 0. -1.
</event>
<event>
 4    1  0.4933936E-004  0.1000000E+04  0.7546771E-02  0.8684367E-01
         11   -1    0    0    0    0  0.00000000000E+00  0.00000000000E+00  0.50000000000E+03  0.50000000000E+03  0.00000000000E+00 0.  1.
        -11   -1    0    0    0    0 -0.00000000000E+00 -0.00000000000E+00 -0.50000000000E+03  0.50000000000E+03  0.00000000000E+00 0. -1.
          5    1    1    2  501    0  0.40665844600E+02 -0.49531298778E+03 -0.54673972055E+02  0.50000000000E+03  0.47000000000E+01 0.  1.
         -5    1    1    2    0  501 -0.40665844600E+02  0.49531298778E+03  0.54673972055E+02  0.50000000000E+03  0.47000000000E+01 0. -1.
</event>
<event>
 4    1  0.4933936E-004  0.1000000E+04  0.7546771E-02  0.8684367E-01
         11   -1    0    0    0    0  0.00000000000E+00  0.00000000000E+00  0.50000000000E+03  0.50000000000E+03  0.00000000000E+00 0. -1.
        -11   -1    0    0    0    0 -0.00000000000E+00 -0.00000000000E+00 -0.50000000000E+03  0.50000000000E+03  0.00000000000E+00 0.  1.
          5    1    1    2  501    0 -0.45772625137E+02  0.27441723448E+03  0.41542503320E+03  0.50000000000E+03  0.47000000000E+01 0. -1.
         -5    1    1    2    0  501  0.45772625137E+02 -0.27441723448E+03 -0.41542503320E+03  0.50000000000E+03  0.47000000000E+01 0.  1.
</event>
<event>
 4    1  0.4933936E-004  0.1000000E+04  0.7546771E-02  0.8684367E-01
         11   -1    0    0    0    0  0.00000000000E+00  0.00000000000E+00  0.50000000000E+03  0.50000000000E+03  0.00000000000E+00 0. -1.
        -11   -1    0    0    0    0 -0.00000000000E+00 -0.00000000000E+00 -0.50000000000E+03  0.50000000000E+03  0.00000000000E+00 0.  1.
          5    1    1    2  501    0 -0.22972216955E+03 -0.37001860974E+00  0.44407825651E+03  0.50000000000E+03  0.47000000000E+01 0. -1.
         -5    1    1    2    0  501  0.22972216955E+03  0.37001860974E+00 -0.44407825651E+03  0.50000000000E+03  0.47000000000E+01 0.  1.
</event>
<event>
 4    1  0.4933936E-004  0.1000000E+04  0.7546771E-02  0.8684367E-01
         11   -1    0    0    0    0  0.00000000000E+00  0.00000000000E+00  0.50000000000E+03  0.50000000000E+03  0.00000000000E+00 0. -1.
        -11   -1    0    0    0    0 -0.00000000000E+00 -0.00000000000E+00 -0.50000000000E+03  0.50000000000E+03  0.00000000000E+00 0.  1.
          5    1    1    2  501    0 -0.45604405037E+02  0.78608615389E+02  0.49164909623E+03  0.50000000000E+03  0.47000000000E+01 0. -1.
         -5    1    1    2    0  501  0.45604405037E+02 -0.78608615389E+02 -0.49164909623E+03  0.50000000000E+03  0.47000000000E+01 0.  1.
</event>
<event>
 4    1  0.4933936E-004  0.1000000E+04  0.7546771E-02  0.8684367E-01
         11   -1    0    0    0    0  0.00000000000E+00  0.00000000000E+00  0.50000000000E+03  0.50000000000E+03  0.00000000000E+00 0. -1.
        -11   -1    0    0    0    0 -0.00000000000E+00 -0.00000000000E+00 -0.50000000000E+03  0.50000000000E+03  0.00000000000E+00 0.  1.
          5    1    1    2  501    0 -0.23048579708E+03  0.13309115269E+03  0.42325046063E+03  0.50000000000E+03  0.47000000000E+01 0. -1.
         -5    1    1    2    0  501  0.23048579708E+03 -0.13309115269E+03 -0.42325046063E+03  0.50000000000E+03  0.47000000000E+01 0.  1.
</event>
<event>
 4    1  0.4933936E-004  0.1000000E+04  0.7546771E-02  0.8684367E-01
         11   -1    0    0    0    0  0.00000000000E+00  0.00000000000E+00  0.50000000000E+03  0.50000000000E+03  0.00000000000E+00 0. -1.
        -11   -1    0    0    0    0 -0.00000000000E+00 -0.00000000000E+00 -0.50000000000E+03  0.50000000000E+03  0.00000000000E+00 0.  1.
          5    1    1    2  501    0 -0.47413909360E+03  0.13994755327E+03  0.74730932399E+02  0.50000000000E+03  0.47000000000E+01 0. -1.
         -5    1    1    2    0  501  0.47413909360E+03 -0.13994755327E+03 -0.74730932399E+02  0.50000000000E+03  0.47000000000E+01 0.  1.
</event>
<event>
 4    1  0.4933936E-004  0.1000000E+04  0.7546771E-02  0.8684367E-01
         11   -1    0    0    0    0  0.00000000000E+00  0.00000000000E+00  0.50000000000E+03  0.50000000000E+03  0.00000000000E+00 0. -1.
        -11   -1    0    0    0    0 -0.00000000000E+00 -0.00000000000E+00 -0.50000000000E+03  0.50000000000E+03  0.00000000000E+00 0.  1.
          5    1    1    2  501    0 -0.46997139300E+03  0.13283776154E+03  0.10704638656E+03  0.50000000000E+03  0.47000000000E+01 0. -1.
         -5    1    1    2    0  501  0.46997139300E+03 -0.13283776154E+03 -0.10704638656E+03  0.50000000000E+03  0.47000000000E+01 0.  1.
</event>
<event>
 4    1  0.4933936E-004  0.1000000E+04  0.7546771E-02  0.8684367E-01
         11   -1    0    0    0    0  0.00000000000E+00  0.00000000000E+00  0.50000000000E+03  0.50000000000E+03  0.00000000000E+00 0.  1.
        -11   -1    0    0    0    0 -0.00000000000E+00 -0.00000000000E+00 -0.50000000000E+03  0.50000000000E+03  0.00000000000E+00 0. -1.
          5    1    1    2  501    0 -0.11994710874E+03 -0.53758953269E+02  0.48239048088E+03  0.50000000000E+03  0.47000000000E+01 0.  1.
         -5    1    1    2    0  501  0.11994710874E+03  0.53758953269E+02 -0.48239048088E+03  0.50000000000E+03  0.47000000000E+01 0. -1.
</event>
<event>
 4    1  0.4933936E-004  0.1000000E+04  0.7546771E-02  0.8684367E-01
         11   -1    0    0    0    0  0.00000000000E+00  0.00000000000E+00  0.50000000000E+03  0.50000000000E+03  0.00000000000E+00 0.  1.
        -11   -1    0    0    0    0 -0.00000000000E+00 -0.00000000000E+00 -0.50000000000E+03  0.50000000000E+03  0.00000000000E+00 0. -1.
          5    1    1    2  501    0  0.27658719052E+03 -0.23421655351E+02  0.41584716195E+03  0.50000000000E+03  0.47000000000E+01 0.  1.
         -5    1    1    2    0  501 -0.27658719052E+03  0.23421655351E+02 -0.41584716195E+03  0.50000000000E+03  0.47000000000E+01 0. -1.
</event>
<event>
 4    1  0.4933936E-004  0.1000000E+04  0.7546771E-02  0.8684367E-01
         11   -1    0    0    0    0  0.00000000000E+00  0.00000000000E+00  0.50000000000E+03  0.50000000000E+03  0.00000000000E+00 0. -1.
        -11   -1    0    0    0    0 -0.00000000000E+00 -0.00000000000E+00 -0.50000000000E+03  0.50000000000E+03  0.00000000000E+00 0.  1.
          5    1    1    2  501    0 -0.41873299467E+03 -0.23924712950E+03  0.13191436691E+03  0.50000000000E+03  0.47000000000E+01 0. -1.
         -5    1    1    2    0  501  0.41873299467E+03  0.23924712950E+03 -0.13191436691E+03  0.50000000000E+03  0.47000000000E+01 0.  1.
</event>
<event>
 4    1  0.4933936E-004  0.1000000E+04  0.7546771E-02  0.8684367E-01
         11   -1    0    0    0    0  0.00000000000E+00  0.00000000000E+00  0.50000000000E+03  0.50000000000E+03  0.00000000000E+00 0. -1.
        -11   -1    0    0    0    0 -0.00000000000E+00 -0.00000000000E+00 -0.50000000000E+03  0.50000000000E+03  0.00000000000E+00 0.  1.
          5    1    1    2  501    0 -0.49733797111E+03 -0.22716958992E+02  0.46008610832E+02  0.50000000000E+03  0.47000000000E+01 0. -1.
         -5    1    1    2    0  501  0.49733797111E+03  0.22716958992E+02 -0.46008610832E+02  0.50000000000E+03  0.47000000000E+01 0.  1.
</event>
<event>
 4    1  0.4933936E-004  0.1000000E+04  0.7546771E-02  0.8684367E-01
         11   -1    0    0    0    0  0.00000000000E+00  0.00000000000E+00  0.50000000000E+03  0.50000000000E+03  0.00000000000E+00 0. -1.
        -11   -1    0    0    0    0 -0.00000000000E+00 -0.00000000000E+00 -0.50000000000E+03  0.50000000000E+03  0.00000000000E+00 0.  1.
          5    1    1    2  501    0 -0.26676520756E+03 -0.41147629848E+03 -0.97475585803E+02  0.50000000000E+03  0.47000000000E+01 0. -1.
         -5    1    1    2    0  501  0.26676520756E+03  0.41147629848E+03  0.97475585803E+02  0.50000000000E+03  0.47000000000E+01 0.  1.
</event>
<event>
 4    1  0.4933936E-004  0.1000000E+04  0.7546771E-02  0.8684367E-01
         11   -1    0    0    0    0  0.00000000000E+00  0.00000000000E+00  0.50000000000E+03  0.50000000000E+03  0.00000000000E+00 0. -1.
        -11   -1    0    0    0    0 -0.00000000000E+00 -0.00000000000E+00 -0.50000000000E+03  0.50000000000E+03  0.00000000000E+00 0.  1.
          5    1    1    2  501    0  0.46825046099E+03  0.14655799705E+03  0.96125799267E+02  0.50000000000E+03  0.47000000000E+01 0. -1.
         -5    1    1    2    0  501 -0.46825046099E+03 -0.14655799705E+03 -0.96125799267E+02  0.50000000000E+03  0.47000000000E+01 0.  1.
</event>
<event>
 4    1  0.4933936E-004  0.1000000E+04  0.7546771E-02  0.8684367E-01
         11   -1    0    0    0    0  0.00000000000E+00  0.00000000000E+00  0.50000000000E+03  0.50000000000E+03  0.00000000000E+00 0. -1.
        -11   -1    0    0    0    0 -0.00000000000E+00 -0.00000000000E+00 -0.50000000000E+03  0.50000000000E+03  0.00000000000E+00 0.  1.
          5    1    1    2  501    0 -0.25548929000E+03 -0.12398490064E+03  0.41149833184E+03  0.50000000000E+03  0.47000000000E+01 0. -1.
         -5    1    1    2    0  501  0.25548929000E+03  0.12398490064E+03 -0.41149833184E+03  0.50000000000E+03  0.47000000000E+01 0.  1.
</event>
<event>
 4    1  0.4933936E-004  0.1000000E+04  0.7546771E-02  0.8684367E-01
         11   -1    0    0    0    0  0.00000000000E+00  0.00000000000E+00  0.50000000000E+03  0.50000000000E+03  0.00000000000E+00 0. -1.
        -11   -1    0    0    0    0 -0.00000000000E+00 -0.00000000000E+00 -0.50000000000E+03  0.50000000000E+03  0.00000000000E+00 0.  1.
          5    1    1    2  501    0  0.35977020022E+03 -0.13430442292E+03  0.32016501217E+03  0.50000000000E+03  0.47000000000E+01 0. -1.
         -5    1    1    2    0  501 -0.35977020022E+03  0.13430442292E+03 -0.32016501217E+03  0.50000000000E+03  0.47000000000E+01 0.  1.
</event>
<event>
 4    1  0.4933936E-004  0.1000000E+04  0.7546771E-02  0.8684367E-01
         11   -1    0    0    0    0  0.00000000000E+00  0.00000000000E+00  0.50000000000E+03  0.50000000000E+03  0.00000000000E+00 0. -1.
        -11   -1    0    0    0    0 -0.00000000000E+00 -0.00000000000E+00 -0.50000000000E+03  0.50000000000E+03  0.00000000000E+00 0.  1.
          5    1    1    2  501    0 -0.48659439125E+03  0.66067938590E+02 -0.94015083320E+02  0.50000000000E+03  0.47000000000E+01 0. -1.
         -5    1    1    2    0  501  0.48659439125E+03 -0.66067938590E+02  0.94015083320E+02  0.50000000000E+03  0.47000000000E+01 0.  1.
</event>
<event>
 4    1  0.4933936E-004  0.1000000E+04  0.7546771E-02  0.8684367E-01
         11   -1    0    0    0    0  0.00000000000E+00  0.00000000000E+00  0.50000000000E+03  0.50000000000E+03  0.00000000000E+00 0. -1.
        -11   -1    0    0    0    0 -0.00000000000E+00 -0.00000000000E+00 -0.50000000000E+03  0.50000000000E+03  0.00000000000E+00 0.  1.
          5    1    1    2  501    0  0.40235687080E+03 -0.28212904039E+03 -0.92141538342E+02  0.50000000000E+03  0.47000000000E+01 0. -1.
         -5    1    1    2    0  501 -0.40235687080E+03  0.28212904039E+03  0.92141538342E+02  0.50000000000E+03  0.47000000000E+01 0.  1.
</event>
<event>
 4    1  0.4933936E-004  0.1000000E+04  0.7546771E-02  0.8684367E-01
         11   -1    0    0    0    0  0.00000000000E+00  0.00000000000E+00  0.50000000000E+03  0.50000000000E+03  0.00000000000E+00 0.  1.
        -11   -1    0    0    0    0 -0.00000000000E+00 -0.00000000000E+00 -0.50000000000E+03  0.50000000000E+03  0.00000000000E+00 0. -1.
          5    1    1    2  501    0  0.48012206913E+03 -0.19978225822E+02 -0.13806367816E+03  0.50000000000E+03  0.47000000000E+01 0.  1.
         -5    1    1    2    0  501 -0.48012206913E+03  0.19978225822E+02  0.13806367816E+03  0.50000000000E+03  0.47000000000E+01 0. -1.
</event>
<event>
 4    1  0.4933936E-004  0.1000000E+04  0.7546771E-02  0.8684367E-01
         11   -1    0    0    0    0  0.00000000000E+00  0.00000000000E+00  0.50000000000E+03  0.50000000000E+03  0.00000000000E+00 0.  1.
        -11   -1    0    0    0    0 -0.00000000000E+00 -0.00000000000E+00 -0.50000000000E+03  0.50000000000E+03  0.00000000000E+00 0. -1.
          5    1    1    2  501    0 -0.27352632564E+03  0.36592261006E+03  0.20313026025E+03  0.50000000000E+03  0.47000000000E+01 0.  1.
         -5    1    1    2    0  501  0.27352632564E+03 -0.36592261006E+03 -0.20313026025E+03  0.50000000000E+03  0.47000000000E+01 0. -1.
</event>
<event>
 4    1  0.4933936E-004  0.1000000E+04  0.7546771E-02  0.8684367E-01
         11   -1    0    0    0    0  0.00000000000E+00  0.00000000000E+00  0.50000000000E+03  0.50000000000E+03  0.00000000000E+00 0. -1.
        -11   -1    0    0    0    0 -0.00000000000E+00 -0.00000000000E+00 -0.50000000000E+03  0.50000000000E+03  0.00000000000E+00 0.  1.
          5    1    1    2  501    0  0.38741398315E+03 -0.25258170935E+03  0.18997577677E+03  0.50000000000E+03  0.47000000000E+01 0. -1.
         -5    1    1    2    0  501 -0.38741398315E+03  0.25258170935E+03 -0.18997577677E+03  0.50000000000E+03  0.47000000000E+01 0.  1.
</event>
<event>
 4    1  0.4933936E-004  0.1000000E+04  0.7546771E-02  0.8684367E-01
         11   -1    0    0    0    0  0.00000000000E+00  0.00000000000E+00  0.50000000000E+03  0.50000000000E+03  0.00000000000E+00 0. -1.
        -11   -1    0    0    0    0 -0.00000000000E+00 -0.00000000000E+00 -0.50000000000E+03  0.50000000000E+03  0.00000000000E+00 0.  1.
          5    1    1    2  501    0  0.46087036503E+03 -0.17330849391E+03  0.86836527868E+02  0.50000000000E+03  0.47000000000E+01 0. -1.
         -5    1    1    2    0  501 -0.46087036503E+03  0.17330849391E+03 -0.86836527868E+02  0.50000000000E+03  0.47000000000E+01 0.  1.
</event>
<event>
 4    1  0.4933936E-004  0.1000000E+04  0.7546771E-02  0.8684367E-01
         11   -1    0    0    0    0  0.00000000000E+00  0.00000000000E+00  0.50000000000E+03  0.50000000000E+03  0.00000000000E+00 0. -1.
        -11   -1    0    0    0    0 -0.00000000000E+00 -0.00000000000E+00 -0.50000000000E+03  0.50000000000E+03  0.00000000000E+00 0.  1.
          5    1    1    2  501    0 -0.34136259056E+03  0.37911043233E+01  0.36528772125E+03  0.50000000000E+03  0.47000000000E+01 0. -1.
         -5    1    1    2    0  501  0.34136259056E+03 -0.37911043233E+01 -0.36528772125E+03  0.50000000000E+03  0.47000000000E+01 0.  1.
</event>
<event>
 4    1  0.4933936E-004  0.1000000E+04  0.7546771E-02  0.8684367E-01
         11   -1    0    0    0    0  0.00000000000E+00  0.00000000000E+00  0.50000000000E+03  0.50000000000E+03  0.00000000000E+00 0. -1.
        -11   -1    0    0    0    0 -0.00000000000E+00 -0.00000000000E+00 -0.50000000000E+03  0.50000000000E+03  0.00000000000E+00 0.  1.
          5    1    1    2  501    0  0.46317160585E+03 -0.18408789126E+03  0.39517361051E+02  0.50000000000E+03  0.47000000000E+01 0. -1.
         -5    1    1    2    0  501 -0.46317160585E+03  0.18408789126E+03 -0.39517361051E+02  0.50000000000E+03  0.47000000000E+01 0.  1.
</event>
<event>
 4    1  0.4933936E-004  0.1000000E+04  0.7546771E-02  0.8684367E-01
         11   -1    0    0    0    0  0.00000000000E+00  0.00000000000E+00  0.50000000000E+03  0.50000000000E+03  0.00000000000E+00 0. -1.
        -11   -1    0    0    0    0 -0.00000000000E+00 -0.00000000000E+00 -0.50000000000E+03  0.50000000000E+03  0.00000000000E+00 0.  1.
          5    1    1    2  501    0 -0.14682334677E+03 -0.15761451646E+03  0.45119671879E+03  0.50000000000E+03  0.47000000000E+01 0. -1.
         -5    1    1    2    0  501  0.14682334677E+03  0.15761451646E+03 -0.45119671879E+03  0.50000000000E+03  0.47000000000E+01 0.  1.
</event>
<event>
 4    1  0.4933936E-004  0.1000000E+04  0.7546771E-02  0.8684367E-01
         11   -1    0    0    0    0  0.00000000000E+00  0.00000000000E+00  0.50000000000E+03  0.50000000000E+03  0.00000000000E+00 0. -1.
        -11   -1    0    0    0    0 -0.00000000000E+00 -0.00000000000E+00 -0.50000000000E+03  0.50000000000E+03  0.00000000000E+00 0.  1.
          5    1    1    2  501    0 -0.40680100666E+03  0.65454268197E+02  0.28320767955E+03  0.50000000000E+03  0.47000000000E+01 0. -1.
         -5    1    1    2    0  501  0.40680100666E+03 -0.65454268197E+02 -0.28320767955E+03  0.50000000000E+03  0.47000000000E+01 0.  1.
</event>
<event>
 4    1  0.4933936E-004  0.1000000E+04  0.7546771E-02  0.8684367E-01
         11   -1    0    0    0    0  0.00000000000E+00  0.00000000000E+00  0.50000000000E+03  0.50000000000E+03  0.00000000000E+00 0.  1.
        -11   -1    0    0    0    0 -0.00000000000E+00 -0.00000000000E+00 -0.50000000000E+03  0.50000000000E+03  0.00000000000E+00 0. -1.
          5    1    1    2  501    0  0.36285922599E+02  0.28913830280E+03 -0.40627611753E+03  0.50000000000E+03  0.47000000000E+01 0. -1.
         -5    1    1    2    0  501 -0.36285922599E+02 -0.28913830280E+03  0.40627611753E+03  0.50000000000E+03  0.47000000000E+01 0.  1.
</event>
<event>
 4    1  0.4933936E-004  0.1000000E+04  0.7546771E-02  0.8684367E-01
         11   -1    0    0    0    0  0.00000000000E+00  0.00000000000E+00  0.50000000000E+03  0.50000000000E+03  0.00000000000E+00 0. -1.
        -11   -1    0    0    0    0 -0.00000000000E+00 -0.00000000000E+00 -0.50000000000E+03  0.50000000000E+03  0.00000000000E+00 0.  1.
          5    1    1    2  501    0  0.10995546460E+03  0.26220474321E+03  0.41126193410E+03  0.50000000000E+03  0.47000000000E+01 0. -1.
         -5    1    1    2    0  501 -0.10995546460E+03 -0.26220474321E+03 -0.41126193410E+03  0.50000000000E+03  0.47000000000E+01 0.  1.
</event>
<event>
 4    1  0.4933936E-004  0.1000000E+04  0.7546771E-02  0.8684367E-01
         11   -1    0    0    0    0  0.00000000000E+00  0.00000000000E+00  0.50000000000E+03  0.50000000000E+03  0.00000000000E+00 0. -1.
        -11   -1    0    0    0    0 -0.00000000000E+00 -0.00000000000E+00 -0.50000000000E+03  0.50000000000E+03  0.00000000000E+00 0.  1.
          5    1    1    2  501    0 -0.40568602370E+03  0.27984596724E+03  0.84160529935E+02  0.50000000000E+03  0.47000000000E+01 0. -1.
         -5    1    1    2    0  501  0.40568602370E+03 -0.27984596724E+03 -0.84160529935E+02  0.50000000000E+03  0.47000000000E+01 0.  1.
</event>
<event>
 4    1  0.4933936E-004  0.1000000E+04  0.7546771E-02  0.8684367E-01
         11   -1    0    0    0    0  0.00000000000E+00  0.00000000000E+00  0.50000000000E+03  0.50000000000E+03  0.00000000000E+00 0. -1.
        -11   -1    0    0    0    0 -0.00000000000E+00 -0.00000000000E+00 -0.50000000000E+03  0.50000000000E+03  0.00000000000E+00 0.  1.
          5    1    1    2  501    0 -0.39558907288E+03  0.13068171566E+03  0.27642265574E+03  0.50000000000E+03  0.47000000000E+01 0. -1.
         -5    1    1    2    0  501  0.39558907288E+03 -0.13068171566E+03 -0.27642265574E+03  0.50000000000E+03  0.47000000000E+01 0.  1.
</event>
<event>
 4    1  0.4933936E-004  0.1000000E+04  0.7546771E-02  0.8684367E-01
         11   -1    0    0    0    0  0.00000000000E+00  0.00000000000E+00  0.50000000000E+03  0.50000000000E+03  0.00000000000E+00 0. -1.
        -11   -1    0    0    0    0 -0.00000000000E+00 -0.00000000000E+00 -0.50000000000E+03  0.50000000000E+03  0.00000000000E+00 0.  1.
          5    1    1    2  501    0 -0.31838596269E+03  0.14474844644E+03  0.35729004467E+03  0.50000000000E+03  0.47000000000E+01 0. -1.
         -5    1    1    2    0  501  0.31838596269E+03 -0.14474844644E+03 -0.35729004467E+03  0.50000000000E+03  0.47000000000E+01 0.  1.
</event>
<event>
 4    1  0.4933936E-004  0.1000000E+04  0.7546771E-02  0.8684367E-01
         11   -1    0    0    0    0  0.00000000000E+00  0.00000000000E+00  0.50000000000E+03  0.50000000000E+03  0.00000000000E+00 0. -1.
        -11   -1    0    0    0    0 -0.00000000000E+00 -0.00000000000E+00 -0.50000000000E+03  0.50000000000E+03  0.00000000000E+00 0.  1.
          5    1    1    2  501    0 -0.16028908950E+03 -0.22447686976E+03  0.41700773702E+03  0.50000000000E+03  0.47000000000E+01 0. -1.
         -5    1    1    2    0  501  0.16028908950E+03  0.22447686976E+03 -0.41700773702E+03  0.50000000000E+03  0.47000000000E+01 0.  1.
</event>
<event>
 4    1  0.4933936E-004  0.1000000E+04  0.7546771E-02  0.8684367E-01
         11   -1    0    0    0    0  0.00000000000E+00  0.00000000000E+00  0.50000000000E+03  0.50000000000E+03  0.00000000000E+00 0. -1.
        -11   -1    0    0    0    0 -0.00000000000E+00 -0.00000000000E+00 -0.50000000000E+03  0.50000000000E+03  0.00000000000E+00 0.  1.
          5    1    1    2  501    0 -0.96780406823E+02  0.31624109371E+02  0.48950115277E+03  0.50000000000E+03  0.47000000000E+01 0. -1.
         -5    1    1    2    0  501  0.96780406823E+02 -0.31624109371E+02 -0.48950115277E+03  0.50000000000E+03  0.47000000000E+01 0.  1.
</event>
<event>
 4    1  0.4933936E-004  0.1000000E+04  0.7546771E-02  0.8684367E-01
         11   -1    0    0    0    0  0.00000000000E+00  0.00000000000E+00  0.50000000000E+03  0.50000000000E+03  0.00000000000E+00 0. -1.
        -11   -1    0    0    0    0 -0.00000000000E+00 -0.00000000000E+00 -0.50000000000E+03  0.50000000000E+03  0.00000000000E+00 0.  1.
          5    1    1    2  501    0 -0.13291946367E+03  0.24391346079E+03  0.41571209968E+03  0.50000000000E+03  0.47000000000E+01 0. -1.
         -5    1    1    2    0  501  0.13291946367E+03 -0.24391346079E+03 -0.41571209968E+03  0.50000000000E+03  0.47000000000E+01 0.  1.
</event>
<event>
 4    1  0.4933936E-004  0.1000000E+04  0.7546771E-02  0.8684367E-01
         11   -1    0    0    0    0  0.00000000000E+00  0.00000000000E+00  0.50000000000E+03  0.50000000000E+03  0.00000000000E+00 0.  1.
        -11   -1    0    0    0    0 -0.00000000000E+00 -0.00000000000E+00 -0.50000000000E+03  0.50000000000E+03  0.00000000000E+00 0. -1.
          5    1    1    2  501    0 -0.39154307600E+03  0.26837280484E+03  0.15699671097E+03  0.50000000000E+03  0.47000000000E+01 0.  1.
         -5    1    1    2    0  501  0.39154307600E+03 -0.26837280484E+03 -0.15699671097E+03  0.50000000000E+03  0.47000000000E+01 0. -1.
</event>
<event>
 4    1  0.4933936E-004  0.1000000E+04  0.7546771E-02  0.8684367E-01
         11   -1    0    0    0    0  0.00000000000E+00  0.00000000000E+00  0.50000000000E+03  0.50000000000E+03  0.00000000000E+00 0. -1.
        -11   -1    0    0    0    0 -0.00000000000E+00 -0.00000000000E+00 -0.50000000000E+03  0.50000000000E+03  0.00000000000E+00 0.  1.
          5    1    1    2  501    0 -0.27274051222E+03  0.56951689935E+02  0.41514699566E+03  0.50000000000E+03  0.47000000000E+01 0. -1.
         -5    1    1    2    0  501  0.27274051222E+03 -0.56951689935E+02 -0.41514699566E+03  0.50000000000E+03  0.47000000000E+01 0.  1.
</event>
<event>
 4    1  0.4933936E-004  0.1000000E+04  0.7546771E-02  0.8684367E-01
         11   -1    0    0    0    0  0.00000000000E+00  0.00000000000E+00  0.50000000000E+03  0.50000000000E+03  0.00000000000E+00 0. -1.
        -11   -1    0    0    0    0 -0.00000000000E+00 -0.00000000000E+00 -0.50000000000E+03  0.50000000000E+03  0.00000000000E+00 0.  1.
          5    1    1    2  501    0  0.21867319216E+02  0.31968124740E+03  0.38380155082E+03  0.50000000000E+03  0.47000000000E+01 0. -1.
         -5    1    1    2    0  501 -0.21867319216E+02 -0.31968124740E+03 -0.38380155082E+03  0.50000000000E+03  0.47000000000E+01 0.  1.
</event>
<event>
 4    1  0.4933936E-004  0.1000000E+04  0.7546771E-02  0.8684367E-01
         11   -1    0    0    0    0  0.00000000000E+00  0.00000000000E+00  0.50000000000E+03  0.50000000000E+03  0.00000000000E+00 0. -1.
        -11   -1    0    0    0    0 -0.00000000000E+00 -0.00000000000E+00 -0.50000000000E+03  0.50000000000E+03  0.00000000000E+00 0.  1.
          5    1    1    2  501    0  0.23216304522E+03  0.17695736041E+03  0.40591171827E+03  0.50000000000E+03  0.47000000000E+01 0. -1.
         -5    1    1    2    0  501 -0.23216304522E+03 -0.17695736041E+03 -0.40591171827E+03  0.50000000000E+03  0.47000000000E+01 0.  1.
</event>
<event>
 4    1  0.4933936E-004  0.1000000E+04  0.7546771E-02  0.8684367E-01
         11   -1    0    0    0    0  0.00000000000E+00  0.00000000000E+00  0.50000000000E+03  0.50000000000E+03  0.00000000000E+00 0. -1.
        -11   -1    0    0    0    0 -0.00000000000E+00 -0.00000000000E+00 -0.50000000000E+03  0.50000000000E+03  0.00000000000E+00 0.  1.
          5    1    1    2  501    0  0.15583220601E+03  0.14956144360E+02  0.47483739039E+03  0.50000000000E+03  0.47000000000E+01 0. -1.
         -5    1    1    2    0  501 -0.15583220601E+03 -0.14956144360E+02 -0.47483739039E+03  0.50000000000E+03  0.47000000000E+01 0.  1.
</event>
<event>
 4    1  0.4933936E-004  0.1000000E+04  0.7546771E-02  0.8684367E-01
         11   -1    0    0    0    0  0.00000000000E+00  0.00000000000E+00  0.50000000000E+03  0.50000000000E+03  0.00000000000E+00 0. -1.
        -11   -1    0    0    0    0 -0.00000000000E+00 -0.00000000000E+00 -0.50000000000E+03  0.50000000000E+03  0.00000000000E+00 0.  1.
          5    1    1    2  501    0  0.28981081463E+03 -0.24213180084E+03  0.32765804239E+03  0.50000000000E+03  0.47000000000E+01 0. -1.
         -5    1    1    2    0  501 -0.28981081463E+03  0.24213180084E+03 -0.32765804239E+03  0.50000000000E+03  0.47000000000E+01 0.  1.
</event>
<event>
 4    1  0.4933936E-004  0.1000000E+04  0.7546771E-02  0.8684367E-01
         11   -1    0    0    0    0  0.00000000000E+00  0.00000000000E+00  0.50000000000E+03  0.50000000000E+03  0.00000000000E+00 0. -1.
        -11   -1    0    0    0    0 -0.00000000000E+00 -0.00000000000E+00 -0.50000000000E+03  0.50000000000E+03  0.00000000000E+00 0.  1.
          5    1    1    2  501    0  0.40462579335E+03  0.18731995280E+03  0.22620148682E+03  0.50000000000E+03  0.47000000000E+01 0. -1.
         -5    1    1    2    0  501 -0.40462579335E+03 -0.18731995280E+03 -0.22620148682E+03  0.50000000000E+03  0.47000000000E+01 0.  1.
</event>
<event>
 4    1  0.4933936E-004  0.1000000E+04  0.7546771E-02  0.8684367E-01
         11   -1    0    0    0    0  0.00000000000E+00  0.00000000000E+00  0.50000000000E+03  0.50000000000E+03  0.00000000000E+00 0. -1.
        -11   -1    0    0    0    0 -0.00000000000E+00 -0.00000000000E+00 -0.50000000000E+03  0.50000000000E+03  0.00000000000E+00 0.  1.
          5    1    1    2  501    0 -0.27378639608E+03  0.29094394902E+03  0.30061692874E+03  0.50000000000E+03  0.47000000000E+01 0. -1.
         -5    1    1    2    0  501  0.27378639608E+03 -0.29094394902E+03 -0.30061692874E+03  0.50000000000E+03  0.47000000000E+01 0.  1.
</event>
<event>
 4    1  0.4933936E-004  0.1000000E+04  0.7546771E-02  0.8684367E-01
         11   -1    0    0    0    0  0.00000000000E+00  0.00000000000E+00  0.50000000000E+03  0.50000000000E+03  0.00000000000E+00 0. -1.
        -11   -1    0    0    0    0 -0.00000000000E+00 -0.00000000000E+00 -0.50000000000E+03  0.50000000000E+03  0.00000000000E+00 0.  1.
          5    1    1    2  501    0  0.48572374943E+03 -0.41092971137E+02  0.11118325848E+03  0.50000000000E+03  0.47000000000E+01 0. -1.
         -5    1    1    2    0  501 -0.48572374943E+03  0.41092971137E+02 -0.11118325848E+03  0.50000000000E+03  0.47000000000E+01 0.  1.
</event>
<event>
 4    1  0.4933936E-004  0.1000000E+04  0.7546771E-02  0.8684367E-01
         11   -1    0    0    0    0  0.00000000000E+00  0.00000000000E+00  0.50000000000E+03  0.50000000000E+03  0.00000000000E+00 0. -1.
        -11   -1    0    0    0    0 -0.00000000000E+00 -0.00000000000E+00 -0.50000000000E+03  0.50000000000E+03  0.00000000000E+00 0.  1.
          5    1    1    2  501    0 -0.14779784067E+03  0.47639718531E+03  0.34342832123E+02  0.50000000000E+03  0.47000000000E+01 0. -1.
         -5    1    1    2    0  501  0.14779784067E+03 -0.47639718531E+03 -0.34342832123E+02  0.50000000000E+03  0.47000000000E+01 0.  1.
</event>
<event>
 4    1  0.4933936E-004  0.1000000E+04  0.7546771E-02  0.8684367E-01
         11   -1    0    0    0    0  0.00000000000E+00  0.00000000000E+00  0.50000000000E+03  0.50000000000E+03  0.00000000000E+00 0. -1.
        -11   -1    0    0    0    0 -0.00000000000E+00 -0.00000000000E+00 -0.50000000000E+03  0.50000000000E+03  0.00000000000E+00 0.  1.
          5    1    1    2  501    0  0.33847137261E+03  0.16008405752E+03  0.33134292576E+03  0.50000000000E+03  0.47000000000E+01 0. -1.
         -5    1    1    2    0  501 -0.33847137261E+03 -0.16008405752E+03 -0.33134292576E+03  0.50000000000E+03  0.47000000000E+01 0.  1.
</event>
<event>
 4    1  0.4933936E-004  0.1000000E+04  0.7546771E-02  0.8684367E-01
         11   -1    0    0    0    0  0.00000000000E+00  0.00000000000E+00  0.50000000000E+03  0.50000000000E+03  0.00000000000E+00 0. -1.
        -11   -1    0    0    0    0 -0.00000000000E+00 -0.00000000000E+00 -0.50000000000E+03  0.50000000000E+03  0.00000000000E+00 0.  1.
          5    1    1    2  501    0 -0.94917468835E+02 -0.89835929286E+02  0.48259516152E+03  0.50000000000E+03  0.47000000000E+01 0. -1.
         -5    1    1    2    0  501  0.94917468835E+02  0.89835929286E+02 -0.48259516152E+03  0.50000000000E+03  0.47000000000E+01 0.  1.
</event>
<event>
 4    1  0.4933936E-004  0.1000000E+04  0.7546771E-02  0.8684367E-01
         11   -1    0    0    0    0  0.00000000000E+00  0.00000000000E+00  0.50000000000E+03  0.50000000000E+03  0.00000000000E+00 0. -1.
        -11   -1    0    0    0    0 -0.00000000000E+00 -0.00000000000E+00 -0.50000000000E+03  0.50000000000E+03  0.00000000000E+00 0.  1.
          5    1    1    2  501    0 -0.38131263660E+02  0.47323502181E+03  0.15675627853E+03  0.50000000000E+03  0.47000000000E+01 0. -1.
         -5    1    1    2    0  501  0.38131263660E+02 -0.47323502181E+03 -0.15675627853E+03  0.50000000000E+03  0.47000000000E+01 0.  1.
</event>
<event>
 4    1  0.4933936E-004  0.1000000E+04  0.7546771E-02  0.8684367E-01
         11   -1    0    0    0    0  0.00000000000E+00  0.00000000000E+00  0.50000000000E+03  0.50000000000E+03  0.00000000000E+00 0. -1.
        -11   -1    0    0    0    0 -0.00000000000E+00 -0.00000000000E+00 -0.50000000000E+03  0.50000000000E+03  0.00000000000E+00 0.  1.
          5    1    1    2  501    0  0.18472987158E+03 -0.30917881282E+03  0.34678703299E+03  0.50000000000E+03  0.47000000000E+01 0. -1.
         -5    1    1    2    0  501 -0.18472987158E+03  0.30917881282E+03 -0.34678703299E+03  0.50000000000E+03  0.47000000000E+01 0.  1.
</event>
<event>
 4    1  0.4933936E-004  0.1000000E+04  0.7546771E-02  0.8684367E-01
         11   -1    0    0    0    0  0.00000000000E+00  0.00000000000E+00  0.50000000000E+03  0.50000000000E+03  0.00000000000E+00 0. -1.
        -11   -1    0    0    0    0 -0.00000000000E+00 -0.00000000000E+00 -0.50000000000E+03  0.50000000000E+03  0.00000000000E+00 0.  1.
          5    1    1    2  501    0  0.11829677250E+03  0.24502463059E+03  0.41946002673E+03  0.50000000000E+03  0.47000000000E+01 0. -1.
         -5    1    1    2    0  501 -0.11829677250E+03 -0.24502463059E+03 -0.41946002673E+03  0.50000000000E+03  0.47000000000E+01 0.  1.
</event>
<event>
 4    1  0.4933936E-004  0.1000000E+04  0.7546771E-02  0.8684367E-01
         11   -1    0    0    0    0  0.00000000000E+00  0.00000000000E+00  0.50000000000E+03  0.50000000000E+03  0.00000000000E+00 0. -1.
        -11   -1    0    0    0    0 -0.00000000000E+00 -0.00000000000E+00 -0.50000000000E+03  0.50000000000E+03  0.00000000000E+00 0.  1.
          5    1    1    2  501    0 -0.17651765672E+03  0.61336138420E+02  0.46374271422E+03  0.50000000000E+03  0.47000000000E+01 0. -1.
         -5    1    1    2    0  501  0.17651765672E+03 -0.61336138420E+02 -0.46374271422E+03  0.50000000000E+03  0.47000000000E+01 0.  1.
</event>
<event>
 4    1  0.4933936E-004  0.1000000E+04  0.7546771E-02  0.8684367E-01
         11   -1    0    0    0    0  0.00000000000E+00  0.00000000000E+00  0.50000000000E+03  0.50000000000E+03  0.00000000000E+00 0.  1.
        -11   -1    0    0    0    0 -0.00000000000E+00 -0.00000000000E+00 -0.50000000000E+03  0.50000000000E+03  0.00000000000E+00 0. -1.
          5    1    1    2  501    0  0.28544831008E+03 -0.86124028083E+02  0.40134751035E+03  0.50000000000E+03  0.47000000000E+01 0.  1.
         -5    1    1    2    0  501 -0.28544831008E+03  0.86124028083E+02 -0.40134751035E+03  0.50000000000E+03  0.47000000000E+01 0. -1.
</event>
<event>
 4    1  0.4933936E-004  0.1000000E+04  0.7546771E-02  0.8684367E-01
         11   -1    0    0    0    0  0.00000000000E+00  0.00000000000E+00  0.50000000000E+03  0.50000000000E+03  0.00000000000E+00 0. -1.
        -11   -1    0    0    0    0 -0.00000000000E+00 -0.00000000000E+00 -0.50000000000E+03  0.50000000000E+03  0.00000000000E+00 0.  1.
          5    1    1    2  501    0  0.33574968318E+02  0.12228165944E+03  0.48362984530E+03  0.50000000000E+03  0.47000000000E+01 0. -1.
         -5    1    1    2    0  501 -0.33574968318E+02 -0.12228165944E+03 -0.48362984530E+03  0.50000000000E+03  0.47000000000E+01 0.  1.
</event>
<event>
 4    1  0.4933936E-004  0.1000000E+04  0.7546771E-02  0.8684367E-01
         11   -1    0    0    0    0  0.00000000000E+00  0.00000000000E+00  0.50000000000E+03  0.50000000000E+03  0.00000000000E+00 0. -1.
        -11   -1    0    0    0    0 -0.00000000000E+00 -0.00000000000E+00 -0.50000000000E+03  0.50000000000E+03  0.00000000000E+00 0.  1.
          5    1    1    2  501    0 -0.11957778731E+02 -0.38024618657E+03  0.32441911030E+03  0.50000000000E+03  0.47000000000E+01 0. -1.
         -5    1    1    2    0  501  0.11957778731E+02  0.38024618657E+03 -0.32441911030E+03  0.50000000000E+03  0.47000000000E+01 0.  1.
</event>
<event>
 4    1  0.4933936E-004  0.1000000E+04  0.7546771E-02  0.8684367E-01
         11   -1    0    0    0    0  0.00000000000E+00  0.00000000000E+00  0.50000000000E+03  0.50000000000E+03  0.00000000000E+00 0. -1.
        -11   -1    0    0    0    0 -0.00000000000E+00 -0.00000000000E+00 -0.50000000000E+03  0.50000000000E+03  0.00000000000E+00 0.  1.
          5    1    1    2  501    0 -0.47845989118E+03 -0.13669515193E+03  0.48667011083E+02  0.50000000000E+03  0.47000000000E+01 0. -1.
         -5    1    1    2    0  501  0.47845989118E+03  0.13669515193E+03 -0.48667011083E+02  0.50000000000E+03  0.47000000000E+01 0.  1.
</event>
<event>
 4    1  0.4933936E-004  0.1000000E+04  0.7546771E-02  0.8684367E-01
         11   -1    0    0    0    0  0.00000000000E+00  0.00000000000E+00  0.50000000000E+03  0.50000000000E+03  0.00000000000E+00 0. -1.
        -11   -1    0    0    0    0 -0.00000000000E+00 -0.00000000000E+00 -0.50000000000E+03  0.50000000000E+03  0.00000000000E+00 0.  1.
          5    1    1    2  501    0 -0.18262560713E+03 -0.29428760120E+03  0.36058370096E+03  0.50000000000E+03  0.47000000000E+01 0. -1.
         -5    1    1    2    0  501  0.18262560713E+03  0.29428760120E+03 -0.36058370096E+03  0.50000000000E+03  0.47000000000E+01 0.  1.
</event>
<event>
 4    1  0.4933936E-004  0.1000000E+04  0.7546771E-02  0.8684367E-01
         11   -1    0    0    0    0  0.00000000000E+00  0.00000000000E+00  0.50000000000E+03  0.50000000000E+03  0.00000000000E+00 0. -1.
        -11   -1    0    0    0    0 -0.00000000000E+00 -0.00000000000E+00 -0.50000000000E+03  0.50000000000E+03  0.00000000000E+00 0.  1.
          5    1    1    2  501    0 -0.30210578383E+03 -0.39537800796E+03 -0.48849116677E+02  0.50000000000E+03  0.47000000000E+01 0. -1.
         -5    1    1    2    0  501  0.30210578383E+03  0.39537800796E+03  0.48849116677E+02  0.50000000000E+03  0.47000000000E+01 0.  1.
</event>
<event>
 4    1  0.4933936E-004  0.1000000E+04  0.7546771E-02  0.8684367E-01
         11   -1    0    0    0    0  0.00000000000E+00  0.00000000000E+00  0.50000000000E+03  0.50000000000E+03  0.00000000000E+00 0.  1.
        -11   -1    0    0    0    0 -0.00000000000E+00 -0.00000000000E+00 -0.50000000000E+03  0.50000000000E+03  0.00000000000E+00 0. -1.
          5    1    1    2  501    0 -0.63809262903E+02  0.41065698027E+03  0.27796966116E+03  0.50000000000E+03  0.47000000000E+01 0.  1.
         -5    1    1    2    0  501  0.63809262903E+02 -0.41065698027E+03 -0.27796966116E+03  0.50000000000E+03  0.47000000000E+01 0. -1.
</event>
<event>
 4    1  0.4933936E-004  0.1000000E+04  0.7546771E-02  0.8684367E-01
         11   -1    0    0    0    0  0.00000000000E+00  0.00000000000E+00  0.50000000000E+03  0.50000000000E+03  0.00000000000E+00 0. -1.
        -11   -1    0    0    0    0 -0.00000000000E+00 -0.00000000000E+00 -0.50000000000E+03  0.50000000000E+03  0.00000000000E+00 0.  1.
          5    1    1    2  501    0  0.29754344645E+03  0.26112917663E+03  0.30538068142E+03  0.50000000000E+03  0.47000000000E+01 0. -1.
         -5    1    1    2    0  501 -0.29754344645E+03 -0.26112917663E+03 -0.30538068142E+03  0.50000000000E+03  0.47000000000E+01 0.  1.
</event>
<event>
 4    1  0.4933936E-004  0.1000000E+04  0.7546771E-02  0.8684367E-01
         11   -1    0    0    0    0  0.00000000000E+00  0.00000000000E+00  0.50000000000E+03  0.50000000000E+03  0.00000000000E+00 0. -1.
        -11   -1    0    0    0    0 -0.00000000000E+00 -0.00000000000E+00 -0.50000000000E+03  0.50000000000E+03  0.00000000000E+00 0.  1.
          5    1    1    2  501    0  0.40203258616E+03 -0.22001937017E+02  0.29641798938E+03  0.50000000000E+03  0.47000000000E+01 0. -1.
         -5    1    1    2    0  501 -0.40203258616E+03  0.22001937017E+02 -0.29641798938E+03  0.50000000000E+03  0.47000000000E+01 0.  1.
</event>
<event>
 4    1  0.4933936E-004  0.1000000E+04  0.7546771E-02  0.8684367E-01
         11   -1    0    0    0    0  0.00000000000E+00  0.00000000000E+00  0.50000000000E+03  0.50000000000E+03  0.00000000000E+00 0.  1.
        -11   -1    0    0    0    0 -0.00000000000E+00 -0.00000000000E+00 -0.50000000000E+03  0.50000000000E+03  0.00000000000E+00 0. -1.
          5    1    1    2  501    0  0.31196020625E+02 -0.44707912509E+03  0.22164154441E+03  0.50000000000E+03  0.47000000000E+01 0.  1.
         -5    1    1    2    0  501 -0.31196020625E+02  0.44707912509E+03 -0.22164154441E+03  0.50000000000E+03  0.47000000000E+01 0. -1.
</event>
<event>
 4    1  0.4933936E-004  0.1000000E+04  0.7546771E-02  0.8684367E-01
         11   -1    0    0    0    0  0.00000000000E+00  0.00000000000E+00  0.50000000000E+03  0.50000000000E+03  0.00000000000E+00 0.  1.
        -11   -1    0    0    0    0 -0.00000000000E+00 -0.00000000000E+00 -0.50000000000E+03  0.50000000000E+03  0.00000000000E+00 0. -1.
          5    1    1    2  501    0 -0.19545850374E+02 -0.19167386468E+03 -0.46136428051E+03  0.50000000000E+03  0.47000000000E+01 0. -1.
         -5    1    1    2    0  501  0.19545850374E+02  0.19167386468E+03  0.46136428051E+03  0.50000000000E+03  0.47000000000E+01 0.  1.
</event>
<event>
 4    1  0.4933936E-004  0.1000000E+04  0.7546771E-02  0.8684367E-01
         11   -1    0    0    0    0  0.00000000000E+00  0.00000000000E+00  0.50000000000E+03  0.50000000000E+03  0.00000000000E+00 0. -1.
        -11   -1    0    0    0    0 -0.00000000000E+00 -0.00000000000E+00 -0.50000000000E+03  0.50000000000E+03  0.00000000000E+00 0.  1.
          5    1    1    2  501    0  0.64808489265E+02 -0.20131418802E+03  0.45304565710E+03  0.50000000000E+03  0.47000000000E+01 0. -1.
         -5    1    1    2    0  501 -0.64808489265E+02  0.20131418802E+03 -0.45304565710E+03  0.50000000000E+03  0.47000000000E+01 0.  1.
</event>
<event>
 4    1  0.4933936E-004  0.1000000E+04  0.7546771E-02  0.8684367E-01
         11   -1    0    0    0    0  0.00000000000E+00  0.00000000000E+00  0.50000000000E+03  0.50000000000E+03  0.00000000000E+00 0. -1.
        -11   -1    0    0    0    0 -0.00000000000E+00 -0.00000000000E+00 -0.50000000000E+03  0.50000000000E+03  0.00000000000E+00 0.  1.
          5    1    1    2  501    0  0.45504458236E+03  0.20649070633E+03  0.16550718029E+02  0.50000000000E+03  0.47000000000E+01 0. -1.
         -5    1    1    2    0  501 -0.45504458236E+03 -0.20649070633E+03 -0.16550718029E+02  0.50000000000E+03  0.47000000000E+01 0.  1.
</event>
<event>
 4    1  0.4933936E-004  0.1000000E+04  0.7546771E-02  0.8684367E-01
         11   -1    0    0    0    0  0.00000000000E+00  0.00000000000E+00  0.50000000000E+03  0.50000000000E+03  0.00000000000E+00 0. -1.
        -11   -1    0    0    0    0 -0.00000000000E+00 -0.00000000000E+00 -0.50000000000E+03  0.50000000000E+03  0.00000000000E+00 0.  1.
          5    1    1    2  501    0  0.73975659638E+02  0.27813696692E+03  0.40883412212E+03  0.50000000000E+03  0.47000000000E+01 0. -1.
         -5    1    1    2    0  501 -0.73975659638E+02 -0.27813696692E+03 -0.40883412212E+03  0.50000000000E+03  0.47000000000E+01 0.  1.
</event>
<event>
 4    1  0.4933936E-004  0.1000000E+04  0.7546771E-02  0.8684367E-01
         11   -1    0    0    0    0  0.00000000000E+00  0.00000000000E+00  0.50000000000E+03  0.50000000000E+03  0.00000000000E+00 0. -1.
        -11   -1    0    0    0    0 -0.00000000000E+00 -0.00000000000E+00 -0.50000000000E+03  0.50000000000E+03  0.00000000000E+00 0.  1.
          5    1    1    2  501    0  0.44635940758E+02  0.18310295843E+03  0.46309701943E+03  0.50000000000E+03  0.47000000000E+01 0. -1.
         -5    1    1    2    0  501 -0.44635940758E+02 -0.18310295843E+03 -0.46309701943E+03  0.50000000000E+03  0.47000000000E+01 0.  1.
</event>
<event>
 4    1  0.4933936E-004  0.1000000E+04  0.7546771E-02  0.8684367E-01
         11   -1    0    0    0    0  0.00000000000E+00  0.00000000000E+00  0.50000000000E+03  0.50000000000E+03  0.00000000000E+00 0. -1.
        -11   -1    0    0    0    0 -0.00000000000E+00 -0.00000000000E+00 -0.50000000000E+03  0.50000000000E+03  0.00000000000E+00 0.  1.
          5    1    1    2  501    0  0.22685791423E+03  0.93162821278E+02  0.43569953578E+03  0.50000000000E+03  0.47000000000E+01 0. -1.
         -5    1    1    2    0  501 -0.22685791423E+03 -0.93162821278E+02 -0.43569953578E+03  0.50000000000E+03  0.47000000000E+01 0.  1.
</event>
<event>
 4    1  0.4933936E-004  0.1000000E+04  0.7546771E-02  0.8684367E-01
         11   -1    0    0    0    0  0.00000000000E+00  0.00000000000E+00  0.50000000000E+03  0.50000000000E+03  0.00000000000E+00 0. -1.
        -11   -1    0    0    0    0 -0.00000000000E+00 -0.00000000000E+00 -0.50000000000E+03  0.50000000000E+03  0.00000000000E+00 0.  1.
          5    1    1    2  501    0 -0.34931592345E+03  0.13244273575E+03  0.33228785318E+03  0.50000000000E+03  0.47000000000E+01 0. -1.
         -5    1    1    2    0  501  0.34931592345E+03 -0.13244273575E+03 -0.33228785318E+03  0.50000000000E+03  0.47000000000E+01 0.  1.
</event>
<event>
 4    1  0.4933936E-004  0.1000000E+04  0.7546771E-02  0.8684367E-01
         11   -1    0    0    0    0  0.00000000000E+00  0.00000000000E+00  0.50000000000E+03  0.50000000000E+03  0.00000000000E+00 0.  1.
        -11   -1    0    0    0    0 -0.00000000000E+00 -0.00000000000E+00 -0.50000000000E+03  0.50000000000E+03  0.00000000000E+00 0. -1.
          5    1    1    2  501    0 -0.12433671391E+03 -0.18652747803E+03  0.44690691594E+03  0.50000000000E+03  0.47000000000E+01 0.  1.
         -5    1    1    2    0  501  0.12433671391E+03  0.18652747803E+03 -0.44690691594E+03  0.50000000000E+03  0.47000000000E+01 0. -1.
</event>
<event>
 4    1  0.4933936E-004  0.1000000E+04  0.7546771E-02  0.8684367E-01
         11   -1    0    0    0    0  0.00000000000E+00  0.00000000000E+00  0.50000000000E+03  0.50000000000E+03  0.00000000000E+00 0. -1.
        -11   -1    0    0    0    0 -0.00000000000E+00 -0.00000000000E+00 -0.50000000000E+03  0.50000000000E+03  0.00000000000E+00 0.  1.
          5    1    1    2  501    0 -0.31287026768E+03  0.15521396696E+03  0.35776910160E+03  0.50000000000E+03  0.47000000000E+01 0. -1.
         -5    1    1    2    0  501  0.31287026768E+03 -0.15521396696E+03 -0.35776910160E+03  0.50000000000E+03  0.47000000000E+01 0.  1.
</event>
<event>
 4    1  0.4933936E-004  0.1000000E+04  0.7546771E-02  0.8684367E-01
         11   -1    0    0    0    0  0.00000000000E+00  0.00000000000E+00  0.50000000000E+03  0.50000000000E+03  0.00000000000E+00 0. -1.
        -11   -1    0    0    0    0 -0.00000000000E+00 -0.00000000000E+00 -0.50000000000E+03  0.50000000000E+03  0.00000000000E+00 0.  1.
          5    1    1    2  501    0  0.19501765921E+02 -0.28887632681E+03  0.40761263343E+03  0.50000000000E+03  0.47000000000E+01 0. -1.
         -5    1    1    2    0  501 -0.19501765921E+02  0.28887632681E+03 -0.40761263343E+03  0.50000000000E+03  0.47000000000E+01 0.  1.
</event>
<event>
 4    1  0.4933936E-004  0.1000000E+04  0.7546771E-02  0.8684367E-01
         11   -1    0    0    0    0  0.00000000000E+00  0.00000000000E+00  0.50000000000E+03  0.50000000000E+03  0.00000000000E+00 0. -1.
        -11   -1    0    0    0    0 -0.00000000000E+00 -0.00000000000E+00 -0.50000000000E+03  0.50000000000E+03  0.00000000000E+00 0.  1.
          5    1    1    2  501    0  0.14069358297E+03  0.87327028596E+02  0.47175970132E+03  0.50000000000E+03  0.47000000000E+01 0. -1.
         -5    1    1    2    0  501 -0.14069358297E+03 -0.87327028596E+02 -0.47175970132E+03  0.50000000000E+03  0.47000000000E+01 0.  1.
</event>
<event>
 4    1  0.4933936E-004  0.1000000E+04  0.7546771E-02  0.8684367E-01
         11   -1    0    0    0    0  0.00000000000E+00  0.00000000000E+00  0.50000000000E+03  0.50000000000E+03  0.00000000000E+00 0. -1.
        -11   -1    0    0    0    0 -0.00000000000E+00 -0.00000000000E+00 -0.50000000000E+03  0.50000000000E+03  0.00000000000E+00 0.  1.
          5    1    1    2  501    0 -0.22438440249E+03 -0.41661271839E+03  0.16144160800E+03  0.50000000000E+03  0.47000000000E+01 0. -1.
         -5    1    1    2    0  501  0.22438440249E+03  0.41661271839E+03 -0.16144160800E+03  0.50000000000E+03  0.47000000000E+01 0.  1.
</event>
<event>
 4    1  0.4933936E-004  0.1000000E+04  0.7546771E-02  0.8684367E-01
         11   -1    0    0    0    0  0.00000000000E+00  0.00000000000E+00  0.50000000000E+03  0.50000000000E+03  0.00000000000E+00 0. -1.
        -11   -1    0    0    0    0 -0.00000000000E+00 -0.00000000000E+00 -0.50000000000E+03  0.50000000000E+03  0.00000000000E+00 0.  1.
          5    1    1    2  501    0 -0.36845014281E+03  0.63666820552E+02  0.33191706528E+03  0.50000000000E+03  0.47000000000E+01 0. -1.
         -5    1    1    2    0  501  0.36845014281E+03 -0.63666820552E+02 -0.33191706528E+03  0.50000000000E+03  0.47000000000E+01 0.  1.
</event>
<event>
 4    1  0.4933936E-004  0.1000000E+04  0.7546771E-02  0.8684367E-01
         11   -1    0    0    0    0  0.00000000000E+00  0.00000000000E+00  0.50000000000E+03  0.50000000000E+03  0.00000000000E+00 0. -1.
        -11   -1    0    0    0    0 -0.00000000000E+00 -0.00000000000E+00 -0.50000000000E+03  0.50000000000E+03  0.00000000000E+00 0.  1.
          5    1    1    2  501    0  0.32096413183E+03 -0.35543767003E+03 -0.14361058039E+03  0.50000000000E+03  0.47000000000E+01 0. -1.
         -5    1    1    2    0  501 -0.32096413183E+03  0.35543767003E+03  0.14361058039E+03  0.50000000000E+03  0.47000000000E+01 0.  1.
</event>
<event>
 4    1  0.4933936E-004  0.1000000E+04  0.7546771E-02  0.8684367E-01
         11   -1    0    0    0    0  0.00000000000E+00  0.00000000000E+00  0.50000000000E+03  0.50000000000E+03  0.00000000000E+00 0. -1.
        -11   -1    0    0    0    0 -0.00000000000E+00 -0.00000000000E+00 -0.50000000000E+03  0.50000000000E+03  0.00000000000E+00 0.  1.
          5    1    1    2  501    0 -0.22591017834E+03 -0.21140888028E+03  0.39274519304E+03  0.50000000000E+03  0.47000000000E+01 0. -1.
         -5    1    1    2    0  501  0.22591017834E+03  0.21140888028E+03 -0.39274519304E+03  0.50000000000E+03  0.47000000000E+01 0.  1.
</event>
<event>
 4    1  0.4933936E-004  0.1000000E+04  0.7546771E-02  0.8684367E-01
         11   -1    0    0    0    0  0.00000000000E+00  0.00000000000E+00  0.50000000000E+03  0.50000000000E+03  0.00000000000E+00 0. -1.
        -11   -1    0    0    0    0 -0.00000000000E+00 -0.00000000000E+00 -0.50000000000E+03  0.50000000000E+03  0.00000000000E+00 0.  1.
          5    1    1    2  501    0  0.41285374359E+02  0.30443681499E+03  0.39445107877E+03  0.50000000000E+03  0.47000000000E+01 0. -1.
         -5    1    1    2    0  501 -0.41285374359E+02 -0.30443681499E+03 -0.39445107877E+03  0.50000000000E+03  0.47000000000E+01 0.  1.
</event>
<event>
 4    1  0.4933936E-004  0.1000000E+04  0.7546771E-02  0.8684367E-01
         11   -1    0    0    0    0  0.00000000000E+00  0.00000000000E+00  0.50000000000E+03  0.50000000000E+03  0.00000000000E+00 0. -1.
        -11   -1    0    0    0    0 -0.00000000000E+00 -0.00000000000E+00 -0.50000000000E+03  0.50000000000E+03  0.00000000000E+00 0.  1.
          5    1    1    2  501    0  0.42784284692E+03 -0.20139041555E+03  0.16238937423E+03  0.50000000000E+03  0.47000000000E+01 0. -1.
         -5    1    1    2    0  501 -0.42784284692E+03  0.20139041555E+03 -0.16238937423E+03  0.50000000000E+03  0.47000000000E+01 0.  1.
</event>
<event>
 4    1  0.4933936E-004  0.1000000E+04  0.7546771E-02  0.8684367E-01
         11   -1    0    0    0    0  0.00000000000E+00  0.00000000000E+00  0.50000000000E+03  0.50000000000E+03  0.00000000000E+00 0. -1.
        -11   -1    0    0    0    0 -0.00000000000E+00 -0.00000000000E+00 -0.50000000000E+03  0.50000000000E+03  0.00000000000E+00 0.  1.
          5    1    1    2  501    0 -0.73549281663E+02  0.14918768035E+03 -0.47149915079E+03  0.50000000000E+03  0.47000000000E+01 0.  1.
         -5    1    1    2    0  501  0.73549281663E+02 -0.14918768035E+03  0.47149915079E+03  0.50000000000E+03  0.47000000000E+01 0. -1.
</event>
<event>
 4    1  0.4933936E-004  0.1000000E+04  0.7546771E-02  0.8684367E-01
         11   -1    0    0    0    0  0.00000000000E+00  0.00000000000E+00  0.50000000000E+03  0.50000000000E+03  0.00000000000E+00 0. -1.
        -11   -1    0    0    0    0 -0.00000000000E+00 -0.00000000000E+00 -0.50000000000E+03  0.50000000000E+03  0.00000000000E+00 0.  1.
          5    1    1    2  501    0 -0.24572725245E+03 -0.33244580082E+03  0.28120422635E+03  0.50000000000E+03  0.47000000000E+01 0. -1.
         -5    1    1    2    0  501  0.24572725245E+03  0.33244580082E+03 -0.28120422635E+03  0.50000000000E+03  0.47000000000E+01 0.  1.
</event>
<event>
 4    1  0.4933936E-004  0.1000000E+04  0.7546771E-02  0.8684367E-01
         11   -1    0    0    0    0  0.00000000000E+00  0.00000000000E+00  0.50000000000E+03  0.50000000000E+03  0.00000000000E+00 0. -1.
        -11   -1    0    0    0    0 -0.00000000000E+00 -0.00000000000E+00 -0.50000000000E+03  0.50000000000E+03  0.00000000000E+00 0.  1.
          5    1    1    2  501    0  0.43356408790E+03 -0.23524251857E+03  0.81615250672E+02  0.50000000000E+03  0.47000000000E+01 0. -1.
         -5    1    1    2    0  501 -0.43356408790E+03  0.23524251857E+03 -0.81615250672E+02  0.50000000000E+03  0.47000000000E+01 0.  1.
</event>
<event>
 4    1  0.4933936E-004  0.1000000E+04  0.7546771E-02  0.8684367E-01
         11   -1    0    0    0    0  0.00000000000E+00  0.00000000000E+00  0.50000000000E+03  0.50000000000E+03  0.00000000000E+00 0.  1.
        -11   -1    0    0    0    0 -0.00000000000E+00 -0.00000000000E+00 -0.50000000000E+03  0.50000000000E+03  0.00000000000E+00 0. -1.
          5    1    1    2  501    0 -0.48061377850E+03 -0.12161462399E+03 -0.64793434454E+02  0.50000000000E+03  0.47000000000E+01 0.  1.
         -5    1    1    2    0  501  0.48061377850E+03  0.12161462399E+03  0.64793434454E+02  0.50000000000E+03  0.47000000000E+01 0. -1.
</event>
<event>
 4    1  0.4933936E-004  0.1000000E+04  0.7546771E-02  0.8684367E-01
         11   -1    0    0    0    0  0.00000000000E+00  0.00000000000E+00  0.50000000000E+03  0.50000000000E+03  0.00000000000E+00 0. -1.
        -11   -1    0    0    0    0 -0.00000000000E+00 -0.00000000000E+00 -0.50000000000E+03  0.50000000000E+03  0.00000000000E+00 0.  1.
          5    1    1    2  501    0  0.48821735327E+03 -0.10038598473E+03 -0.39298600948E+02  0.50000000000E+03  0.47000000000E+01 0. -1.
         -5    1    1    2    0  501 -0.48821735327E+03  0.10038598473E+03  0.39298600948E+02  0.50000000000E+03  0.47000000000E+01 0.  1.
</event>
<event>
 4    1  0.4933936E-004  0.1000000E+04  0.7546771E-02  0.8684367E-01
         11   -1    0    0    0    0  0.00000000000E+00  0.00000000000E+00  0.50000000000E+03  0.50000000000E+03  0.00000000000E+00 0. -1.
        -11   -1    0    0    0    0 -0.00000000000E+00 -0.00000000000E+00 -0.50000000000E+03  0.50000000000E+03  0.00000000000E+00 0.  1.
          5    1    1    2  501    0  0.31388957186E+03  0.29348889168E+03  0.25556900661E+03  0.50000000000E+03  0.47000000000E+01 0. -1.
         -5    1    1    2    0  501 -0.31388957186E+03 -0.29348889168E+03 -0.25556900661E+03  0.50000000000E+03  0.47000000000E+01 0.  1.
</event>
<event>
 4    1  0.4933936E-004  0.1000000E+04  0.7546771E-02  0.8684367E-01
         11   -1    0    0    0    0  0.00000000000E+00  0.00000000000E+00  0.50000000000E+03  0.50000000000E+03  0.00000000000E+00 0. -1.
        -11   -1    0    0    0    0 -0.00000000000E+00 -0.00000000000E+00 -0.50000000000E+03  0.50000000000E+03  0.00000000000E+00 0.  1.
          5    1    1    2  501    0  0.35358618038E+03  0.59639209785E+02  0.34842199658E+03  0.50000000000E+03  0.47000000000E+01 0. -1.
         -5    1    1    2    0  501 -0.35358618038E+03 -0.59639209785E+02 -0.34842199658E+03  0.50000000000E+03  0.47000000000E+01 0.  1.
</event>
<event>
 4    1  0.4933936E-004  0.1000000E+04  0.7546771E-02  0.8684367E-01
         11   -1    0    0    0    0  0.00000000000E+00  0.00000000000E+00  0.50000000000E+03  0.50000000000E+03  0.00000000000E+00 0. -1.
        -11   -1    0    0    0    0 -0.00000000000E+00 -0.00000000000E+00 -0.50000000000E+03  0.50000000000E+03  0.00000000000E+00 0.  1.
          5    1    1    2  501    0 -0.14352686653E+03 -0.47637713373E+03  0.49424437704E+02  0.50000000000E+03  0.47000000000E+01 0. -1.
         -5    1    1    2    0  501  0.14352686653E+03  0.47637713373E+03 -0.49424437704E+02  0.50000000000E+03  0.47000000000E+01 0.  1.
</event>
<event>
 4    1  0.4933936E-004  0.1000000E+04  0.7546771E-02  0.8684367E-01
         11   -1    0    0    0    0  0.00000000000E+00  0.00000000000E+00  0.50000000000E+03  0.50000000000E+03  0.00000000000E+00 0. -1.
        -11   -1    0    0    0    0 -0.00000000000E+00 -0.00000000000E+00 -0.50000000000E+03  0.50000000000E+03  0.00000000000E+00 0.  1.
          5    1    1    2  501    0  0.17928629846E+03 -0.46237177988E+03  0.63613444760E+02  0.50000000000E+03  0.47000000000E+01 0. -1.
         -5    1    1    2    0  501 -0.17928629846E+03  0.46237177988E+03 -0.63613444760E+02  0.50000000000E+03  0.47000000000E+01 0.  1.
</event>
<event>
 4    1  0.4933936E-004  0.1000000E+04  0.7546771E-02  0.8684367E-01
         11   -1    0    0    0    0  0.00000000000E+00  0.00000000000E+00  0.50000000000E+03  0.50000000000E+03  0.00000000000E+00 0. -1.
        -11   -1    0    0    0    0 -0.00000000000E+00 -0.00000000000E+00 -0.50000000000E+03  0.50000000000E+03  0.00000000000E+00 0.  1.
          5    1    1    2  501    0  0.98711328178E+01  0.33763168520E+03  0.36862625501E+03  0.50000000000E+03  0.47000000000E+01 0. -1.
         -5    1    1    2    0  501 -0.98711328178E+01 -0.33763168520E+03 -0.36862625501E+03  0.50000000000E+03  0.47000000000E+01 0.  1.
</event>
<event>
 4    1  0.4933936E-004  0.1000000E+04  0.7546771E-02  0.8684367E-01
         11   -1    0    0    0    0  0.00000000000E+00  0.00000000000E+00  0.50000000000E+03  0.50000000000E+03  0.00000000000E+00 0. -1.
        -11   -1    0    0    0    0 -0.00000000000E+00 -0.00000000000E+00 -0.50000000000E+03  0.50000000000E+03  0.00000000000E+00 0.  1.
          5    1    1    2  501    0  0.28748010362E+03  0.20478593269E+03  0.35411272470E+03  0.50000000000E+03  0.47000000000E+01 0. -1.
         -5    1    1    2    0  501 -0.28748010362E+03 -0.20478593269E+03 -0.35411272470E+03  0.50000000000E+03  0.47000000000E+01 0.  1.
</event>
<event>
 4    1  0.4933936E-004  0.1000000E+04  0.7546771E-02  0.8684367E-01
         11   -1    0    0    0    0  0.00000000000E+00  0.00000000000E+00  0.50000000000E+03  0.50000000000E+03  0.00000000000E+00 0.  1.
        -11   -1    0    0    0    0 -0.00000000000E+00 -0.00000000000E+00 -0.50000000000E+03  0.50000000000E+03  0.00000000000E+00 0. -1.
          5    1    1    2  501    0 -0.43325454765E+03 -0.24866204690E+03  0.20870873788E+02  0.50000000000E+03  0.47000000000E+01 0.  1.
         -5    1    1    2    0  501  0.43325454765E+03  0.24866204690E+03 -0.20870873788E+02  0.50000000000E+03  0.47000000000E+01 0. -1.
</event>
<event>
 4    1  0.4933936E-004  0.1000000E+04  0.7546771E-02  0.8684367E-01
         11   -1    0    0    0    0  0.00000000000E+00  0.00000000000E+00  0.50000000000E+03  0.50000000000E+03  0.00000000000E+00 0. -1.
        -11   -1    0    0    0    0 -0.00000000000E+00 -0.00000000000E+00 -0.50000000000E+03  0.50000000000E+03  0.00000000000E+00 0.  1.
          5    1    1    2  501    0  0.10227680599E+03  0.40787143824E+03  0.27047782687E+03  0.50000000000E+03  0.47000000000E+01 0. -1.
         -5    1    1    2    0  501 -0.10227680599E+03 -0.40787143824E+03 -0.27047782687E+03  0.50000000000E+03  0.47000000000E+01 0.  1.
</event>
<event>
 4    1  0.4933936E-004  0.1000000E+04  0.7546771E-02  0.8684367E-01
         11   -1    0    0    0    0  0.00000000000E+00  0.00000000000E+00  0.50000000000E+03  0.50000000000E+03  0.00000000000E+00 0. -1.
        -11   -1    0    0    0    0 -0.00000000000E+00 -0.00000000000E+00 -0.50000000000E+03  0.50000000000E+03  0.00000000000E+00 0.  1.
          5    1    1    2  501    0 -0.39396131117E+03  0.28694931970E+03  0.11150104584E+03  0.50000000000E+03  0.47000000000E+01 0. -1.
         -5    1    1    2    0  501  0.39396131117E+03 -0.28694931970E+03 -0.11150104584E+03  0.50000000000E+03  0.47000000000E+01 0.  1.
</event>
<event>
 4    1  0.4933936E-004  0.1000000E+04  0.7546771E-02  0.8684367E-01
         11   -1    0    0    0    0  0.00000000000E+00  0.00000000000E+00  0.50000000000E+03  0.50000000000E+03  0.00000000000E+00 0.  1.
        -11   -1    0    0    0    0 -0.00000000000E+00 -0.00000000000E+00 -0.50000000000E+03  0.50000000000E+03  0.00000000000E+00 0. -1.
          5    1    1    2  501    0 -0.40032121741E+03  0.16570173935E+03  0.24952708565E+03  0.50000000000E+03  0.47000000000E+01 0.  1.
         -5    1    1    2    0  501  0.40032121741E+03 -0.16570173935E+03 -0.24952708565E+03  0.50000000000E+03  0.47000000000E+01 0. -1.
</event>
<event>
 4    1  0.4933936E-004  0.1000000E+04  0.7546771E-02  0.8684367E-01
         11   -1    0    0    0    0  0.00000000000E+00  0.00000000000E+00  0.50000000000E+03  0.50000000000E+03  0.00000000000E+00 0. -1.
        -11   -1    0    0    0    0 -0.00000000000E+00 -0.00000000000E+00 -0.50000000000E+03  0.50000000000E+03  0.00000000000E+00 0.  1.
          5    1    1    2  501    0 -0.13150666617E+03  0.39251624437E+03 -0.28038349569E+03  0.50000000000E+03  0.47000000000E+01 0. -1.
         -5    1    1    2    0  501  0.13150666617E+03 -0.39251624437E+03  0.28038349569E+03  0.50000000000E+03  0.47000000000E+01 0.  1.
</event>
<event>
 4    1  0.4933936E-004  0.1000000E+04  0.7546771E-02  0.8684367E-01
         11   -1    0    0    0    0  0.00000000000E+00  0.00000000000E+00  0.50000000000E+03  0.50000000000E+03  0.00000000000E+00 0. -1.
        -11   -1    0    0    0    0 -0.00000000000E+00 -0.00000000000E+00 -0.50000000000E+03  0.50000000000E+03  0.00000000000E+00 0.  1.
          5    1    1    2  501    0 -0.13877538260E+03  0.40907415434E+03  0.25174915976E+03  0.50000000000E+03  0.47000000000E+01 0. -1.
         -5    1    1    2    0  501  0.13877538260E+03 -0.40907415434E+03 -0.25174915976E+03  0.50000000000E+03  0.47000000000E+01 0.  1.
</event>
<event>
 4    1  0.4933936E-004  0.1000000E+04  0.7546771E-02  0.8684367E-01
         11   -1    0    0    0    0  0.00000000000E+00  0.00000000000E+00  0.50000000000E+03  0.50000000000E+03  0.00000000000E+00 0.  1.
        -11   -1    0    0    0    0 -0.00000000000E+00 -0.00000000000E+00 -0.50000000000E+03  0.50000000000E+03  0.00000000000E+00 0. -1.
          5    1    1    2  501    0  0.48300585249E+03 -0.96410658978E+02 -0.85954879396E+02  0.50000000000E+03  0.47000000000E+01 0.  1.
         -5    1    1    2    0  501 -0.48300585249E+03  0.96410658978E+02  0.85954879396E+02  0.50000000000E+03  0.47000000000E+01 0. -1.
</event>
<event>
 4    1  0.4933936E-004  0.1000000E+04  0.7546771E-02  0.8684367E-01
         11   -1    0    0    0    0  0.00000000000E+00  0.00000000000E+00  0.50000000000E+03  0.50000000000E+03  0.00000000000E+00 0.  1.
        -11   -1    0    0    0    0 -0.00000000000E+00 -0.00000000000E+00 -0.50000000000E+03  0.50000000000E+03  0.00000000000E+00 0. -1.
          5    1    1    2  501    0  0.15367829916E+03  0.19381561514E+03 -0.43450707439E+03  0.50000000000E+03  0.47000000000E+01 0. -1.
         -5    1    1    2    0  501 -0.15367829916E+03 -0.19381561514E+03  0.43450707439E+03  0.50000000000E+03  0.47000000000E+01 0.  1.
</event>
<event>
 4    1  0.4933936E-004  0.1000000E+04  0.7546771E-02  0.8684367E-01
         11   -1    0    0    0    0  0.00000000000E+00  0.00000000000E+00  0.50000000000E+03  0.50000000000E+03  0.00000000000E+00 0. -1.
        -11   -1    0    0    0    0 -0.00000000000E+00 -0.00000000000E+00 -0.50000000000E+03  0.50000000000E+03  0.00000000000E+00 0.  1.
          5    1    1    2  501    0  0.48544441169E+03 -0.74377794883E+02  0.93752742841E+02  0.50000000000E+03  0.47000000000E+01 0. -1.
         -5    1    1    2    0  501 -0.48544441169E+03  0.74377794883E+02 -0.93752742841E+02  0.50000000000E+03  0.47000000000E+01 0.  1.
</event>
<event>
 4    1  0.4933936E-004  0.1000000E+04  0.7546771E-02  0.8684367E-01
         11   -1    0    0    0    0  0.00000000000E+00  0.00000000000E+00  0.50000000000E+03  0.50000000000E+03  0.00000000000E+00 0. -1.
        -11   -1    0    0    0    0 -0.00000000000E+00 -0.00000000000E+00 -0.50000000000E+03  0.50000000000E+03  0.00000000000E+00 0.  1.
          5    1    1    2  501    0 -0.31934793020E+03 -0.14624122488E+03  0.35582062001E+03  0.50000000000E+03  0.47000000000E+01 0. -1.
         -5    1    1    2    0  501  0.31934793020E+03  0.14624122488E+03 -0.35582062001E+03  0.50000000000E+03  0.47000000000E+01 0.  1.
</event>
<event>
 4    1  0.4933936E-004  0.1000000E+04  0.7546771E-02  0.8684367E-01
         11   -1    0    0    0    0  0.00000000000E+00  0.00000000000E+00  0.50000000000E+03  0.50000000000E+03  0.00000000000E+00 0.  1.
        -11   -1    0    0    0    0 -0.00000000000E+00 -0.00000000000E+00 -0.50000000000E+03  0.50000000000E+03  0.00000000000E+00 0. -1.
          5    1    1    2  501    0 -0.12515537242E+03  0.23428086269E+03  0.42358767703E+03  0.50000000000E+03  0.47000000000E+01 0.  1.
         -5    1    1    2    0  501  0.12515537242E+03 -0.23428086269E+03 -0.42358767703E+03  0.50000000000E+03  0.47000000000E+01 0. -1.
</event>
<event>
 4    1  0.4933936E-004  0.1000000E+04  0.7546771E-02  0.8684367E-01
         11   -1    0    0    0    0  0.00000000000E+00  0.00000000000E+00  0.50000000000E+03  0.50000000000E+03  0.00000000000E+00 0.  1.
        -11   -1    0    0    0    0 -0.00000000000E+00 -0.00000000000E+00 -0.50000000000E+03  0.50000000000E+03  0.00000000000E+00 0. -1.
          5    1    1    2  501    0 -0.84689545477E+02  0.18570558531E+03  0.45641979194E+03  0.50000000000E+03  0.47000000000E+01 0.  1.
         -5    1    1    2    0  501  0.84689545477E+02 -0.18570558531E+03 -0.45641979194E+03  0.50000000000E+03  0.47000000000E+01 0. -1.
</event>
<event>
 4    1  0.4933936E-004  0.1000000E+04  0.7546771E-02  0.8684367E-01
         11   -1    0    0    0    0  0.00000000000E+00  0.00000000000E+00  0.50000000000E+03  0.50000000000E+03  0.00000000000E+00 0.  1.
        -11   -1    0    0    0    0 -0.00000000000E+00 -0.00000000000E+00 -0.50000000000E+03  0.50000000000E+03  0.00000000000E+00 0. -1.
          5    1    1    2  501    0 -0.47339794281E+03 -0.14524678330E+03 -0.69106220317E+02  0.50000000000E+03  0.47000000000E+01 0. -1.
         -5    1    1    2    0  501  0.47339794281E+03  0.14524678330E+03  0.69106220317E+02  0.50000000000E+03  0.47000000000E+01 0.  1.
</event>
<event>
 4    1  0.4933936E-004  0.1000000E+04  0.7546771E-02  0.8684367E-01
         11   -1    0    0    0    0  0.00000000000E+00  0.00000000000E+00  0.50000000000E+03  0.50000000000E+03  0.00000000000E+00 0. -1.
        -11   -1    0    0    0    0 -0.00000000000E+00 -0.00000000000E+00 -0.50000000000E+03  0.50000000000E+03  0.00000000000E+00 0.  1.
          5    1    1    2  501    0 -0.49176453431E+03 -0.50408265273E+02  0.74863606570E+02  0.50000000000E+03  0.47000000000E+01 0. -1.
         -5    1    1    2    0  501  0.49176453431E+03  0.50408265273E+02 -0.74863606570E+02  0.50000000000E+03  0.47000000000E+01 0.  1.
</event>
<event>
 4    1  0.4933936E-004  0.1000000E+04  0.7546771E-02  0.8684367E-01
         11   -1    0    0    0    0  0.00000000000E+00  0.00000000000E+00  0.50000000000E+03  0.50000000000E+03  0.00000000000E+00 0. -1.
        -11   -1    0    0    0    0 -0.00000000000E+00 -0.00000000000E+00 -0.50000000000E+03  0.50000000000E+03  0.00000000000E+00 0.  1.
          5    1    1    2  501    0  0.42826542367E+02  0.38320516488E+03  0.31827283717E+03  0.50000000000E+03  0.47000000000E+01 0. -1.
         -5    1    1    2    0  501 -0.42826542367E+02 -0.38320516488E+03 -0.31827283717E+03  0.50000000000E+03  0.47000000000E+01 0.  1.
</event>
<event>
 4    1  0.4933936E-004  0.1000000E+04  0.7546771E-02  0.8684367E-01
         11   -1    0    0    0    0  0.00000000000E+00  0.00000000000E+00  0.50000000000E+03  0.50000000000E+03  0.00000000000E+00 0.  1.
        -11   -1    0    0    0    0 -0.00000000000E+00 -0.00000000000E+00 -0.50000000000E+03  0.50000000000E+03  0.00000000000E+00 0. -1.
          5    1    1    2  501    0  0.40547575422E+02  0.18311306244E+03  0.46346888838E+03  0.50000000000E+03  0.47000000000E+01 0.  1.
         -5    1    1    2    0  501 -0.40547575422E+02 -0.18311306244E+03 -0.46346888838E+03  0.50000000000E+03  0.47000000000E+01 0. -1.
</event>
<event>
 4    1  0.4933936E-004  0.1000000E+04  0.7546771E-02  0.8684367E-01
         11   -1    0    0    0    0  0.00000000000E+00  0.00000000000E+00  0.50000000000E+03  0.50000000000E+03  0.00000000000E+00 0. -1.
        -11   -1    0    0    0    0 -0.00000000000E+00 -0.00000000000E+00 -0.50000000000E+03  0.50000000000E+03  0.00000000000E+00 0.  1.
          5    1    1    2  501    0  0.42476514444E+03  0.24701611675E+02  0.26256868140E+03  0.50000000000E+03  0.47000000000E+01 0. -1.
         -5    1    1    2    0  501 -0.42476514444E+03 -0.24701611675E+02 -0.26256868140E+03  0.50000000000E+03  0.47000000000E+01 0.  1.
</event>
<event>
 4    1  0.4933936E-004  0.1000000E+04  0.7546771E-02  0.8684367E-01
         11   -1    0    0    0    0  0.00000000000E+00  0.00000000000E+00  0.50000000000E+03  0.50000000000E+03  0.00000000000E+00 0. -1.
        -11   -1    0    0    0    0 -0.00000000000E+00 -0.00000000000E+00 -0.50000000000E+03  0.50000000000E+03  0.00000000000E+00 0.  1.
          5    1    1    2  501    0 -0.35397020263E+03 -0.19458015775E+03 -0.29465499803E+03  0.50000000000E+03  0.47000000000E+01 0. -1.
         -5    1    1    2    0  501  0.35397020263E+03  0.19458015775E+03  0.29465499803E+03  0.50000000000E+03  0.47000000000E+01 0.  1.
</event>
<event>
 4    1  0.4933936E-004  0.1000000E+04  0.7546771E-02  0.8684367E-01
         11   -1    0    0    0    0  0.00000000000E+00  0.00000000000E+00  0.50000000000E+03  0.50000000000E+03  0.00000000000E+00 0. -1.
        -11   -1    0    0    0    0 -0.00000000000E+00 -0.00000000000E+00 -0.50000000000E+03  0.50000000000E+03  0.00000000000E+00 0.  1.
          5    1    1    2  501    0 -0.13859903854E+03  0.46606598575E+03  0.11640753173E+03  0.50000000000E+03  0.47000000000E+01 0. -1.
         -5    1    1    2    0  501  0.13859903854E+03 -0.46606598575E+03 -0.11640753173E+03  0.50000000000E+03  0.47000000000E+01 0.  1.
</event>
<event>
 4    1  0.4933936E-004  0.1000000E+04  0.7546771E-02  0.8684367E-01
         11   -1    0    0    0    0  0.00000000000E+00  0.00000000000E+00  0.50000000000E+03  0.50000000000E+03  0.00000000000E+00 0. -1.
        -11   -1    0    0    0    0 -0.00000000000E+00 -0.00000000000E+00 -0.50000000000E+03  0.50000000000E+03  0.00000000000E+00 0.  1.
          5    1    1    2  501    0  0.18845863043E+03 -0.48497863158E+02 -0.46055315859E+03  0.50000000000E+03  0.47000000000E+01 0.  1.
         -5    1    1    2    0  501 -0.18845863043E+03  0.48497863158E+02  0.46055315859E+03  0.50000000000E+03  0.47000000000E+01 0. -1.
</event>
<event>
 4    1  0.4933936E-004  0.1000000E+04  0.7546771E-02  0.8684367E-01
         11   -1    0    0    0    0  0.00000000000E+00  0.00000000000E+00  0.50000000000E+03  0.50000000000E+03  0.00000000000E+00 0. -1.
        -11   -1    0    0    0    0 -0.00000000000E+00 -0.00000000000E+00 -0.50000000000E+03  0.50000000000E+03  0.00000000000E+00 0.  1.
          5    1    1    2  501    0 -0.21371835389E+03  0.39780054565E+03  0.21460918220E+03  0.50000000000E+03  0.47000000000E+01 0. -1.
         -5    1    1    2    0  501  0.21371835389E+03 -0.39780054565E+03 -0.21460918220E+03  0.50000000000E+03  0.47000000000E+01 0.  1.
</event>
<event>
 4    1  0.4933936E-004  0.1000000E+04  0.7546771E-02  0.8684367E-01
         11   -1    0    0    0    0  0.00000000000E+00  0.00000000000E+00  0.50000000000E+03  0.50000000000E+03  0.00000000000E+00 0. -1.
        -11   -1    0    0    0    0 -0.00000000000E+00 -0.00000000000E+00 -0.50000000000E+03  0.50000000000E+03  0.00000000000E+00 0.  1.
          5    1    1    2  501    0  0.53979551289E+01  0.18507992777E+03  0.46442888844E+03  0.50000000000E+03  0.47000000000E+01 0. -1.
         -5    1    1    2    0  501 -0.53979551289E+01 -0.18507992777E+03 -0.46442888844E+03  0.50000000000E+03  0.47000000000E+01 0.  1.
</event>
<event>
 4    1  0.4933936E-004  0.1000000E+04  0.7546771E-02  0.8684367E-01
         11   -1    0    0    0    0  0.00000000000E+00  0.00000000000E+00  0.50000000000E+03  0.50000000000E+03  0.00000000000E+00 0.  1.
        -11   -1    0    0    0    0 -0.00000000000E+00 -0.00000000000E+00 -0.50000000000E+03  0.50000000000E+03  0.00000000000E+00 0. -1.
          5    1    1    2  501    0 -0.47779974437E+03  0.10813791669E+03  0.99957517261E+02  0.50000000000E+03  0.47000000000E+01 0.  1.
         -5    1    1    2    0  501  0.47779974437E+03 -0.10813791669E+03 -0.99957517261E+02  0.50000000000E+03  0.47000000000E+01 0. -1.
</event>
<event>
 4    1  0.4933936E-004  0.1000000E+04  0.7546771E-02  0.8684367E-01
         11   -1    0    0    0    0  0.00000000000E+00  0.00000000000E+00  0.50000000000E+03  0.50000000000E+03  0.00000000000E+00 0. -1.
        -11   -1    0    0    0    0 -0.00000000000E+00 -0.00000000000E+00 -0.50000000000E+03  0.50000000000E+03  0.00000000000E+00 0.  1.
          5    1    1    2  501    0  0.25462057652E+03 -0.42994683069E+03  0.17087855115E+02  0.50000000000E+03  0.47000000000E+01 0. -1.
         -5    1    1    2    0  501 -0.25462057652E+03  0.42994683069E+03 -0.17087855115E+02  0.50000000000E+03  0.47000000000E+01 0.  1.
</event>
<event>
 4    1  0.4933936E-004  0.1000000E+04  0.7546771E-02  0.8684367E-01
         11   -1    0    0    0    0  0.00000000000E+00  0.00000000000E+00  0.50000000000E+03  0.50000000000E+03  0.00000000000E+00 0. -1.
        -11   -1    0    0    0    0 -0.00000000000E+00 -0.00000000000E+00 -0.50000000000E+03  0.50000000000E+03  0.00000000000E+00 0.  1.
          5    1    1    2  501    0  0.12377288523E+03  0.12007639457E+03  0.46929717914E+03  0.50000000000E+03  0.47000000000E+01 0. -1.
         -5    1    1    2    0  501 -0.12377288523E+03 -0.12007639457E+03 -0.46929717914E+03  0.50000000000E+03  0.47000000000E+01 0.  1.
</event>
<event>
 4    1  0.4933936E-004  0.1000000E+04  0.7546771E-02  0.8684367E-01
         11   -1    0    0    0    0  0.00000000000E+00  0.00000000000E+00  0.50000000000E+03  0.50000000000E+03  0.00000000000E+00 0. -1.
        -11   -1    0    0    0    0 -0.00000000000E+00 -0.00000000000E+00 -0.50000000000E+03  0.50000000000E+03  0.00000000000E+00 0.  1.
          5    1    1    2  501    0  0.28056049091E+03  0.26976768234E+03  0.31382976039E+03  0.50000000000E+03  0.47000000000E+01 0. -1.
         -5    1    1    2    0  501 -0.28056049091E+03 -0.26976768234E+03 -0.31382976039E+03  0.50000000000E+03  0.47000000000E+01 0.  1.
</event>
<event>
 4    1  0.4933936E-004  0.1000000E+04  0.7546771E-02  0.8684367E-01
         11   -1    0    0    0    0  0.00000000000E+00  0.00000000000E+00  0.50000000000E+03  0.50000000000E+03  0.00000000000E+00 0. -1.
        -11   -1    0    0    0    0 -0.00000000000E+00 -0.00000000000E+00 -0.50000000000E+03  0.50000000000E+03  0.00000000000E+00 0.  1.
          5    1    1    2  501    0 -0.36936213338E+03 -0.21179248666E+03  0.26209438570E+03  0.50000000000E+03  0.47000000000E+01 0. -1.
         -5    1    1    2    0  501  0.36936213338E+03  0.21179248666E+03 -0.26209438570E+03  0.50000000000E+03  0.47000000000E+01 0.  1.
</event>
<event>
 4    1  0.4933936E-004  0.1000000E+04  0.7546771E-02  0.8684367E-01
         11   -1    0    0    0    0  0.00000000000E+00  0.00000000000E+00  0.50000000000E+03  0.50000000000E+03  0.00000000000E+00 0. -1.
        -11   -1    0    0    0    0 -0.00000000000E+00 -0.00000000000E+00 -0.50000000000E+03  0.50000000000E+03  0.00000000000E+00 0.  1.
          5    1    1    2  501    0 -0.34734657573E+03  0.23278337741E+03  0.27411706538E+03  0.50000000000E+03  0.47000000000E+01 0. -1.
         -5    1    1    2    0  501  0.34734657573E+03 -0.23278337741E+03 -0.27411706538E+03  0.50000000000E+03  0.47000000000E+01 0.  1.
</event>
<event>
 4    1  0.4933936E-004  0.1000000E+04  0.7546771E-02  0.8684367E-01
         11   -1    0    0    0    0  0.00000000000E+00  0.00000000000E+00  0.50000000000E+03  0.50000000000E+03  0.00000000000E+00 0. -1.
        -11   -1    0    0    0    0 -0.00000000000E+00 -0.00000000000E+00 -0.50000000000E+03  0.50000000000E+03  0.00000000000E+00 0.  1.
          5    1    1    2  501    0  0.47355696470E+03 -0.13491070780E+03  0.86722615883E+02  0.50000000000E+03  0.47000000000E+01 0. -1.
         -5    1    1    2    0  501 -0.47355696470E+03  0.13491070780E+03 -0.86722615883E+02  0.50000000000E+03  0.47000000000E+01 0.  1.
</event>
<event>
 4    1  0.4933936E-004  0.1000000E+04  0.7546771E-02  0.8684367E-01
         11   -1    0    0    0    0  0.00000000000E+00  0.00000000000E+00  0.50000000000E+03  0.50000000000E+03  0.00000000000E+00 0. -1.
        -11   -1    0    0    0    0 -0.00000000000E+00 -0.00000000000E+00 -0.50000000000E+03  0.50000000000E+03  0.00000000000E+00 0.  1.
          5    1    1    2  501    0  0.25387613999E+02 -0.49099433315E+03 -0.90873229645E+02  0.50000000000E+03  0.47000000000E+01 0. -1.
         -5    1    1    2    0  501 -0.25387613999E+02  0.49099433315E+03  0.90873229645E+02  0.50000000000E+03  0.47000000000E+01 0.  1.
</event>
<event>
 4    1  0.4933936E-004  0.1000000E+04  0.7546771E-02  0.8684367E-01
         11   -1    0    0    0    0  0.00000000000E+00  0.00000000000E+00  0.50000000000E+03  0.50000000000E+03  0.00000000000E+00 0. -1.
        -11   -1    0    0    0    0 -0.00000000000E+00 -0.00000000000E+00 -0.50000000000E+03  0.50000000000E+03  0.00000000000E+00 0.  1.
          5    1    1    2  501    0 -0.14230426659E+02 -0.10969163843E+03  0.48758911946E+03  0.50000000000E+03  0.47000000000E+01 0. -1.
         -5    1    1    2    0  501  0.14230426659E+02  0.10969163843E+03 -0.48758911946E+03  0.50000000000E+03  0.47000000000E+01 0.  1.
</event>
<event>
 4    1  0.4933936E-004  0.1000000E+04  0.7546771E-02  0.8684367E-01
         11   -1    0    0    0    0  0.00000000000E+00  0.00000000000E+00  0.50000000000E+03  0.50000000000E+03  0.00000000000E+00 0. -1.
        -11   -1    0    0    0    0 -0.00000000000E+00 -0.00000000000E+00 -0.50000000000E+03  0.50000000000E+03  0.00000000000E+00 0.  1.
          5    1    1    2  501    0 -0.28299558555E+03  0.40520593934E+03 -0.75495399086E+02  0.50000000000E+03  0.47000000000E+01 0. -1.
         -5    1    1    2    0  501  0.28299558555E+03 -0.40520593934E+03  0.75495399086E+02  0.50000000000E+03  0.47000000000E+01 0.  1.
</event>
<event>
 4    1  0.4933936E-004  0.1000000E+04  0.7546771E-02  0.8684367E-01
         11   -1    0    0    0    0  0.00000000000E+00  0.00000000000E+00  0.50000000000E+03  0.50000000000E+03  0.00000000000E+00 0. -1.
        -11   -1    0    0    0    0 -0.00000000000E+00 -0.00000000000E+00 -0.50000000000E+03  0.50000000000E+03  0.00000000000E+00 0.  1.
          5    1    1    2  501    0  0.21588239935E+03 -0.21744091885E+03  0.39508498638E+03  0.50000000000E+03  0.47000000000E+01 0. -1.
         -5    1    1    2    0  501 -0.21588239935E+03  0.21744091885E+03 -0.39508498638E+03  0.50000000000E+03  0.47000000000E+01 0.  1.
</event>
<event>
 4    1  0.4933936E-004  0.1000000E+04  0.7546771E-02  0.8684367E-01
         11   -1    0    0    0    0  0.00000000000E+00  0.00000000000E+00  0.50000000000E+03  0.50000000000E+03  0.00000000000E+00 0. -1.
        -11   -1    0    0    0    0 -0.00000000000E+00 -0.00000000000E+00 -0.50000000000E+03  0.50000000000E+03  0.00000000000E+00 0.  1.
          5    1    1    2  501    0 -0.28733480282E+03  0.29646710674E+03  0.28199977963E+03  0.50000000000E+03  0.47000000000E+01 0. -1.
         -5    1    1    2    0  501  0.28733480282E+03 -0.29646710674E+03 -0.28199977963E+03  0.50000000000E+03  0.47000000000E+01 0.  1.
</event>
<event>
 4    1  0.4933936E-004  0.1000000E+04  0.7546771E-02  0.8684367E-01
         11   -1    0    0    0    0  0.00000000000E+00  0.00000000000E+00  0.50000000000E+03  0.50000000000E+03  0.00000000000E+00 0. -1.
        -11   -1    0    0    0    0 -0.00000000000E+00 -0.00000000000E+00 -0.50000000000E+03  0.50000000000E+03  0.00000000000E+00 0.  1.
          5    1    1    2  501    0 -0.31194079558E+03 -0.21352460465E+03  0.32722789194E+03  0.50000000000E+03  0.47000000000E+01 0. -1.
         -5    1    1    2    0  501  0.31194079558E+03  0.21352460465E+03 -0.32722789194E+03  0.50000000000E+03  0.47000000000E+01 0.  1.
</event>
<event>
 4    1  0.4933936E-004  0.1000000E+04  0.7546771E-02  0.8684367E-01
         11   -1    0    0    0    0  0.00000000000E+00  0.00000000000E+00  0.50000000000E+03  0.50000000000E+03  0.00000000000E+00 0. -1.
        -11   -1    0    0    0    0 -0.00000000000E+00 -0.00000000000E+00 -0.50000000000E+03  0.50000000000E+03  0.00000000000E+00 0.  1.
          5    1    1    2  501    0  0.31984433361E+02  0.49820897185E+03 -0.27253006942E+02  0.50000000000E+03  0.47000000000E+01 0. -1.
         -5    1    1    2    0  501 -0.31984433361E+02 -0.49820897185E+03  0.27253006942E+02  0.50000000000E+03  0.47000000000E+01 0.  1.
</event>
<event>
 4    1  0.4933936E-004  0.1000000E+04  0.7546771E-02  0.8684367E-01
         11   -1    0    0    0    0  0.00000000000E+00  0.00000000000E+00  0.50000000000E+03  0.50000000000E+03  0.00000000000E+00 0. -1.
        -11   -1    0    0    0    0 -0.00000000000E+00 -0.00000000000E+00 -0.50000000000E+03  0.50000000000E+03  0.00000000000E+00 0.  1.
          5    1    1    2  501    0  0.51182984676E+02 -0.10797908475E+03 -0.48548813511E+03  0.50000000000E+03  0.47000000000E+01 0.  1.
         -5    1    1    2    0  501 -0.51182984676E+02  0.10797908475E+03  0.48548813511E+03  0.50000000000E+03  0.47000000000E+01 0. -1.
</event>
<event>
 4    1  0.4933936E-004  0.1000000E+04  0.7546771E-02  0.8684367E-01
         11   -1    0    0    0    0  0.00000000000E+00  0.00000000000E+00  0.50000000000E+03  0.50000000000E+03  0.00000000000E+00 0.  1.
        -11   -1    0    0    0    0 -0.00000000000E+00 -0.00000000000E+00 -0.50000000000E+03  0.50000000000E+03  0.00000000000E+00 0. -1.
          5    1    1    2  501    0  0.30162291866E+03  0.37913296848E+03  0.12353022768E+03  0.50000000000E+03  0.47000000000E+01 0.  1.
         -5    1    1    2    0  501 -0.30162291866E+03 -0.37913296848E+03 -0.12353022768E+03  0.50000000000E+03  0.47000000000E+01 0. -1.
</event>
<event>
 4    1  0.4933936E-004  0.1000000E+04  0.7546771E-02  0.8684367E-01
         11   -1    0    0    0    0  0.00000000000E+00  0.00000000000E+00  0.50000000000E+03  0.50000000000E+03  0.00000000000E+00 0. -1.
        -11   -1    0    0    0    0 -0.00000000000E+00 -0.00000000000E+00 -0.50000000000E+03  0.50000000000E+03  0.00000000000E+00 0.  1.
          5    1    1    2  501    0  0.11590596866E+03  0.48356001245E+03 -0.52090601697E+02  0.50000000000E+03  0.47000000000E+01 0. -1.
         -5    1    1    2    0  501 -0.11590596866E+03 -0.48356001245E+03  0.52090601697E+02  0.50000000000E+03  0.47000000000E+01 0.  1.
</event>
<event>
 4    1  0.4933936E-004  0.1000000E+04  0.7546771E-02  0.8684367E-01
         11   -1    0    0    0    0  0.00000000000E+00  0.00000000000E+00  0.50000000000E+03  0.50000000000E+03  0.00000000000E+00 0. -1.
        -11   -1    0    0    0    0 -0.00000000000E+00 -0.00000000000E+00 -0.50000000000E+03  0.50000000000E+03  0.00000000000E+00 0.  1.
          5    1    1    2  501    0  0.23166351386E+03  0.12383871228E+03  0.42541027219E+03  0.50000000000E+03  0.47000000000E+01 0. -1.
         -5    1    1    2    0  501 -0.23166351386E+03 -0.12383871228E+03 -0.42541027219E+03  0.50000000000E+03  0.47000000000E+01 0.  1.
</event>
<event>
 4    1  0.4933936E-004  0.1000000E+04  0.7546771E-02  0.8684367E-01
         11   -1    0    0    0    0  0.00000000000E+00  0.00000000000E+00  0.50000000000E+03  0.50000000000E+03  0.00000000000E+00 0. -1.
        -11   -1    0    0    0    0 -0.00000000000E+00 -0.00000000000E+00 -0.50000000000E+03  0.50000000000E+03  0.00000000000E+00 0.  1.
          5    1    1    2  501    0  0.38486674630E+03  0.30447752834E+02 -0.31769235424E+03  0.50000000000E+03  0.47000000000E+01 0.  1.
         -5    1    1    2    0  501 -0.38486674630E+03 -0.30447752834E+02  0.31769235424E+03  0.50000000000E+03  0.47000000000E+01 0. -1.
</event>
<event>
 4    1  0.4933936E-004  0.1000000E+04  0.7546771E-02  0.8684367E-01
         11   -1    0    0    0    0  0.00000000000E+00  0.00000000000E+00  0.50000000000E+03  0.50000000000E+03  0.00000000000E+00 0. -1.
        -11   -1    0    0    0    0 -0.00000000000E+00 -0.00000000000E+00 -0.50000000000E+03  0.50000000000E+03  0.00000000000E+00 0.  1.
          5    1    1    2  501    0 -0.37016379117E+03  0.44942564739E+01  0.33606023175E+03  0.50000000000E+03  0.47000000000E+01 0. -1.
         -5    1    1    2    0  501  0.37016379117E+03 -0.44942564739E+01 -0.33606023175E+03  0.50000000000E+03  0.47000000000E+01 0.  1.
</event>
<event>
 4    1  0.4933936E-004  0.1000000E+04  0.7546771E-02  0.8684367E-01
         11   -1    0    0    0    0  0.00000000000E+00  0.00000000000E+00  0.50000000000E+03  0.50000000000E+03  0.00000000000E+00 0. -1.
        -11   -1    0    0    0    0 -0.00000000000E+00 -0.00000000000E+00 -0.50000000000E+03  0.50000000000E+03  0.00000000000E+00 0.  1.
          5    1    1    2  501    0 -0.24559279140E+03  0.12766896113E+02  0.43531494021E+03  0.50000000000E+03  0.47000000000E+01 0. -1.
         -5    1    1    2    0  501  0.24559279140E+03 -0.12766896113E+02 -0.43531494021E+03  0.50000000000E+03  0.47000000000E+01 0.  1.
</event>
<event>
 4    1  0.4933936E-004  0.1000000E+04  0.7546771E-02  0.8684367E-01
         11   -1    0    0    0    0  0.00000000000E+00  0.00000000000E+00  0.50000000000E+03  0.50000000000E+03  0.00000000000E+00 0. -1.
        -11   -1    0    0    0    0 -0.00000000000E+00 -0.00000000000E+00 -0.50000000000E+03  0.50000000000E+03  0.00000000000E+00 0.  1.
          5    1    1    2  501    0 -0.39845613744E+03  0.92192125629E+02  0.28759559890E+03  0.50000000000E+03  0.47000000000E+01 0. -1.
         -5    1    1    2    0  501  0.39845613744E+03 -0.92192125629E+02 -0.28759559890E+03  0.50000000000E+03  0.47000000000E+01 0.  1.
</event>
<event>
 4    1  0.4933936E-004  0.1000000E+04  0.7546771E-02  0.8684367E-01
         11   -1    0    0    0    0  0.00000000000E+00  0.00000000000E+00  0.50000000000E+03  0.50000000000E+03  0.00000000000E+00 0. -1.
        -11   -1    0    0    0    0 -0.00000000000E+00 -0.00000000000E+00 -0.50000000000E+03  0.50000000000E+03  0.00000000000E+00 0.  1.
          5    1    1    2  501    0 -0.30038132249E+03 -0.37023404507E+03  0.15058460403E+03  0.50000000000E+03  0.47000000000E+01 0. -1.
         -5    1    1    2    0  501  0.30038132249E+03  0.37023404507E+03 -0.15058460403E+03  0.50000000000E+03  0.47000000000E+01 0.  1.
</event>
<event>
 4    1  0.4933936E-004  0.1000000E+04  0.7546771E-02  0.8684367E-01
         11   -1    0    0    0    0  0.00000000000E+00  0.00000000000E+00  0.50000000000E+03  0.50000000000E+03  0.00000000000E+00 0. -1.
        -11   -1    0    0    0    0 -0.00000000000E+00 -0.00000000000E+00 -0.50000000000E+03  0.50000000000E+03  0.00000000000E+00 0.  1.
          5    1    1    2  501    0  0.25196592545E+03 -0.40268573703E+03 -0.15599769102E+03  0.50000000000E+03  0.47000000000E+01 0. -1.
         -5    1    1    2    0  501 -0.25196592545E+03  0.40268573703E+03  0.15599769102E+03  0.50000000000E+03  0.47000000000E+01 0.  1.
</event>
<event>
 4    1  0.4933936E-004  0.1000000E+04  0.7546771E-02  0.8684367E-01
         11   -1    0    0    0    0  0.00000000000E+00  0.00000000000E+00  0.50000000000E+03  0.50000000000E+03  0.00000000000E+00 0. -1.
        -11   -1    0    0    0    0 -0.00000000000E+00 -0.00000000000E+00 -0.50000000000E+03  0.50000000000E+03  0.00000000000E+00 0.  1.
          5    1    1    2  501    0 -0.19991200527E+03 -0.40250478306E+02  0.45650082053E+03  0.50000000000E+03  0.47000000000E+01 0. -1.
         -5    1    1    2    0  501  0.19991200527E+03  0.40250478306E+02 -0.45650082053E+03  0.50000000000E+03  0.47000000000E+01 0.  1.
</event>
<event>
 4    1  0.4933936E-004  0.1000000E+04  0.7546771E-02  0.8684367E-01
         11   -1    0    0    0    0  0.00000000000E+00  0.00000000000E+00  0.50000000000E+03  0.50000000000E+03  0.00000000000E+00 0. -1.
        -11   -1    0    0    0    0 -0.00000000000E+00 -0.00000000000E+00 -0.50000000000E+03  0.50000000000E+03  0.00000000000E+00 0.  1.
          5    1    1    2  501    0  0.49206709408E+03 -0.16593902164E+02  0.87020269653E+02  0.50000000000E+03  0.47000000000E+01 0. -1.
         -5    1    1    2    0  501 -0.49206709408E+03  0.16593902164E+02 -0.87020269653E+02  0.50000000000E+03  0.47000000000E+01 0.  1.
</event>
<event>
 4    1  0.4933936E-004  0.1000000E+04  0.7546771E-02  0.8684367E-01
         11   -1    0    0    0    0  0.00000000000E+00  0.00000000000E+00  0.50000000000E+03  0.50000000000E+03  0.00000000000E+00 0. -1.
        -11   -1    0    0    0    0 -0.00000000000E+00 -0.00000000000E+00 -0.50000000000E+03  0.50000000000E+03  0.00000000000E+00 0.  1.
          5    1    1    2  501    0  0.23425004930E+03  0.14297963614E+03  0.41792540967E+03  0.50000000000E+03  0.47000000000E+01 0. -1.
         -5    1    1    2    0  501 -0.23425004930E+03 -0.14297963614E+03 -0.41792540967E+03  0.50000000000E+03  0.47000000000E+01 0.  1.
</event>
<event>
 4    1  0.4933936E-004  0.1000000E+04  0.7546771E-02  0.8684367E-01
         11   -1    0    0    0    0  0.00000000000E+00  0.00000000000E+00  0.50000000000E+03  0.50000000000E+03  0.00000000000E+00 0. -1.
        -11   -1    0    0    0    0 -0.00000000000E+00 -0.00000000000E+00 -0.50000000000E+03  0.50000000000E+03  0.00000000000E+00 0.  1.
          5    1    1    2  501    0  0.29399140836E+03  0.39670353764E+03  0.78570128111E+02  0.50000000000E+03  0.47000000000E+01 0. -1.
         -5    1    1    2    0  501 -0.29399140836E+03 -0.39670353764E+03 -0.78570128111E+02  0.50000000000E+03  0.47000000000E+01 0.  1.
</event>
<event>
 4    1  0.4933936E-004  0.1000000E+04  0.7546771E-02  0.8684367E-01
         11   -1    0    0    0    0  0.00000000000E+00  0.00000000000E+00  0.50000000000E+03  0.50000000000E+03  0.00000000000E+00 0. -1.
        -11   -1    0    0    0    0 -0.00000000000E+00 -0.00000000000E+00 -0.50000000000E+03  0.50000000000E+03  0.00000000000E+00 0.  1.
          5    1    1    2  501    0  0.21940456746E+03 -0.44626376570E+03 -0.51847827307E+02  0.50000000000E+03  0.47000000000E+01 0. -1.
         -5    1    1    2    0  501 -0.21940456746E+03  0.44626376570E+03  0.51847827307E+02  0.50000000000E+03  0.47000000000E+01 0.  1.
</event>
<event>
 4    1  0.4933936E-004  0.1000000E+04  0.7546771E-02  0.8684367E-01
         11   -1    0    0    0    0  0.00000000000E+00  0.00000000000E+00  0.50000000000E+03  0.50000000000E+03  0.00000000000E+00 0. -1.
        -11   -1    0    0    0    0 -0.00000000000E+00 -0.00000000000E+00 -0.50000000000E+03  0.50000000000E+03  0.00000000000E+00 0.  1.
          5    1    1    2  501    0 -0.48854326827E+03  0.10232265826E+03  0.28869683621E+02  0.50000000000E+03  0.47000000000E+01 0. -1.
         -5    1    1    2    0  501  0.48854326827E+03 -0.10232265826E+03 -0.28869683621E+02  0.50000000000E+03  0.47000000000E+01 0.  1.
</event>
<event>
 4    1  0.4933936E-004  0.1000000E+04  0.7546771E-02  0.8684367E-01
         11   -1    0    0    0    0  0.00000000000E+00  0.00000000000E+00  0.50000000000E+03  0.50000000000E+03  0.00000000000E+00 0. -1.
        -11   -1    0    0    0    0 -0.00000000000E+00 -0.00000000000E+00 -0.50000000000E+03  0.50000000000E+03  0.00000000000E+00 0.  1.
          5    1    1    2  501    0 -0.45654848818E+03  0.19488971598E+03 -0.59660594579E+02  0.50000000000E+03  0.47000000000E+01 0. -1.
         -5    1    1    2    0  501  0.45654848818E+03 -0.19488971598E+03  0.59660594579E+02  0.50000000000E+03  0.47000000000E+01 0.  1.
</event>
<event>
 4    1  0.4933936E-004  0.1000000E+04  0.7546771E-02  0.8684367E-01
         11   -1    0    0    0    0  0.00000000000E+00  0.00000000000E+00  0.50000000000E+03  0.50000000000E+03  0.00000000000E+00 0. -1.
        -11   -1    0    0    0    0 -0.00000000000E+00 -0.00000000000E+00 -0.50000000000E+03  0.50000000000E+03  0.00000000000E+00 0.  1.
          5    1    1    2  501    0 -0.20918029866E+03 -0.32568854096E+03  0.31646245740E+03  0.50000000000E+03  0.47000000000E+01 0. -1.
         -5    1    1    2    0  501  0.20918029866E+03  0.32568854096E+03 -0.31646245740E+03  0.50000000000E+03  0.47000000000E+01 0.  1.
</event>
<event>
 4    1  0.4933936E-004  0.1000000E+04  0.7546771E-02  0.8684367E-01
         11   -1    0    0    0    0  0.00000000000E+00  0.00000000000E+00  0.50000000000E+03  0.50000000000E+03  0.00000000000E+00 0. -1.
        -11   -1    0    0    0    0 -0.00000000000E+00 -0.00000000000E+00 -0.50000000000E+03  0.50000000000E+03  0.00000000000E+00 0.  1.
          5    1    1    2  501    0 -0.31577557455E+03 -0.26161540682E+03  0.28604383481E+03  0.50000000000E+03  0.47000000000E+01 0. -1.
         -5    1    1    2    0  501  0.31577557455E+03  0.26161540682E+03 -0.28604383481E+03  0.50000000000E+03  0.47000000000E+01 0.  1.
</event>
<event>
 4    1  0.4933936E-004  0.1000000E+04  0.7546771E-02  0.8684367E-01
         11   -1    0    0    0    0  0.00000000000E+00  0.00000000000E+00  0.50000000000E+03  0.50000000000E+03  0.00000000000E+00 0. -1.
        -11   -1    0    0    0    0 -0.00000000000E+00 -0.00000000000E+00 -0.50000000000E+03  0.50000000000E+03  0.00000000000E+00 0.  1.
          5    1    1    2  501    0 -0.48045178862E+03  0.98834854158E+02 -0.96827993983E+02  0.50000000000E+03  0.47000000000E+01 0. -1.
         -5    1    1    2    0  501  0.48045178862E+03 -0.98834854158E+02  0.96827993983E+02  0.50000000000E+03  0.47000000000E+01 0.  1.
</event>
<event>
 4    1  0.4933936E-004  0.1000000E+04  0.7546771E-02  0.8684367E-01
         11   -1    0    0    0    0  0.00000000000E+00  0.00000000000E+00  0.50000000000E+03  0.50000000000E+03  0.00000000000E+00 0. -1.
        -11   -1    0    0    0    0 -0.00000000000E+00 -0.00000000000E+00 -0.50000000000E+03  0.50000000000E+03  0.00000000000E+00 0.  1.
          5    1    1    2  501    0  0.53210342898E+02  0.44025010561E+03  0.23092512623E+03  0.50000000000E+03  0.47000000000E+01 0. -1.
         -5    1    1    2    0  501 -0.53210342898E+02 -0.44025010561E+03 -0.23092512623E+03  0.50000000000E+03  0.47000000000E+01 0.  1.
</event>
<event>
 4    1  0.4933936E-004  0.1000000E+04  0.7546771E-02  0.8684367E-01
         11   -1    0    0    0    0  0.00000000000E+00  0.00000000000E+00  0.50000000000E+03  0.50000000000E+03  0.00000000000E+00 0. -1.
        -11   -1    0    0    0    0 -0.00000000000E+00 -0.00000000000E+00 -0.50000000000E+03  0.50000000000E+03  0.00000000000E+00 0.  1.
          5    1    1    2  501    0  0.29686899846E+02  0.49139808322E+03 -0.87318507699E+02  0.50000000000E+03  0.47000000000E+01 0. -1.
         -5    1    1    2    0  501 -0.29686899846E+02 -0.49139808322E+03  0.87318507699E+02  0.50000000000E+03  0.47000000000E+01 0.  1.
</event>
<event>
 4    1  0.4933936E-004  0.1000000E+04  0.7546771E-02  0.8684367E-01
         11   -1    0    0    0    0  0.00000000000E+00  0.00000000000E+00  0.50000000000E+03  0.50000000000E+03  0.00000000000E+00 0. -1.
        -11   -1    0    0    0    0 -0.00000000000E+00 -0.00000000000E+00 -0.50000000000E+03  0.50000000000E+03  0.00000000000E+00 0.  1.
          5    1    1    2  501    0  0.48026900559E+03  0.13875783952E+03  0.81150624190E+01  0.50000000000E+03  0.47000000000E+01 0. -1.
         -5    1    1    2    0  501 -0.48026900559E+03 -0.13875783952E+03 -0.81150624190E+01  0.50000000000E+03  0.47000000000E+01 0.  1.
</event>
<event>
 4    1  0.4933936E-004  0.1000000E+04  0.7546771E-02  0.8684367E-01
         11   -1    0    0    0    0  0.00000000000E+00  0.00000000000E+00  0.50000000000E+03  0.50000000000E+03  0.00000000000E+00 0. -1.
        -11   -1    0    0    0    0 -0.00000000000E+00 -0.00000000000E+00 -0.50000000000E+03  0.50000000000E+03  0.00000000000E+00 0.  1.
          5    1    1    2  501    0 -0.48950680029E+02  0.45107712587E+03  0.21002658746E+03  0.50000000000E+03  0.47000000000E+01 0. -1.
         -5    1    1    2    0  501  0.48950680029E+02 -0.45107712587E+03 -0.21002658746E+03  0.50000000000E+03  0.47000000000E+01 0.  1.
</event>
<event>
 4    1  0.4933936E-004  0.1000000E+04  0.7546771E-02  0.8684367E-01
         11   -1    0    0    0    0  0.00000000000E+00  0.00000000000E+00  0.50000000000E+03  0.50000000000E+03  0.00000000000E+00 0.  1.
        -11   -1    0    0    0    0 -0.00000000000E+00 -0.00000000000E+00 -0.50000000000E+03  0.50000000000E+03  0.00000000000E+00 0. -1.
          5    1    1    2  501    0 -0.57880406634E+02  0.33400659333E+02  0.49549184099E+03  0.50000000000E+03  0.47000000000E+01 0.  1.
         -5    1    1    2    0  501  0.57880406634E+02 -0.33400659333E+02 -0.49549184099E+03  0.50000000000E+03  0.47000000000E+01 0. -1.
</event>
<event>
 4    1  0.4933936E-004  0.1000000E+04  0.7546771E-02  0.8684367E-01
         11   -1    0    0    0    0  0.00000000000E+00  0.00000000000E+00  0.50000000000E+03  0.50000000000E+03  0.00000000000E+00 0. -1.
        -11   -1    0    0    0    0 -0.00000000000E+00 -0.00000000000E+00 -0.50000000000E+03  0.50000000000E+03  0.00000000000E+00 0.  1.
          5    1    1    2  501    0  0.42923821892E+03 -0.78159483094E+01 -0.25626426277E+03  0.50000000000E+03  0.47000000000E+01 0. -1.
         -5    1    1    2    0  501 -0.42923821892E+03  0.78159483094E+01  0.25626426277E+03  0.50000000000E+03  0.47000000000E+01 0.  1.
</event>
<event>
 4    1  0.4933936E-004  0.1000000E+04  0.7546771E-02  0.8684367E-01
         11   -1    0    0    0    0  0.00000000000E+00  0.00000000000E+00  0.50000000000E+03  0.50000000000E+03  0.00000000000E+00 0. -1.
        -11   -1    0    0    0    0 -0.00000000000E+00 -0.00000000000E+00 -0.50000000000E+03  0.50000000000E+03  0.00000000000E+00 0.  1.
          5    1    1    2  501    0  0.10187341250E+03 -0.43949022162E+03  0.21551812667E+03  0.50000000000E+03  0.47000000000E+01 0. -1.
         -5    1    1    2    0  501 -0.10187341250E+03  0.43949022162E+03 -0.21551812667E+03  0.50000000000E+03  0.47000000000E+01 0.  1.
</event>
<event>
 4    1  0.4933936E-004  0.1000000E+04  0.7546771E-02  0.8684367E-01
         11   -1    0    0    0    0  0.00000000000E+00  0.00000000000E+00  0.50000000000E+03  0.50000000000E+03  0.00000000000E+00 0. -1.
        -11   -1    0    0    0    0 -0.00000000000E+00 -0.00000000000E+00 -0.50000000000E+03  0.50000000000E+03  0.00000000000E+00 0.  1.
          5    1    1    2  501    0 -0.37354337695E+03 -0.37647430931E+02  0.33019074258E+03  0.50000000000E+03  0.47000000000E+01 0. -1.
         -5    1    1    2    0  501  0.37354337695E+03  0.37647430931E+02 -0.33019074258E+03  0.50000000000E+03  0.47000000000E+01 0.  1.
</event>
<event>
 4    1  0.4933936E-004  0.1000000E+04  0.7546771E-02  0.8684367E-01
         11   -1    0    0    0    0  0.00000000000E+00  0.00000000000E+00  0.50000000000E+03  0.50000000000E+03  0.00000000000E+00 0. -1.
        -11   -1    0    0    0    0 -0.00000000000E+00 -0.00000000000E+00 -0.50000000000E+03  0.50000000000E+03  0.00000000000E+00 0.  1.
          5    1    1    2  501    0 -0.25264358821E+03  0.23656005784E+03  0.36081638873E+03  0.50000000000E+03  0.47000000000E+01 0. -1.
         -5    1    1    2    0  501  0.25264358821E+03 -0.23656005784E+03 -0.36081638873E+03  0.50000000000E+03  0.47000000000E+01 0.  1.
</event>
<event>
 4    1  0.4933936E-004  0.1000000E+04  0.7546771E-02  0.8684367E-01
         11   -1    0    0    0    0  0.00000000000E+00  0.00000000000E+00  0.50000000000E+03  0.50000000000E+03  0.00000000000E+00 0. -1.
        -11   -1    0    0    0    0 -0.00000000000E+00 -0.00000000000E+00 -0.50000000000E+03  0.50000000000E+03  0.00000000000E+00 0.  1.
          5    1    1    2  501    0 -0.27121192095E+03  0.30620014962E+03  0.28751256026E+03  0.50000000000E+03  0.47000000000E+01 0. -1.
         -5    1    1    2    0  501  0.27121192095E+03 -0.30620014962E+03 -0.28751256026E+03  0.50000000000E+03  0.47000000000E+01 0.  1.
</event>
<event>
 4    1  0.4933936E-004  0.1000000E+04  0.7546771E-02  0.8684367E-01
         11   -1    0    0    0    0  0.00000000000E+00  0.00000000000E+00  0.50000000000E+03  0.50000000000E+03  0.00000000000E+00 0. -1.
        -11   -1    0    0    0    0 -0.00000000000E+00 -0.00000000000E+00 -0.50000000000E+03  0.50000000000E+03  0.00000000000E+00 0.  1.
          5    1    1    2  501    0 -0.37341635165E+03 -0.29194092283E+03  0.15908688160E+03  0.50000000000E+03  0.47000000000E+01 0. -1.
         -5    1    1    2    0  501  0.37341635165E+03  0.29194092283E+03 -0.15908688160E+03  0.50000000000E+03  0.47000000000E+01 0.  1.
</event>
<event>
 4    1  0.4933936E-004  0.1000000E+04  0.7546771E-02  0.8684367E-01
         11   -1    0    0    0    0  0.00000000000E+00  0.00000000000E+00  0.50000000000E+03  0.50000000000E+03  0.00000000000E+00 0. -1.
        -11   -1    0    0    0    0 -0.00000000000E+00 -0.00000000000E+00 -0.50000000000E+03  0.50000000000E+03  0.00000000000E+00 0.  1.
          5    1    1    2  501    0  0.38626362489E+03 -0.26950339289E+03  0.16776842167E+03  0.50000000000E+03  0.47000000000E+01 0. -1.
         -5    1    1    2    0  501 -0.38626362489E+03  0.26950339289E+03 -0.16776842167E+03  0.50000000000E+03  0.47000000000E+01 0.  1.
</event>
<event>
 4    1  0.4933936E-004  0.1000000E+04  0.7546771E-02  0.8684367E-01
         11   -1    0    0    0    0  0.00000000000E+00  0.00000000000E+00  0.50000000000E+03  0.50000000000E+03  0.00000000000E+00 0. -1.
        -11   -1    0    0    0    0 -0.00000000000E+00 -0.00000000000E+00 -0.50000000000E+03  0.50000000000E+03  0.00000000000E+00 0.  1.
          5    1    1    2  501    0  0.41405699619E+03 -0.69305436221E+02  0.27153539441E+03  0.50000000000E+03  0.47000000000E+01 0. -1.
         -5    1    1    2    0  501 -0.41405699619E+03  0.69305436221E+02 -0.27153539441E+03  0.50000000000E+03  0.47000000000E+01 0.  1.
</event>
<event>
 4    1  0.4933936E-004  0.1000000E+04  0.7546771E-02  0.8684367E-01
         11   -1    0    0    0    0  0.00000000000E+00  0.00000000000E+00  0.50000000000E+03  0.50000000000E+03  0.00000000000E+00 0. -1.
        -11   -1    0    0    0    0 -0.00000000000E+00 -0.00000000000E+00 -0.50000000000E+03  0.50000000000E+03  0.00000000000E+00 0.  1.
          5    1    1    2  501    0  0.32651195301E+03 -0.96021774703E+02  0.36626175521E+03  0.50000000000E+03  0.47000000000E+01 0. -1.
         -5    1    1    2    0  501 -0.32651195301E+03  0.96021774703E+02 -0.36626175521E+03  0.50000000000E+03  0.47000000000E+01 0.  1.
</event>
<event>
 4    1  0.4933936E-004  0.1000000E+04  0.7546771E-02  0.8684367E-01
         11   -1    0    0    0    0  0.00000000000E+00  0.00000000000E+00  0.50000000000E+03  0.50000000000E+03  0.00000000000E+00 0. -1.
        -11   -1    0    0    0    0 -0.00000000000E+00 -0.00000000000E+00 -0.50000000000E+03  0.50000000000E+03  0.00000000000E+00 0.  1.
          5    1    1    2  501    0  0.37381507772E+03 -0.13207834844E+03  0.30462355054E+03  0.50000000000E+03  0.47000000000E+01 0. -1.
         -5    1    1    2    0  501 -0.37381507772E+03  0.13207834844E+03 -0.30462355054E+03  0.50000000000E+03  0.47000000000E+01 0.  1.
</event>
<event>
 4    1  0.4933936E-004  0.1000000E+04  0.7546771E-02  0.8684367E-01
         11   -1    0    0    0    0  0.00000000000E+00  0.00000000000E+00  0.50000000000E+03  0.50000000000E+03  0.00000000000E+00 0. -1.
        -11   -1    0    0    0    0 -0.00000000000E+00 -0.00000000000E+00 -0.50000000000E+03  0.50000000000E+03  0.00000000000E+00 0.  1.
          5    1    1    2  501    0 -0.30659474264E+03  0.14363111273E+03  0.36789628598E+03  0.50000000000E+03  0.47000000000E+01 0. -1.
         -5    1    1    2    0  501  0.30659474264E+03 -0.14363111273E+03 -0.36789628598E+03  0.50000000000E+03  0.47000000000E+01 0.  1.
</event>
<event>
 4    1  0.4933936E-004  0.1000000E+04  0.7546771E-02  0.8684367E-01
         11   -1    0    0    0    0  0.00000000000E+00  0.00000000000E+00  0.50000000000E+03  0.50000000000E+03  0.00000000000E+00 0. -1.
        -11   -1    0    0    0    0 -0.00000000000E+00 -0.00000000000E+00 -0.50000000000E+03  0.50000000000E+03  0.00000000000E+00 0.  1.
          5    1    1    2  501    0  0.54800519933E+02  0.39493207265E+03  0.30166781566E+03  0.50000000000E+03  0.47000000000E+01 0. -1.
         -5    1    1    2    0  501 -0.54800519933E+02 -0.39493207265E+03 -0.30166781566E+03  0.50000000000E+03  0.47000000000E+01 0.  1.
</event>
<event>
 4    1  0.4933936E-004  0.1000000E+04  0.7546771E-02  0.8684367E-01
         11   -1    0    0    0    0  0.00000000000E+00  0.00000000000E+00  0.50000000000E+03  0.50000000000E+03  0.00000000000E+00 0. -1.
        -11   -1    0    0    0    0 -0.00000000000E+00 -0.00000000000E+00 -0.50000000000E+03  0.50000000000E+03  0.00000000000E+00 0.  1.
          5    1    1    2  501    0  0.27396172521E+01  0.49939474630E+03  0.23985242628E+02  0.50000000000E+03  0.47000000000E+01 0. -1.
         -5    1    1    2    0  501 -0.27396172521E+01 -0.49939474630E+03 -0.23985242628E+02  0.50000000000E+03  0.47000000000E+01 0.  1.
</event>
<event>
 4    1  0.4933936E-004  0.1000000E+04  0.7546771E-02  0.8684367E-01
         11   -1    0    0    0    0  0.00000000000E+00  0.00000000000E+00  0.50000000000E+03  0.50000000000E+03  0.00000000000E+00 0. -1.
        -11   -1    0    0    0    0 -0.00000000000E+00 -0.00000000000E+00 -0.50000000000E+03  0.50000000000E+03  0.00000000000E+00 0.  1.
          5    1    1    2  501    0 -0.25491756898E+03 -0.42910069561E+03  0.29453964989E+02  0.50000000000E+03  0.47000000000E+01 0. -1.
         -5    1    1    2    0  501  0.25491756898E+03  0.42910069561E+03 -0.29453964989E+02  0.50000000000E+03  0.47000000000E+01 0.  1.
</event>
<event>
 4    1  0.4933936E-004  0.1000000E+04  0.7546771E-02  0.8684367E-01
         11   -1    0    0    0    0  0.00000000000E+00  0.00000000000E+00  0.50000000000E+03  0.50000000000E+03  0.00000000000E+00 0.  1.
        -11   -1    0    0    0    0 -0.00000000000E+00 -0.00000000000E+00 -0.50000000000E+03  0.50000000000E+03  0.00000000000E+00 0. -1.
          5    1    1    2  501    0 -0.35698079877E+03  0.29361632794E+03 -0.19060973553E+03  0.50000000000E+03  0.47000000000E+01 0. -1.
         -5    1    1    2    0  501  0.35698079877E+03 -0.29361632794E+03  0.19060973553E+03  0.50000000000E+03  0.47000000000E+01 0.  1.
</event>
<event>
 4    1  0.4933936E-004  0.1000000E+04  0.7546771E-02  0.8684367E-01
         11   -1    0    0    0    0  0.00000000000E+00  0.00000000000E+00  0.50000000000E+03  0.50000000000E+03  0.00000000000E+00 0.  1.
        -11   -1    0    0    0    0 -0.00000000000E+00 -0.00000000000E+00 -0.50000000000E+03  0.50000000000E+03  0.00000000000E+00 0. -1.
          5    1    1    2  501    0  0.10136880491E+03  0.34529937418E+03  0.34708877478E+03  0.50000000000E+03  0.47000000000E+01 0.  1.
         -5    1    1    2    0  501 -0.10136880491E+03 -0.34529937418E+03 -0.34708877478E+03  0.50000000000E+03  0.47000000000E+01 0. -1.
</event>
<event>
 4    1  0.4933936E-004  0.1000000E+04  0.7546771E-02  0.8684367E-01
         11   -1    0    0    0    0  0.00000000000E+00  0.00000000000E+00  0.50000000000E+03  0.50000000000E+03  0.00000000000E+00 0. -1.
        -11   -1    0    0    0    0 -0.00000000000E+00 -0.00000000000E+00 -0.50000000000E+03  0.50000000000E+03  0.00000000000E+00 0.  1.
          5    1    1    2  501    0  0.14182107238E+03  0.26461280802E+03  0.39980589698E+03  0.50000000000E+03  0.47000000000E+01 0. -1.
         -5    1    1    2    0  501 -0.14182107238E+03 -0.26461280802E+03 -0.39980589698E+03  0.50000000000E+03  0.47000000000E+01 0.  1.
</event>
<event>
 4    1  0.4933936E-004  0.1000000E+04  0.7546771E-02  0.8684367E-01
         11   -1    0    0    0    0  0.00000000000E+00  0.00000000000E+00  0.50000000000E+03  0.50000000000E+03  0.00000000000E+00 0. -1.
        -11   -1    0    0    0    0 -0.00000000000E+00 -0.00000000000E+00 -0.50000000000E+03  0.50000000000E+03  0.00000000000E+00 0.  1.
          5    1    1    2  501    0  0.31311165611E+03 -0.37848671412E+03  0.93203047395E+02  0.50000000000E+03  0.47000000000E+01 0. -1.
         -5    1    1    2    0  501 -0.31311165611E+03  0.37848671412E+03 -0.93203047395E+02  0.50000000000E+03  0.47000000000E+01 0.  1.
</event>
<event>
 4    1  0.4933936E-004  0.1000000E+04  0.7546771E-02  0.8684367E-01
         11   -1    0    0    0    0  0.00000000000E+00  0.00000000000E+00  0.50000000000E+03  0.50000000000E+03  0.00000000000E+00 0. -1.
        -11   -1    0    0    0    0 -0.00000000000E+00 -0.00000000000E+00 -0.50000000000E+03  0.50000000000E+03  0.00000000000E+00 0.  1.
          5    1    1    2  501    0  0.30537316688E+03 -0.26618048739E+03  0.29304110135E+03  0.50000000000E+03  0.47000000000E+01 0. -1.
         -5    1    1    2    0  501 -0.30537316688E+03  0.26618048739E+03 -0.29304110135E+03  0.50000000000E+03  0.47000000000E+01 0.  1.
</event>
<event>
 4    1  0.4933936E-004  0.1000000E+04  0.7546771E-02  0.8684367E-01
         11   -1    0    0    0    0  0.00000000000E+00  0.00000000000E+00  0.50000000000E+03  0.50000000000E+03  0.00000000000E+00 0. -1.
        -11   -1    0    0    0    0 -0.00000000000E+00 -0.00000000000E+00 -0.50000000000E+03  0.50000000000E+03  0.00000000000E+00 0.  1.
          5    1    1    2  501    0 -0.22651843509E+03 -0.38864212203E+03  0.21823063385E+03  0.50000000000E+03  0.47000000000E+01 0. -1.
         -5    1    1    2    0  501  0.22651843509E+03  0.38864212203E+03 -0.21823063385E+03  0.50000000000E+03  0.47000000000E+01 0.  1.
</event>
<event>
 4    1  0.4933936E-004  0.1000000E+04  0.7546771E-02  0.8684367E-01
         11   -1    0    0    0    0  0.00000000000E+00  0.00000000000E+00  0.50000000000E+03  0.50000000000E+03  0.00000000000E+00 0. -1.
        -11   -1    0    0    0    0 -0.00000000000E+00 -0.00000000000E+00 -0.50000000000E+03  0.50000000000E+03  0.00000000000E+00 0.  1.
          5    1    1    2  501    0  0.24854668645E+03 -0.11295833107E+03  0.41885900981E+03  0.50000000000E+03  0.47000000000E+01 0. -1.
         -5    1    1    2    0  501 -0.24854668645E+03  0.11295833107E+03 -0.41885900981E+03  0.50000000000E+03  0.47000000000E+01 0.  1.
</event>
<event>
 4    1  0.4933936E-004  0.1000000E+04  0.7546771E-02  0.8684367E-01
         11   -1    0    0    0    0  0.00000000000E+00  0.00000000000E+00  0.50000000000E+03  0.50000000000E+03  0.00000000000E+00 0.  1.
        -11   -1    0    0    0    0 -0.00000000000E+00 -0.00000000000E+00 -0.50000000000E+03  0.50000000000E+03  0.00000000000E+00 0. -1.
          5    1    1    2  501    0  0.40951368269E+03  0.20194594045E+03  0.20370147478E+03  0.50000000000E+03  0.47000000000E+01 0.  1.
         -5    1    1    2    0  501 -0.40951368269E+03 -0.20194594045E+03 -0.20370147478E+03  0.50000000000E+03  0.47000000000E+01 0. -1.
</event>
<event>
 4    1  0.4933936E-004  0.1000000E+04  0.7546771E-02  0.8684367E-01
         11   -1    0    0    0    0  0.00000000000E+00  0.00000000000E+00  0.50000000000E+03  0.50000000000E+03  0.00000000000E+00 0. -1.
        -11   -1    0    0    0    0 -0.00000000000E+00 -0.00000000000E+00 -0.50000000000E+03  0.50000000000E+03  0.00000000000E+00 0.  1.
          5    1    1    2  501    0  0.39424419417E+03  0.71061449722E+02  0.29916499749E+03  0.50000000000E+03  0.47000000000E+01 0. -1.
         -5    1    1    2    0  501 -0.39424419417E+03 -0.71061449722E+02 -0.29916499749E+03  0.50000000000E+03  0.47000000000E+01 0.  1.
</event>
<event>
 4    1  0.4933936E-004  0.1000000E+04  0.7546771E-02  0.8684367E-01
         11   -1    0    0    0    0  0.00000000000E+00  0.00000000000E+00  0.50000000000E+03  0.50000000000E+03  0.00000000000E+00 0.  1.
        -11   -1    0    0    0    0 -0.00000000000E+00 -0.00000000000E+00 -0.50000000000E+03  0.50000000000E+03  0.00000000000E+00 0. -1.
          5    1    1    2  501    0  0.49958494017E+02 -0.30389210314E+03 -0.39386755201E+03  0.50000000000E+03  0.47000000000E+01 0. -1.
         -5    1    1    2    0  501 -0.49958494017E+02  0.30389210314E+03  0.39386755201E+03  0.50000000000E+03  0.47000000000E+01 0.  1.
</event>
<event>
 4    1  0.4933936E-004  0.1000000E+04  0.7546771E-02  0.8684367E-01
         11   -1    0    0    0    0  0.00000000000E+00  0.00000000000E+00  0.50000000000E+03  0.50000000000E+03  0.00000000000E+00 0.  1.
        -11   -1    0    0    0    0 -0.00000000000E+00 -0.00000000000E+00 -0.50000000000E+03  0.50000000000E+03  0.00000000000E+00 0. -1.
          5    1    1    2  501    0  0.44559216658E+03 -0.15093737956E+03  0.16924372525E+03  0.50000000000E+03  0.47000000000E+01 0.  1.
         -5    1    1    2    0  501 -0.44559216658E+03  0.15093737956E+03 -0.16924372525E+03  0.50000000000E+03  0.47000000000E+01 0. -1.
</event>
<event>
 4    1  0.4933936E-004  0.1000000E+04  0.7546771E-02  0.8684367E-01
         11   -1    0    0    0    0  0.00000000000E+00  0.00000000000E+00  0.50000000000E+03  0.50000000000E+03  0.00000000000E+00 0. -1.
        -11   -1    0    0    0    0 -0.00000000000E+00 -0.00000000000E+00 -0.50000000000E+03  0.50000000000E+03  0.00000000000E+00 0.  1.
          5    1    1    2  501    0 -0.15137011660E+03  0.23974939956E+03 -0.41180726464E+03  0.50000000000E+03  0.47000000000E+01 0.  1.
         -5    1    1    2    0  501  0.15137011660E+03 -0.23974939956E+03  0.41180726464E+03  0.50000000000E+03  0.47000000000E+01 0. -1.
</event>
<event>
 4    1  0.4933936E-004  0.1000000E+04  0.7546771E-02  0.8684367E-01
         11   -1    0    0    0    0  0.00000000000E+00  0.00000000000E+00  0.50000000000E+03  0.50000000000E+03  0.00000000000E+00 0. -1.
        -11   -1    0    0    0    0 -0.00000000000E+00 -0.00000000000E+00 -0.50000000000E+03  0.50000000000E+03  0.00000000000E+00 0.  1.
          5    1    1    2  501    0  0.37928375746E+03  0.21662818346E+03  0.24329811231E+03  0.50000000000E+03  0.47000000000E+01 0. -1.
         -5    1    1    2    0  501 -0.37928375746E+03 -0.21662818346E+03 -0.24329811231E+03  0.50000000000E+03  0.47000000000E+01 0.  1.
</event>
<event>
 4    1  0.4933936E-004  0.1000000E+04  0.7546771E-02  0.8684367E-01
         11   -1    0    0    0    0  0.00000000000E+00  0.00000000000E+00  0.50000000000E+03  0.50000000000E+03  0.00000000000E+00 0.  1.
        -11   -1    0    0    0    0 -0.00000000000E+00 -0.00000000000E+00 -0.50000000000E+03  0.50000000000E+03  0.00000000000E+00 0. -1.
          5    1    1    2  501    0  0.12381378362E+03 -0.45996615905E+02  0.48221610126E+03  0.50000000000E+03  0.47000000000E+01 0.  1.
         -5    1    1    2    0  501 -0.12381378362E+03  0.45996615905E+02 -0.48221610126E+03  0.50000000000E+03  0.47000000000E+01 0. -1.
</event>
<event>
 4    1  0.4933936E-004  0.1000000E+04  0.7546771E-02  0.8684367E-01
         11   -1    0    0    0    0  0.00000000000E+00  0.00000000000E+00  0.50000000000E+03  0.50000000000E+03  0.00000000000E+00 0. -1.
        -11   -1    0    0    0    0 -0.00000000000E+00 -0.00000000000E+00 -0.50000000000E+03  0.50000000000E+03  0.00000000000E+00 0.  1.
          5    1    1    2  501    0  0.33052987947E+03 -0.22869786001E+03  0.29736374628E+03  0.50000000000E+03  0.47000000000E+01 0. -1.
         -5    1    1    2    0  501 -0.33052987947E+03  0.22869786001E+03 -0.29736374628E+03  0.50000000000E+03  0.47000000000E+01 0.  1.
</event>
<event>
 4    1  0.4933936E-004  0.1000000E+04  0.7546771E-02  0.8684367E-01
         11   -1    0    0    0    0  0.00000000000E+00  0.00000000000E+00  0.50000000000E+03  0.50000000000E+03  0.00000000000E+00 0.  1.
        -11   -1    0    0    0    0 -0.00000000000E+00 -0.00000000000E+00 -0.50000000000E+03  0.50000000000E+03  0.00000000000E+00 0. -1.
          5    1    1    2  501    0  0.40737993379E+03 -0.42656336012E+02  0.28670531307E+03  0.50000000000E+03  0.47000000000E+01 0.  1.
         -5    1    1    2    0  501 -0.40737993379E+03  0.42656336012E+02 -0.28670531307E+03  0.50000000000E+03  0.47000000000E+01 0. -1.
</event>
<event>
 4    1  0.4933936E-004  0.1000000E+04  0.7546771E-02  0.8684367E-01
         11   -1    0    0    0    0  0.00000000000E+00  0.00000000000E+00  0.50000000000E+03  0.50000000000E+03  0.00000000000E+00 0. -1.
        -11   -1    0    0    0    0 -0.00000000000E+00 -0.00000000000E+00 -0.50000000000E+03  0.50000000000E+03  0.00000000000E+00 0.  1.
          5    1    1    2  501    0  0.49111580318E+03 -0.64346581842E+02  0.68137326602E+02  0.50000000000E+03  0.47000000000E+01 0. -1.
         -5    1    1    2    0  501 -0.49111580318E+03  0.64346581842E+02 -0.68137326602E+02  0.50000000000E+03  0.47000000000E+01 0.  1.
</event>
<event>
 4    1  0.4933936E-004  0.1000000E+04  0.7546771E-02  0.8684367E-01
         11   -1    0    0    0    0  0.00000000000E+00  0.00000000000E+00  0.50000000000E+03  0.50000000000E+03  0.00000000000E+00 0. -1.
        -11   -1    0    0    0    0 -0.00000000000E+00 -0.00000000000E+00 -0.50000000000E+03  0.50000000000E+03  0.00000000000E+00 0.  1.
          5    1    1    2  501    0  0.12370530100E+03  0.17001112234E+03  0.45362002467E+03  0.50000000000E+03  0.47000000000E+01 0. -1.
         -5    1    1    2    0  501 -0.12370530100E+03 -0.17001112234E+03 -0.45362002467E+03  0.50000000000E+03  0.47000000000E+01 0.  1.
</event>
<event>
 4    1  0.4933936E-004  0.1000000E+04  0.7546771E-02  0.8684367E-01
         11   -1    0    0    0    0  0.00000000000E+00  0.00000000000E+00  0.50000000000E+03  0.50000000000E+03  0.00000000000E+00 0. -1.
        -11   -1    0    0    0    0 -0.00000000000E+00 -0.00000000000E+00 -0.50000000000E+03  0.50000000000E+03  0.00000000000E+00 0.  1.
          5    1    1    2  501    0 -0.74578856087E+02 -0.47917564575E+03  0.12168239292E+03  0.50000000000E+03  0.47000000000E+01 0. -1.
         -5    1    1    2    0  501  0.74578856087E+02  0.47917564575E+03 -0.12168239292E+03  0.50000000000E+03  0.47000000000E+01 0.  1.
</event>
<event>
 4    1  0.4933936E-004  0.1000000E+04  0.7546771E-02  0.8684367E-01
         11   -1    0    0    0    0  0.00000000000E+00  0.00000000000E+00  0.50000000000E+03  0.50000000000E+03  0.00000000000E+00 0. -1.
        -11   -1    0    0    0    0 -0.00000000000E+00 -0.00000000000E+00 -0.50000000000E+03  0.50000000000E+03  0.00000000000E+00 0.  1.
          5    1    1    2  501    0 -0.48658569353E+03 -0.21624478584E+02 -0.11289222638E+03  0.50000000000E+03  0.47000000000E+01 0. -1.
         -5    1    1    2    0  501  0.48658569353E+03  0.21624478584E+02  0.11289222638E+03  0.50000000000E+03  0.47000000000E+01 0.  1.
</event>
<event>
 4    1  0.4933936E-004  0.1000000E+04  0.7546771E-02  0.8684367E-01
         11   -1    0    0    0    0  0.00000000000E+00  0.00000000000E+00  0.50000000000E+03  0.50000000000E+03  0.00000000000E+00 0. -1.
        -11   -1    0    0    0    0 -0.00000000000E+00 -0.00000000000E+00 -0.50000000000E+03  0.50000000000E+03  0.00000000000E+00 0.  1.
          5    1    1    2  501    0 -0.36714202468E+03  0.26850044305E+03  0.20758650197E+03  0.50000000000E+03  0.47000000000E+01 0. -1.
         -5    1    1    2    0  501  0.36714202468E+03 -0.26850044305E+03 -0.20758650197E+03  0.50000000000E+03  0.47000000000E+01 0.  1.
</event>
<event>
 4    1  0.4933936E-004  0.1000000E+04  0.7546771E-02  0.8684367E-01
         11   -1    0    0    0    0  0.00000000000E+00  0.00000000000E+00  0.50000000000E+03  0.50000000000E+03  0.00000000000E+00 0. -1.
        -11   -1    0    0    0    0 -0.00000000000E+00 -0.00000000000E+00 -0.50000000000E+03  0.50000000000E+03  0.00000000000E+00 0.  1.
          5    1    1    2  501    0 -0.45909948272E+03 -0.18466646188E+00  0.19800389104E+03  0.50000000000E+03  0.47000000000E+01 0. -1.
         -5    1    1    2    0  501  0.45909948272E+03  0.18466646188E+00 -0.19800389104E+03  0.50000000000E+03  0.47000000000E+01 0.  1.
</event>
<event>
 4    1  0.4933936E-004  0.1000000E+04  0.7546771E-02  0.8684367E-01
         11   -1    0    0    0    0  0.00000000000E+00  0.00000000000E+00  0.50000000000E+03  0.50000000000E+03  0.00000000000E+00 0. -1.
        -11   -1    0    0    0    0 -0.00000000000E+00 -0.00000000000E+00 -0.50000000000E+03  0.50000000000E+03  0.00000000000E+00 0.  1.
          5    1    1    2  501    0  0.14453760767E+01  0.79793372946E+02  0.49356746096E+03  0.50000000000E+03  0.47000000000E+01 0. -1.
         -5    1    1    2    0  501 -0.14453760767E+01 -0.79793372946E+02 -0.49356746096E+03  0.50000000000E+03  0.47000000000E+01 0.  1.
</event>
<event>
 4    1  0.4933936E-004  0.1000000E+04  0.7546771E-02  0.8684367E-01
         11   -1    0    0    0    0  0.00000000000E+00  0.00000000000E+00  0.50000000000E+03  0.50000000000E+03  0.00000000000E+00 0.  1.
        -11   -1    0    0    0    0 -0.00000000000E+00 -0.00000000000E+00 -0.50000000000E+03  0.50000000000E+03  0.00000000000E+00 0. -1.
          5    1    1    2  501    0  0.44906909385E+03 -0.20344659881E+03  0.83212621512E+02  0.50000000000E+03  0.47000000000E+01 0.  1.
         -5    1    1    2    0  501 -0.44906909385E+03  0.20344659881E+03 -0.83212621512E+02  0.50000000000E+03  0.47000000000E+01 0. -1.
</event>
<event>
 4    1  0.4933936E-004  0.1000000E+04  0.7546771E-02  0.8684367E-01
         11   -1    0    0    0    0  0.00000000000E+00  0.00000000000E+00  0.50000000000E+03  0.50000000000E+03  0.00000000000E+00 0. -1.
        -11   -1    0    0    0    0 -0.00000000000E+00 -0.00000000000E+00 -0.50000000000E+03  0.50000000000E+03  0.00000000000E+00 0.  1.
          5    1    1    2  501    0 -0.19757552548E+03  0.41648670992E+02 -0.45739174669E+03  0.50000000000E+03  0.47000000000E+01 0.  1.
         -5    1    1    2    0  501  0.19757552548E+03 -0.41648670992E+02  0.45739174669E+03  0.50000000000E+03  0.47000000000E+01 0. -1.
</event>
<event>
 4    1  0.4933936E-004  0.1000000E+04  0.7546771E-02  0.8684367E-01
         11   -1    0    0    0    0  0.00000000000E+00  0.00000000000E+00  0.50000000000E+03  0.50000000000E+03  0.00000000000E+00 0. -1.
        -11   -1    0    0    0    0 -0.00000000000E+00 -0.00000000000E+00 -0.50000000000E+03  0.50000000000E+03  0.00000000000E+00 0.  1.
          5    1    1    2  501    0 -0.30288969269E+03 -0.32301039742E+03  0.23216379396E+03  0.50000000000E+03  0.47000000000E+01 0. -1.
         -5    1    1    2    0  501  0.30288969269E+03  0.32301039742E+03 -0.23216379396E+03  0.50000000000E+03  0.47000000000E+01 0.  1.
</event>
<event>
 4    1  0.4933936E-004  0.1000000E+04  0.7546771E-02  0.8684367E-01
         11   -1    0    0    0    0  0.00000000000E+00  0.00000000000E+00  0.50000000000E+03  0.50000000000E+03  0.00000000000E+00 0.  1.
        -11   -1    0    0    0    0 -0.00000000000E+00 -0.00000000000E+00 -0.50000000000E+03  0.50000000000E+03  0.00000000000E+00 0. -1.
          5    1    1    2  501    0 -0.14495157949E+03 -0.28784873388E+03  0.38224345123E+03  0.50000000000E+03  0.47000000000E+01 0.  1.
         -5    1    1    2    0  501  0.14495157949E+03  0.28784873388E+03 -0.38224345123E+03  0.50000000000E+03  0.47000000000E+01 0. -1.
</event>
<event>
 4    1  0.4933936E-004  0.1000000E+04  0.7546771E-02  0.8684367E-01
         11   -1    0    0    0    0  0.00000000000E+00  0.00000000000E+00  0.50000000000E+03  0.50000000000E+03  0.00000000000E+00 0. -1.
        -11   -1    0    0    0    0 -0.00000000000E+00 -0.00000000000E+00 -0.50000000000E+03  0.50000000000E+03  0.00000000000E+00 0.  1.
          5    1    1    2  501    0 -0.24854119241E+03  0.15245525585E+03  0.40615585757E+03  0.50000000000E+03  0.47000000000E+01 0. -1.
         -5    1    1    2    0  501  0.24854119241E+03 -0.15245525585E+03 -0.40615585757E+03  0.50000000000E+03  0.47000000000E+01 0.  1.
</event>
<event>
 4    1  0.4933936E-004  0.1000000E+04  0.7546771E-02  0.8684367E-01
         11   -1    0    0    0    0  0.00000000000E+00  0.00000000000E+00  0.50000000000E+03  0.50000000000E+03  0.00000000000E+00 0.  1.
        -11   -1    0    0    0    0 -0.00000000000E+00 -0.00000000000E+00 -0.50000000000E+03  0.50000000000E+03  0.00000000000E+00 0. -1.
          5    1    1    2  501    0 -0.19004690386E+03  0.43193752378E+03  0.16519703351E+03  0.50000000000E+03  0.47000000000E+01 0.  1.
         -5    1    1    2    0  501  0.19004690386E+03 -0.43193752378E+03 -0.16519703351E+03  0.50000000000E+03  0.47000000000E+01 0. -1.
</event>
<event>
 4    1  0.4933936E-004  0.1000000E+04  0.7546771E-02  0.8684367E-01
         11   -1    0    0    0    0  0.00000000000E+00  0.00000000000E+00  0.50000000000E+03  0.50000000000E+03  0.00000000000E+00 0. -1.
        -11   -1    0    0    0    0 -0.00000000000E+00 -0.00000000000E+00 -0.50000000000E+03  0.50000000000E+03  0.00000000000E+00 0.  1.
          5    1    1    2  501    0 -0.19991128241E+03  0.14722319751E+03  0.43398009088E+03  0.50000000000E+03  0.47000000000E+01 0. -1.
         -5    1    1    2    0  501  0.19991128241E+03 -0.14722319751E+03 -0.43398009088E+03  0.50000000000E+03  0.47000000000E+01 0.  1.
</event>
<event>
 4    1  0.4933936E-004  0.1000000E+04  0.7546771E-02  0.8684367E-01
         11   -1    0    0    0    0  0.00000000000E+00  0.00000000000E+00  0.50000000000E+03  0.50000000000E+03  0.00000000000E+00 0. -1.
        -11   -1    0    0    0    0 -0.00000000000E+00 -0.00000000000E+00 -0.50000000000E+03  0.50000000000E+03  0.00000000000E+00 0.  1.
          5    1    1    2  501    0 -0.37333408013E+03  0.74159574264E+02  0.32419119691E+03  0.50000000000E+03  0.47000000000E+01 0. -1.
         -5    1    1    2    0  501  0.37333408013E+03 -0.74159574264E+02 -0.32419119691E+03  0.50000000000E+03  0.47000000000E+01 0.  1.
</event>
<event>
 4    1  0.4933936E-004  0.1000000E+04  0.7546771E-02  0.8684367E-01
         11   -1    0    0    0    0  0.00000000000E+00  0.00000000000E+00  0.50000000000E+03  0.50000000000E+03  0.00000000000E+00 0. -1.
        -11   -1    0    0    0    0 -0.00000000000E+00 -0.00000000000E+00 -0.50000000000E+03  0.50000000000E+03  0.00000000000E+00 0.  1.
          5    1    1    2  501    0  0.47587967387E+03 -0.10406878933E+03  0.11263273541E+03  0.50000000000E+03  0.47000000000E+01 0. -1.
         -5    1    1    2    0  501 -0.47587967387E+03  0.10406878933E+03 -0.11263273541E+03  0.50000000000E+03  0.47000000000E+01 0.  1.
</event>
<event>
 4    1  0.4933936E-004  0.1000000E+04  0.7546771E-02  0.8684367E-01
         11   -1    0    0    0    0  0.00000000000E+00  0.00000000000E+00  0.50000000000E+03  0.50000000000E+03  0.00000000000E+00 0. -1.
        -11   -1    0    0    0    0 -0.00000000000E+00 -0.00000000000E+00 -0.50000000000E+03  0.50000000000E+03  0.00000000000E+00 0.  1.
          5    1    1    2  501    0  0.43792389235E+03  0.16642441255E+03  0.17465248186E+03  0.50000000000E+03  0.47000000000E+01 0. -1.
         -5    1    1    2    0  501 -0.43792389235E+03 -0.16642441255E+03 -0.17465248186E+03  0.50000000000E+03  0.47000000000E+01 0.  1.
</event>
<event>
 4    1  0.4933936E-004  0.1000000E+04  0.7546771E-02  0.8684367E-01
         11   -1    0    0    0    0  0.00000000000E+00  0.00000000000E+00  0.50000000000E+03  0.50000000000E+03  0.00000000000E+00 0. -1.
        -11   -1    0    0    0    0 -0.00000000000E+00 -0.00000000000E+00 -0.50000000000E+03  0.50000000000E+03  0.00000000000E+00 0.  1.
          5    1    1    2  501    0 -0.21224578027E+03 -0.43592783756E+03  0.12205146128E+03  0.50000000000E+03  0.47000000000E+01 0. -1.
         -5    1    1    2    0  501  0.21224578027E+03  0.43592783756E+03 -0.12205146128E+03  0.50000000000E+03  0.47000000000E+01 0.  1.
</event>
<event>
 4    1  0.4933936E-004  0.1000000E+04  0.7546771E-02  0.8684367E-01
         11   -1    0    0    0    0  0.00000000000E+00  0.00000000000E+00  0.50000000000E+03  0.50000000000E+03  0.00000000000E+00 0. -1.
        -11   -1    0    0    0    0 -0.00000000000E+00 -0.00000000000E+00 -0.50000000000E+03  0.50000000000E+03  0.00000000000E+00 0.  1.
          5    1    1    2  501    0 -0.38547315482E+03  0.19584471463E+03  0.25106414452E+03  0.50000000000E+03  0.47000000000E+01 0. -1.
         -5    1    1    2    0  501  0.38547315482E+03 -0.19584471463E+03 -0.25106414452E+03  0.50000000000E+03  0.47000000000E+01 0.  1.
</event>
<event>
 4    1  0.4933936E-004  0.1000000E+04  0.7546771E-02  0.8684367E-01
         11   -1    0    0    0    0  0.00000000000E+00  0.00000000000E+00  0.50000000000E+03  0.50000000000E+03  0.00000000000E+00 0. -1.
        -11   -1    0    0    0    0 -0.00000000000E+00 -0.00000000000E+00 -0.50000000000E+03  0.50000000000E+03  0.00000000000E+00 0.  1.
          5    1    1    2  501    0 -0.31867117823E+03  0.28782307511E+03  0.25609464578E+03  0.50000000000E+03  0.47000000000E+01 0. -1.
         -5    1    1    2    0  501  0.31867117823E+03 -0.28782307511E+03 -0.25609464578E+03  0.50000000000E+03  0.47000000000E+01 0.  1.
</event>
<event>
 4    1  0.4933936E-004  0.1000000E+04  0.7546771E-02  0.8684367E-01
         11   -1    0    0    0    0  0.00000000000E+00  0.00000000000E+00  0.50000000000E+03  0.50000000000E+03  0.00000000000E+00 0. -1.
        -11   -1    0    0    0    0 -0.00000000000E+00 -0.00000000000E+00 -0.50000000000E+03  0.50000000000E+03  0.00000000000E+00 0.  1.
          5    1    1    2  501    0 -0.33444057254E+03 -0.33804437968E+03  0.15444549462E+03  0.50000000000E+03  0.47000000000E+01 0. -1.
         -5    1    1    2    0  501  0.33444057254E+03  0.33804437968E+03 -0.15444549462E+03  0.50000000000E+03  0.47000000000E+01 0.  1.
</event>
<event>
 4    1  0.4933936E-004  0.1000000E+04  0.7546771E-02  0.8684367E-01
         11   -1    0    0    0    0  0.00000000000E+00  0.00000000000E+00  0.50000000000E+03  0.50000000000E+03  0.00000000000E+00 0.  1.
        -11   -1    0    0    0    0 -0.00000000000E+00 -0.00000000000E+00 -0.50000000000E+03  0.50000000000E+03  0.00000000000E+00 0. -1.
          5    1    1    2  501    0  0.10039269566E+03 -0.12588155852E+03  0.47334242350E+03  0.50000000000E+03  0.47000000000E+01 0.  1.
         -5    1    1    2    0  501 -0.10039269566E+03  0.12588155852E+03 -0.47334242350E+03  0.50000000000E+03  0.47000000000E+01 0. -1.
</event>
<event>
 4    1  0.4933936E-004  0.1000000E+04  0.7546771E-02  0.8684367E-01
         11   -1    0    0    0    0  0.00000000000E+00  0.00000000000E+00  0.50000000000E+03  0.50000000000E+03  0.00000000000E+00 0.  1.
        -11   -1    0    0    0    0 -0.00000000000E+00 -0.00000000000E+00 -0.50000000000E+03  0.50000000000E+03  0.00000000000E+00 0. -1.
          5    1    1    2  501    0  0.21098902829E+03 -0.13471887193E+02  0.45307841286E+03  0.50000000000E+03  0.47000000000E+01 0.  1.
         -5    1    1    2    0  501 -0.21098902829E+03  0.13471887193E+02 -0.45307841286E+03  0.50000000000E+03  0.47000000000E+01 0. -1.
</event>
<event>
 4    1  0.4933936E-004  0.1000000E+04  0.7546771E-02  0.8684367E-01
         11   -1    0    0    0    0  0.00000000000E+00  0.00000000000E+00  0.50000000000E+03  0.50000000000E+03  0.00000000000E+00 0.  1.
        -11   -1    0    0    0    0 -0.00000000000E+00 -0.00000000000E+00 -0.50000000000E+03  0.50000000000E+03  0.00000000000E+00 0. -1.
          5    1    1    2  501    0 -0.25676311033E+02  0.19522514170E+03  0.45957130143E+03  0.50000000000E+03  0.47000000000E+01 0.  1.
         -5    1    1    2    0  501  0.25676311033E+02 -0.19522514170E+03 -0.45957130143E+03  0.50000000000E+03  0.47000000000E+01 0. -1.
</event>
<event>
 4    1  0.4933936E-004  0.1000000E+04  0.7546771E-02  0.8684367E-01
         11   -1    0    0    0    0  0.00000000000E+00  0.00000000000E+00  0.50000000000E+03  0.50000000000E+03  0.00000000000E+00 0.  1.
        -11   -1    0    0    0    0 -0.00000000000E+00 -0.00000000000E+00 -0.50000000000E+03  0.50000000000E+03  0.00000000000E+00 0. -1.
          5    1    1    2  501    0 -0.98589366053E+02 -0.31225274575E+03  0.37783100677E+03  0.50000000000E+03  0.47000000000E+01 0.  1.
         -5    1    1    2    0  501  0.98589366053E+02  0.31225274575E+03 -0.37783100677E+03  0.50000000000E+03  0.47000000000E+01 0. -1.
</event>
<event>
 4    1  0.4933936E-004  0.1000000E+04  0.7546771E-02  0.8684367E-01
         11   -1    0    0    0    0  0.00000000000E+00  0.00000000000E+00  0.50000000000E+03  0.50000000000E+03  0.00000000000E+00 0. -1.
        -11   -1    0    0    0    0 -0.00000000000E+00 -0.00000000000E+00 -0.50000000000E+03  0.50000000000E+03  0.00000000000E+00 0.  1.
          5    1    1    2  501    0 -0.15416485328E+03 -0.26757129498E+03  0.39321331376E+03  0.50000000000E+03  0.47000000000E+01 0. -1.
         -5    1    1    2    0  501  0.15416485328E+03  0.26757129498E+03 -0.39321331376E+03  0.50000000000E+03  0.47000000000E+01 0.  1.
</event>
<event>
 4    1  0.4933936E-004  0.1000000E+04  0.7546771E-02  0.8684367E-01
         11   -1    0    0    0    0  0.00000000000E+00  0.00000000000E+00  0.50000000000E+03  0.50000000000E+03  0.00000000000E+00 0. -1.
        -11   -1    0    0    0    0 -0.00000000000E+00 -0.00000000000E+00 -0.50000000000E+03  0.50000000000E+03  0.00000000000E+00 0.  1.
          5    1    1    2  501    0 -0.12310095607E+03  0.44824476409E+03 -0.18412141667E+03  0.50000000000E+03  0.47000000000E+01 0. -1.
         -5    1    1    2    0  501  0.12310095607E+03 -0.44824476409E+03  0.18412141667E+03  0.50000000000E+03  0.47000000000E+01 0.  1.
</event>
<event>
 4    1  0.4933936E-004  0.1000000E+04  0.7546771E-02  0.8684367E-01
         11   -1    0    0    0    0  0.00000000000E+00  0.00000000000E+00  0.50000000000E+03  0.50000000000E+03  0.00000000000E+00 0. -1.
        -11   -1    0    0    0    0 -0.00000000000E+00 -0.00000000000E+00 -0.50000000000E+03  0.50000000000E+03  0.00000000000E+00 0.  1.
          5    1    1    2  501    0  0.21163568653E+03  0.38013330362E+03  0.24634714868E+03  0.50000000000E+03  0.47000000000E+01 0. -1.
         -5    1    1    2    0  501 -0.21163568653E+03 -0.38013330362E+03 -0.24634714868E+03  0.50000000000E+03  0.47000000000E+01 0.  1.
</event>
<event>
 4    1  0.4933936E-004  0.1000000E+04  0.7546771E-02  0.8684367E-01
         11   -1    0    0    0    0  0.00000000000E+00  0.00000000000E+00  0.50000000000E+03  0.50000000000E+03  0.00000000000E+00 0. -1.
        -11   -1    0    0    0    0 -0.00000000000E+00 -0.00000000000E+00 -0.50000000000E+03  0.50000000000E+03  0.00000000000E+00 0.  1.
          5    1    1    2  501    0 -0.17060818976E+03  0.30788592357E+03  0.35507325111E+03  0.50000000000E+03  0.47000000000E+01 0. -1.
         -5    1    1    2    0  501  0.17060818976E+03 -0.30788592357E+03 -0.35507325111E+03  0.50000000000E+03  0.47000000000E+01 0.  1.
</event>
<event>
 4    1  0.4933936E-004  0.1000000E+04  0.7546771E-02  0.8684367E-01
         11   -1    0    0    0    0  0.00000000000E+00  0.00000000000E+00  0.50000000000E+03  0.50000000000E+03  0.00000000000E+00 0. -1.
        -11   -1    0    0    0    0 -0.00000000000E+00 -0.00000000000E+00 -0.50000000000E+03  0.50000000000E+03  0.00000000000E+00 0.  1.
          5    1    1    2  501    0 -0.23280275780E+03  0.30254677207E+03  0.32287185797E+03  0.50000000000E+03  0.47000000000E+01 0. -1.
         -5    1    1    2    0  501  0.23280275780E+03 -0.30254677207E+03 -0.32287185797E+03  0.50000000000E+03  0.47000000000E+01 0.  1.
</event>
<event>
 4    1  0.4933936E-004  0.1000000E+04  0.7546771E-02  0.8684367E-01
         11   -1    0    0    0    0  0.00000000000E+00  0.00000000000E+00  0.50000000000E+03  0.50000000000E+03  0.00000000000E+00 0.  1.
        -11   -1    0    0    0    0 -0.00000000000E+00 -0.00000000000E+00 -0.50000000000E+03  0.50000000000E+03  0.00000000000E+00 0. -1.
          5    1    1    2  501    0  0.47488745072E+03  0.74454272466E+02  0.13753683311E+03  0.50000000000E+03  0.47000000000E+01 0.  1.
         -5    1    1    2    0  501 -0.47488745072E+03 -0.74454272466E+02 -0.13753683311E+03  0.50000000000E+03  0.47000000000E+01 0. -1.
</event>
<event>
 4    1  0.4933936E-004  0.1000000E+04  0.7546771E-02  0.8684367E-01
         11   -1    0    0    0    0  0.00000000000E+00  0.00000000000E+00  0.50000000000E+03  0.50000000000E+03  0.00000000000E+00 0.  1.
        -11   -1    0    0    0    0 -0.00000000000E+00 -0.00000000000E+00 -0.50000000000E+03  0.50000000000E+03  0.00000000000E+00 0. -1.
          5    1    1    2  501    0 -0.11229789676E+03 -0.16196155693E+03  0.45949488186E+03  0.50000000000E+03  0.47000000000E+01 0.  1.
         -5    1    1    2    0  501  0.11229789676E+03  0.16196155693E+03 -0.45949488186E+03  0.50000000000E+03  0.47000000000E+01 0. -1.
</event>
<event>
 4    1  0.4933936E-004  0.1000000E+04  0.7546771E-02  0.8684367E-01
         11   -1    0    0    0    0  0.00000000000E+00  0.00000000000E+00  0.50000000000E+03  0.50000000000E+03  0.00000000000E+00 0. -1.
        -11   -1    0    0    0    0 -0.00000000000E+00 -0.00000000000E+00 -0.50000000000E+03  0.50000000000E+03  0.00000000000E+00 0.  1.
          5    1    1    2  501    0 -0.15487487163E+03  0.30136617251E+03  0.36765488465E+03  0.50000000000E+03  0.47000000000E+01 0. -1.
         -5    1    1    2    0  501  0.15487487163E+03 -0.30136617251E+03 -0.36765488465E+03  0.50000000000E+03  0.47000000000E+01 0.  1.
</event>
<event>
 4    1  0.4933936E-004  0.1000000E+04  0.7546771E-02  0.8684367E-01
         11   -1    0    0    0    0  0.00000000000E+00  0.00000000000E+00  0.50000000000E+03  0.50000000000E+03  0.00000000000E+00 0. -1.
        -11   -1    0    0    0    0 -0.00000000000E+00 -0.00000000000E+00 -0.50000000000E+03  0.50000000000E+03  0.00000000000E+00 0.  1.
          5    1    1    2  501    0  0.90882519855E+02 -0.92778524194E+02  0.48281510233E+03  0.50000000000E+03  0.47000000000E+01 0. -1.
         -5    1    1    2    0  501 -0.90882519855E+02  0.92778524194E+02 -0.48281510233E+03  0.50000000000E+03  0.47000000000E+01 0.  1.
</event>
<event>
 4    1  0.4933936E-004  0.1000000E+04  0.7546771E-02  0.8684367E-01
         11   -1    0    0    0    0  0.00000000000E+00  0.00000000000E+00  0.50000000000E+03  0.50000000000E+03  0.00000000000E+00 0. -1.
        -11   -1    0    0    0    0 -0.00000000000E+00 -0.00000000000E+00 -0.50000000000E+03  0.50000000000E+03  0.00000000000E+00 0.  1.
          5    1    1    2  501    0 -0.48968976492E+03 -0.59391938181E+02 -0.81574762093E+02  0.50000000000E+03  0.47000000000E+01 0. -1.
         -5    1    1    2    0  501  0.48968976492E+03  0.59391938181E+02  0.81574762093E+02  0.50000000000E+03  0.47000000000E+01 0.  1.
</event>
<event>
 4    1  0.4933936E-004  0.1000000E+04  0.7546771E-02  0.8684367E-01
         11   -1    0    0    0    0  0.00000000000E+00  0.00000000000E+00  0.50000000000E+03  0.50000000000E+03  0.00000000000E+00 0. -1.
        -11   -1    0    0    0    0 -0.00000000000E+00 -0.00000000000E+00 -0.50000000000E+03  0.50000000000E+03  0.00000000000E+00 0.  1.
          5    1    1    2  501    0 -0.19168060908E+03  0.21549438071E+03  0.40840987499E+03  0.50000000000E+03  0.47000000000E+01 0. -1.
         -5    1    1    2    0  501  0.19168060908E+03 -0.21549438071E+03 -0.40840987499E+03  0.50000000000E+03  0.47000000000E+01 0.  1.
</event>
<event>
 4    1  0.4933936E-004  0.1000000E+04  0.7546771E-02  0.8684367E-01
         11   -1    0    0    0    0  0.00000000000E+00  0.00000000000E+00  0.50000000000E+03  0.50000000000E+03  0.00000000000E+00 0. -1.
        -11   -1    0    0    0    0 -0.00000000000E+00 -0.00000000000E+00 -0.50000000000E+03  0.50000000000E+03  0.00000000000E+00 0.  1.
          5    1    1    2  501    0 -0.32827986901E+03  0.36918208141E+03  0.76907921381E+02  0.50000000000E+03  0.47000000000E+01 0. -1.
         -5    1    1    2    0  501  0.32827986901E+03 -0.36918208141E+03 -0.76907921381E+02  0.50000000000E+03  0.47000000000E+01 0.  1.
</event>
<event>
 4    1  0.4933936E-004  0.1000000E+04  0.7546771E-02  0.8684367E-01
         11   -1    0    0    0    0  0.00000000000E+00  0.00000000000E+00  0.50000000000E+03  0.50000000000E+03  0.00000000000E+00 0.  1.
        -11   -1    0    0    0    0 -0.00000000000E+00 -0.00000000000E+00 -0.50000000000E+03  0.50000000000E+03  0.00000000000E+00 0. -1.
          5    1    1    2  501    0  0.60595439528E+02  0.36530496805E+03  0.33594401769E+03  0.50000000000E+03  0.47000000000E+01 0.  1.
         -5    1    1    2    0  501 -0.60595439528E+02 -0.36530496805E+03 -0.33594401769E+03  0.50000000000E+03  0.47000000000E+01 0. -1.
</event>
<event>
 4    1  0.4933936E-004  0.1000000E+04  0.7546771E-02  0.8684367E-01
         11   -1    0    0    0    0  0.00000000000E+00  0.00000000000E+00  0.50000000000E+03  0.50000000000E+03  0.00000000000E+00 0. -1.
        -11   -1    0    0    0    0 -0.00000000000E+00 -0.00000000000E+00 -0.50000000000E+03  0.50000000000E+03  0.00000000000E+00 0.  1.
          5    1    1    2  501    0  0.18970537726E+03 -0.11597386609E+03  0.44781675072E+03  0.50000000000E+03  0.47000000000E+01 0. -1.
         -5    1    1    2    0  501 -0.18970537726E+03  0.11597386609E+03 -0.44781675072E+03  0.50000000000E+03  0.47000000000E+01 0.  1.
</event>
<event>
 4    1  0.4933936E-004  0.1000000E+04  0.7546771E-02  0.8684367E-01
         11   -1    0    0    0    0  0.00000000000E+00  0.00000000000E+00  0.50000000000E+03  0.50000000000E+03  0.00000000000E+00 0. -1.
        -11   -1    0    0    0    0 -0.00000000000E+00 -0.00000000000E+00 -0.50000000000E+03  0.50000000000E+03  0.00000000000E+00 0.  1.
          5    1    1    2  501    0 -0.20943967169E+03 -0.41850726674E+03  0.17596761522E+03  0.50000000000E+03  0.47000000000E+01 0. -1.
         -5    1    1    2    0  501  0.20943967169E+03  0.41850726674E+03 -0.17596761522E+03  0.50000000000E+03  0.47000000000E+01 0.  1.
</event>
<event>
 4    1  0.4933936E-004  0.1000000E+04  0.7546771E-02  0.8684367E-01
         11   -1    0    0    0    0  0.00000000000E+00  0.00000000000E+00  0.50000000000E+03  0.50000000000E+03  0.00000000000E+00 0. -1.
        -11   -1    0    0    0    0 -0.00000000000E+00 -0.00000000000E+00 -0.50000000000E+03  0.50000000000E+03  0.00000000000E+00 0.  1.
          5    1    1    2  501    0  0.22913308990E+03 -0.38804877916E+03 -0.21655041471E+03  0.50000000000E+03  0.47000000000E+01 0. -1.
         -5    1    1    2    0  501 -0.22913308990E+03  0.38804877916E+03  0.21655041471E+03  0.50000000000E+03  0.47000000000E+01 0.  1.
</event>
<event>
 4    1  0.4933936E-004  0.1000000E+04  0.7546771E-02  0.8684367E-01
         11   -1    0    0    0    0  0.00000000000E+00  0.00000000000E+00  0.50000000000E+03  0.50000000000E+03  0.00000000000E+00 0.  1.
        -11   -1    0    0    0    0 -0.00000000000E+00 -0.00000000000E+00 -0.50000000000E+03  0.50000000000E+03  0.00000000000E+00 0. -1.
          5    1    1    2  501    0 -0.50680540318E+02  0.48011874389E+03  0.12998224724E+03  0.50000000000E+03  0.47000000000E+01 0.  1.
         -5    1    1    2    0  501  0.50680540318E+02 -0.48011874389E+03 -0.12998224724E+03  0.50000000000E+03  0.47000000000E+01 0. -1.
</event>
<event>
 4    1  0.4933936E-004  0.1000000E+04  0.7546771E-02  0.8684367E-01
         11   -1    0    0    0    0  0.00000000000E+00  0.00000000000E+00  0.50000000000E+03  0.50000000000E+03  0.00000000000E+00 0. -1.
        -11   -1    0    0    0    0 -0.00000000000E+00 -0.00000000000E+00 -0.50000000000E+03  0.50000000000E+03  0.00000000000E+00 0.  1.
          5    1    1    2  501    0  0.30971270250E+02  0.42642177535E+03  0.25919714490E+03  0.50000000000E+03  0.47000000000E+01 0. -1.
         -5    1    1    2    0  501 -0.30971270250E+02 -0.42642177535E+03 -0.25919714490E+03  0.50000000000E+03  0.47000000000E+01 0.  1.
</event>
<event>
 4    1  0.4933936E-004  0.1000000E+04  0.7546771E-02  0.8684367E-01
         11   -1    0    0    0    0  0.00000000000E+00  0.00000000000E+00  0.50000000000E+03  0.50000000000E+03  0.00000000000E+00 0. -1.
        -11   -1    0    0    0    0 -0.00000000000E+00 -0.00000000000E+00 -0.50000000000E+03  0.50000000000E+03  0.00000000000E+00 0.  1.
          5    1    1    2  501    0 -0.32978828293E+03 -0.35282440249E+03  0.12935431746E+03  0.50000000000E+03  0.47000000000E+01 0. -1.
         -5    1    1    2    0  501  0.32978828293E+03  0.35282440249E+03 -0.12935431746E+03  0.50000000000E+03  0.47000000000E+01 0.  1.
</event>
<event>
 4    1  0.4933936E-004  0.1000000E+04  0.7546771E-02  0.8684367E-01
         11   -1    0    0    0    0  0.00000000000E+00  0.00000000000E+00  0.50000000000E+03  0.50000000000E+03  0.00000000000E+00 0. -1.
        -11   -1    0    0    0    0 -0.00000000000E+00 -0.00000000000E+00 -0.50000000000E+03  0.50000000000E+03  0.00000000000E+00 0.  1.
          5    1    1    2  501    0 -0.38402607800E+03  0.63870328016E+02  0.31372354489E+03  0.50000000000E+03  0.47000000000E+01 0. -1.
         -5    1    1    2    0  501  0.38402607800E+03 -0.63870328016E+02 -0.31372354489E+03  0.50000000000E+03  0.47000000000E+01 0.  1.
</event>
<event>
 4    1  0.4933936E-004  0.1000000E+04  0.7546771E-02  0.8684367E-01
         11   -1    0    0    0    0  0.00000000000E+00  0.00000000000E+00  0.50000000000E+03  0.50000000000E+03  0.00000000000E+00 0.  1.
        -11   -1    0    0    0    0 -0.00000000000E+00 -0.00000000000E+00 -0.50000000000E+03  0.50000000000E+03  0.00000000000E+00 0. -1.
          5    1    1    2  501    0 -0.15123278310E+03 -0.35979509166E+03 -0.31249647571E+03  0.50000000000E+03  0.47000000000E+01 0. -1.
         -5    1    1    2    0  501  0.15123278310E+03  0.35979509166E+03  0.31249647571E+03  0.50000000000E+03  0.47000000000E+01 0.  1.
</event>
<event>
 4    1  0.4933936E-004  0.1000000E+04  0.7546771E-02  0.8684367E-01
         11   -1    0    0    0    0  0.00000000000E+00  0.00000000000E+00  0.50000000000E+03  0.50000000000E+03  0.00000000000E+00 0. -1.
        -11   -1    0    0    0    0 -0.00000000000E+00 -0.00000000000E+00 -0.50000000000E+03  0.50000000000E+03  0.00000000000E+00 0.  1.
          5    1    1    2  501    0 -0.37431438904E+02 -0.30934097144E+03  0.39100506489E+03  0.50000000000E+03  0.47000000000E+01 0. -1.
         -5    1    1    2    0  501  0.37431438904E+02  0.30934097144E+03 -0.39100506489E+03  0.50000000000E+03  0.47000000000E+01 0.  1.
</event>
<event>
 4    1  0.4933936E-004  0.1000000E+04  0.7546771E-02  0.8684367E-01
         11   -1    0    0    0    0  0.00000000000E+00  0.00000000000E+00  0.50000000000E+03  0.50000000000E+03  0.00000000000E+00 0. -1.
        -11   -1    0    0    0    0 -0.00000000000E+00 -0.00000000000E+00 -0.50000000000E+03  0.50000000000E+03  0.00000000000E+00 0.  1.
          5    1    1    2  501    0 -0.23605921059E+03  0.41988268860E+03 -0.13398689080E+03  0.50000000000E+03  0.47000000000E+01 0. -1.
         -5    1    1    2    0  501  0.23605921059E+03 -0.41988268860E+03  0.13398689080E+03  0.50000000000E+03  0.47000000000E+01 0.  1.
</event>
<event>
 4    1  0.4933936E-004  0.1000000E+04  0.7546771E-02  0.8684367E-01
         11   -1    0    0    0    0  0.00000000000E+00  0.00000000000E+00  0.50000000000E+03  0.50000000000E+03  0.00000000000E+00 0. -1.
        -11   -1    0    0    0    0 -0.00000000000E+00 -0.00000000000E+00 -0.50000000000E+03  0.50000000000E+03  0.00000000000E+00 0.  1.
          5    1    1    2  501    0  0.48946064675E+03  0.87075066600E+02 -0.53142431833E+02  0.50000000000E+03  0.47000000000E+01 0. -1.
         -5    1    1    2    0  501 -0.48946064675E+03 -0.87075066600E+02  0.53142431833E+02  0.50000000000E+03  0.47000000000E+01 0.  1.
</event>
<event>
 4    1  0.4933936E-004  0.1000000E+04  0.7546771E-02  0.8684367E-01
         11   -1    0    0    0    0  0.00000000000E+00  0.00000000000E+00  0.50000000000E+03  0.50000000000E+03  0.00000000000E+00 0. -1.
        -11   -1    0    0    0    0 -0.00000000000E+00 -0.00000000000E+00 -0.50000000000E+03  0.50000000000E+03  0.00000000000E+00 0.  1.
          5    1    1    2  501    0  0.28702434605E+03 -0.39236217591E+03  0.11681976582E+03  0.50000000000E+03  0.47000000000E+01 0. -1.
         -5    1    1    2    0  501 -0.28702434605E+03  0.39236217591E+03 -0.11681976582E+03  0.50000000000E+03  0.47000000000E+01 0.  1.
</event>
<event>
 4    1  0.4933936E-004  0.1000000E+04  0.7546771E-02  0.8684367E-01
         11   -1    0    0    0    0  0.00000000000E+00  0.00000000000E+00  0.50000000000E+03  0.50000000000E+03  0.00000000000E+00 0. -1.
        -11   -1    0    0    0    0 -0.00000000000E+00 -0.00000000000E+00 -0.50000000000E+03  0.50000000000E+03  0.00000000000E+00 0.  1.
          5    1    1    2  501    0  0.16779854093E+03 -0.36698693867E+03  0.29519848663E+03  0.50000000000E+03  0.47000000000E+01 0. -1.
         -5    1    1    2    0  501 -0.16779854093E+03  0.36698693867E+03 -0.29519848663E+03  0.50000000000E+03  0.47000000000E+01 0.  1.
</event>
<event>
 4    1  0.4933936E-004  0.1000000E+04  0.7546771E-02  0.8684367E-01
         11   -1    0    0    0    0  0.00000000000E+00  0.00000000000E+00  0.50000000000E+03  0.50000000000E+03  0.00000000000E+00 0. -1.
        -11   -1    0    0    0    0 -0.00000000000E+00 -0.00000000000E+00 -0.50000000000E+03  0.50000000000E+03  0.00000000000E+00 0.  1.
          5    1    1    2  501    0 -0.30202568242E+03  0.36854971238E+03  0.15142492088E+03  0.50000000000E+03  0.47000000000E+01 0. -1.
         -5    1    1    2    0  501  0.30202568242E+03 -0.36854971238E+03 -0.15142492088E+03  0.50000000000E+03  0.47000000000E+01 0.  1.
</event>
<event>
 4    1  0.4933936E-004  0.1000000E+04  0.7546771E-02  0.8684367E-01
         11   -1    0    0    0    0  0.00000000000E+00  0.00000000000E+00  0.50000000000E+03  0.50000000000E+03  0.00000000000E+00 0. -1.
        -11   -1    0    0    0    0 -0.00000000000E+00 -0.00000000000E+00 -0.50000000000E+03  0.50000000000E+03  0.00000000000E+00 0.  1.
          5    1    1    2  501    0  0.19686676475E+03 -0.42023682726E+03  0.18607094332E+03  0.50000000000E+03  0.47000000000E+01 0. -1.
         -5    1    1    2    0  501 -0.19686676475E+03  0.42023682726E+03 -0.18607094332E+03  0.50000000000E+03  0.47000000000E+01 0.  1.
</event>
<event>
 4    1  0.4933936E-004  0.1000000E+04  0.7546771E-02  0.8684367E-01
         11   -1    0    0    0    0  0.00000000000E+00  0.00000000000E+00  0.50000000000E+03  0.50000000000E+03  0.00000000000E+00 0. -1.
        -11   -1    0    0    0    0 -0.00000000000E+00 -0.00000000000E+00 -0.50000000000E+03  0.50000000000E+03  0.00000000000E+00 0.  1.
          5    1    1    2  501    0  0.47075537165E+02  0.32588638889E+03  0.37624442234E+03  0.50000000000E+03  0.47000000000E+01 0. -1.
         -5    1    1    2    0  501 -0.47075537165E+02 -0.32588638889E+03 -0.37624442234E+03  0.50000000000E+03  0.47000000000E+01 0.  1.
</event>
<event>
 4    1  0.4933936E-004  0.1000000E+04  0.7546771E-02  0.8684367E-01
         11   -1    0    0    0    0  0.00000000000E+00  0.00000000000E+00  0.50000000000E+03  0.50000000000E+03  0.00000000000E+00 0. -1.
        -11   -1    0    0    0    0 -0.00000000000E+00 -0.00000000000E+00 -0.50000000000E+03  0.50000000000E+03  0.00000000000E+00 0.  1.
          5    1    1    2  501    0 -0.43546348521E+03 -0.16781226976E+03  0.17941155250E+03  0.50000000000E+03  0.47000000000E+01 0. -1.
         -5    1    1    2    0  501  0.43546348521E+03  0.16781226976E+03 -0.17941155250E+03  0.50000000000E+03  0.47000000000E+01 0.  1.
</event>
<event>
 4    1  0.4933936E-004  0.1000000E+04  0.7546771E-02  0.8684367E-01
         11   -1    0    0    0    0  0.00000000000E+00  0.00000000000E+00  0.50000000000E+03  0.50000000000E+03  0.00000000000E+00 0. -1.
        -11   -1    0    0    0    0 -0.00000000000E+00 -0.00000000000E+00 -0.50000000000E+03  0.50000000000E+03  0.00000000000E+00 0.  1.
          5    1    1    2  501    0 -0.13128754365E+02  0.13676553324E+03  0.48072937785E+03  0.50000000000E+03  0.47000000000E+01 0. -1.
         -5    1    1    2    0  501  0.13128754365E+02 -0.13676553324E+03 -0.48072937785E+03  0.50000000000E+03  0.47000000000E+01 0.  1.
</event>
<event>
 4    1  0.4933936E-004  0.1000000E+04  0.7546771E-02  0.8684367E-01
         11   -1    0    0    0    0  0.00000000000E+00  0.00000000000E+00  0.50000000000E+03  0.50000000000E+03  0.00000000000E+00 0.  1.
        -11   -1    0    0    0    0 -0.00000000000E+00 -0.00000000000E+00 -0.50000000000E+03  0.50000000000E+03  0.00000000000E+00 0. -1.
          5    1    1    2  501    0 -0.65697486951E+02 -0.27213042159E+02  0.49489514096E+03  0.50000000000E+03  0.47000000000E+01 0.  1.
         -5    1    1    2    0  501  0.65697486951E+02  0.27213042159E+02 -0.49489514096E+03  0.50000000000E+03  0.47000000000E+01 0. -1.
</event>
<event>
 4    1  0.4933936E-004  0.1000000E+04  0.7546771E-02  0.8684367E-01
         11   -1    0    0    0    0  0.00000000000E+00  0.00000000000E+00  0.50000000000E+03  0.50000000000E+03  0.00000000000E+00 0. -1.
        -11   -1    0    0    0    0 -0.00000000000E+00 -0.00000000000E+00 -0.50000000000E+03  0.50000000000E+03  0.00000000000E+00 0.  1.
          5    1    1    2  501    0 -0.65681662539E+02  0.23858521947E+03  0.43444323249E+03  0.50000000000E+03  0.47000000000E+01 0. -1.
         -5    1    1    2    0  501  0.65681662539E+02 -0.23858521947E+03 -0.43444323249E+03  0.50000000000E+03  0.47000000000E+01 0.  1.
</event>
<event>
 4    1  0.4933936E-004  0.1000000E+04  0.7546771E-02  0.8684367E-01
         11   -1    0    0    0    0  0.00000000000E+00  0.00000000000E+00  0.50000000000E+03  0.50000000000E+03  0.00000000000E+00 0.  1.
        -11   -1    0    0    0    0 -0.00000000000E+00 -0.00000000000E+00 -0.50000000000E+03  0.50000000000E+03  0.00000000000E+00 0. -1.
          5    1    1    2  501    0 -0.30912080958E+03 -0.25485907697E+03  0.29911383447E+03  0.50000000000E+03  0.47000000000E+01 0.  1.
         -5    1    1    2    0  501  0.30912080958E+03  0.25485907697E+03 -0.29911383447E+03  0.50000000000E+03  0.47000000000E+01 0. -1.
</event>
<event>
 4    1  0.4933936E-004  0.1000000E+04  0.7546771E-02  0.8684367E-01
         11   -1    0    0    0    0  0.00000000000E+00  0.00000000000E+00  0.50000000000E+03  0.50000000000E+03  0.00000000000E+00 0. -1.
        -11   -1    0    0    0    0 -0.00000000000E+00 -0.00000000000E+00 -0.50000000000E+03  0.50000000000E+03  0.00000000000E+00 0.  1.
          5    1    1    2  501    0  0.11144606184E+03 -0.48529411570E+03  0.45247171944E+02  0.50000000000E+03  0.47000000000E+01 0. -1.
         -5    1    1    2    0  501 -0.11144606184E+03  0.48529411570E+03 -0.45247171944E+02  0.50000000000E+03  0.47000000000E+01 0.  1.
</event>
<event>
 4    1  0.4933936E-004  0.1000000E+04  0.7546771E-02  0.8684367E-01
         11   -1    0    0    0    0  0.00000000000E+00  0.00000000000E+00  0.50000000000E+03  0.50000000000E+03  0.00000000000E+00 0. -1.
        -11   -1    0    0    0    0 -0.00000000000E+00 -0.00000000000E+00 -0.50000000000E+03  0.50000000000E+03  0.00000000000E+00 0.  1.
          5    1    1    2  501    0 -0.46286765884E+02  0.29609904972E+03  0.40020094710E+03  0.50000000000E+03  0.47000000000E+01 0. -1.
         -5    1    1    2    0  501  0.46286765884E+02 -0.29609904972E+03 -0.40020094710E+03  0.50000000000E+03  0.47000000000E+01 0.  1.
</event>
<event>
 4    1  0.4933936E-004  0.1000000E+04  0.7546771E-02  0.8684367E-01
         11   -1    0    0    0    0  0.00000000000E+00  0.00000000000E+00  0.50000000000E+03  0.50000000000E+03  0.00000000000E+00 0. -1.
        -11   -1    0    0    0    0 -0.00000000000E+00 -0.00000000000E+00 -0.50000000000E+03  0.50000000000E+03  0.00000000000E+00 0.  1.
          5    1    1    2  501    0 -0.34270103078E+03  0.36389095350E+03 -0.10829933481E+02  0.50000000000E+03  0.47000000000E+01 0. -1.
         -5    1    1    2    0  501  0.34270103078E+03 -0.36389095350E+03  0.10829933481E+02  0.50000000000E+03  0.47000000000E+01 0.  1.
</event>
<event>
 4    1  0.4933936E-004  0.1000000E+04  0.7546771E-02  0.8684367E-01
         11   -1    0    0    0    0  0.00000000000E+00  0.00000000000E+00  0.50000000000E+03  0.50000000000E+03  0.00000000000E+00 0. -1.
        -11   -1    0    0    0    0 -0.00000000000E+00 -0.00000000000E+00 -0.50000000000E+03  0.50000000000E+03  0.00000000000E+00 0.  1.
          5    1    1    2  501    0 -0.14943015867E+03 -0.17295169038E+02  0.47681171841E+03  0.50000000000E+03  0.47000000000E+01 0. -1.
         -5    1    1    2    0  501  0.14943015867E+03  0.17295169038E+02 -0.47681171841E+03  0.50000000000E+03  0.47000000000E+01 0.  1.
</event>
<event>
 4    1  0.4933936E-004  0.1000000E+04  0.7546771E-02  0.8684367E-01
         11   -1    0    0    0    0  0.00000000000E+00  0.00000000000E+00  0.50000000000E+03  0.50000000000E+03  0.00000000000E+00 0.  1.
        -11   -1    0    0    0    0 -0.00000000000E+00 -0.00000000000E+00 -0.50000000000E+03  0.50000000000E+03  0.00000000000E+00 0. -1.
          5    1    1    2  501    0 -0.32820253905E+03  0.36972514262E+03 -0.74594385014E+02  0.50000000000E+03  0.47000000000E+01 0. -1.
         -5    1    1    2    0  501  0.32820253905E+03 -0.36972514262E+03  0.74594385014E+02  0.50000000000E+03  0.47000000000E+01 0.  1.
</event>
<event>
 4    1  0.4933936E-004  0.1000000E+04  0.7546771E-02  0.8684367E-01
         11   -1    0    0    0    0  0.00000000000E+00  0.00000000000E+00  0.50000000000E+03  0.50000000000E+03  0.00000000000E+00 0. -1.
        -11   -1    0    0    0    0 -0.00000000000E+00 -0.00000000000E+00 -0.50000000000E+03  0.50000000000E+03  0.00000000000E+00 0.  1.
          5    1    1    2  501    0  0.18170665747E+03  0.19117028620E+03  0.42475230701E+03  0.50000000000E+03  0.47000000000E+01 0. -1.
         -5    1    1    2    0  501 -0.18170665747E+03 -0.19117028620E+03 -0.42475230701E+03  0.50000000000E+03  0.47000000000E+01 0.  1.
</event>
<event>
 4    1  0.4933936E-004  0.1000000E+04  0.7546771E-02  0.8684367E-01
         11   -1    0    0    0    0  0.00000000000E+00  0.00000000000E+00  0.50000000000E+03  0.50000000000E+03  0.00000000000E+00 0. -1.
        -11   -1    0    0    0    0 -0.00000000000E+00 -0.00000000000E+00 -0.50000000000E+03  0.50000000000E+03  0.00000000000E+00 0.  1.
          5    1    1    2  501    0 -0.21865729493E+03  0.31724843979E+03  0.31862254287E+03  0.50000000000E+03  0.47000000000E+01 0. -1.
         -5    1    1    2    0  501  0.21865729493E+03 -0.31724843979E+03 -0.31862254287E+03  0.50000000000E+03  0.47000000000E+01 0.  1.
</event>
<event>
 4    1  0.4933936E-004  0.1000000E+04  0.7546771E-02  0.8684367E-01
         11   -1    0    0    0    0  0.00000000000E+00  0.00000000000E+00  0.50000000000E+03  0.50000000000E+03  0.00000000000E+00 0. -1.
        -11   -1    0    0    0    0 -0.00000000000E+00 -0.00000000000E+00 -0.50000000000E+03  0.50000000000E+03  0.00000000000E+00 0.  1.
          5    1    1    2  501    0 -0.62039694301E+02 -0.48672810128E+03  0.96045519202E+02  0.50000000000E+03  0.47000000000E+01 0. -1.
         -5    1    1    2    0  501  0.62039694301E+02  0.48672810128E+03 -0.96045519202E+02  0.50000000000E+03  0.47000000000E+01 0.  1.
</event>
<event>
 4    1  0.4933936E-004  0.1000000E+04  0.7546771E-02  0.8684367E-01
         11   -1    0    0    0    0  0.00000000000E+00  0.00000000000E+00  0.50000000000E+03  0.50000000000E+03  0.00000000000E+00 0. -1.
        -11   -1    0    0    0    0 -0.00000000000E+00 -0.00000000000E+00 -0.50000000000E+03  0.50000000000E+03  0.00000000000E+00 0.  1.
          5    1    1    2  501    0  0.19010248496E+03  0.44907422666E+03  0.11032358841E+03  0.50000000000E+03  0.47000000000E+01 0. -1.
         -5    1    1    2    0  501 -0.19010248496E+03 -0.44907422666E+03 -0.11032358841E+03  0.50000000000E+03  0.47000000000E+01 0.  1.
</event>
<event>
 4    1  0.4933936E-004  0.1000000E+04  0.7546771E-02  0.8684367E-01
         11   -1    0    0    0    0  0.00000000000E+00  0.00000000000E+00  0.50000000000E+03  0.50000000000E+03  0.00000000000E+00 0. -1.
        -11   -1    0    0    0    0 -0.00000000000E+00 -0.00000000000E+00 -0.50000000000E+03  0.50000000000E+03  0.00000000000E+00 0.  1.
          5    1    1    2  501    0  0.37052307874E+03  0.15232310945E+03  0.29914583141E+03  0.50000000000E+03  0.47000000000E+01 0. -1.
         -5    1    1    2    0  501 -0.37052307874E+03 -0.15232310945E+03 -0.29914583141E+03  0.50000000000E+03  0.47000000000E+01 0.  1.
</event>
<event>
 4    1  0.4933936E-004  0.1000000E+04  0.7546771E-02  0.8684367E-01
         11   -1    0    0    0    0  0.00000000000E+00  0.00000000000E+00  0.50000000000E+03  0.50000000000E+03  0.00000000000E+00 0. -1.
        -11   -1    0    0    0    0 -0.00000000000E+00 -0.00000000000E+00 -0.50000000000E+03  0.50000000000E+03  0.00000000000E+00 0.  1.
          5    1    1    2  501    0  0.31525805488E+03 -0.10375954643E+03  0.37393077615E+03  0.50000000000E+03  0.47000000000E+01 0. -1.
         -5    1    1    2    0  501 -0.31525805488E+03  0.10375954643E+03 -0.37393077615E+03  0.50000000000E+03  0.47000000000E+01 0.  1.
</event>
<event>
 4    1  0.4933936E-004  0.1000000E+04  0.7546771E-02  0.8684367E-01
         11   -1    0    0    0    0  0.00000000000E+00  0.00000000000E+00  0.50000000000E+03  0.50000000000E+03  0.00000000000E+00 0. -1.
        -11   -1    0    0    0    0 -0.00000000000E+00 -0.00000000000E+00 -0.50000000000E+03  0.50000000000E+03  0.00000000000E+00 0.  1.
          5    1    1    2  501    0  0.35046274137E+03 -0.34952219789E+03 -0.70625845766E+02  0.50000000000E+03  0.47000000000E+01 0. -1.
         -5    1    1    2    0  501 -0.35046274137E+03  0.34952219789E+03  0.70625845766E+02  0.50000000000E+03  0.47000000000E+01 0.  1.
</event>
<event>
 4    1  0.4933936E-004  0.1000000E+04  0.7546771E-02  0.8684367E-01
         11   -1    0    0    0    0  0.00000000000E+00  0.00000000000E+00  0.50000000000E+03  0.50000000000E+03  0.00000000000E+00 0. -1.
        -11   -1    0    0    0    0 -0.00000000000E+00 -0.00000000000E+00 -0.50000000000E+03  0.50000000000E+03  0.00000000000E+00 0.  1.
          5    1    1    2  501    0  0.22095573599E+03 -0.35534578626E+03  0.27365278167E+03  0.50000000000E+03  0.47000000000E+01 0. -1.
         -5    1    1    2    0  501 -0.22095573599E+03  0.35534578626E+03 -0.27365278167E+03  0.50000000000E+03  0.47000000000E+01 0.  1.
</event>
<event>
 4    1  0.4933936E-004  0.1000000E+04  0.7546771E-02  0.8684367E-01
         11   -1    0    0    0    0  0.00000000000E+00  0.00000000000E+00  0.50000000000E+03  0.50000000000E+03  0.00000000000E+00 0. -1.
        -11   -1    0    0    0    0 -0.00000000000E+00 -0.00000000000E+00 -0.50000000000E+03  0.50000000000E+03  0.00000000000E+00 0.  1.
          5    1    1    2  501    0  0.66636733618E+02 -0.49091488770E+03  0.67379735595E+02  0.50000000000E+03  0.47000000000E+01 0. -1.
         -5    1    1    2    0  501 -0.66636733618E+02  0.49091488770E+03 -0.67379735595E+02  0.50000000000E+03  0.47000000000E+01 0.  1.
</event>
<event>
 4    1  0.4933936E-004  0.1000000E+04  0.7546771E-02  0.8684367E-01
         11   -1    0    0    0    0  0.00000000000E+00  0.00000000000E+00  0.50000000000E+03  0.50000000000E+03  0.00000000000E+00 0.  1.
        -11   -1    0    0    0    0 -0.00000000000E+00 -0.00000000000E+00 -0.50000000000E+03  0.50000000000E+03  0.00000000000E+00 0. -1.
          5    1    1    2  501    0 -0.30510217054E+03  0.39130498094E+03  0.61408366065E+02  0.50000000000E+03  0.47000000000E+01 0.  1.
         -5    1    1    2    0  501  0.30510217054E+03 -0.39130498094E+03 -0.61408366065E+02  0.50000000000E+03  0.47000000000E+01 0. -1.
</event>
<event>
 4    1  0.4933936E-004  0.1000000E+04  0.7546771E-02  0.8684367E-01
         11   -1    0    0    0    0  0.00000000000E+00  0.00000000000E+00  0.50000000000E+03  0.50000000000E+03  0.00000000000E+00 0. -1.
        -11   -1    0    0    0    0 -0.00000000000E+00 -0.00000000000E+00 -0.50000000000E+03  0.50000000000E+03  0.00000000000E+00 0.  1.
          5    1    1    2  501    0  0.25426016998E+03 -0.43048566277E+03 -0.34307601179E+01  0.50000000000E+03  0.47000000000E+01 0. -1.
         -5    1    1    2    0  501 -0.25426016998E+03  0.43048566277E+03  0.34307601179E+01  0.50000000000E+03  0.47000000000E+01 0.  1.
</event>
<event>
 4    1  0.4933936E-004  0.1000000E+04  0.7546771E-02  0.8684367E-01
         11   -1    0    0    0    0  0.00000000000E+00  0.00000000000E+00  0.50000000000E+03  0.50000000000E+03  0.00000000000E+00 0. -1.
        -11   -1    0    0    0    0 -0.00000000000E+00 -0.00000000000E+00 -0.50000000000E+03  0.50000000000E+03  0.00000000000E+00 0.  1.
          5    1    1    2  501    0  0.17964311587E+03  0.18052979254E+03  0.43025022362E+03  0.50000000000E+03  0.47000000000E+01 0. -1.
         -5    1    1    2    0  501 -0.17964311587E+03 -0.18052979254E+03 -0.43025022362E+03  0.50000000000E+03  0.47000000000E+01 0.  1.
</event>
<event>
 4    1  0.4933936E-004  0.1000000E+04  0.7546771E-02  0.8684367E-01
         11   -1    0    0    0    0  0.00000000000E+00  0.00000000000E+00  0.50000000000E+03  0.50000000000E+03  0.00000000000E+00 0. -1.
        -11   -1    0    0    0    0 -0.00000000000E+00 -0.00000000000E+00 -0.50000000000E+03  0.50000000000E+03  0.00000000000E+00 0.  1.
          5    1    1    2  501    0 -0.44722467705E+03  0.19015109362E+02  0.22272499603E+03  0.50000000000E+03  0.47000000000E+01 0. -1.
         -5    1    1    2    0  501  0.44722467705E+03 -0.19015109362E+02 -0.22272499603E+03  0.50000000000E+03  0.47000000000E+01 0.  1.
</event>
<event>
 4    1  0.4933936E-004  0.1000000E+04  0.7546771E-02  0.8684367E-01
         11   -1    0    0    0    0  0.00000000000E+00  0.00000000000E+00  0.50000000000E+03  0.50000000000E+03  0.00000000000E+00 0.  1.
        -11   -1    0    0    0    0 -0.00000000000E+00 -0.00000000000E+00 -0.50000000000E+03  0.50000000000E+03  0.00000000000E+00 0. -1.
          5    1    1    2  501    0  0.82741076937E+02 -0.33351696376E+03  0.36317799916E+03  0.50000000000E+03  0.47000000000E+01 0.  1.
         -5    1    1    2    0  501 -0.82741076937E+02  0.33351696376E+03 -0.36317799916E+03  0.50000000000E+03  0.47000000000E+01 0. -1.
</event>
<event>
 4    1  0.4933936E-004  0.1000000E+04  0.7546771E-02  0.8684367E-01
         11   -1    0    0    0    0  0.00000000000E+00  0.00000000000E+00  0.50000000000E+03  0.50000000000E+03  0.00000000000E+00 0. -1.
        -11   -1    0    0    0    0 -0.00000000000E+00 -0.00000000000E+00 -0.50000000000E+03  0.50000000000E+03  0.00000000000E+00 0.  1.
          5    1    1    2  501    0  0.71943219085E+02  0.48520721199E+03  0.96829978089E+02  0.50000000000E+03  0.47000000000E+01 0. -1.
         -5    1    1    2    0  501 -0.71943219085E+02 -0.48520721199E+03 -0.96829978089E+02  0.50000000000E+03  0.47000000000E+01 0.  1.
</event>
<event>
 4    1  0.4933936E-004  0.1000000E+04  0.7546771E-02  0.8684367E-01
         11   -1    0    0    0    0  0.00000000000E+00  0.00000000000E+00  0.50000000000E+03  0.50000000000E+03  0.00000000000E+00 0. -1.
        -11   -1    0    0    0    0 -0.00000000000E+00 -0.00000000000E+00 -0.50000000000E+03  0.50000000000E+03  0.00000000000E+00 0.  1.
          5    1    1    2  501    0  0.33516121892E+03  0.73356182048E+02  0.36368081870E+03  0.50000000000E+03  0.47000000000E+01 0. -1.
         -5    1    1    2    0  501 -0.33516121892E+03 -0.73356182048E+02 -0.36368081870E+03  0.50000000000E+03  0.47000000000E+01 0.  1.
</event>
<event>
 4    1  0.4933936E-004  0.1000000E+04  0.7546771E-02  0.8684367E-01
         11   -1    0    0    0    0  0.00000000000E+00  0.00000000000E+00  0.50000000000E+03  0.50000000000E+03  0.00000000000E+00 0.  1.
        -11   -1    0    0    0    0 -0.00000000000E+00 -0.00000000000E+00 -0.50000000000E+03  0.50000000000E+03  0.00000000000E+00 0. -1.
          5    1    1    2  501    0 -0.15987392156E+03 -0.35794871999E+03 -0.31030783597E+03  0.50000000000E+03  0.47000000000E+01 0. -1.
         -5    1    1    2    0  501  0.15987392156E+03  0.35794871999E+03  0.31030783597E+03  0.50000000000E+03  0.47000000000E+01 0.  1.
</event>
<event>
 4    1  0.4933936E-004  0.1000000E+04  0.7546771E-02  0.8684367E-01
         11   -1    0    0    0    0  0.00000000000E+00  0.00000000000E+00  0.50000000000E+03  0.50000000000E+03  0.00000000000E+00 0. -1.
        -11   -1    0    0    0    0 -0.00000000000E+00 -0.00000000000E+00 -0.50000000000E+03  0.50000000000E+03  0.00000000000E+00 0.  1.
          5    1    1    2  501    0 -0.34180096986E+03 -0.33520839539E+03 -0.14417121302E+03  0.50000000000E+03  0.47000000000E+01 0. -1.
         -5    1    1    2    0  501  0.34180096986E+03  0.33520839539E+03  0.14417121302E+03  0.50000000000E+03  0.47000000000E+01 0.  1.
</event>
<event>
 4    1  0.4933936E-004  0.1000000E+04  0.7546771E-02  0.8684367E-01
         11   -1    0    0    0    0  0.00000000000E+00  0.00000000000E+00  0.50000000000E+03  0.50000000000E+03  0.00000000000E+00 0.  1.
        -11   -1    0    0    0    0 -0.00000000000E+00 -0.00000000000E+00 -0.50000000000E+03  0.50000000000E+03  0.00000000000E+00 0. -1.
          5    1    1    2  501    0 -0.33075166725E+03 -0.30558391536E+03  0.21725495457E+03  0.50000000000E+03  0.47000000000E+01 0.  1.
         -5    1    1    2    0  501  0.33075166725E+03  0.30558391536E+03 -0.21725495457E+03  0.50000000000E+03  0.47000000000E+01 0. -1.
</event>
<event>
 4    1  0.4933936E-004  0.1000000E+04  0.7546771E-02  0.8684367E-01
         11   -1    0    0    0    0  0.00000000000E+00  0.00000000000E+00  0.50000000000E+03  0.50000000000E+03  0.00000000000E+00 0. -1.
        -11   -1    0    0    0    0 -0.00000000000E+00 -0.00000000000E+00 -0.50000000000E+03  0.50000000000E+03  0.00000000000E+00 0.  1.
          5    1    1    2  501    0  0.15597626051E+03  0.30311727755E+03  0.36574476374E+03  0.50000000000E+03  0.47000000000E+01 0. -1.
         -5    1    1    2    0  501 -0.15597626051E+03 -0.30311727755E+03 -0.36574476374E+03  0.50000000000E+03  0.47000000000E+01 0.  1.
</event>
<event>
 4    1  0.4933936E-004  0.1000000E+04  0.7546771E-02  0.8684367E-01
         11   -1    0    0    0    0  0.00000000000E+00  0.00000000000E+00  0.50000000000E+03  0.50000000000E+03  0.00000000000E+00 0. -1.
        -11   -1    0    0    0    0 -0.00000000000E+00 -0.00000000000E+00 -0.50000000000E+03  0.50000000000E+03  0.00000000000E+00 0.  1.
          5    1    1    2  501    0 -0.21570330376E+03 -0.38840644763E+03 -0.22932602597E+03  0.50000000000E+03  0.47000000000E+01 0. -1.
         -5    1    1    2    0  501  0.21570330376E+03  0.38840644763E+03  0.22932602597E+03  0.50000000000E+03  0.47000000000E+01 0.  1.
</event>
<event>
 4    1  0.4933936E-004  0.1000000E+04  0.7546771E-02  0.8684367E-01
         11   -1    0    0    0    0  0.00000000000E+00  0.00000000000E+00  0.50000000000E+03  0.50000000000E+03  0.00000000000E+00 0. -1.
        -11   -1    0    0    0    0 -0.00000000000E+00 -0.00000000000E+00 -0.50000000000E+03  0.50000000000E+03  0.00000000000E+00 0.  1.
          5    1    1    2  501    0  0.33914081502E+03 -0.13772360800E+03  0.34057836894E+03  0.50000000000E+03  0.47000000000E+01 0. -1.
         -5    1    1    2    0  501 -0.33914081502E+03  0.13772360800E+03 -0.34057836894E+03  0.50000000000E+03  0.47000000000E+01 0.  1.
</event>
<event>
 4    1  0.4933936E-004  0.1000000E+04  0.7546771E-02  0.8684367E-01
         11   -1    0    0    0    0  0.00000000000E+00  0.00000000000E+00  0.50000000000E+03  0.50000000000E+03  0.00000000000E+00 0. -1.
        -11   -1    0    0    0    0 -0.00000000000E+00 -0.00000000000E+00 -0.50000000000E+03  0.50000000000E+03  0.00000000000E+00 0.  1.
          5    1    1    2  501    0  0.22330403372E+01  0.18578639693E+03 -0.46417274612E+03  0.50000000000E+03  0.47000000000E+01 0. -1.
         -5    1    1    2    0  501 -0.22330403372E+01 -0.18578639693E+03  0.46417274612E+03  0.50000000000E+03  0.47000000000E+01 0.  1.
</event>
<event>
 4    1  0.4933936E-004  0.1000000E+04  0.7546771E-02  0.8684367E-01
         11   -1    0    0    0    0  0.00000000000E+00  0.00000000000E+00  0.50000000000E+03  0.50000000000E+03  0.00000000000E+00 0. -1.
        -11   -1    0    0    0    0 -0.00000000000E+00 -0.00000000000E+00 -0.50000000000E+03  0.50000000000E+03  0.00000000000E+00 0.  1.
          5    1    1    2  501    0 -0.33628210785E+03 -0.16000782413E+02  0.36964338071E+03  0.50000000000E+03  0.47000000000E+01 0. -1.
         -5    1    1    2    0  501  0.33628210785E+03  0.16000782413E+02 -0.36964338071E+03  0.50000000000E+03  0.47000000000E+01 0.  1.
</event>
<event>
 4    1  0.4933936E-004  0.1000000E+04  0.7546771E-02  0.8684367E-01
         11   -1    0    0    0    0  0.00000000000E+00  0.00000000000E+00  0.50000000000E+03  0.50000000000E+03  0.00000000000E+00 0. -1.
        -11   -1    0    0    0    0 -0.00000000000E+00 -0.00000000000E+00 -0.50000000000E+03  0.50000000000E+03  0.00000000000E+00 0.  1.
          5    1    1    2  501    0  0.12116224651E+03 -0.43286423717E+03 -0.21892047003E+03  0.50000000000E+03  0.47000000000E+01 0. -1.
         -5    1    1    2    0  501 -0.12116224651E+03  0.43286423717E+03  0.21892047003E+03  0.50000000000E+03  0.47000000000E+01 0.  1.
</event>
<event>
 4    1  0.4933936E-004  0.1000000E+04  0.7546771E-02  0.8684367E-01
         11   -1    0    0    0    0  0.00000000000E+00  0.00000000000E+00  0.50000000000E+03  0.50000000000E+03  0.00000000000E+00 0.  1.
        -11   -1    0    0    0    0 -0.00000000000E+00 -0.00000000000E+00 -0.50000000000E+03  0.50000000000E+03  0.00000000000E+00 0. -1.
          5    1    1    2  501    0 -0.43413111338E+03 -0.24356246650E+03  0.46748383007E+02  0.50000000000E+03  0.47000000000E+01 0. -1.
         -5    1    1    2    0  501  0.43413111338E+03  0.24356246650E+03 -0.46748383007E+02  0.50000000000E+03  0.47000000000E+01 0.  1.
</event>
<event>
 4    1  0.4933936E-004  0.1000000E+04  0.7546771E-02  0.8684367E-01
         11   -1    0    0    0    0  0.00000000000E+00  0.00000000000E+00  0.50000000000E+03  0.50000000000E+03  0.00000000000E+00 0. -1.
        -11   -1    0    0    0    0 -0.00000000000E+00 -0.00000000000E+00 -0.50000000000E+03  0.50000000000E+03  0.00000000000E+00 0.  1.
          5    1    1    2  501    0  0.46128129381E+03  0.18557944351E+03  0.52514265976E+02  0.50000000000E+03  0.47000000000E+01 0. -1.
         -5    1    1    2    0  501 -0.46128129381E+03 -0.18557944351E+03 -0.52514265976E+02  0.50000000000E+03  0.47000000000E+01 0.  1.
</event>
<event>
 4    1  0.4933936E-004  0.1000000E+04  0.7546771E-02  0.8684367E-01
         11   -1    0    0    0    0  0.00000000000E+00  0.00000000000E+00  0.50000000000E+03  0.50000000000E+03  0.00000000000E+00 0. -1.
        -11   -1    0    0    0    0 -0.00000000000E+00 -0.00000000000E+00 -0.50000000000E+03  0.50000000000E+03  0.00000000000E+00 0.  1.
          5    1    1    2  501    0 -0.19492968242E+03 -0.15437754727E+02  0.46015432698E+03  0.50000000000E+03  0.47000000000E+01 0. -1.
         -5    1    1    2    0  501  0.19492968242E+03  0.15437754727E+02 -0.46015432698E+03  0.50000000000E+03  0.47000000000E+01 0.  1.
</event>
<event>
 4    1  0.4933936E-004  0.1000000E+04  0.7546771E-02  0.8684367E-01
         11   -1    0    0    0    0  0.00000000000E+00  0.00000000000E+00  0.50000000000E+03  0.50000000000E+03  0.00000000000E+00 0. -1.
        -11   -1    0    0    0    0 -0.00000000000E+00 -0.00000000000E+00 -0.50000000000E+03  0.50000000000E+03  0.00000000000E+00 0.  1.
          5    1    1    2  501    0  0.40619536170E+03 -0.95214634622E+02  0.27553114431E+03  0.50000000000E+03  0.47000000000E+01 0. -1.
         -5    1    1    2    0  501 -0.40619536170E+03  0.95214634622E+02 -0.27553114431E+03  0.50000000000E+03  0.47000000000E+01 0.  1.
</event>
<event>
 4    1  0.4933936E-004  0.1000000E+04  0.7546771E-02  0.8684367E-01
         11   -1    0    0    0    0  0.00000000000E+00  0.00000000000E+00  0.50000000000E+03  0.50000000000E+03  0.00000000000E+00 0. -1.
        -11   -1    0    0    0    0 -0.00000000000E+00 -0.00000000000E+00 -0.50000000000E+03  0.50000000000E+03  0.00000000000E+00 0.  1.
          5    1    1    2  501    0 -0.35864251907E+03  0.21536116528E+03  0.27381201947E+03  0.50000000000E+03  0.47000000000E+01 0. -1.
         -5    1    1    2    0  501  0.35864251907E+03 -0.21536116528E+03 -0.27381201947E+03  0.50000000000E+03  0.47000000000E+01 0.  1.
</event>
<event>
 4    1  0.4933936E-004  0.1000000E+04  0.7546771E-02  0.8684367E-01
         11   -1    0    0    0    0  0.00000000000E+00  0.00000000000E+00  0.50000000000E+03  0.50000000000E+03  0.00000000000E+00 0. -1.
        -11   -1    0    0    0    0 -0.00000000000E+00 -0.00000000000E+00 -0.50000000000E+03  0.50000000000E+03  0.00000000000E+00 0.  1.
          5    1    1    2  501    0  0.16437260611E+03 -0.35305661143E+03  0.31354518891E+03  0.50000000000E+03  0.47000000000E+01 0. -1.
         -5    1    1    2    0  501 -0.16437260611E+03  0.35305661143E+03 -0.31354518891E+03  0.50000000000E+03  0.47000000000E+01 0.  1.
</event>
<event>
 4    1  0.4933936E-004  0.1000000E+04  0.7546771E-02  0.8684367E-01
         11   -1    0    0    0    0  0.00000000000E+00  0.00000000000E+00  0.50000000000E+03  0.50000000000E+03  0.00000000000E+00 0. -1.
        -11   -1    0    0    0    0 -0.00000000000E+00 -0.00000000000E+00 -0.50000000000E+03  0.50000000000E+03  0.00000000000E+00 0.  1.
          5    1    1    2  501    0  0.29316007673E+03 -0.38346954439E+03 -0.13033107049E+03  0.50000000000E+03  0.47000000000E+01 0.  1.
         -5    1    1    2    0  501 -0.29316007673E+03  0.38346954439E+03  0.13033107049E+03  0.50000000000E+03  0.47000000000E+01 0. -1.
</event>
<event>
 4    1  0.4933936E-004  0.1000000E+04  0.7546771E-02  0.8684367E-01
         11   -1    0    0    0    0  0.00000000000E+00  0.00000000000E+00  0.50000000000E+03  0.50000000000E+03  0.00000000000E+00 0. -1.
        -11   -1    0    0    0    0 -0.00000000000E+00 -0.00000000000E+00 -0.50000000000E+03  0.50000000000E+03  0.00000000000E+00 0.  1.
          5    1    1    2  501    0  0.40800553328E+03 -0.65029259037E+02  0.28156809173E+03  0.50000000000E+03  0.47000000000E+01 0. -1.
         -5    1    1    2    0  501 -0.40800553328E+03  0.65029259037E+02 -0.28156809173E+03  0.50000000000E+03  0.47000000000E+01 0.  1.
</event>
<event>
 4    1  0.4933936E-004  0.1000000E+04  0.7546771E-02  0.8684367E-01
         11   -1    0    0    0    0  0.00000000000E+00  0.00000000000E+00  0.50000000000E+03  0.50000000000E+03  0.00000000000E+00 0. -1.
        -11   -1    0    0    0    0 -0.00000000000E+00 -0.00000000000E+00 -0.50000000000E+03  0.50000000000E+03  0.00000000000E+00 0.  1.
          5    1    1    2  501    0  0.23207529828E+03  0.29731485902E+03  0.32821157892E+03  0.50000000000E+03  0.47000000000E+01 0. -1.
         -5    1    1    2    0  501 -0.23207529828E+03 -0.29731485902E+03 -0.32821157892E+03  0.50000000000E+03  0.47000000000E+01 0.  1.
</event>
<event>
 4    1  0.4933936E-004  0.1000000E+04  0.7546771E-02  0.8684367E-01
         11   -1    0    0    0    0  0.00000000000E+00  0.00000000000E+00  0.50000000000E+03  0.50000000000E+03  0.00000000000E+00 0. -1.
        -11   -1    0    0    0    0 -0.00000000000E+00 -0.00000000000E+00 -0.50000000000E+03  0.50000000000E+03  0.00000000000E+00 0.  1.
          5    1    1    2  501    0 -0.48559772800E+03 -0.88501619821E+02  0.79625497467E+02  0.50000000000E+03  0.47000000000E+01 0. -1.
         -5    1    1    2    0  501  0.48559772800E+03  0.88501619821E+02 -0.79625497467E+02  0.50000000000E+03  0.47000000000E+01 0.  1.
</event>
<event>
 4    1  0.4933936E-004  0.1000000E+04  0.7546771E-02  0.8684367E-01
         11   -1    0    0    0    0  0.00000000000E+00  0.00000000000E+00  0.50000000000E+03  0.50000000000E+03  0.00000000000E+00 0. -1.
        -11   -1    0    0    0    0 -0.00000000000E+00 -0.00000000000E+00 -0.50000000000E+03  0.50000000000E+03  0.00000000000E+00 0.  1.
          5    1    1    2  501    0 -0.33554616627E+03  0.32778558784E+03  0.17304129192E+03  0.50000000000E+03  0.47000000000E+01 0. -1.
         -5    1    1    2    0  501  0.33554616627E+03 -0.32778558784E+03 -0.17304129192E+03  0.50000000000E+03  0.47000000000E+01 0.  1.
</event>
<event>
 4    1  0.4933936E-004  0.1000000E+04  0.7546771E-02  0.8684367E-01
         11   -1    0    0    0    0  0.00000000000E+00  0.00000000000E+00  0.50000000000E+03  0.50000000000E+03  0.00000000000E+00 0.  1.
        -11   -1    0    0    0    0 -0.00000000000E+00 -0.00000000000E+00 -0.50000000000E+03  0.50000000000E+03  0.00000000000E+00 0. -1.
          5    1    1    2  501    0  0.10648684511E+03 -0.48307850134E+03 -0.72619717452E+02  0.50000000000E+03  0.47000000000E+01 0.  1.
         -5    1    1    2    0  501 -0.10648684511E+03  0.48307850134E+03  0.72619717452E+02  0.50000000000E+03  0.47000000000E+01 0. -1.
</event>
<event>
 4    1  0.4933936E-004  0.1000000E+04  0.7546771E-02  0.8684367E-01
         11   -1    0    0    0    0  0.00000000000E+00  0.00000000000E+00  0.50000000000E+03  0.50000000000E+03  0.00000000000E+00 0. -1.
        -11   -1    0    0    0    0 -0.00000000000E+00 -0.00000000000E+00 -0.50000000000E+03  0.50000000000E+03  0.00000000000E+00 0.  1.
          5    1    1    2  501    0  0.13116643908E+03 -0.54366258946E+01  0.48243519602E+03  0.50000000000E+03  0.47000000000E+01 0. -1.
         -5    1    1    2    0  501 -0.13116643908E+03  0.54366258946E+01 -0.48243519602E+03  0.50000000000E+03  0.47000000000E+01 0.  1.
</event>
<event>
 4    1  0.4933936E-004  0.1000000E+04  0.7546771E-02  0.8684367E-01
         11   -1    0    0    0    0  0.00000000000E+00  0.00000000000E+00  0.50000000000E+03  0.50000000000E+03  0.00000000000E+00 0. -1.
        -11   -1    0    0    0    0 -0.00000000000E+00 -0.00000000000E+00 -0.50000000000E+03  0.50000000000E+03  0.00000000000E+00 0.  1.
          5    1    1    2  501    0  0.22236618667E+03 -0.39885688461E+03  0.20357891499E+03  0.50000000000E+03  0.47000000000E+01 0. -1.
         -5    1    1    2    0  501 -0.22236618667E+03  0.39885688461E+03 -0.20357891499E+03  0.50000000000E+03  0.47000000000E+01 0.  1.
</event>
<event>
 4    1  0.4933936E-004  0.1000000E+04  0.7546771E-02  0.8684367E-01
         11   -1    0    0    0    0  0.00000000000E+00  0.00000000000E+00  0.50000000000E+03  0.50000000000E+03  0.00000000000E+00 0. -1.
        -11   -1    0    0    0    0 -0.00000000000E+00 -0.00000000000E+00 -0.50000000000E+03  0.50000000000E+03  0.00000000000E+00 0.  1.
          5    1    1    2  501    0  0.47143048620E+03  0.12390180116E+03 -0.11126342775E+03  0.50000000000E+03  0.47000000000E+01 0. -1.
         -5    1    1    2    0  501 -0.47143048620E+03 -0.12390180116E+03  0.11126342775E+03  0.50000000000E+03  0.47000000000E+01 0.  1.
</event>
<event>
 4    1  0.4933936E-004  0.1000000E+04  0.7546771E-02  0.8684367E-01
         11   -1    0    0    0    0  0.00000000000E+00  0.00000000000E+00  0.50000000000E+03  0.50000000000E+03  0.00000000000E+00 0. -1.
        -11   -1    0    0    0    0 -0.00000000000E+00 -0.00000000000E+00 -0.50000000000E+03  0.50000000000E+03  0.00000000000E+00 0.  1.
          5    1    1    2  501    0 -0.16272533162E+03 -0.30794647788E+03  0.35870230443E+03  0.50000000000E+03  0.47000000000E+01 0. -1.
         -5    1    1    2    0  501  0.16272533162E+03  0.30794647788E+03 -0.35870230443E+03  0.50000000000E+03  0.47000000000E+01 0.  1.
</event>
<event>
 4    1  0.4933936E-004  0.1000000E+04  0.7546771E-02  0.8684367E-01
         11   -1    0    0    0    0  0.00000000000E+00  0.00000000000E+00  0.50000000000E+03  0.50000000000E+03  0.00000000000E+00 0. -1.
        -11   -1    0    0    0    0 -0.00000000000E+00 -0.00000000000E+00 -0.50000000000E+03  0.50000000000E+03  0.00000000000E+00 0.  1.
          5    1    1    2  501    0 -0.33749657826E+02 -0.33200429469E+03  0.37230635087E+03  0.50000000000E+03  0.47000000000E+01 0. -1.
         -5    1    1    2    0  501  0.33749657826E+02  0.33200429469E+03 -0.37230635087E+03  0.50000000000E+03  0.47000000000E+01 0.  1.
</event>
<event>
 4    1  0.4933936E-004  0.1000000E+04  0.7546771E-02  0.8684367E-01
         11   -1    0    0    0    0  0.00000000000E+00  0.00000000000E+00  0.50000000000E+03  0.50000000000E+03  0.00000000000E+00 0.  1.
        -11   -1    0    0    0    0 -0.00000000000E+00 -0.00000000000E+00 -0.50000000000E+03  0.50000000000E+03  0.00000000000E+00 0. -1.
          5    1    1    2  501    0 -0.49134977241E+03  0.92446024196E+02  0.26540096178E+01  0.50000000000E+03  0.47000000000E+01 0. -1.
         -5    1    1    2    0  501  0.49134977241E+03 -0.92446024196E+02 -0.26540096178E+01  0.50000000000E+03  0.47000000000E+01 0.  1.
</event>
<event>
 4    1  0.4933936E-004  0.1000000E+04  0.7546771E-02  0.8684367E-01
         11   -1    0    0    0    0  0.00000000000E+00  0.00000000000E+00  0.50000000000E+03  0.50000000000E+03  0.00000000000E+00 0. -1.
        -11   -1    0    0    0    0 -0.00000000000E+00 -0.00000000000E+00 -0.50000000000E+03  0.50000000000E+03  0.00000000000E+00 0.  1.
          5    1    1    2  501    0  0.18911365648E+03 -0.28368571178E+03  0.36569981114E+03  0.50000000000E+03  0.47000000000E+01 0. -1.
         -5    1    1    2    0  501 -0.18911365648E+03  0.28368571178E+03 -0.36569981114E+03  0.50000000000E+03  0.47000000000E+01 0.  1.
</event>
<event>
 4    1  0.4933936E-004  0.1000000E+04  0.7546771E-02  0.8684367E-01
         11   -1    0    0    0    0  0.00000000000E+00  0.00000000000E+00  0.50000000000E+03  0.50000000000E+03  0.00000000000E+00 0. -1.
        -11   -1    0    0    0    0 -0.00000000000E+00 -0.00000000000E+00 -0.50000000000E+03  0.50000000000E+03  0.00000000000E+00 0.  1.
          5    1    1    2  501    0  0.11318863550E+03  0.47894232284E+03 -0.88207109604E+02  0.50000000000E+03  0.47000000000E+01 0. -1.
         -5    1    1    2    0  501 -0.11318863550E+03 -0.47894232284E+03  0.88207109604E+02  0.50000000000E+03  0.47000000000E+01 0.  1.
</event>
<event>
 4    1  0.4933936E-004  0.1000000E+04  0.7546771E-02  0.8684367E-01
         11   -1    0    0    0    0  0.00000000000E+00  0.00000000000E+00  0.50000000000E+03  0.50000000000E+03  0.00000000000E+00 0. -1.
        -11   -1    0    0    0    0 -0.00000000000E+00 -0.00000000000E+00 -0.50000000000E+03  0.50000000000E+03  0.00000000000E+00 0.  1.
          5    1    1    2  501    0 -0.42532139444E+03  0.17661776976E+03  0.19464271073E+03  0.50000000000E+03  0.47000000000E+01 0. -1.
         -5    1    1    2    0  501  0.42532139444E+03 -0.17661776976E+03 -0.19464271073E+03  0.50000000000E+03  0.47000000000E+01 0.  1.
</event>
<event>
 4    1  0.4933936E-004  0.1000000E+04  0.7546771E-02  0.8684367E-01
         11   -1    0    0    0    0  0.00000000000E+00  0.00000000000E+00  0.50000000000E+03  0.50000000000E+03  0.00000000000E+00 0. -1.
        -11   -1    0    0    0    0 -0.00000000000E+00 -0.00000000000E+00 -0.50000000000E+03  0.50000000000E+03  0.00000000000E+00 0.  1.
          5    1    1    2  501    0 -0.41012522034E+03  0.13508566672E+03  0.25204578212E+03  0.50000000000E+03  0.47000000000E+01 0. -1.
         -5    1    1    2    0  501  0.41012522034E+03 -0.13508566672E+03 -0.25204578212E+03  0.50000000000E+03  0.47000000000E+01 0.  1.
</event>
<event>
 4    1  0.4933936E-004  0.1000000E+04  0.7546771E-02  0.8684367E-01
         11   -1    0    0    0    0  0.00000000000E+00  0.00000000000E+00  0.50000000000E+03  0.50000000000E+03  0.00000000000E+00 0. -1.
        -11   -1    0    0    0    0 -0.00000000000E+00 -0.00000000000E+00 -0.50000000000E+03  0.50000000000E+03  0.00000000000E+00 0.  1.
          5    1    1    2  501    0  0.18561714008E+02  0.27695513184E+03  0.41584760156E+03  0.50000000000E+03  0.47000000000E+01 0. -1.
         -5    1    1    2    0  501 -0.18561714008E+02 -0.27695513184E+03 -0.41584760156E+03  0.50000000000E+03  0.47000000000E+01 0.  1.
</event>
<event>
 4    1  0.4933936E-004  0.1000000E+04  0.7546771E-02  0.8684367E-01
         11   -1    0    0    0    0  0.00000000000E+00  0.00000000000E+00  0.50000000000E+03  0.50000000000E+03  0.00000000000E+00 0. -1.
        -11   -1    0    0    0    0 -0.00000000000E+00 -0.00000000000E+00 -0.50000000000E+03  0.50000000000E+03  0.00000000000E+00 0.  1.
          5    1    1    2  501    0 -0.12931521603E+03  0.74609901223E+02  0.47716752566E+03  0.50000000000E+03  0.47000000000E+01 0. -1.
         -5    1    1    2    0  501  0.12931521603E+03 -0.74609901223E+02 -0.47716752566E+03  0.50000000000E+03  0.47000000000E+01 0.  1.
</event>
<event>
 4    1  0.4933936E-004  0.1000000E+04  0.7546771E-02  0.8684367E-01
         11   -1    0    0    0    0  0.00000000000E+00  0.00000000000E+00  0.50000000000E+03  0.50000000000E+03  0.00000000000E+00 0. -1.
        -11   -1    0    0    0    0 -0.00000000000E+00 -0.00000000000E+00 -0.50000000000E+03  0.50000000000E+03  0.00000000000E+00 0.  1.
          5    1    1    2  501    0  0.13173845194E+03  0.12646270511E+03  0.46543536017E+03  0.50000000000E+03  0.47000000000E+01 0. -1.
         -5    1    1    2    0  501 -0.13173845194E+03 -0.12646270511E+03 -0.46543536017E+03  0.50000000000E+03  0.47000000000E+01 0.  1.
</event>
<event>
 4    1  0.4933936E-004  0.1000000E+04  0.7546771E-02  0.8684367E-01
         11   -1    0    0    0    0  0.00000000000E+00  0.00000000000E+00  0.50000000000E+03  0.50000000000E+03  0.00000000000E+00 0. -1.
        -11   -1    0    0    0    0 -0.00000000000E+00 -0.00000000000E+00 -0.50000000000E+03  0.50000000000E+03  0.00000000000E+00 0.  1.
          5    1    1    2  501    0 -0.18580778099E+03 -0.33911967880E+03  0.31694040761E+03  0.50000000000E+03  0.47000000000E+01 0. -1.
         -5    1    1    2    0  501  0.18580778099E+03  0.33911967880E+03 -0.31694040761E+03  0.50000000000E+03  0.47000000000E+01 0.  1.
</event>
<event>
 4    1  0.4933936E-004  0.1000000E+04  0.7546771E-02  0.8684367E-01
         11   -1    0    0    0    0  0.00000000000E+00  0.00000000000E+00  0.50000000000E+03  0.50000000000E+03  0.00000000000E+00 0. -1.
        -11   -1    0    0    0    0 -0.00000000000E+00 -0.00000000000E+00 -0.50000000000E+03  0.50000000000E+03  0.00000000000E+00 0.  1.
          5    1    1    2  501    0  0.52665989837E+02  0.81064525778E+01  0.49713025350E+03  0.50000000000E+03  0.47000000000E+01 0. -1.
         -5    1    1    2    0  501 -0.52665989837E+02 -0.81064525778E+01 -0.49713025350E+03  0.50000000000E+03  0.47000000000E+01 0.  1.
</event>
<event>
 4    1  0.4933936E-004  0.1000000E+04  0.7546771E-02  0.8684367E-01
         11   -1    0    0    0    0  0.00000000000E+00  0.00000000000E+00  0.50000000000E+03  0.50000000000E+03  0.00000000000E+00 0. -1.
        -11   -1    0    0    0    0 -0.00000000000E+00 -0.00000000000E+00 -0.50000000000E+03  0.50000000000E+03  0.00000000000E+00 0.  1.
          5    1    1    2  501    0  0.36581573949E+03 -0.11527230445E+03  0.32073205416E+03  0.50000000000E+03  0.47000000000E+01 0. -1.
         -5    1    1    2    0  501 -0.36581573949E+03  0.11527230445E+03 -0.32073205416E+03  0.50000000000E+03  0.47000000000E+01 0.  1.
</event>
<event>
 4    1  0.4933936E-004  0.1000000E+04  0.7546771E-02  0.8684367E-01
         11   -1    0    0    0    0  0.00000000000E+00  0.00000000000E+00  0.50000000000E+03  0.50000000000E+03  0.00000000000E+00 0. -1.
        -11   -1    0    0    0    0 -0.00000000000E+00 -0.00000000000E+00 -0.50000000000E+03  0.50000000000E+03  0.00000000000E+00 0.  1.
          5    1    1    2  501    0  0.30187449010E+03 -0.17119246559E+03 -0.35992060507E+03  0.50000000000E+03  0.47000000000E+01 0.  1.
         -5    1    1    2    0  501 -0.30187449010E+03  0.17119246559E+03  0.35992060507E+03  0.50000000000E+03  0.47000000000E+01 0. -1.
</event>
<event>
 4    1  0.4933936E-004  0.1000000E+04  0.7546771E-02  0.8684367E-01
         11   -1    0    0    0    0  0.00000000000E+00  0.00000000000E+00  0.50000000000E+03  0.50000000000E+03  0.00000000000E+00 0. -1.
        -11   -1    0    0    0    0 -0.00000000000E+00 -0.00000000000E+00 -0.50000000000E+03  0.50000000000E+03  0.00000000000E+00 0.  1.
          5    1    1    2  501    0  0.36915677601E+02  0.36544091407E+03  0.33921686437E+03  0.50000000000E+03  0.47000000000E+01 0. -1.
         -5    1    1    2    0  501 -0.36915677601E+02 -0.36544091407E+03 -0.33921686437E+03  0.50000000000E+03  0.47000000000E+01 0.  1.
</event>
<event>
 4    1  0.4933936E-004  0.1000000E+04  0.7546771E-02  0.8684367E-01
         11   -1    0    0    0    0  0.00000000000E+00  0.00000000000E+00  0.50000000000E+03  0.50000000000E+03  0.00000000000E+00 0.  1.
        -11   -1    0    0    0    0 -0.00000000000E+00 -0.00000000000E+00 -0.50000000000E+03  0.50000000000E+03  0.00000000000E+00 0. -1.
          5    1    1    2  501    0  0.38869253576E+03  0.27240648382E+03  0.15713284257E+03  0.50000000000E+03  0.47000000000E+01 0.  1.
         -5    1    1    2    0  501 -0.38869253576E+03 -0.27240648382E+03 -0.15713284257E+03  0.50000000000E+03  0.47000000000E+01 0. -1.
</event>
<event>
 4    1  0.4933936E-004  0.1000000E+04  0.7546771E-02  0.8684367E-01
         11   -1    0    0    0    0  0.00000000000E+00  0.00000000000E+00  0.50000000000E+03  0.50000000000E+03  0.00000000000E+00 0. -1.
        -11   -1    0    0    0    0 -0.00000000000E+00 -0.00000000000E+00 -0.50000000000E+03  0.50000000000E+03  0.00000000000E+00 0.  1.
          5    1    1    2  501    0 -0.74681786028E+01 -0.38650428784E+03  0.31707502549E+03  0.50000000000E+03  0.47000000000E+01 0. -1.
         -5    1    1    2    0  501  0.74681786028E+01  0.38650428784E+03 -0.31707502549E+03  0.50000000000E+03  0.47000000000E+01 0.  1.
</event>
<event>
 4    1  0.4933936E-004  0.1000000E+04  0.7546771E-02  0.8684367E-01
         11   -1    0    0    0    0  0.00000000000E+00  0.00000000000E+00  0.50000000000E+03  0.50000000000E+03  0.00000000000E+00 0. -1.
        -11   -1    0    0    0    0 -0.00000000000E+00 -0.00000000000E+00 -0.50000000000E+03  0.50000000000E+03  0.00000000000E+00 0.  1.
          5    1    1    2  501    0  0.24103381598E+03 -0.56497010669E+02  0.43438312276E+03  0.50000000000E+03  0.47000000000E+01 0. -1.
         -5    1    1    2    0  501 -0.24103381598E+03  0.56497010669E+02 -0.43438312276E+03  0.50000000000E+03  0.47000000000E+01 0.  1.
</event>
<event>
 4    1  0.4933936E-004  0.1000000E+04  0.7546771E-02  0.8684367E-01
         11   -1    0    0    0    0  0.00000000000E+00  0.00000000000E+00  0.50000000000E+03  0.50000000000E+03  0.00000000000E+00 0. -1.
        -11   -1    0    0    0    0 -0.00000000000E+00 -0.00000000000E+00 -0.50000000000E+03  0.50000000000E+03  0.00000000000E+00 0.  1.
          5    1    1    2  501    0 -0.70491863816E+02 -0.14964964367E+03  0.47181965971E+03  0.50000000000E+03  0.47000000000E+01 0. -1.
         -5    1    1    2    0  501  0.70491863816E+02  0.14964964367E+03 -0.47181965971E+03  0.50000000000E+03  0.47000000000E+01 0.  1.
</event>
<event>
 4    1  0.4933936E-004  0.1000000E+04  0.7546771E-02  0.8684367E-01
         11   -1    0    0    0    0  0.00000000000E+00  0.00000000000E+00  0.50000000000E+03  0.50000000000E+03  0.00000000000E+00 0. -1.
        -11   -1    0    0    0    0 -0.00000000000E+00 -0.00000000000E+00 -0.50000000000E+03  0.50000000000E+03  0.00000000000E+00 0.  1.
          5    1    1    2  501    0 -0.39747626785E+03 -0.15531666184E+03  0.26051345657E+03  0.50000000000E+03  0.47000000000E+01 0. -1.
         -5    1    1    2    0  501  0.39747626785E+03  0.15531666184E+03 -0.26051345657E+03  0.50000000000E+03  0.47000000000E+01 0.  1.
</event>
<event>
 4    1  0.4933936E-004  0.1000000E+04  0.7546771E-02  0.8684367E-01
         11   -1    0    0    0    0  0.00000000000E+00  0.00000000000E+00  0.50000000000E+03  0.50000000000E+03  0.00000000000E+00 0. -1.
        -11   -1    0    0    0    0 -0.00000000000E+00 -0.00000000000E+00 -0.50000000000E+03  0.50000000000E+03  0.00000000000E+00 0.  1.
          5    1    1    2  501    0 -0.33556057658E+03 -0.30543303421E+03  0.20997064332E+03  0.50000000000E+03  0.47000000000E+01 0. -1.
         -5    1    1    2    0  501  0.33556057658E+03  0.30543303421E+03 -0.20997064332E+03  0.50000000000E+03  0.47000000000E+01 0.  1.
</event>
<event>
 4    1  0.4933936E-004  0.1000000E+04  0.7546771E-02  0.8684367E-01
         11   -1    0    0    0    0  0.00000000000E+00  0.00000000000E+00  0.50000000000E+03  0.50000000000E+03  0.00000000000E+00 0.  1.
        -11   -1    0    0    0    0 -0.00000000000E+00 -0.00000000000E+00 -0.50000000000E+03  0.50000000000E+03  0.00000000000E+00 0. -1.
          5    1    1    2  501    0 -0.45155296209E+03 -0.21463743411E+03  0.29333092378E+01  0.50000000000E+03  0.47000000000E+01 0.  1.
         -5    1    1    2    0  501  0.45155296209E+03  0.21463743411E+03 -0.29333092378E+01  0.50000000000E+03  0.47000000000E+01 0. -1.
</event>
<event>
 4    1  0.4933936E-004  0.1000000E+04  0.7546771E-02  0.8684367E-01
         11   -1    0    0    0    0  0.00000000000E+00  0.00000000000E+00  0.50000000000E+03  0.50000000000E+03  0.00000000000E+00 0. -1.
        -11   -1    0    0    0    0 -0.00000000000E+00 -0.00000000000E+00 -0.50000000000E+03  0.50000000000E+03  0.00000000000E+00 0.  1.
          5    1    1    2  501    0 -0.85198239942E+02 -0.14939815434E+03  0.46946710363E+03  0.50000000000E+03  0.47000000000E+01 0. -1.
         -5    1    1    2    0  501  0.85198239942E+02  0.14939815434E+03 -0.46946710363E+03  0.50000000000E+03  0.47000000000E+01 0.  1.
</event>
<event>
 4    1  0.4933936E-004  0.1000000E+04  0.7546771E-02  0.8684367E-01
         11   -1    0    0    0    0  0.00000000000E+00  0.00000000000E+00  0.50000000000E+03  0.50000000000E+03  0.00000000000E+00 0. -1.
        -11   -1    0    0    0    0 -0.00000000000E+00 -0.00000000000E+00 -0.50000000000E+03  0.50000000000E+03  0.00000000000E+00 0.  1.
          5    1    1    2  501    0 -0.13975984872E+03  0.13564565083E+03  0.46048382393E+03  0.50000000000E+03  0.47000000000E+01 0. -1.
         -5    1    1    2    0  501  0.13975984872E+03 -0.13564565083E+03 -0.46048382393E+03  0.50000000000E+03  0.47000000000E+01 0.  1.
</event>
<event>
 4    1  0.4933936E-004  0.1000000E+04  0.7546771E-02  0.8684367E-01
         11   -1    0    0    0    0  0.00000000000E+00  0.00000000000E+00  0.50000000000E+03  0.50000000000E+03  0.00000000000E+00 0.  1.
        -11   -1    0    0    0    0 -0.00000000000E+00 -0.00000000000E+00 -0.50000000000E+03  0.50000000000E+03  0.00000000000E+00 0. -1.
          5    1    1    2  501    0  0.44760787573E+03  0.45139283948E+02 -0.21814569587E+03  0.50000000000E+03  0.47000000000E+01 0.  1.
         -5    1    1    2    0  501 -0.44760787573E+03 -0.45139283948E+02  0.21814569587E+03  0.50000000000E+03  0.47000000000E+01 0. -1.
</event>
<event>
 4    1  0.4933936E-004  0.1000000E+04  0.7546771E-02  0.8684367E-01
         11   -1    0    0    0    0  0.00000000000E+00  0.00000000000E+00  0.50000000000E+03  0.50000000000E+03  0.00000000000E+00 0. -1.
        -11   -1    0    0    0    0 -0.00000000000E+00 -0.00000000000E+00 -0.50000000000E+03  0.50000000000E+03  0.00000000000E+00 0.  1.
          5    1    1    2  501    0 -0.29230721214E+03 -0.40288892561E+03 -0.47062908427E+02  0.50000000000E+03  0.47000000000E+01 0. -1.
         -5    1    1    2    0  501  0.29230721214E+03  0.40288892561E+03  0.47062908427E+02  0.50000000000E+03  0.47000000000E+01 0.  1.
</event>
<event>
 4    1  0.4933936E-004  0.1000000E+04  0.7546771E-02  0.8684367E-01
         11   -1    0    0    0    0  0.00000000000E+00  0.00000000000E+00  0.50000000000E+03  0.50000000000E+03  0.00000000000E+00 0. -1.
        -11   -1    0    0    0    0 -0.00000000000E+00 -0.00000000000E+00 -0.50000000000E+03  0.50000000000E+03  0.00000000000E+00 0.  1.
          5    1    1    2  501    0  0.17582393100E+03 -0.32528491811E+03  0.33653168846E+03  0.50000000000E+03  0.47000000000E+01 0. -1.
         -5    1    1    2    0  501 -0.17582393100E+03  0.32528491811E+03 -0.33653168846E+03  0.50000000000E+03  0.47000000000E+01 0.  1.
</event>
<event>
 4    1  0.4933936E-004  0.1000000E+04  0.7546771E-02  0.8684367E-01
         11   -1    0    0    0    0  0.00000000000E+00  0.00000000000E+00  0.50000000000E+03  0.50000000000E+03  0.00000000000E+00 0. -1.
        -11   -1    0    0    0    0 -0.00000000000E+00 -0.00000000000E+00 -0.50000000000E+03  0.50000000000E+03  0.00000000000E+00 0.  1.
          5    1    1    2  501    0 -0.21656026752E+03  0.34581338803E+03  0.28895096676E+03  0.50000000000E+03  0.47000000000E+01 0. -1.
         -5    1    1    2    0  501  0.21656026752E+03 -0.34581338803E+03 -0.28895096676E+03  0.50000000000E+03  0.47000000000E+01 0.  1.
</event>
<event>
 4    1  0.4933936E-004  0.1000000E+04  0.7546771E-02  0.8684367E-01
         11   -1    0    0    0    0  0.00000000000E+00  0.00000000000E+00  0.50000000000E+03  0.50000000000E+03  0.00000000000E+00 0. -1.
        -11   -1    0    0    0    0 -0.00000000000E+00 -0.00000000000E+00 -0.50000000000E+03  0.50000000000E+03  0.00000000000E+00 0.  1.
          5    1    1    2  501    0  0.77618035757E+02  0.49295728620E+03 -0.30764663330E+02  0.50000000000E+03  0.47000000000E+01 0. -1.
         -5    1    1    2    0  501 -0.77618035757E+02 -0.49295728620E+03  0.30764663330E+02  0.50000000000E+03  0.47000000000E+01 0.  1.
</event>
<event>
 4    1  0.4933936E-004  0.1000000E+04  0.7546771E-02  0.8684367E-01
         11   -1    0    0    0    0  0.00000000000E+00  0.00000000000E+00  0.50000000000E+03  0.50000000000E+03  0.00000000000E+00 0. -1.
        -11   -1    0    0    0    0 -0.00000000000E+00 -0.00000000000E+00 -0.50000000000E+03  0.50000000000E+03  0.00000000000E+00 0.  1.
          5    1    1    2  501    0  0.29610985842E+03  0.26654448126E+03  0.30207764111E+03  0.50000000000E+03  0.47000000000E+01 0. -1.
         -5    1    1    2    0  501 -0.29610985842E+03 -0.26654448126E+03 -0.30207764111E+03  0.50000000000E+03  0.47000000000E+01 0.  1.
</event>
<event>
 4    1  0.4933936E-004  0.1000000E+04  0.7546771E-02  0.8684367E-01
         11   -1    0    0    0    0  0.00000000000E+00  0.00000000000E+00  0.50000000000E+03  0.50000000000E+03  0.00000000000E+00 0. -1.
        -11   -1    0    0    0    0 -0.00000000000E+00 -0.00000000000E+00 -0.50000000000E+03  0.50000000000E+03  0.00000000000E+00 0.  1.
          5    1    1    2  501    0 -0.39562095333E+03  0.16877878373E+03  0.25490330215E+03  0.50000000000E+03  0.47000000000E+01 0. -1.
         -5    1    1    2    0  501  0.39562095333E+03 -0.16877878373E+03 -0.25490330215E+03  0.50000000000E+03  0.47000000000E+01 0.  1.
</event>
<event>
 4    1  0.4933936E-004  0.1000000E+04  0.7546771E-02  0.8684367E-01
         11   -1    0    0    0    0  0.00000000000E+00  0.00000000000E+00  0.50000000000E+03  0.50000000000E+03  0.00000000000E+00 0. -1.
        -11   -1    0    0    0    0 -0.00000000000E+00 -0.00000000000E+00 -0.50000000000E+03  0.50000000000E+03  0.00000000000E+00 0.  1.
          5    1    1    2  501    0  0.27462218923E+03  0.39401266182E+03  0.13897692437E+03  0.50000000000E+03  0.47000000000E+01 0. -1.
         -5    1    1    2    0  501 -0.27462218923E+03 -0.39401266182E+03 -0.13897692437E+03  0.50000000000E+03  0.47000000000E+01 0.  1.
</event>
<event>
 4    1  0.4933936E-004  0.1000000E+04  0.7546771E-02  0.8684367E-01
         11   -1    0    0    0    0  0.00000000000E+00  0.00000000000E+00  0.50000000000E+03  0.50000000000E+03  0.00000000000E+00 0. -1.
        -11   -1    0    0    0    0 -0.00000000000E+00 -0.00000000000E+00 -0.50000000000E+03  0.50000000000E+03  0.00000000000E+00 0.  1.
          5    1    1    2  501    0 -0.44256933288E+02 -0.39094405113E+03  0.30851577389E+03  0.50000000000E+03  0.47000000000E+01 0. -1.
         -5    1    1    2    0  501  0.44256933288E+02  0.39094405113E+03 -0.30851577389E+03  0.50000000000E+03  0.47000000000E+01 0.  1.
</event>
<event>
 4    1  0.4933936E-004  0.1000000E+04  0.7546771E-02  0.8684367E-01
         11   -1    0    0    0    0  0.00000000000E+00  0.00000000000E+00  0.50000000000E+03  0.50000000000E+03  0.00000000000E+00 0. -1.
        -11   -1    0    0    0    0 -0.00000000000E+00 -0.00000000000E+00 -0.50000000000E+03  0.50000000000E+03  0.00000000000E+00 0.  1.
          5    1    1    2  501    0  0.13416410259E+03  0.47735107437E+03  0.64139343416E+02  0.50000000000E+03  0.47000000000E+01 0. -1.
         -5    1    1    2    0  501 -0.13416410259E+03 -0.47735107437E+03 -0.64139343416E+02  0.50000000000E+03  0.47000000000E+01 0.  1.
</event>
<event>
 4    1  0.4933936E-004  0.1000000E+04  0.7546771E-02  0.8684367E-01
         11   -1    0    0    0    0  0.00000000000E+00  0.00000000000E+00  0.50000000000E+03  0.50000000000E+03  0.00000000000E+00 0. -1.
        -11   -1    0    0    0    0 -0.00000000000E+00 -0.00000000000E+00 -0.50000000000E+03  0.50000000000E+03  0.00000000000E+00 0.  1.
          5    1    1    2  501    0 -0.30397089217E+03 -0.19137231080E+03  0.34778764408E+03  0.50000000000E+03  0.47000000000E+01 0. -1.
         -5    1    1    2    0  501  0.30397089217E+03  0.19137231080E+03 -0.34778764408E+03  0.50000000000E+03  0.47000000000E+01 0.  1.
</event>
<event>
 4    1  0.4933936E-004  0.1000000E+04  0.7546771E-02  0.8684367E-01
         11   -1    0    0    0    0  0.00000000000E+00  0.00000000000E+00  0.50000000000E+03  0.50000000000E+03  0.00000000000E+00 0. -1.
        -11   -1    0    0    0    0 -0.00000000000E+00 -0.00000000000E+00 -0.50000000000E+03  0.50000000000E+03  0.00000000000E+00 0.  1.
          5    1    1    2  501    0 -0.36300326513E+03  0.23416014585E+03 -0.25174504087E+03  0.50000000000E+03  0.47000000000E+01 0. -1.
         -5    1    1    2    0  501  0.36300326513E+03 -0.23416014585E+03  0.25174504087E+03  0.50000000000E+03  0.47000000000E+01 0.  1.
</event>
<event>
 4    1  0.4933936E-004  0.1000000E+04  0.7546771E-02  0.8684367E-01
         11   -1    0    0    0    0  0.00000000000E+00  0.00000000000E+00  0.50000000000E+03  0.50000000000E+03  0.00000000000E+00 0. -1.
        -11   -1    0    0    0    0 -0.00000000000E+00 -0.00000000000E+00 -0.50000000000E+03  0.50000000000E+03  0.00000000000E+00 0.  1.
          5    1    1    2  501    0  0.29429459326E+03 -0.28862598203E+03  0.28295519942E+03  0.50000000000E+03  0.47000000000E+01 0. -1.
         -5    1    1    2    0  501 -0.29429459326E+03  0.28862598203E+03 -0.28295519942E+03  0.50000000000E+03  0.47000000000E+01 0.  1.
</event>
<event>
 4    1  0.4933936E-004  0.1000000E+04  0.7546771E-02  0.8684367E-01
         11   -1    0    0    0    0  0.00000000000E+00  0.00000000000E+00  0.50000000000E+03  0.50000000000E+03  0.00000000000E+00 0. -1.
        -11   -1    0    0    0    0 -0.00000000000E+00 -0.00000000000E+00 -0.50000000000E+03  0.50000000000E+03  0.00000000000E+00 0.  1.
          5    1    1    2  501    0  0.23818520590E+03 -0.37705093301E+03  0.22600511411E+03  0.50000000000E+03  0.47000000000E+01 0. -1.
         -5    1    1    2    0  501 -0.23818520590E+03  0.37705093301E+03 -0.22600511411E+03  0.50000000000E+03  0.47000000000E+01 0.  1.
</event>
<event>
 4    1  0.4933936E-004  0.1000000E+04  0.7546771E-02  0.8684367E-01
         11   -1    0    0    0    0  0.00000000000E+00  0.00000000000E+00  0.50000000000E+03  0.50000000000E+03  0.00000000000E+00 0. -1.
        -11   -1    0    0    0    0 -0.00000000000E+00 -0.00000000000E+00 -0.50000000000E+03  0.50000000000E+03  0.00000000000E+00 0.  1.
          5    1    1    2  501    0 -0.44507914588E+03 -0.22776405940E+03 -0.24489078700E+01  0.50000000000E+03  0.47000000000E+01 0. -1.
         -5    1    1    2    0  501  0.44507914588E+03  0.22776405940E+03  0.24489078700E+01  0.50000000000E+03  0.47000000000E+01 0.  1.
</event>
<event>
 4    1  0.4933936E-004  0.1000000E+04  0.7546771E-02  0.8684367E-01
         11   -1    0    0    0    0  0.00000000000E+00  0.00000000000E+00  0.50000000000E+03  0.50000000000E+03  0.00000000000E+00 0. -1.
        -11   -1    0    0    0    0 -0.00000000000E+00 -0.00000000000E+00 -0.50000000000E+03  0.50000000000E+03  0.00000000000E+00 0.  1.
          5    1    1    2  501    0 -0.19697467254E+03 -0.90472697602E+02  0.45054808774E+03  0.50000000000E+03  0.47000000000E+01 0. -1.
         -5    1    1    2    0  501  0.19697467254E+03  0.90472697602E+02 -0.45054808774E+03  0.50000000000E+03  0.47000000000E+01 0.  1.
</event>
<event>
 4    1  0.4933936E-004  0.1000000E+04  0.7546771E-02  0.8684367E-01
         11   -1    0    0    0    0  0.00000000000E+00  0.00000000000E+00  0.50000000000E+03  0.50000000000E+03  0.00000000000E+00 0. -1.
        -11   -1    0    0    0    0 -0.00000000000E+00 -0.00000000000E+00 -0.50000000000E+03  0.50000000000E+03  0.00000000000E+00 0.  1.
          5    1    1    2  501    0 -0.13592606392E+03 -0.59468099572E+02  0.47745739106E+03  0.50000000000E+03  0.47000000000E+01 0. -1.
         -5    1    1    2    0  501  0.13592606392E+03  0.59468099572E+02 -0.47745739106E+03  0.50000000000E+03  0.47000000000E+01 0.  1.
</event>
<event>
 4    1  0.4933936E-004  0.1000000E+04  0.7546771E-02  0.8684367E-01
         11   -1    0    0    0    0  0.00000000000E+00  0.00000000000E+00  0.50000000000E+03  0.50000000000E+03  0.00000000000E+00 0.  1.
        -11   -1    0    0    0    0 -0.00000000000E+00 -0.00000000000E+00 -0.50000000000E+03  0.50000000000E+03  0.00000000000E+00 0. -1.
          5    1    1    2  501    0  0.36091573119E+03  0.29982368079E+03 -0.17269483321E+03  0.50000000000E+03  0.47000000000E+01 0.  1.
         -5    1    1    2    0  501 -0.36091573119E+03 -0.29982368079E+03  0.17269483321E+03  0.50000000000E+03  0.47000000000E+01 0. -1.
</event>
<event>
 4    1  0.4933936E-004  0.1000000E+04  0.7546771E-02  0.8684367E-01
         11   -1    0    0    0    0  0.00000000000E+00  0.00000000000E+00  0.50000000000E+03  0.50000000000E+03  0.00000000000E+00 0. -1.
        -11   -1    0    0    0    0 -0.00000000000E+00 -0.00000000000E+00 -0.50000000000E+03  0.50000000000E+03  0.00000000000E+00 0.  1.
          5    1    1    2  501    0  0.21546345273E+03  0.19962375034E+03  0.40460322396E+03  0.50000000000E+03  0.47000000000E+01 0. -1.
         -5    1    1    2    0  501 -0.21546345273E+03 -0.19962375034E+03 -0.40460322396E+03  0.50000000000E+03  0.47000000000E+01 0.  1.
</event>
<event>
 4    1  0.4933936E-004  0.1000000E+04  0.7546771E-02  0.8684367E-01
         11   -1    0    0    0    0  0.00000000000E+00  0.00000000000E+00  0.50000000000E+03  0.50000000000E+03  0.00000000000E+00 0. -1.
        -11   -1    0    0    0    0 -0.00000000000E+00 -0.00000000000E+00 -0.50000000000E+03  0.50000000000E+03  0.00000000000E+00 0.  1.
          5    1    1    2  501    0 -0.12674111425E+03  0.32082854460E+03  0.36191662704E+03  0.50000000000E+03  0.47000000000E+01 0. -1.
         -5    1    1    2    0  501  0.12674111425E+03 -0.32082854460E+03 -0.36191662704E+03  0.50000000000E+03  0.47000000000E+01 0.  1.
</event>
<event>
 4    1  0.4933936E-004  0.1000000E+04  0.7546771E-02  0.8684367E-01
         11   -1    0    0    0    0  0.00000000000E+00  0.00000000000E+00  0.50000000000E+03  0.50000000000E+03  0.00000000000E+00 0. -1.
        -11   -1    0    0    0    0 -0.00000000000E+00 -0.00000000000E+00 -0.50000000000E+03  0.50000000000E+03  0.00000000000E+00 0.  1.
          5    1    1    2  501    0 -0.44903470438E+03  0.21097599286E+03 -0.61926365186E+02  0.50000000000E+03  0.47000000000E+01 0. -1.
         -5    1    1    2    0  501  0.44903470438E+03 -0.21097599286E+03  0.61926365186E+02  0.50000000000E+03  0.47000000000E+01 0.  1.
</event>
<event>
 4    1  0.4933936E-004  0.1000000E+04  0.7546771E-02  0.8684367E-01
         11   -1    0    0    0    0  0.00000000000E+00  0.00000000000E+00  0.50000000000E+03  0.50000000000E+03  0.00000000000E+00 0. -1.
        -11   -1    0    0    0    0 -0.00000000000E+00 -0.00000000000E+00 -0.50000000000E+03  0.50000000000E+03  0.00000000000E+00 0.  1.
          5    1    1    2  501    0 -0.26060035992E+01 -0.22401363705E+03  0.44697763832E+03  0.50000000000E+03  0.47000000000E+01 0. -1.
         -5    1    1    2    0  501  0.26060035992E+01  0.22401363705E+03 -0.44697763832E+03  0.50000000000E+03  0.47000000000E+01 0.  1.
</event>
<event>
 4    1  0.4933936E-004  0.1000000E+04  0.7546771E-02  0.8684367E-01
         11   -1    0    0    0    0  0.00000000000E+00  0.00000000000E+00  0.50000000000E+03  0.50000000000E+03  0.00000000000E+00 0. -1.
        -11   -1    0    0    0    0 -0.00000000000E+00 -0.00000000000E+00 -0.50000000000E+03  0.50000000000E+03  0.00000000000E+00 0.  1.
          5    1    1    2  501    0  0.35799022053E+03 -0.97715560147E+01  0.34889171486E+03  0.50000000000E+03  0.47000000000E+01 0. -1.
         -5    1    1    2    0  501 -0.35799022053E+03  0.97715560147E+01 -0.34889171486E+03  0.50000000000E+03  0.47000000000E+01 0.  1.
</event>
<event>
 4    1  0.4933936E-004  0.1000000E+04  0.7546771E-02  0.8684367E-01
         11   -1    0    0    0    0  0.00000000000E+00  0.00000000000E+00  0.50000000000E+03  0.50000000000E+03  0.00000000000E+00 0. -1.
        -11   -1    0    0    0    0 -0.00000000000E+00 -0.00000000000E+00 -0.50000000000E+03  0.50000000000E+03  0.00000000000E+00 0.  1.
          5    1    1    2  501    0  0.27150673721E+03  0.28082216865E+03  0.31209119059E+03  0.50000000000E+03  0.47000000000E+01 0. -1.
         -5    1    1    2    0  501 -0.27150673721E+03 -0.28082216865E+03 -0.31209119059E+03  0.50000000000E+03  0.47000000000E+01 0.  1.
</event>
<event>
 4    1  0.4933936E-004  0.1000000E+04  0.7546771E-02  0.8684367E-01
         11   -1    0    0    0    0  0.00000000000E+00  0.00000000000E+00  0.50000000000E+03  0.50000000000E+03  0.00000000000E+00 0. -1.
        -11   -1    0    0    0    0 -0.00000000000E+00 -0.00000000000E+00 -0.50000000000E+03  0.50000000000E+03  0.00000000000E+00 0.  1.
          5    1    1    2  501    0 -0.25347037377E+03  0.38819481946E+03  0.18717762089E+03  0.50000000000E+03  0.47000000000E+01 0. -1.
         -5    1    1    2    0  501  0.25347037377E+03 -0.38819481946E+03 -0.18717762089E+03  0.50000000000E+03  0.47000000000E+01 0.  1.
</event>
<event>
 4    1  0.4933936E-004  0.1000000E+04  0.7546771E-02  0.8684367E-01
         11   -1    0    0    0    0  0.00000000000E+00  0.00000000000E+00  0.50000000000E+03  0.50000000000E+03  0.00000000000E+00 0. -1.
        -11   -1    0    0    0    0 -0.00000000000E+00 -0.00000000000E+00 -0.50000000000E+03  0.50000000000E+03  0.00000000000E+00 0.  1.
          5    1    1    2  501    0 -0.27489271894E+03 -0.29680905013E+02  0.41657045857E+03  0.50000000000E+03  0.47000000000E+01 0. -1.
         -5    1    1    2    0  501  0.27489271894E+03  0.29680905013E+02 -0.41657045857E+03  0.50000000000E+03  0.47000000000E+01 0.  1.
</event>
<event>
 4    1  0.4933936E-004  0.1000000E+04  0.7546771E-02  0.8684367E-01
         11   -1    0    0    0    0  0.00000000000E+00  0.00000000000E+00  0.50000000000E+03  0.50000000000E+03  0.00000000000E+00 0. -1.
        -11   -1    0    0    0    0 -0.00000000000E+00 -0.00000000000E+00 -0.50000000000E+03  0.50000000000E+03  0.00000000000E+00 0.  1.
          5    1    1    2  501    0  0.16489646333E+02  0.44972065406E+03  0.21784704468E+03  0.50000000000E+03  0.47000000000E+01 0. -1.
         -5    1    1    2    0  501 -0.16489646333E+02 -0.44972065406E+03 -0.21784704468E+03  0.50000000000E+03  0.47000000000E+01 0.  1.
</event>
<event>
 4    1  0.4933936E-004  0.1000000E+04  0.7546771E-02  0.8684367E-01
         11   -1    0    0    0    0  0.00000000000E+00  0.00000000000E+00  0.50000000000E+03  0.50000000000E+03  0.00000000000E+00 0. -1.
        -11   -1    0    0    0    0 -0.00000000000E+00 -0.00000000000E+00 -0.50000000000E+03  0.50000000000E+03  0.00000000000E+00 0.  1.
          5    1    1    2  501    0  0.17012916013E+03  0.62788584419E+02  0.46593086669E+03  0.50000000000E+03  0.47000000000E+01 0. -1.
         -5    1    1    2    0  501 -0.17012916013E+03 -0.62788584419E+02 -0.46593086669E+03  0.50000000000E+03  0.47000000000E+01 0.  1.
</event>
<event>
 4    1  0.4933936E-004  0.1000000E+04  0.7546771E-02  0.8684367E-01
         11   -1    0    0    0    0  0.00000000000E+00  0.00000000000E+00  0.50000000000E+03  0.50000000000E+03  0.00000000000E+00 0. -1.
        -11   -1    0    0    0    0 -0.00000000000E+00 -0.00000000000E+00 -0.50000000000E+03  0.50000000000E+03  0.00000000000E+00 0.  1.
          5    1    1    2  501    0 -0.24473169082E+03  0.23137166859E+03  0.36952870048E+03  0.50000000000E+03  0.47000000000E+01 0. -1.
         -5    1    1    2    0  501  0.24473169082E+03 -0.23137166859E+03 -0.36952870048E+03  0.50000000000E+03  0.47000000000E+01 0.  1.
</event>
<event>
 4    1  0.4933936E-004  0.1000000E+04  0.7546771E-02  0.8684367E-01
         11   -1    0    0    0    0  0.00000000000E+00  0.00000000000E+00  0.50000000000E+03  0.50000000000E+03  0.00000000000E+00 0. -1.
        -11   -1    0    0    0    0 -0.00000000000E+00 -0.00000000000E+00 -0.50000000000E+03  0.50000000000E+03  0.00000000000E+00 0.  1.
          5    1    1    2  501    0  0.35728934919E+03  0.12385138835E+02  0.34952659311E+03  0.50000000000E+03  0.47000000000E+01 0. -1.
         -5    1    1    2    0  501 -0.35728934919E+03 -0.12385138835E+02 -0.34952659311E+03  0.50000000000E+03  0.47000000000E+01 0.  1.
</event>
<event>
 4    1  0.4933936E-004  0.1000000E+04  0.7546771E-02  0.8684367E-01
         11   -1    0    0    0    0  0.00000000000E+00  0.00000000000E+00  0.50000000000E+03  0.50000000000E+03  0.00000000000E+00 0.  1.
        -11   -1    0    0    0    0 -0.00000000000E+00 -0.00000000000E+00 -0.50000000000E+03  0.50000000000E+03  0.00000000000E+00 0. -1.
          5    1    1    2  501    0  0.16877302475E+01  0.49847244679E+03 -0.38733465666E+02  0.50000000000E+03  0.47000000000E+01 0.  1.
         -5    1    1    2    0  501 -0.16877302475E+01 -0.49847244679E+03  0.38733465666E+02  0.50000000000E+03  0.47000000000E+01 0. -1.
</event>
<event>
 4    1  0.4933936E-004  0.1000000E+04  0.7546771E-02  0.8684367E-01
         11   -1    0    0    0    0  0.00000000000E+00  0.00000000000E+00  0.50000000000E+03  0.50000000000E+03  0.00000000000E+00 0. -1.
        -11   -1    0    0    0    0 -0.00000000000E+00 -0.00000000000E+00 -0.50000000000E+03  0.50000000000E+03  0.00000000000E+00 0.  1.
          5    1    1    2  501    0  0.24036174101E+03  0.38529875149E+03  0.20916265335E+03  0.50000000000E+03  0.47000000000E+01 0. -1.
         -5    1    1    2    0  501 -0.24036174101E+03 -0.38529875149E+03 -0.20916265335E+03  0.50000000000E+03  0.47000000000E+01 0.  1.
</event>
<event>
 4    1  0.4933936E-004  0.1000000E+04  0.7546771E-02  0.8684367E-01
         11   -1    0    0    0    0  0.00000000000E+00  0.00000000000E+00  0.50000000000E+03  0.50000000000E+03  0.00000000000E+00 0. -1.
        -11   -1    0    0    0    0 -0.00000000000E+00 -0.00000000000E+00 -0.50000000000E+03  0.50000000000E+03  0.00000000000E+00 0.  1.
          5    1    1    2  501    0 -0.27727887404E+03 -0.31572262542E+03  0.27094936761E+03  0.50000000000E+03  0.47000000000E+01 0. -1.
         -5    1    1    2    0  501  0.27727887404E+03  0.31572262542E+03 -0.27094936761E+03  0.50000000000E+03  0.47000000000E+01 0.  1.
</event>
<event>
 4    1  0.4933936E-004  0.1000000E+04  0.7546771E-02  0.8684367E-01
         11   -1    0    0    0    0  0.00000000000E+00  0.00000000000E+00  0.50000000000E+03  0.50000000000E+03  0.00000000000E+00 0. -1.
        -11   -1    0    0    0    0 -0.00000000000E+00 -0.00000000000E+00 -0.50000000000E+03  0.50000000000E+03  0.00000000000E+00 0.  1.
          5    1    1    2  501    0 -0.15852268043E+03 -0.47246982444E+03  0.40258350457E+02  0.50000000000E+03  0.47000000000E+01 0. -1.
         -5    1    1    2    0  501  0.15852268043E+03  0.47246982444E+03 -0.40258350457E+02  0.50000000000E+03  0.47000000000E+01 0.  1.
</event>
<event>
 4    1  0.4933936E-004  0.1000000E+04  0.7546771E-02  0.8684367E-01
         11   -1    0    0    0    0  0.00000000000E+00  0.00000000000E+00  0.50000000000E+03  0.50000000000E+03  0.00000000000E+00 0. -1.
        -11   -1    0    0    0    0 -0.00000000000E+00 -0.00000000000E+00 -0.50000000000E+03  0.50000000000E+03  0.00000000000E+00 0.  1.
          5    1    1    2  501    0 -0.44148307940E+03 -0.11225181496E+03  0.20608282473E+03  0.50000000000E+03  0.47000000000E+01 0. -1.
         -5    1    1    2    0  501  0.44148307940E+03  0.11225181496E+03 -0.20608282473E+03  0.50000000000E+03  0.47000000000E+01 0.  1.
</event>
<event>
 4    1  0.4933936E-004  0.1000000E+04  0.7546771E-02  0.8684367E-01
         11   -1    0    0    0    0  0.00000000000E+00  0.00000000000E+00  0.50000000000E+03  0.50000000000E+03  0.00000000000E+00 0. -1.
        -11   -1    0    0    0    0 -0.00000000000E+00 -0.00000000000E+00 -0.50000000000E+03  0.50000000000E+03  0.00000000000E+00 0.  1.
          5    1    1    2  501    0 -0.11750907091E+03  0.21147453464E+03  0.43754776819E+03  0.50000000000E+03  0.47000000000E+01 0. -1.
         -5    1    1    2    0  501  0.11750907091E+03 -0.21147453464E+03 -0.43754776819E+03  0.50000000000E+03  0.47000000000E+01 0.  1.
</event>
<event>
 4    1  0.4933936E-004  0.1000000E+04  0.7546771E-02  0.8684367E-01
         11   -1    0    0    0    0  0.00000000000E+00  0.00000000000E+00  0.50000000000E+03  0.50000000000E+03  0.00000000000E+00 0. -1.
        -11   -1    0    0    0    0 -0.00000000000E+00 -0.00000000000E+00 -0.50000000000E+03  0.50000000000E+03  0.00000000000E+00 0.  1.
          5    1    1    2  501    0 -0.30795824003E+03 -0.63247340206E+02  0.38876651907E+03  0.50000000000E+03  0.47000000000E+01 0. -1.
         -5    1    1    2    0  501  0.30795824003E+03  0.63247340206E+02 -0.38876651907E+03  0.50000000000E+03  0.47000000000E+01 0.  1.
</event>
<event>
 4    1  0.4933936E-004  0.1000000E+04  0.7546771E-02  0.8684367E-01
         11   -1    0    0    0    0  0.00000000000E+00  0.00000000000E+00  0.50000000000E+03  0.50000000000E+03  0.00000000000E+00 0. -1.
        -11   -1    0    0    0    0 -0.00000000000E+00 -0.00000000000E+00 -0.50000000000E+03  0.50000000000E+03  0.00000000000E+00 0.  1.
          5    1    1    2  501    0 -0.29021603567E+03 -0.96136191674E+02  0.39561394729E+03  0.50000000000E+03  0.47000000000E+01 0. -1.
         -5    1    1    2    0  501  0.29021603567E+03  0.96136191674E+02 -0.39561394729E+03  0.50000000000E+03  0.47000000000E+01 0.  1.
</event>
<event>
 4    1  0.4933936E-004  0.1000000E+04  0.7546771E-02  0.8684367E-01
         11   -1    0    0    0    0  0.00000000000E+00  0.00000000000E+00  0.50000000000E+03  0.50000000000E+03  0.00000000000E+00 0. -1.
        -11   -1    0    0    0    0 -0.00000000000E+00 -0.00000000000E+00 -0.50000000000E+03  0.50000000000E+03  0.00000000000E+00 0.  1.
          5    1    1    2  501    0  0.14180475034E+03  0.95488269616E+02  0.46984179587E+03  0.50000000000E+03  0.47000000000E+01 0. -1.
         -5    1    1    2    0  501 -0.14180475034E+03 -0.95488269616E+02 -0.46984179587E+03  0.50000000000E+03  0.47000000000E+01 0.  1.
</event>
<event>
 4    1  0.4933936E-004  0.1000000E+04  0.7546771E-02  0.8684367E-01
         11   -1    0    0    0    0  0.00000000000E+00  0.00000000000E+00  0.50000000000E+03  0.50000000000E+03  0.00000000000E+00 0. -1.
        -11   -1    0    0    0    0 -0.00000000000E+00 -0.00000000000E+00 -0.50000000000E+03  0.50000000000E+03  0.00000000000E+00 0.  1.
          5    1    1    2  501    0  0.49762699364E+02 -0.36922298236E+03  0.33343061205E+03  0.50000000000E+03  0.47000000000E+01 0. -1.
         -5    1    1    2    0  501 -0.49762699364E+02  0.36922298236E+03 -0.33343061205E+03  0.50000000000E+03  0.47000000000E+01 0.  1.
</event>
<event>
 4    1  0.4933936E-004  0.1000000E+04  0.7546771E-02  0.8684367E-01
         11   -1    0    0    0    0  0.00000000000E+00  0.00000000000E+00  0.50000000000E+03  0.50000000000E+03  0.00000000000E+00 0. -1.
        -11   -1    0    0    0    0 -0.00000000000E+00 -0.00000000000E+00 -0.50000000000E+03  0.50000000000E+03  0.00000000000E+00 0.  1.
          5    1    1    2  501    0 -0.88308844849E+02 -0.26008692188E+03  0.41777296584E+03  0.50000000000E+03  0.47000000000E+01 0. -1.
         -5    1    1    2    0  501  0.88308844849E+02  0.26008692188E+03 -0.41777296584E+03  0.50000000000E+03  0.47000000000E+01 0.  1.
</event>
<event>
 4    1  0.4933936E-004  0.1000000E+04  0.7546771E-02  0.8684367E-01
         11   -1    0    0    0    0  0.00000000000E+00  0.00000000000E+00  0.50000000000E+03  0.50000000000E+03  0.00000000000E+00 0. -1.
        -11   -1    0    0    0    0 -0.00000000000E+00 -0.00000000000E+00 -0.50000000000E+03  0.50000000000E+03  0.00000000000E+00 0.  1.
          5    1    1    2  501    0  0.39839797150E+03 -0.22801945095E+03  0.19815170020E+03  0.50000000000E+03  0.47000000000E+01 0. -1.
         -5    1    1    2    0  501 -0.39839797150E+03  0.22801945095E+03 -0.19815170020E+03  0.50000000000E+03  0.47000000000E+01 0.  1.
</event>
<event>
 4    1  0.4933936E-004  0.1000000E+04  0.7546771E-02  0.8684367E-01
         11   -1    0    0    0    0  0.00000000000E+00  0.00000000000E+00  0.50000000000E+03  0.50000000000E+03  0.00000000000E+00 0. -1.
        -11   -1    0    0    0    0 -0.00000000000E+00 -0.00000000000E+00 -0.50000000000E+03  0.50000000000E+03  0.00000000000E+00 0.  1.
          5    1    1    2  501    0  0.34334456402E+01  0.48687084839E+03  0.11367892698E+03  0.50000000000E+03  0.47000000000E+01 0. -1.
         -5    1    1    2    0  501 -0.34334456402E+01 -0.48687084839E+03 -0.11367892698E+03  0.50000000000E+03  0.47000000000E+01 0.  1.
</event>
<event>
 4    1  0.4933936E-004  0.1000000E+04  0.7546771E-02  0.8684367E-01
         11   -1    0    0    0    0  0.00000000000E+00  0.00000000000E+00  0.50000000000E+03  0.50000000000E+03  0.00000000000E+00 0. -1.
        -11   -1    0    0    0    0 -0.00000000000E+00 -0.00000000000E+00 -0.50000000000E+03  0.50000000000E+03  0.00000000000E+00 0.  1.
          5    1    1    2  501    0 -0.28117070679E+03 -0.28957286977E+03  0.29507371407E+03  0.50000000000E+03  0.47000000000E+01 0. -1.
         -5    1    1    2    0  501  0.28117070679E+03  0.28957286977E+03 -0.29507371407E+03  0.50000000000E+03  0.47000000000E+01 0.  1.
</event>
<event>
 4    1  0.4933936E-004  0.1000000E+04  0.7546771E-02  0.8684367E-01
         11   -1    0    0    0    0  0.00000000000E+00  0.00000000000E+00  0.50000000000E+03  0.50000000000E+03  0.00000000000E+00 0. -1.
        -11   -1    0    0    0    0 -0.00000000000E+00 -0.00000000000E+00 -0.50000000000E+03  0.50000000000E+03  0.00000000000E+00 0.  1.
          5    1    1    2  501    0  0.22698027391E+02  0.36387208049E+03  0.34214005698E+03  0.50000000000E+03  0.47000000000E+01 0. -1.
         -5    1    1    2    0  501 -0.22698027391E+02 -0.36387208049E+03 -0.34214005698E+03  0.50000000000E+03  0.47000000000E+01 0.  1.
</event>
<event>
 4    1  0.4933936E-004  0.1000000E+04  0.7546771E-02  0.8684367E-01
         11   -1    0    0    0    0  0.00000000000E+00  0.00000000000E+00  0.50000000000E+03  0.50000000000E+03  0.00000000000E+00 0. -1.
        -11   -1    0    0    0    0 -0.00000000000E+00 -0.00000000000E+00 -0.50000000000E+03  0.50000000000E+03  0.00000000000E+00 0.  1.
          5    1    1    2  501    0  0.24107809110E+03 -0.54293913951E+02  0.43463943090E+03  0.50000000000E+03  0.47000000000E+01 0. -1.
         -5    1    1    2    0  501 -0.24107809110E+03  0.54293913951E+02 -0.43463943090E+03  0.50000000000E+03  0.47000000000E+01 0.  1.
</event>
<event>
 4    1  0.4933936E-004  0.1000000E+04  0.7546771E-02  0.8684367E-01
         11   -1    0    0    0    0  0.00000000000E+00  0.00000000000E+00  0.50000000000E+03  0.50000000000E+03  0.00000000000E+00 0. -1.
        -11   -1    0    0    0    0 -0.00000000000E+00 -0.00000000000E+00 -0.50000000000E+03  0.50000000000E+03  0.00000000000E+00 0.  1.
          5    1    1    2  501    0 -0.17654898300E+03 -0.14904756014E+01  0.46776719112E+03  0.50000000000E+03  0.47000000000E+01 0. -1.
         -5    1    1    2    0  501  0.17654898300E+03  0.14904756014E+01 -0.46776719112E+03  0.50000000000E+03  0.47000000000E+01 0.  1.
</event>
<event>
 4    1  0.4933936E-004  0.1000000E+04  0.7546771E-02  0.8684367E-01
         11   -1    0    0    0    0  0.00000000000E+00  0.00000000000E+00  0.50000000000E+03  0.50000000000E+03  0.00000000000E+00 0.  1.
        -11   -1    0    0    0    0 -0.00000000000E+00 -0.00000000000E+00 -0.50000000000E+03  0.50000000000E+03  0.00000000000E+00 0. -1.
          5    1    1    2  501    0 -0.36342275290E+03 -0.15618832453E+03  0.30578917567E+03  0.50000000000E+03  0.47000000000E+01 0.  1.
         -5    1    1    2    0  501  0.36342275290E+03  0.15618832453E+03 -0.30578917567E+03  0.50000000000E+03  0.47000000000E+01 0. -1.
</event>
<event>
 4    1  0.4933936E-004  0.1000000E+04  0.7546771E-02  0.8684367E-01
         11   -1    0    0    0    0  0.00000000000E+00  0.00000000000E+00  0.50000000000E+03  0.50000000000E+03  0.00000000000E+00 0. -1.
        -11   -1    0    0    0    0 -0.00000000000E+00 -0.00000000000E+00 -0.50000000000E+03  0.50000000000E+03  0.00000000000E+00 0.  1.
          5    1    1    2  501    0 -0.16803600337E+03  0.22762760257E+03  0.41222261718E+03  0.50000000000E+03  0.47000000000E+01 0. -1.
         -5    1    1    2    0  501  0.16803600337E+03 -0.22762760257E+03 -0.41222261718E+03  0.50000000000E+03  0.47000000000E+01 0.  1.
</event>
<event>
 4    1  0.4933936E-004  0.1000000E+04  0.7546771E-02  0.8684367E-01
         11   -1    0    0    0    0  0.00000000000E+00  0.00000000000E+00  0.50000000000E+03  0.50000000000E+03  0.00000000000E+00 0. -1.
        -11   -1    0    0    0    0 -0.00000000000E+00 -0.00000000000E+00 -0.50000000000E+03  0.50000000000E+03  0.00000000000E+00 0.  1.
          5    1    1    2  501    0  0.10117244912E+03 -0.48510446301E+03  0.66450775068E+02  0.50000000000E+03  0.47000000000E+01 0. -1.
         -5    1    1    2    0  501 -0.10117244912E+03  0.48510446301E+03 -0.66450775068E+02  0.50000000000E+03  0.47000000000E+01 0.  1.
</event>
<event>
 4    1  0.4933936E-004  0.1000000E+04  0.7546771E-02  0.8684367E-01
         11   -1    0    0    0    0  0.00000000000E+00  0.00000000000E+00  0.50000000000E+03  0.50000000000E+03  0.00000000000E+00 0. -1.
        -11   -1    0    0    0    0 -0.00000000000E+00 -0.00000000000E+00 -0.50000000000E+03  0.50000000000E+03  0.00000000000E+00 0.  1.
          5    1    1    2  501    0  0.80030493947E+02 -0.40351237468E+03 -0.28416684099E+03  0.50000000000E+03  0.47000000000E+01 0. -1.
         -5    1    1    2    0  501 -0.80030493947E+02  0.40351237468E+03  0.28416684099E+03  0.50000000000E+03  0.47000000000E+01 0.  1.
</event>
<event>
 4    1  0.4933936E-004  0.1000000E+04  0.7546771E-02  0.8684367E-01
         11   -1    0    0    0    0  0.00000000000E+00  0.00000000000E+00  0.50000000000E+03  0.50000000000E+03  0.00000000000E+00 0. -1.
        -11   -1    0    0    0    0 -0.00000000000E+00 -0.00000000000E+00 -0.50000000000E+03  0.50000000000E+03  0.00000000000E+00 0.  1.
          5    1    1    2  501    0  0.28397898579E+03  0.39456791432E+03  0.11683324281E+03  0.50000000000E+03  0.47000000000E+01 0. -1.
         -5    1    1    2    0  501 -0.28397898579E+03 -0.39456791432E+03 -0.11683324281E+03  0.50000000000E+03  0.47000000000E+01 0.  1.
</event>
<event>
 4    1  0.4933936E-004  0.1000000E+04  0.7546771E-02  0.8684367E-01
         11   -1    0    0    0    0  0.00000000000E+00  0.00000000000E+00  0.50000000000E+03  0.50000000000E+03  0.00000000000E+00 0. -1.
        -11   -1    0    0    0    0 -0.00000000000E+00 -0.00000000000E+00 -0.50000000000E+03  0.50000000000E+03  0.00000000000E+00 0.  1.
          5    1    1    2  501    0 -0.37228113814E+03 -0.24440383797E+03  0.22726950559E+03  0.50000000000E+03  0.47000000000E+01 0. -1.
         -5    1    1    2    0  501  0.37228113814E+03  0.24440383797E+03 -0.22726950559E+03  0.50000000000E+03  0.47000000000E+01 0.  1.
</event>
<event>
 4    1  0.4933936E-004  0.1000000E+04  0.7546771E-02  0.8684367E-01
         11   -1    0    0    0    0  0.00000000000E+00  0.00000000000E+00  0.50000000000E+03  0.50000000000E+03  0.00000000000E+00 0. -1.
        -11   -1    0    0    0    0 -0.00000000000E+00 -0.00000000000E+00 -0.50000000000E+03  0.50000000000E+03  0.00000000000E+00 0.  1.
          5    1    1    2  501    0 -0.21476362789E+03 -0.12933913412E+03  0.43258049253E+03  0.50000000000E+03  0.47000000000E+01 0. -1.
         -5    1    1    2    0  501  0.21476362789E+03  0.12933913412E+03 -0.43258049253E+03  0.50000000000E+03  0.47000000000E+01 0.  1.
</event>
<event>
 4    1  0.4933936E-004  0.1000000E+04  0.7546771E-02  0.8684367E-01
         11   -1    0    0    0    0  0.00000000000E+00  0.00000000000E+00  0.50000000000E+03  0.50000000000E+03  0.00000000000E+00 0. -1.
        -11   -1    0    0    0    0 -0.00000000000E+00 -0.00000000000E+00 -0.50000000000E+03  0.50000000000E+03  0.00000000000E+00 0.  1.
          5    1    1    2  501    0 -0.18554191160E+02  0.49939018568E+03 -0.15591485983E+02  0.50000000000E+03  0.47000000000E+01 0. -1.
         -5    1    1    2    0  501  0.18554191160E+02 -0.49939018568E+03  0.15591485983E+02  0.50000000000E+03  0.47000000000E+01 0.  1.
</event>
<event>
 4    1  0.4933936E-004  0.1000000E+04  0.7546771E-02  0.8684367E-01
         11   -1    0    0    0    0  0.00000000000E+00  0.00000000000E+00  0.50000000000E+03  0.50000000000E+03  0.00000000000E+00 0.  1.
        -11   -1    0    0    0    0 -0.00000000000E+00 -0.00000000000E+00 -0.50000000000E+03  0.50000000000E+03  0.00000000000E+00 0. -1.
          5    1    1    2  501    0 -0.21300355313E+03 -0.11851673451E+03  0.43653313734E+03  0.50000000000E+03  0.47000000000E+01 0.  1.
         -5    1    1    2    0  501  0.21300355313E+03  0.11851673451E+03 -0.43653313734E+03  0.50000000000E+03  0.47000000000E+01 0. -1.
</event>
<event>
 4    1  0.4933936E-004  0.1000000E+04  0.7546771E-02  0.8684367E-01
         11   -1    0    0    0    0  0.00000000000E+00  0.00000000000E+00  0.50000000000E+03  0.50000000000E+03  0.00000000000E+00 0. -1.
        -11   -1    0    0    0    0 -0.00000000000E+00 -0.00000000000E+00 -0.50000000000E+03  0.50000000000E+03  0.00000000000E+00 0.  1.
          5    1    1    2  501    0 -0.16199423641E+03  0.64539014404E+02  0.46858349628E+03  0.50000000000E+03  0.47000000000E+01 0. -1.
         -5    1    1    2    0  501  0.16199423641E+03 -0.64539014404E+02 -0.46858349628E+03  0.50000000000E+03  0.47000000000E+01 0.  1.
</event>
<event>
 4    1  0.4933936E-004  0.1000000E+04  0.7546771E-02  0.8684367E-01
         11   -1    0    0    0    0  0.00000000000E+00  0.00000000000E+00  0.50000000000E+03  0.50000000000E+03  0.00000000000E+00 0.  1.
        -11   -1    0    0    0    0 -0.00000000000E+00 -0.00000000000E+00 -0.50000000000E+03  0.50000000000E+03  0.00000000000E+00 0. -1.
          5    1    1    2  501    0  0.36962990962E+03 -0.20441190071E+03 -0.26752086791E+03  0.50000000000E+03  0.47000000000E+01 0. -1.
         -5    1    1    2    0  501 -0.36962990962E+03  0.20441190071E+03  0.26752086791E+03  0.50000000000E+03  0.47000000000E+01 0.  1.
</event>
<event>
 4    1  0.4933936E-004  0.1000000E+04  0.7546771E-02  0.8684367E-01
         11   -1    0    0    0    0  0.00000000000E+00  0.00000000000E+00  0.50000000000E+03  0.50000000000E+03  0.00000000000E+00 0. -1.
        -11   -1    0    0    0    0 -0.00000000000E+00 -0.00000000000E+00 -0.50000000000E+03  0.50000000000E+03  0.00000000000E+00 0.  1.
          5    1    1    2  501    0 -0.10253223288E+03 -0.29070557183E+02  0.48848741430E+03  0.50000000000E+03  0.47000000000E+01 0. -1.
         -5    1    1    2    0  501  0.10253223288E+03  0.29070557183E+02 -0.48848741430E+03  0.50000000000E+03  0.47000000000E+01 0.  1.
</event>
<event>
 4    1  0.4933936E-004  0.1000000E+04  0.7546771E-02  0.8684367E-01
         11   -1    0    0    0    0  0.00000000000E+00  0.00000000000E+00  0.50000000000E+03  0.50000000000E+03  0.00000000000E+00 0. -1.
        -11   -1    0    0    0    0 -0.00000000000E+00 -0.00000000000E+00 -0.50000000000E+03  0.50000000000E+03  0.00000000000E+00 0.  1.
          5    1    1    2  501    0  0.23675041251E+03  0.42520592811E+03 -0.11457343008E+03  0.50000000000E+03  0.47000000000E+01 0. -1.
         -5    1    1    2    0  501 -0.23675041251E+03 -0.42520592811E+03  0.11457343008E+03  0.50000000000E+03  0.47000000000E+01 0.  1.
</event>
<event>
 4    1  0.4933936E-004  0.1000000E+04  0.7546771E-02  0.8684367E-01
         11   -1    0    0    0    0  0.00000000000E+00  0.00000000000E+00  0.50000000000E+03  0.50000000000E+03  0.00000000000E+00 0. -1.
        -11   -1    0    0    0    0 -0.00000000000E+00 -0.00000000000E+00 -0.50000000000E+03  0.50000000000E+03  0.00000000000E+00 0.  1.
          5    1    1    2  501    0 -0.47810799839E+03 -0.65559276656E+02  0.13073879729E+03  0.50000000000E+03  0.47000000000E+01 0. -1.
         -5    1    1    2    0  501  0.47810799839E+03  0.65559276656E+02 -0.13073879729E+03  0.50000000000E+03  0.47000000000E+01 0.  1.
</event>
<event>
 4    1  0.4933936E-004  0.1000000E+04  0.7546771E-02  0.8684367E-01
         11   -1    0    0    0    0  0.00000000000E+00  0.00000000000E+00  0.50000000000E+03  0.50000000000E+03  0.00000000000E+00 0. -1.
        -11   -1    0    0    0    0 -0.00000000000E+00 -0.00000000000E+00 -0.50000000000E+03  0.50000000000E+03  0.00000000000E+00 0.  1.
          5    1    1    2  501    0  0.42020277029E+03  0.18605884606E+03  0.19695087622E+03  0.50000000000E+03  0.47000000000E+01 0. -1.
         -5    1    1    2    0  501 -0.42020277029E+03 -0.18605884606E+03 -0.19695087622E+03  0.50000000000E+03  0.47000000000E+01 0.  1.
</event>
<event>
 4    1  0.4933936E-004  0.1000000E+04  0.7546771E-02  0.8684367E-01
         11   -1    0    0    0    0  0.00000000000E+00  0.00000000000E+00  0.50000000000E+03  0.50000000000E+03  0.00000000000E+00 0. -1.
        -11   -1    0    0    0    0 -0.00000000000E+00 -0.00000000000E+00 -0.50000000000E+03  0.50000000000E+03  0.00000000000E+00 0.  1.
          5    1    1    2  501    0  0.16526794866E+03 -0.31571333275E+03  0.35069859804E+03  0.50000000000E+03  0.47000000000E+01 0. -1.
         -5    1    1    2    0  501 -0.16526794866E+03  0.31571333275E+03 -0.35069859804E+03  0.50000000000E+03  0.47000000000E+01 0.  1.
</event>
<event>
 4    1  0.4933936E-004  0.1000000E+04  0.7546771E-02  0.8684367E-01
         11   -1    0    0    0    0  0.00000000000E+00  0.00000000000E+00  0.50000000000E+03  0.50000000000E+03  0.00000000000E+00 0. -1.
        -11   -1    0    0    0    0 -0.00000000000E+00 -0.00000000000E+00 -0.50000000000E+03  0.50000000000E+03  0.00000000000E+00 0.  1.
          5    1    1    2  501    0  0.24248573454E+02  0.34057165072E+03  0.36524083481E+03  0.50000000000E+03  0.47000000000E+01 0. -1.
         -5    1    1    2    0  501 -0.24248573454E+02 -0.34057165072E+03 -0.36524083481E+03  0.50000000000E+03  0.47000000000E+01 0.  1.
</event>
<event>
 4    1  0.4933936E-004  0.1000000E+04  0.7546771E-02  0.8684367E-01
         11   -1    0    0    0    0  0.00000000000E+00  0.00000000000E+00  0.50000000000E+03  0.50000000000E+03  0.00000000000E+00 0. -1.
        -11   -1    0    0    0    0 -0.00000000000E+00 -0.00000000000E+00 -0.50000000000E+03  0.50000000000E+03  0.00000000000E+00 0.  1.
          5    1    1    2  501    0 -0.49808266170E+03  0.13016694122E+02  0.41498648042E+02  0.50000000000E+03  0.47000000000E+01 0. -1.
         -5    1    1    2    0  501  0.49808266170E+03 -0.13016694122E+02 -0.41498648042E+02  0.50000000000E+03  0.47000000000E+01 0.  1.
</event>
<event>
 4    1  0.4933936E-004  0.1000000E+04  0.7546771E-02  0.8684367E-01
         11   -1    0    0    0    0  0.00000000000E+00  0.00000000000E+00  0.50000000000E+03  0.50000000000E+03  0.00000000000E+00 0. -1.
        -11   -1    0    0    0    0 -0.00000000000E+00 -0.00000000000E+00 -0.50000000000E+03  0.50000000000E+03  0.00000000000E+00 0.  1.
          5    1    1    2  501    0 -0.41296567876E+03  0.17528446679E+03  0.22070934250E+03  0.50000000000E+03  0.47000000000E+01 0. -1.
         -5    1    1    2    0  501  0.41296567876E+03 -0.17528446679E+03 -0.22070934250E+03  0.50000000000E+03  0.47000000000E+01 0.  1.
</event>
<event>
 4    1  0.4933936E-004  0.1000000E+04  0.7546771E-02  0.8684367E-01
         11   -1    0    0    0    0  0.00000000000E+00  0.00000000000E+00  0.50000000000E+03  0.50000000000E+03  0.00000000000E+00 0. -1.
        -11   -1    0    0    0    0 -0.00000000000E+00 -0.00000000000E+00 -0.50000000000E+03  0.50000000000E+03  0.00000000000E+00 0.  1.
          5    1    1    2  501    0  0.43535859997E+02  0.59998653208E+02  0.49445191931E+03  0.50000000000E+03  0.47000000000E+01 0. -1.
         -5    1    1    2    0  501 -0.43535859997E+02 -0.59998653208E+02 -0.49445191931E+03  0.50000000000E+03  0.47000000000E+01 0.  1.
</event>
<event>
 4    1  0.4933936E-004  0.1000000E+04  0.7546771E-02  0.8684367E-01
         11   -1    0    0    0    0  0.00000000000E+00  0.00000000000E+00  0.50000000000E+03  0.50000000000E+03  0.00000000000E+00 0. -1.
        -11   -1    0    0    0    0 -0.00000000000E+00 -0.00000000000E+00 -0.50000000000E+03  0.50000000000E+03  0.00000000000E+00 0.  1.
          5    1    1    2  501    0 -0.49423024408E+03 -0.64872497959E+02  0.38806376390E+02  0.50000000000E+03  0.47000000000E+01 0. -1.
         -5    1    1    2    0  501  0.49423024408E+03  0.64872497959E+02 -0.38806376390E+02  0.50000000000E+03  0.47000000000E+01 0.  1.
</event>
<event>
 4    1  0.4933936E-004  0.1000000E+04  0.7546771E-02  0.8684367E-01
         11   -1    0    0    0    0  0.00000000000E+00  0.00000000000E+00  0.50000000000E+03  0.50000000000E+03  0.00000000000E+00 0. -1.
        -11   -1    0    0    0    0 -0.00000000000E+00 -0.00000000000E+00 -0.50000000000E+03  0.50000000000E+03  0.00000000000E+00 0.  1.
          5    1    1    2  501    0 -0.19864880109E+03 -0.23683301828E+03  0.39297160875E+03  0.50000000000E+03  0.47000000000E+01 0. -1.
         -5    1    1    2    0  501  0.19864880109E+03  0.23683301828E+03 -0.39297160875E+03  0.50000000000E+03  0.47000000000E+01 0.  1.
</event>
<event>
 4    1  0.4933936E-004  0.1000000E+04  0.7546771E-02  0.8684367E-01
         11   -1    0    0    0    0  0.00000000000E+00  0.00000000000E+00  0.50000000000E+03  0.50000000000E+03  0.00000000000E+00 0. -1.
        -11   -1    0    0    0    0 -0.00000000000E+00 -0.00000000000E+00 -0.50000000000E+03  0.50000000000E+03  0.00000000000E+00 0.  1.
          5    1    1    2  501    0  0.20660369334E+03 -0.40953955996E+03  0.19892252945E+03  0.50000000000E+03  0.47000000000E+01 0. -1.
         -5    1    1    2    0  501 -0.20660369334E+03  0.40953955996E+03 -0.19892252945E+03  0.50000000000E+03  0.47000000000E+01 0.  1.
</event>
<event>
 4    1  0.4933936E-004  0.1000000E+04  0.7546771E-02  0.8684367E-01
         11   -1    0    0    0    0  0.00000000000E+00  0.00000000000E+00  0.50000000000E+03  0.50000000000E+03  0.00000000000E+00 0. -1.
        -11   -1    0    0    0    0 -0.00000000000E+00 -0.00000000000E+00 -0.50000000000E+03  0.50000000000E+03  0.00000000000E+00 0.  1.
          5    1    1    2  501    0 -0.18627545609E+03  0.41992035836E+03  0.19734806077E+03  0.50000000000E+03  0.47000000000E+01 0. -1.
         -5    1    1    2    0  501  0.18627545609E+03 -0.41992035836E+03 -0.19734806077E+03  0.50000000000E+03  0.47000000000E+01 0.  1.
</event>
<event>
 4    1  0.4933936E-004  0.1000000E+04  0.7546771E-02  0.8684367E-01
         11   -1    0    0    0    0  0.00000000000E+00  0.00000000000E+00  0.50000000000E+03  0.50000000000E+03  0.00000000000E+00 0. -1.
        -11   -1    0    0    0    0 -0.00000000000E+00 -0.00000000000E+00 -0.50000000000E+03  0.50000000000E+03  0.00000000000E+00 0.  1.
          5    1    1    2  501    0 -0.44651363072E+03  0.13597770291E+02 -0.22454083866E+03  0.50000000000E+03  0.47000000000E+01 0. -1.
         -5    1    1    2    0  501  0.44651363072E+03 -0.13597770291E+02  0.22454083866E+03  0.50000000000E+03  0.47000000000E+01 0.  1.
</event>
<event>
 4    1  0.4933936E-004  0.1000000E+04  0.7546771E-02  0.8684367E-01
         11   -1    0    0    0    0  0.00000000000E+00  0.00000000000E+00  0.50000000000E+03  0.50000000000E+03  0.00000000000E+00 0. -1.
        -11   -1    0    0    0    0 -0.00000000000E+00 -0.00000000000E+00 -0.50000000000E+03  0.50000000000E+03  0.00000000000E+00 0.  1.
          5    1    1    2  501    0 -0.43888222904E+03 -0.23824205551E+03 -0.24515750462E+02  0.50000000000E+03  0.47000000000E+01 0. -1.
         -5    1    1    2    0  501  0.43888222904E+03  0.23824205551E+03  0.24515750462E+02  0.50000000000E+03  0.47000000000E+01 0.  1.
</event>
<event>
 4    1  0.4933936E-004  0.1000000E+04  0.7546771E-02  0.8684367E-01
         11   -1    0    0    0    0  0.00000000000E+00  0.00000000000E+00  0.50000000000E+03  0.50000000000E+03  0.00000000000E+00 0. -1.
        -11   -1    0    0    0    0 -0.00000000000E+00 -0.00000000000E+00 -0.50000000000E+03  0.50000000000E+03  0.00000000000E+00 0.  1.
          5    1    1    2  501    0  0.36992137561E+03  0.11612186216E+03 -0.31567673180E+03  0.50000000000E+03  0.47000000000E+01 0. -1.
         -5    1    1    2    0  501 -0.36992137561E+03 -0.11612186216E+03  0.31567673180E+03  0.50000000000E+03  0.47000000000E+01 0.  1.
</event>
<event>
 4    1  0.4933936E-004  0.1000000E+04  0.7546771E-02  0.8684367E-01
         11   -1    0    0    0    0  0.00000000000E+00  0.00000000000E+00  0.50000000000E+03  0.50000000000E+03  0.00000000000E+00 0.  1.
        -11   -1    0    0    0    0 -0.00000000000E+00 -0.00000000000E+00 -0.50000000000E+03  0.50000000000E+03  0.00000000000E+00 0. -1.
          5    1    1    2  501    0 -0.16689270690E+03  0.19721923332E+03  0.42805292709E+03  0.50000000000E+03  0.47000000000E+01 0.  1.
         -5    1    1    2    0  501  0.16689270690E+03 -0.19721923332E+03 -0.42805292709E+03  0.50000000000E+03  0.47000000000E+01 0. -1.
</event>
<event>
 4    1  0.4933936E-004  0.1000000E+04  0.7546771E-02  0.8684367E-01
         11   -1    0    0    0    0  0.00000000000E+00  0.00000000000E+00  0.50000000000E+03  0.50000000000E+03  0.00000000000E+00 0. -1.
        -11   -1    0    0    0    0 -0.00000000000E+00 -0.00000000000E+00 -0.50000000000E+03  0.50000000000E+03  0.00000000000E+00 0.  1.
          5    1    1    2  501    0  0.47542889069E+03  0.12822051370E+03 -0.86630131975E+02  0.50000000000E+03  0.47000000000E+01 0. -1.
         -5    1    1    2    0  501 -0.47542889069E+03 -0.12822051370E+03  0.86630131975E+02  0.50000000000E+03  0.47000000000E+01 0.  1.
</event>
<event>
 4    1  0.4933936E-004  0.1000000E+04  0.7546771E-02  0.8684367E-01
         11   -1    0    0    0    0  0.00000000000E+00  0.00000000000E+00  0.50000000000E+03  0.50000000000E+03  0.00000000000E+00 0. -1.
        -11   -1    0    0    0    0 -0.00000000000E+00 -0.00000000000E+00 -0.50000000000E+03  0.50000000000E+03  0.00000000000E+00 0.  1.
          5    1    1    2  501    0 -0.26920097916E+03 -0.40497071717E+03  0.11622160322E+03  0.50000000000E+03  0.47000000000E+01 0. -1.
         -5    1    1    2    0  501  0.26920097916E+03  0.40497071717E+03 -0.11622160322E+03  0.50000000000E+03  0.47000000000E+01 0.  1.
</event>
<event>
 4    1  0.4933936E-004  0.1000000E+04  0.7546771E-02  0.8684367E-01
         11   -1    0    0    0    0  0.00000000000E+00  0.00000000000E+00  0.50000000000E+03  0.50000000000E+03  0.00000000000E+00 0. -1.
        -11   -1    0    0    0    0 -0.00000000000E+00 -0.00000000000E+00 -0.50000000000E+03  0.50000000000E+03  0.00000000000E+00 0.  1.
          5    1    1    2  501    0  0.33271521884E+03 -0.35123781972E+03  0.12613677955E+03  0.50000000000E+03  0.47000000000E+01 0. -1.
         -5    1    1    2    0  501 -0.33271521884E+03  0.35123781972E+03 -0.12613677955E+03  0.50000000000E+03  0.47000000000E+01 0.  1.
</event>
<event>
 4    1  0.4933936E-004  0.1000000E+04  0.7546771E-02  0.8684367E-01
         11   -1    0    0    0    0  0.00000000000E+00  0.00000000000E+00  0.50000000000E+03  0.50000000000E+03  0.00000000000E+00 0. -1.
        -11   -1    0    0    0    0 -0.00000000000E+00 -0.00000000000E+00 -0.50000000000E+03  0.50000000000E+03  0.00000000000E+00 0.  1.
          5    1    1    2  501    0 -0.26537832998E+03 -0.20891272367E+03 -0.36865665037E+03  0.50000000000E+03  0.47000000000E+01 0. -1.
         -5    1    1    2    0  501  0.26537832998E+03  0.20891272367E+03  0.36865665037E+03  0.50000000000E+03  0.47000000000E+01 0.  1.
</event>
<event>
 4    1  0.4933936E-004  0.1000000E+04  0.7546771E-02  0.8684367E-01
         11   -1    0    0    0    0  0.00000000000E+00  0.00000000000E+00  0.50000000000E+03  0.50000000000E+03  0.00000000000E+00 0. -1.
        -11   -1    0    0    0    0 -0.00000000000E+00 -0.00000000000E+00 -0.50000000000E+03  0.50000000000E+03  0.00000000000E+00 0.  1.
          5    1    1    2  501    0 -0.48954075701E+03 -0.10039350762E+03  0.15776591931E+02  0.50000000000E+03  0.47000000000E+01 0. -1.
         -5    1    1    2    0  501  0.48954075701E+03  0.10039350762E+03 -0.15776591931E+02  0.50000000000E+03  0.47000000000E+01 0.  1.
</event>
<event>
 4    1  0.4933936E-004  0.1000000E+04  0.7546771E-02  0.8684367E-01
         11   -1    0    0    0    0  0.00000000000E+00  0.00000000000E+00  0.50000000000E+03  0.50000000000E+03  0.00000000000E+00 0.  1.
        -11   -1    0    0    0    0 -0.00000000000E+00 -0.00000000000E+00 -0.50000000000E+03  0.50000000000E+03  0.00000000000E+00 0. -1.
          5    1    1    2  501    0 -0.10951518169E+03 -0.26099571843E+03 -0.41214750993E+03  0.50000000000E+03  0.47000000000E+01 0. -1.
         -5    1    1    2    0  501  0.10951518169E+03  0.26099571843E+03  0.41214750993E+03  0.50000000000E+03  0.47000000000E+01 0.  1.
</event>
<event>
 4    1  0.4933936E-004  0.1000000E+04  0.7546771E-02  0.8684367E-01
         11   -1    0    0    0    0  0.00000000000E+00  0.00000000000E+00  0.50000000000E+03  0.50000000000E+03  0.00000000000E+00 0. -1.
        -11   -1    0    0    0    0 -0.00000000000E+00 -0.00000000000E+00 -0.50000000000E+03  0.50000000000E+03  0.00000000000E+00 0.  1.
          5    1    1    2  501    0 -0.25256082571E+03  0.23018163886E+03  0.36497582447E+03  0.50000000000E+03  0.47000000000E+01 0. -1.
         -5    1    1    2    0  501  0.25256082571E+03 -0.23018163886E+03 -0.36497582447E+03  0.50000000000E+03  0.47000000000E+01 0.  1.
</event>
<event>
 4    1  0.4933936E-004  0.1000000E+04  0.7546771E-02  0.8684367E-01
         11   -1    0    0    0    0  0.00000000000E+00  0.00000000000E+00  0.50000000000E+03  0.50000000000E+03  0.00000000000E+00 0. -1.
        -11   -1    0    0    0    0 -0.00000000000E+00 -0.00000000000E+00 -0.50000000000E+03  0.50000000000E+03  0.00000000000E+00 0.  1.
          5    1    1    2  501    0  0.11252713243E+03 -0.19613174032E+03  0.44592364246E+03  0.50000000000E+03  0.47000000000E+01 0. -1.
         -5    1    1    2    0  501 -0.11252713243E+03  0.19613174032E+03 -0.44592364246E+03  0.50000000000E+03  0.47000000000E+01 0.  1.
</event>
<event>
 4    1  0.4933936E-004  0.1000000E+04  0.7546771E-02  0.8684367E-01
         11   -1    0    0    0    0  0.00000000000E+00  0.00000000000E+00  0.50000000000E+03  0.50000000000E+03  0.00000000000E+00 0. -1.
        -11   -1    0    0    0    0 -0.00000000000E+00 -0.00000000000E+00 -0.50000000000E+03  0.50000000000E+03  0.00000000000E+00 0.  1.
          5    1    1    2  501    0 -0.32913694444E+03 -0.14124787435E+03  0.34884927949E+03  0.50000000000E+03  0.47000000000E+01 0. -1.
         -5    1    1    2    0  501  0.32913694444E+03  0.14124787435E+03 -0.34884927949E+03  0.50000000000E+03  0.47000000000E+01 0.  1.
</event>
<event>
 4    1  0.4933936E-004  0.1000000E+04  0.7546771E-02  0.8684367E-01
         11   -1    0    0    0    0  0.00000000000E+00  0.00000000000E+00  0.50000000000E+03  0.50000000000E+03  0.00000000000E+00 0. -1.
        -11   -1    0    0    0    0 -0.00000000000E+00 -0.00000000000E+00 -0.50000000000E+03  0.50000000000E+03  0.00000000000E+00 0.  1.
          5    1    1    2  501    0  0.31231489310E+03 -0.32840590074E+03  0.21115606055E+03  0.50000000000E+03  0.47000000000E+01 0. -1.
         -5    1    1    2    0  501 -0.31231489310E+03  0.32840590074E+03 -0.21115606055E+03  0.50000000000E+03  0.47000000000E+01 0.  1.
</event>
<event>
 4    1  0.4933936E-004  0.1000000E+04  0.7546771E-02  0.8684367E-01
         11   -1    0    0    0    0  0.00000000000E+00  0.00000000000E+00  0.50000000000E+03  0.50000000000E+03  0.00000000000E+00 0. -1.
        -11   -1    0    0    0    0 -0.00000000000E+00 -0.00000000000E+00 -0.50000000000E+03  0.50000000000E+03  0.00000000000E+00 0.  1.
          5    1    1    2  501    0 -0.28417814127E+03 -0.36501164495E+03  0.18970290740E+03  0.50000000000E+03  0.47000000000E+01 0. -1.
         -5    1    1    2    0  501  0.28417814127E+03  0.36501164495E+03 -0.18970290740E+03  0.50000000000E+03  0.47000000000E+01 0.  1.
</event>
<event>
 4    1  0.4933936E-004  0.1000000E+04  0.7546771E-02  0.8684367E-01
         11   -1    0    0    0    0  0.00000000000E+00  0.00000000000E+00  0.50000000000E+03  0.50000000000E+03  0.00000000000E+00 0. -1.
        -11   -1    0    0    0    0 -0.00000000000E+00 -0.00000000000E+00 -0.50000000000E+03  0.50000000000E+03  0.00000000000E+00 0.  1.
          5    1    1    2  501    0  0.17885643916E+03 -0.34353889564E+03 -0.31617923929E+03  0.50000000000E+03  0.47000000000E+01 0.  1.
         -5    1    1    2    0  501 -0.17885643916E+03  0.34353889564E+03  0.31617923929E+03  0.50000000000E+03  0.47000000000E+01 0. -1.
</event>
<event>
 4    1  0.4933936E-004  0.1000000E+04  0.7546771E-02  0.8684367E-01
         11   -1    0    0    0    0  0.00000000000E+00  0.00000000000E+00  0.50000000000E+03  0.50000000000E+03  0.00000000000E+00 0. -1.
        -11   -1    0    0    0    0 -0.00000000000E+00 -0.00000000000E+00 -0.50000000000E+03  0.50000000000E+03  0.00000000000E+00 0.  1.
          5    1    1    2  501    0  0.34922349553E+03 -0.56445781860E+02  0.35331959170E+03  0.50000000000E+03  0.47000000000E+01 0. -1.
         -5    1    1    2    0  501 -0.34922349553E+03  0.56445781860E+02 -0.35331959170E+03  0.50000000000E+03  0.47000000000E+01 0.  1.
</event>
<event>
 4    1  0.4933936E-004  0.1000000E+04  0.7546771E-02  0.8684367E-01
         11   -1    0    0    0    0  0.00000000000E+00  0.00000000000E+00  0.50000000000E+03  0.50000000000E+03  0.00000000000E+00 0. -1.
        -11   -1    0    0    0    0 -0.00000000000E+00 -0.00000000000E+00 -0.50000000000E+03  0.50000000000E+03  0.00000000000E+00 0.  1.
          5    1    1    2  501    0 -0.77346467011E+02  0.44638950186E+03  0.21149904649E+03  0.50000000000E+03  0.47000000000E+01 0. -1.
         -5    1    1    2    0  501  0.77346467011E+02 -0.44638950186E+03 -0.21149904649E+03  0.50000000000E+03  0.47000000000E+01 0.  1.
</event>
<event>
 4    1  0.4933936E-004  0.1000000E+04  0.7546771E-02  0.8684367E-01
         11   -1    0    0    0    0  0.00000000000E+00  0.00000000000E+00  0.50000000000E+03  0.50000000000E+03  0.00000000000E+00 0. -1.
        -11   -1    0    0    0    0 -0.00000000000E+00 -0.00000000000E+00 -0.50000000000E+03  0.50000000000E+03  0.00000000000E+00 0.  1.
          5    1    1    2  501    0 -0.44387474023E+03  0.14809951585E+03  0.17612398586E+03  0.50000000000E+03  0.47000000000E+01 0. -1.
         -5    1    1    2    0  501  0.44387474023E+03 -0.14809951585E+03 -0.17612398586E+03  0.50000000000E+03  0.47000000000E+01 0.  1.
</event>
<event>
 4    1  0.4933936E-004  0.1000000E+04  0.7546771E-02  0.8684367E-01
         11   -1    0    0    0    0  0.00000000000E+00  0.00000000000E+00  0.50000000000E+03  0.50000000000E+03  0.00000000000E+00 0. -1.
        -11   -1    0    0    0    0 -0.00000000000E+00 -0.00000000000E+00 -0.50000000000E+03  0.50000000000E+03  0.00000000000E+00 0.  1.
          5    1    1    2  501    0  0.22116660698E+03  0.30559200823E+03  0.32814138183E+03  0.50000000000E+03  0.47000000000E+01 0. -1.
         -5    1    1    2    0  501 -0.22116660698E+03 -0.30559200823E+03 -0.32814138183E+03  0.50000000000E+03  0.47000000000E+01 0.  1.
</event>
<event>
 4    1  0.4933936E-004  0.1000000E+04  0.7546771E-02  0.8684367E-01
         11   -1    0    0    0    0  0.00000000000E+00  0.00000000000E+00  0.50000000000E+03  0.50000000000E+03  0.00000000000E+00 0. -1.
        -11   -1    0    0    0    0 -0.00000000000E+00 -0.00000000000E+00 -0.50000000000E+03  0.50000000000E+03  0.00000000000E+00 0.  1.
          5    1    1    2  501    0 -0.20555641720E+03  0.42944539100E+03 -0.15264706187E+03  0.50000000000E+03  0.47000000000E+01 0. -1.
         -5    1    1    2    0  501  0.20555641720E+03 -0.42944539100E+03  0.15264706187E+03  0.50000000000E+03  0.47000000000E+01 0.  1.
</event>
<event>
 4    1  0.4933936E-004  0.1000000E+04  0.7546771E-02  0.8684367E-01
         11   -1    0    0    0    0  0.00000000000E+00  0.00000000000E+00  0.50000000000E+03  0.50000000000E+03  0.00000000000E+00 0. -1.
        -11   -1    0    0    0    0 -0.00000000000E+00 -0.00000000000E+00 -0.50000000000E+03  0.50000000000E+03  0.00000000000E+00 0.  1.
          5    1    1    2  501    0  0.76898195838E+02  0.87562600378E+02  0.48620712509E+03  0.50000000000E+03  0.47000000000E+01 0. -1.
         -5    1    1    2    0  501 -0.76898195838E+02 -0.87562600378E+02 -0.48620712509E+03  0.50000000000E+03  0.47000000000E+01 0.  1.
</event>
<event>
 4    1  0.4933936E-004  0.1000000E+04  0.7546771E-02  0.8684367E-01
         11   -1    0    0    0    0  0.00000000000E+00  0.00000000000E+00  0.50000000000E+03  0.50000000000E+03  0.00000000000E+00 0. -1.
        -11   -1    0    0    0    0 -0.00000000000E+00 -0.00000000000E+00 -0.50000000000E+03  0.50000000000E+03  0.00000000000E+00 0.  1.
          5    1    1    2  501    0  0.18567422739E+03 -0.36207851170E+03  0.29052046855E+03  0.50000000000E+03  0.47000000000E+01 0. -1.
         -5    1    1    2    0  501 -0.18567422739E+03  0.36207851170E+03 -0.29052046855E+03  0.50000000000E+03  0.47000000000E+01 0.  1.
</event>
<event>
 4    1  0.4933936E-004  0.1000000E+04  0.7546771E-02  0.8684367E-01
         11   -1    0    0    0    0  0.00000000000E+00  0.00000000000E+00  0.50000000000E+03  0.50000000000E+03  0.00000000000E+00 0. -1.
        -11   -1    0    0    0    0 -0.00000000000E+00 -0.00000000000E+00 -0.50000000000E+03  0.50000000000E+03  0.00000000000E+00 0.  1.
          5    1    1    2  501    0 -0.32472309095E+03  0.35666028009E+03  0.13162928555E+03  0.50000000000E+03  0.47000000000E+01 0. -1.
         -5    1    1    2    0  501  0.32472309095E+03 -0.35666028009E+03 -0.13162928555E+03  0.50000000000E+03  0.47000000000E+01 0.  1.
</event>
<event>
 4    1  0.4933936E-004  0.1000000E+04  0.7546771E-02  0.8684367E-01
         11   -1    0    0    0    0  0.00000000000E+00  0.00000000000E+00  0.50000000000E+03  0.50000000000E+03  0.00000000000E+00 0.  1.
        -11   -1    0    0    0    0 -0.00000000000E+00 -0.00000000000E+00 -0.50000000000E+03  0.50000000000E+03  0.00000000000E+00 0. -1.
          5    1    1    2  501    0 -0.20435289137E+03  0.36368973521E+03  0.27558588914E+03  0.50000000000E+03  0.47000000000E+01 0.  1.
         -5    1    1    2    0  501  0.20435289137E+03 -0.36368973521E+03 -0.27558588914E+03  0.50000000000E+03  0.47000000000E+01 0. -1.
</event>
<event>
 4    1  0.4933936E-004  0.1000000E+04  0.7546771E-02  0.8684367E-01
         11   -1    0    0    0    0  0.00000000000E+00  0.00000000000E+00  0.50000000000E+03  0.50000000000E+03  0.00000000000E+00 0. -1.
        -11   -1    0    0    0    0 -0.00000000000E+00 -0.00000000000E+00 -0.50000000000E+03  0.50000000000E+03  0.00000000000E+00 0.  1.
          5    1    1    2  501    0 -0.46500011804E+03  0.75307242257E+02  0.16757571269E+03  0.50000000000E+03  0.47000000000E+01 0. -1.
         -5    1    1    2    0  501  0.46500011804E+03 -0.75307242257E+02 -0.16757571269E+03  0.50000000000E+03  0.47000000000E+01 0.  1.
</event>
<event>
 4    1  0.4933936E-004  0.1000000E+04  0.7546771E-02  0.8684367E-01
         11   -1    0    0    0    0  0.00000000000E+00  0.00000000000E+00  0.50000000000E+03  0.50000000000E+03  0.00000000000E+00 0. -1.
        -11   -1    0    0    0    0 -0.00000000000E+00 -0.00000000000E+00 -0.50000000000E+03  0.50000000000E+03  0.00000000000E+00 0.  1.
          5    1    1    2  501    0  0.45916671830E+03  0.19600507047E+03 -0.26941550760E+02  0.50000000000E+03  0.47000000000E+01 0.  1.
         -5    1    1    2    0  501 -0.45916671830E+03 -0.19600507047E+03  0.26941550760E+02  0.50000000000E+03  0.47000000000E+01 0. -1.
</event>
<event>
 4    1  0.4933936E-004  0.1000000E+04  0.7546771E-02  0.8684367E-01
         11   -1    0    0    0    0  0.00000000000E+00  0.00000000000E+00  0.50000000000E+03  0.50000000000E+03  0.00000000000E+00 0. -1.
        -11   -1    0    0    0    0 -0.00000000000E+00 -0.00000000000E+00 -0.50000000000E+03  0.50000000000E+03  0.00000000000E+00 0.  1.
          5    1    1    2  501    0 -0.20066619620E+03  0.19892120845E+03  0.41248192752E+03  0.50000000000E+03  0.47000000000E+01 0. -1.
         -5    1    1    2    0  501  0.20066619620E+03 -0.19892120845E+03 -0.41248192752E+03  0.50000000000E+03  0.47000000000E+01 0.  1.
</event>
<event>
 4    1  0.4933936E-004  0.1000000E+04  0.7546771E-02  0.8684367E-01
         11   -1    0    0    0    0  0.00000000000E+00  0.00000000000E+00  0.50000000000E+03  0.50000000000E+03  0.00000000000E+00 0. -1.
        -11   -1    0    0    0    0 -0.00000000000E+00 -0.00000000000E+00 -0.50000000000E+03  0.50000000000E+03  0.00000000000E+00 0.  1.
          5    1    1    2  501    0  0.60818423324E+02 -0.81348179072E+01  0.49619840197E+03  0.50000000000E+03  0.47000000000E+01 0. -1.
         -5    1    1    2    0  501 -0.60818423324E+02  0.81348179072E+01 -0.49619840197E+03  0.50000000000E+03  0.47000000000E+01 0.  1.
</event>
<event>
 4    1  0.4933936E-004  0.1000000E+04  0.7546771E-02  0.8684367E-01
         11   -1    0    0    0    0  0.00000000000E+00  0.00000000000E+00  0.50000000000E+03  0.50000000000E+03  0.00000000000E+00 0. -1.
        -11   -1    0    0    0    0 -0.00000000000E+00 -0.00000000000E+00 -0.50000000000E+03  0.50000000000E+03  0.00000000000E+00 0.  1.
          5    1    1    2  501    0  0.31847464943E+03 -0.15018976117E+03  0.35495752325E+03  0.50000000000E+03  0.47000000000E+01 0. -1.
         -5    1    1    2    0  501 -0.31847464943E+03  0.15018976117E+03 -0.35495752325E+03  0.50000000000E+03  0.47000000000E+01 0.  1.
</event>
<event>
 4    1  0.4933936E-004  0.1000000E+04  0.7546771E-02  0.8684367E-01
         11   -1    0    0    0    0  0.00000000000E+00  0.00000000000E+00  0.50000000000E+03  0.50000000000E+03  0.00000000000E+00 0. -1.
        -11   -1    0    0    0    0 -0.00000000000E+00 -0.00000000000E+00 -0.50000000000E+03  0.50000000000E+03  0.00000000000E+00 0.  1.
          5    1    1    2  501    0  0.51621269323E+02  0.46124773590E+03  0.18591309981E+03  0.50000000000E+03  0.47000000000E+01 0. -1.
         -5    1    1    2    0  501 -0.51621269323E+02 -0.46124773590E+03 -0.18591309981E+03  0.50000000000E+03  0.47000000000E+01 0.  1.
</event>
<event>
 4    1  0.4933936E-004  0.1000000E+04  0.7546771E-02  0.8684367E-01
         11   -1    0    0    0    0  0.00000000000E+00  0.00000000000E+00  0.50000000000E+03  0.50000000000E+03  0.00000000000E+00 0. -1.
        -11   -1    0    0    0    0 -0.00000000000E+00 -0.00000000000E+00 -0.50000000000E+03  0.50000000000E+03  0.00000000000E+00 0.  1.
          5    1    1    2  501    0  0.79859813735E+02  0.95956325917E+02  0.48414120220E+03  0.50000000000E+03  0.47000000000E+01 0. -1.
         -5    1    1    2    0  501 -0.79859813735E+02 -0.95956325917E+02 -0.48414120220E+03  0.50000000000E+03  0.47000000000E+01 0.  1.
</event>
<event>
 4    1  0.4933936E-004  0.1000000E+04  0.7546771E-02  0.8684367E-01
         11   -1    0    0    0    0  0.00000000000E+00  0.00000000000E+00  0.50000000000E+03  0.50000000000E+03  0.00000000000E+00 0. -1.
        -11   -1    0    0    0    0 -0.00000000000E+00 -0.00000000000E+00 -0.50000000000E+03  0.50000000000E+03  0.00000000000E+00 0.  1.
          5    1    1    2  501    0 -0.17075378084E+03  0.37640512451E+03  0.28131874906E+03  0.50000000000E+03  0.47000000000E+01 0. -1.
         -5    1    1    2    0  501  0.17075378084E+03 -0.37640512451E+03 -0.28131874906E+03  0.50000000000E+03  0.47000000000E+01 0.  1.
</event>
<event>
 4    1  0.4933936E-004  0.1000000E+04  0.7546771E-02  0.8684367E-01
         11   -1    0    0    0    0  0.00000000000E+00  0.00000000000E+00  0.50000000000E+03  0.50000000000E+03  0.00000000000E+00 0. -1.
        -11   -1    0    0    0    0 -0.00000000000E+00 -0.00000000000E+00 -0.50000000000E+03  0.50000000000E+03  0.00000000000E+00 0.  1.
          5    1    1    2  501    0 -0.86350322785E+02  0.23101032223E+03  0.43492040971E+03  0.50000000000E+03  0.47000000000E+01 0. -1.
         -5    1    1    2    0  501  0.86350322785E+02 -0.23101032223E+03 -0.43492040971E+03  0.50000000000E+03  0.47000000000E+01 0.  1.
</event>
<event>
 4    1  0.4933936E-004  0.1000000E+04  0.7546771E-02  0.8684367E-01
         11   -1    0    0    0    0  0.00000000000E+00  0.00000000000E+00  0.50000000000E+03  0.50000000000E+03  0.00000000000E+00 0. -1.
        -11   -1    0    0    0    0 -0.00000000000E+00 -0.00000000000E+00 -0.50000000000E+03  0.50000000000E+03  0.00000000000E+00 0.  1.
          5    1    1    2  501    0 -0.44749593926E+03 -0.10772180712E+03 -0.19524678388E+03  0.50000000000E+03  0.47000000000E+01 0. -1.
         -5    1    1    2    0  501  0.44749593926E+03  0.10772180712E+03  0.19524678388E+03  0.50000000000E+03  0.47000000000E+01 0.  1.
</event>
<event>
 4    1  0.4933936E-004  0.1000000E+04  0.7546771E-02  0.8684367E-01
         11   -1    0    0    0    0  0.00000000000E+00  0.00000000000E+00  0.50000000000E+03  0.50000000000E+03  0.00000000000E+00 0. -1.
        -11   -1    0    0    0    0 -0.00000000000E+00 -0.00000000000E+00 -0.50000000000E+03  0.50000000000E+03  0.00000000000E+00 0.  1.
          5    1    1    2  501    0  0.24101931591E+03  0.18705765507E+02 -0.43765019559E+03  0.50000000000E+03  0.47000000000E+01 0.  1.
         -5    1    1    2    0  501 -0.24101931591E+03 -0.18705765507E+02  0.43765019559E+03  0.50000000000E+03  0.47000000000E+01 0. -1.
</event>
<event>
 4    1  0.4933936E-004  0.1000000E+04  0.7546771E-02  0.8684367E-01
         11   -1    0    0    0    0  0.00000000000E+00  0.00000000000E+00  0.50000000000E+03  0.50000000000E+03  0.00000000000E+00 0.  1.
        -11   -1    0    0    0    0 -0.00000000000E+00 -0.00000000000E+00 -0.50000000000E+03  0.50000000000E+03  0.00000000000E+00 0. -1.
          5    1    1    2  501    0 -0.44776079355E+03  0.68778384762E+02  0.21156019367E+03  0.50000000000E+03  0.47000000000E+01 0.  1.
         -5    1    1    2    0  501  0.44776079355E+03 -0.68778384762E+02 -0.21156019367E+03  0.50000000000E+03  0.47000000000E+01 0. -1.
</event>
<event>
 4    1  0.4933936E-004  0.1000000E+04  0.7546771E-02  0.8684367E-01
         11   -1    0    0    0    0  0.00000000000E+00  0.00000000000E+00  0.50000000000E+03  0.50000000000E+03  0.00000000000E+00 0. -1.
        -11   -1    0    0    0    0 -0.00000000000E+00 -0.00000000000E+00 -0.50000000000E+03  0.50000000000E+03  0.00000000000E+00 0.  1.
          5    1    1    2  501    0 -0.46058082908E+03 -0.16920717600E+03  0.95979901399E+02  0.50000000000E+03  0.47000000000E+01 0. -1.
         -5    1    1    2    0  501  0.46058082908E+03  0.16920717600E+03 -0.95979901399E+02  0.50000000000E+03  0.47000000000E+01 0.  1.
</event>
<event>
 4    1  0.4933936E-004  0.1000000E+04  0.7546771E-02  0.8684367E-01
         11   -1    0    0    0    0  0.00000000000E+00  0.00000000000E+00  0.50000000000E+03  0.50000000000E+03  0.00000000000E+00 0. -1.
        -11   -1    0    0    0    0 -0.00000000000E+00 -0.00000000000E+00 -0.50000000000E+03  0.50000000000E+03  0.00000000000E+00 0.  1.
          5    1    1    2  501    0 -0.34619229199E+03  0.30879131730E+03  0.18648519869E+03  0.50000000000E+03  0.47000000000E+01 0. -1.
         -5    1    1    2    0  501  0.34619229199E+03 -0.30879131730E+03 -0.18648519869E+03  0.50000000000E+03  0.47000000000E+01 0.  1.
</event>
<event>
 4    1  0.4933936E-004  0.1000000E+04  0.7546771E-02  0.8684367E-01
         11   -1    0    0    0    0  0.00000000000E+00  0.00000000000E+00  0.50000000000E+03  0.50000000000E+03  0.00000000000E+00 0. -1.
        -11   -1    0    0    0    0 -0.00000000000E+00 -0.00000000000E+00 -0.50000000000E+03  0.50000000000E+03  0.00000000000E+00 0.  1.
          5    1    1    2  501    0  0.34731389290E+03 -0.19664456099E+03  0.30113433287E+03  0.50000000000E+03  0.47000000000E+01 0. -1.
         -5    1    1    2    0  501 -0.34731389290E+03  0.19664456099E+03 -0.30113433287E+03  0.50000000000E+03  0.47000000000E+01 0.  1.
</event>
<event>
 4    1  0.4933936E-004  0.1000000E+04  0.7546771E-02  0.8684367E-01
         11   -1    0    0    0    0  0.00000000000E+00  0.00000000000E+00  0.50000000000E+03  0.50000000000E+03  0.00000000000E+00 0. -1.
        -11   -1    0    0    0    0 -0.00000000000E+00 -0.00000000000E+00 -0.50000000000E+03  0.50000000000E+03  0.00000000000E+00 0.  1.
          5    1    1    2  501    0 -0.22268317523E+02  0.11549828321E+03  0.48594462505E+03  0.50000000000E+03  0.47000000000E+01 0. -1.
         -5    1    1    2    0  501  0.22268317523E+02 -0.11549828321E+03 -0.48594462505E+03  0.50000000000E+03  0.47000000000E+01 0.  1.
</event>
<event>
 4    1  0.4933936E-004  0.1000000E+04  0.7546771E-02  0.8684367E-01
         11   -1    0    0    0    0  0.00000000000E+00  0.00000000000E+00  0.50000000000E+03  0.50000000000E+03  0.00000000000E+00 0. -1.
        -11   -1    0    0    0    0 -0.00000000000E+00 -0.00000000000E+00 -0.50000000000E+03  0.50000000000E+03  0.00000000000E+00 0.  1.
          5    1    1    2  501    0  0.42360408378E+03 -0.21772435235E+03  0.15209732609E+03  0.50000000000E+03  0.47000000000E+01 0. -1.
         -5    1    1    2    0  501 -0.42360408378E+03  0.21772435235E+03 -0.15209732609E+03  0.50000000000E+03  0.47000000000E+01 0.  1.
</event>
<event>
 4    1  0.4933936E-004  0.1000000E+04  0.7546771E-02  0.8684367E-01
         11   -1    0    0    0    0  0.00000000000E+00  0.00000000000E+00  0.50000000000E+03  0.50000000000E+03  0.00000000000E+00 0.  1.
        -11   -1    0    0    0    0 -0.00000000000E+00 -0.00000000000E+00 -0.50000000000E+03  0.50000000000E+03  0.00000000000E+00 0. -1.
          5    1    1    2  501    0 -0.15037300839E+03  0.45864272655E+03  0.13043280927E+03  0.50000000000E+03  0.47000000000E+01 0.  1.
         -5    1    1    2    0  501  0.15037300839E+03 -0.45864272655E+03 -0.13043280927E+03  0.50000000000E+03  0.47000000000E+01 0. -1.
</event>
<event>
 4    1  0.4933936E-004  0.1000000E+04  0.7546771E-02  0.8684367E-01
         11   -1    0    0    0    0  0.00000000000E+00  0.00000000000E+00  0.50000000000E+03  0.50000000000E+03  0.00000000000E+00 0. -1.
        -11   -1    0    0    0    0 -0.00000000000E+00 -0.00000000000E+00 -0.50000000000E+03  0.50000000000E+03  0.00000000000E+00 0.  1.
          5    1    1    2  501    0 -0.39145907751E+03  0.26308929274E+03  0.16589672896E+03  0.50000000000E+03  0.47000000000E+01 0. -1.
         -5    1    1    2    0  501  0.39145907751E+03 -0.26308929274E+03 -0.16589672896E+03  0.50000000000E+03  0.47000000000E+01 0.  1.
</event>
<event>
 4    1  0.4933936E-004  0.1000000E+04  0.7546771E-02  0.8684367E-01
         11   -1    0    0    0    0  0.00000000000E+00  0.00000000000E+00  0.50000000000E+03  0.50000000000E+03  0.00000000000E+00 0. -1.
        -11   -1    0    0    0    0 -0.00000000000E+00 -0.00000000000E+00 -0.50000000000E+03  0.50000000000E+03  0.00000000000E+00 0.  1.
          5    1    1    2  501    0  0.21140471204E+02 -0.40764394395E+03  0.28871682569E+03  0.50000000000E+03  0.47000000000E+01 0. -1.
         -5    1    1    2    0  501 -0.21140471204E+02  0.40764394395E+03 -0.28871682569E+03  0.50000000000E+03  0.47000000000E+01 0.  1.
</event>
<event>
 4    1  0.4933936E-004  0.1000000E+04  0.7546771E-02  0.8684367E-01
         11   -1    0    0    0    0  0.00000000000E+00  0.00000000000E+00  0.50000000000E+03  0.50000000000E+03  0.00000000000E+00 0. -1.
        -11   -1    0    0    0    0 -0.00000000000E+00 -0.00000000000E+00 -0.50000000000E+03  0.50000000000E+03  0.00000000000E+00 0.  1.
          5    1    1    2  501    0  0.11547491100E+03  0.15788424167E+03  0.46012609268E+03  0.50000000000E+03  0.47000000000E+01 0. -1.
         -5    1    1    2    0  501 -0.11547491100E+03 -0.15788424167E+03 -0.46012609268E+03  0.50000000000E+03  0.47000000000E+01 0.  1.
</event>
<event>
 4    1  0.4933936E-004  0.1000000E+04  0.7546771E-02  0.8684367E-01
         11   -1    0    0    0    0  0.00000000000E+00  0.00000000000E+00  0.50000000000E+03  0.50000000000E+03  0.00000000000E+00 0. -1.
        -11   -1    0    0    0    0 -0.00000000000E+00 -0.00000000000E+00 -0.50000000000E+03  0.50000000000E+03  0.00000000000E+00 0.  1.
          5    1    1    2  501    0 -0.10320433246E+03 -0.26091746610E+03  0.41382224643E+03  0.50000000000E+03  0.47000000000E+01 0. -1.
         -5    1    1    2    0  501  0.10320433246E+03  0.26091746610E+03 -0.41382224643E+03  0.50000000000E+03  0.47000000000E+01 0.  1.
</event>
<event>
 4    1  0.4933936E-004  0.1000000E+04  0.7546771E-02  0.8684367E-01
         11   -1    0    0    0    0  0.00000000000E+00  0.00000000000E+00  0.50000000000E+03  0.50000000000E+03  0.00000000000E+00 0. -1.
        -11   -1    0    0    0    0 -0.00000000000E+00 -0.00000000000E+00 -0.50000000000E+03  0.50000000000E+03  0.00000000000E+00 0.  1.
          5    1    1    2  501    0  0.33932583806E+03 -0.30775919487E+03  0.20030018372E+03  0.50000000000E+03  0.47000000000E+01 0. -1.
         -5    1    1    2    0  501 -0.33932583806E+03  0.30775919487E+03 -0.20030018372E+03  0.50000000000E+03  0.47000000000E+01 0.  1.
</event>
<event>
 4    1  0.4933936E-004  0.1000000E+04  0.7546771E-02  0.8684367E-01
         11   -1    0    0    0    0  0.00000000000E+00  0.00000000000E+00  0.50000000000E+03  0.50000000000E+03  0.00000000000E+00 0. -1.
        -11   -1    0    0    0    0 -0.00000000000E+00 -0.00000000000E+00 -0.50000000000E+03  0.50000000000E+03  0.00000000000E+00 0.  1.
          5    1    1    2  501    0  0.28766333403E+02 -0.17047108949E+03  0.46913752324E+03  0.50000000000E+03  0.47000000000E+01 0. -1.
         -5    1    1    2    0  501 -0.28766333403E+02  0.17047108949E+03 -0.46913752324E+03  0.50000000000E+03  0.47000000000E+01 0.  1.
</event>
<event>
 4    1  0.4933936E-004  0.1000000E+04  0.7546771E-02  0.8684367E-01
         11   -1    0    0    0    0  0.00000000000E+00  0.00000000000E+00  0.50000000000E+03  0.50000000000E+03  0.00000000000E+00 0. -1.
        -11   -1    0    0    0    0 -0.00000000000E+00 -0.00000000000E+00 -0.50000000000E+03  0.50000000000E+03  0.00000000000E+00 0.  1.
          5    1    1    2  501    0  0.73038942963E+02  0.13840097526E+02  0.49442054418E+03  0.50000000000E+03  0.47000000000E+01 0. -1.
         -5    1    1    2    0  501 -0.73038942963E+02 -0.13840097526E+02 -0.49442054418E+03  0.50000000000E+03  0.47000000000E+01 0.  1.
</event>
<event>
 4    1  0.4933936E-004  0.1000000E+04  0.7546771E-02  0.8684367E-01
         11   -1    0    0    0    0  0.00000000000E+00  0.00000000000E+00  0.50000000000E+03  0.50000000000E+03  0.00000000000E+00 0. -1.
        -11   -1    0    0    0    0 -0.00000000000E+00 -0.00000000000E+00 -0.50000000000E+03  0.50000000000E+03  0.00000000000E+00 0.  1.
          5    1    1    2  501    0  0.10721876764E+03 -0.31690117349E+03  0.37155846392E+03  0.50000000000E+03  0.47000000000E+01 0. -1.
         -5    1    1    2    0  501 -0.10721876764E+03  0.31690117349E+03 -0.37155846392E+03  0.50000000000E+03  0.47000000000E+01 0.  1.
</event>
<event>
 4    1  0.4933936E-004  0.1000000E+04  0.7546771E-02  0.8684367E-01
         11   -1    0    0    0    0  0.00000000000E+00  0.00000000000E+00  0.50000000000E+03  0.50000000000E+03  0.00000000000E+00 0. -1.
        -11   -1    0    0    0    0 -0.00000000000E+00 -0.00000000000E+00 -0.50000000000E+03  0.50000000000E+03  0.00000000000E+00 0.  1.
          5    1    1    2  501    0  0.75050830477E+02 -0.67486264792E+01  0.49426687011E+03  0.50000000000E+03  0.47000000000E+01 0. -1.
         -5    1    1    2    0  501 -0.75050830477E+02  0.67486264792E+01 -0.49426687011E+03  0.50000000000E+03  0.47000000000E+01 0.  1.
</event>
<event>
 4    1  0.4933936E-004  0.1000000E+04  0.7546771E-02  0.8684367E-01
         11   -1    0    0    0    0  0.00000000000E+00  0.00000000000E+00  0.50000000000E+03  0.50000000000E+03  0.00000000000E+00 0. -1.
        -11   -1    0    0    0    0 -0.00000000000E+00 -0.00000000000E+00 -0.50000000000E+03  0.50000000000E+03  0.00000000000E+00 0.  1.
          5    1    1    2  501    0  0.35145723981E+03  0.35386293209E+03 -0.35167369479E+02  0.50000000000E+03  0.47000000000E+01 0. -1.
         -5    1    1    2    0  501 -0.35145723981E+03 -0.35386293209E+03  0.35167369479E+02  0.50000000000E+03  0.47000000000E+01 0.  1.
</event>
<event>
 4    1  0.4933936E-004  0.1000000E+04  0.7546771E-02  0.8684367E-01
         11   -1    0    0    0    0  0.00000000000E+00  0.00000000000E+00  0.50000000000E+03  0.50000000000E+03  0.00000000000E+00 0. -1.
        -11   -1    0    0    0    0 -0.00000000000E+00 -0.00000000000E+00 -0.50000000000E+03  0.50000000000E+03  0.00000000000E+00 0.  1.
          5    1    1    2  501    0  0.12317806484E+03 -0.16774320771E+03  0.45460674281E+03  0.50000000000E+03  0.47000000000E+01 0. -1.
         -5    1    1    2    0  501 -0.12317806484E+03  0.16774320771E+03 -0.45460674281E+03  0.50000000000E+03  0.47000000000E+01 0.  1.
</event>
<event>
 4    1  0.4933936E-004  0.1000000E+04  0.7546771E-02  0.8684367E-01
         11   -1    0    0    0    0  0.00000000000E+00  0.00000000000E+00  0.50000000000E+03  0.50000000000E+03  0.00000000000E+00 0. -1.
        -11   -1    0    0    0    0 -0.00000000000E+00 -0.00000000000E+00 -0.50000000000E+03  0.50000000000E+03  0.00000000000E+00 0.  1.
          5    1    1    2  501    0 -0.35575672925E+03 -0.22463581655E+02  0.35058586265E+03  0.50000000000E+03  0.47000000000E+01 0. -1.
         -5    1    1    2    0  501  0.35575672925E+03  0.22463581655E+02 -0.35058586265E+03  0.50000000000E+03  0.47000000000E+01 0.  1.
</event>
<event>
 4    1  0.4933936E-004  0.1000000E+04  0.7546771E-02  0.8684367E-01
         11   -1    0    0    0    0  0.00000000000E+00  0.00000000000E+00  0.50000000000E+03  0.50000000000E+03  0.00000000000E+00 0. -1.
        -11   -1    0    0    0    0 -0.00000000000E+00 -0.00000000000E+00 -0.50000000000E+03  0.50000000000E+03  0.00000000000E+00 0.  1.
          5    1    1    2  501    0  0.16868855712E+03  0.27401483561E+02  0.46986300067E+03  0.50000000000E+03  0.47000000000E+01 0. -1.
         -5    1    1    2    0  501 -0.16868855712E+03 -0.27401483561E+02 -0.46986300067E+03  0.50000000000E+03  0.47000000000E+01 0.  1.
</event>
<event>
 4    1  0.4933936E-004  0.1000000E+04  0.7546771E-02  0.8684367E-01
         11   -1    0    0    0    0  0.00000000000E+00  0.00000000000E+00  0.50000000000E+03  0.50000000000E+03  0.00000000000E+00 0. -1.
        -11   -1    0    0    0    0 -0.00000000000E+00 -0.00000000000E+00 -0.50000000000E+03  0.50000000000E+03  0.00000000000E+00 0.  1.
          5    1    1    2  501    0 -0.31539712289E+03  0.23995438812E+03  0.30483513002E+03  0.50000000000E+03  0.47000000000E+01 0. -1.
         -5    1    1    2    0  501  0.31539712289E+03 -0.23995438812E+03 -0.30483513002E+03  0.50000000000E+03  0.47000000000E+01 0.  1.
</event>
<event>
 4    1  0.4933936E-004  0.1000000E+04  0.7546771E-02  0.8684367E-01
         11   -1    0    0    0    0  0.00000000000E+00  0.00000000000E+00  0.50000000000E+03  0.50000000000E+03  0.00000000000E+00 0.  1.
        -11   -1    0    0    0    0 -0.00000000000E+00 -0.00000000000E+00 -0.50000000000E+03  0.50000000000E+03  0.00000000000E+00 0. -1.
          5    1    1    2  501    0  0.41395101204E+03  0.19805088583E+03 -0.19849009107E+03  0.50000000000E+03  0.47000000000E+01 0.  1.
         -5    1    1    2    0  501 -0.41395101204E+03 -0.19805088583E+03  0.19849009107E+03  0.50000000000E+03  0.47000000000E+01 0. -1.
</event>
<event>
 4    1  0.4933936E-004  0.1000000E+04  0.7546771E-02  0.8684367E-01
         11   -1    0    0    0    0  0.00000000000E+00  0.00000000000E+00  0.50000000000E+03  0.50000000000E+03  0.00000000000E+00 0.  1.
        -11   -1    0    0    0    0 -0.00000000000E+00 -0.00000000000E+00 -0.50000000000E+03  0.50000000000E+03  0.00000000000E+00 0. -1.
          5    1    1    2  501    0  0.72274785624E+02 -0.48863791153E+03  0.77377366051E+02  0.50000000000E+03  0.47000000000E+01 0.  1.
         -5    1    1    2    0  501 -0.72274785624E+02  0.48863791153E+03 -0.77377366051E+02  0.50000000000E+03  0.47000000000E+01 0. -1.
</event>
<event>
 4    1  0.4933936E-004  0.1000000E+04  0.7546771E-02  0.8684367E-01
         11   -1    0    0    0    0  0.00000000000E+00  0.00000000000E+00  0.50000000000E+03  0.50000000000E+03  0.00000000000E+00 0. -1.
        -11   -1    0    0    0    0 -0.00000000000E+00 -0.00000000000E+00 -0.50000000000E+03  0.50000000000E+03  0.00000000000E+00 0.  1.
          5    1    1    2  501    0 -0.47988480970E+03 -0.35544100026E+02 -0.13573907459E+03  0.50000000000E+03  0.47000000000E+01 0. -1.
         -5    1    1    2    0  501  0.47988480970E+03  0.35544100026E+02  0.13573907459E+03  0.50000000000E+03  0.47000000000E+01 0.  1.
</event>
<event>
 4    1  0.4933936E-004  0.1000000E+04  0.7546771E-02  0.8684367E-01
         11   -1    0    0    0    0  0.00000000000E+00  0.00000000000E+00  0.50000000000E+03  0.50000000000E+03  0.00000000000E+00 0. -1.
        -11   -1    0    0    0    0 -0.00000000000E+00 -0.00000000000E+00 -0.50000000000E+03  0.50000000000E+03  0.00000000000E+00 0.  1.
          5    1    1    2  501    0  0.91295587414E+02 -0.31140066309E+03  0.38035858442E+03  0.50000000000E+03  0.47000000000E+01 0. -1.
         -5    1    1    2    0  501 -0.91295587414E+02  0.31140066309E+03 -0.38035858442E+03  0.50000000000E+03  0.47000000000E+01 0.  1.
</event>
<event>
 4    1  0.4933936E-004  0.1000000E+04  0.7546771E-02  0.8684367E-01
         11   -1    0    0    0    0  0.00000000000E+00  0.00000000000E+00  0.50000000000E+03  0.50000000000E+03  0.00000000000E+00 0. -1.
        -11   -1    0    0    0    0 -0.00000000000E+00 -0.00000000000E+00 -0.50000000000E+03  0.50000000000E+03  0.00000000000E+00 0.  1.
          5    1    1    2  501    0 -0.18256988403E+03 -0.23473855373E+02  0.46486032909E+03  0.50000000000E+03  0.47000000000E+01 0. -1.
         -5    1    1    2    0  501  0.18256988403E+03  0.23473855373E+02 -0.46486032909E+03  0.50000000000E+03  0.47000000000E+01 0.  1.
</event>
<event>
 4    1  0.4933936E-004  0.1000000E+04  0.7546771E-02  0.8684367E-01
         11   -1    0    0    0    0  0.00000000000E+00  0.00000000000E+00  0.50000000000E+03  0.50000000000E+03  0.00000000000E+00 0. -1.
        -11   -1    0    0    0    0 -0.00000000000E+00 -0.00000000000E+00 -0.50000000000E+03  0.50000000000E+03  0.00000000000E+00 0.  1.
          5    1    1    2  501    0 -0.25774266559E+03  0.23722972359E+03  0.35674737081E+03  0.50000000000E+03  0.47000000000E+01 0. -1.
         -5    1    1    2    0  501  0.25774266559E+03 -0.23722972359E+03 -0.35674737081E+03  0.50000000000E+03  0.47000000000E+01 0.  1.
</event>
<event>
 4    1  0.4933936E-004  0.1000000E+04  0.7546771E-02  0.8684367E-01
         11   -1    0    0    0    0  0.00000000000E+00  0.00000000000E+00  0.50000000000E+03  0.50000000000E+03  0.00000000000E+00 0. -1.
        -11   -1    0    0    0    0 -0.00000000000E+00 -0.00000000000E+00 -0.50000000000E+03  0.50000000000E+03  0.00000000000E+00 0.  1.
          5    1    1    2  501    0  0.10351412116E+03  0.43027369799E+03  0.23265270585E+03  0.50000000000E+03  0.47000000000E+01 0. -1.
         -5    1    1    2    0  501 -0.10351412116E+03 -0.43027369799E+03 -0.23265270585E+03  0.50000000000E+03  0.47000000000E+01 0.  1.
</event>
<event>
 4    1  0.4933936E-004  0.1000000E+04  0.7546771E-02  0.8684367E-01
         11   -1    0    0    0    0  0.00000000000E+00  0.00000000000E+00  0.50000000000E+03  0.50000000000E+03  0.00000000000E+00 0.  1.
        -11   -1    0    0    0    0 -0.00000000000E+00 -0.00000000000E+00 -0.50000000000E+03  0.50000000000E+03  0.00000000000E+00 0. -1.
          5    1    1    2  501    0 -0.29272903041E+03 -0.22264364598E+03  0.33869961863E+03  0.50000000000E+03  0.47000000000E+01 0.  1.
         -5    1    1    2    0  501  0.29272903041E+03  0.22264364598E+03 -0.33869961863E+03  0.50000000000E+03  0.47000000000E+01 0. -1.
</event>
<event>
 4    1  0.4933936E-004  0.1000000E+04  0.7546771E-02  0.8684367E-01
         11   -1    0    0    0    0  0.00000000000E+00  0.00000000000E+00  0.50000000000E+03  0.50000000000E+03  0.00000000000E+00 0.  1.
        -11   -1    0    0    0    0 -0.00000000000E+00 -0.00000000000E+00 -0.50000000000E+03  0.50000000000E+03  0.00000000000E+00 0. -1.
          5    1    1    2  501    0 -0.27562849857E+03 -0.34691403281E+03  0.23164087424E+03  0.50000000000E+03  0.47000000000E+01 0.  1.
         -5    1    1    2    0  501  0.27562849857E+03  0.34691403281E+03 -0.23164087424E+03  0.50000000000E+03  0.47000000000E+01 0. -1.
</event>
<event>
 4    1  0.4933936E-004  0.1000000E+04  0.7546771E-02  0.8684367E-01
         11   -1    0    0    0    0  0.00000000000E+00  0.00000000000E+00  0.50000000000E+03  0.50000000000E+03  0.00000000000E+00 0. -1.
        -11   -1    0    0    0    0 -0.00000000000E+00 -0.00000000000E+00 -0.50000000000E+03  0.50000000000E+03  0.00000000000E+00 0.  1.
          5    1    1    2  501    0 -0.29943164402E+03 -0.17552792526E+03  0.35987296093E+03  0.50000000000E+03  0.47000000000E+01 0. -1.
         -5    1    1    2    0  501  0.29943164402E+03  0.17552792526E+03 -0.35987296093E+03  0.50000000000E+03  0.47000000000E+01 0.  1.
</event>
<event>
 4    1  0.4933936E-004  0.1000000E+04  0.7546771E-02  0.8684367E-01
         11   -1    0    0    0    0  0.00000000000E+00  0.00000000000E+00  0.50000000000E+03  0.50000000000E+03  0.00000000000E+00 0. -1.
        -11   -1    0    0    0    0 -0.00000000000E+00 -0.00000000000E+00 -0.50000000000E+03  0.50000000000E+03  0.00000000000E+00 0.  1.
          5    1    1    2  501    0 -0.26262962131E+03 -0.12942577645E+03  0.40528084139E+03  0.50000000000E+03  0.47000000000E+01 0. -1.
         -5    1    1    2    0  501  0.26262962131E+03  0.12942577645E+03 -0.40528084139E+03  0.50000000000E+03  0.47000000000E+01 0.  1.
</event>
<event>
 4    1  0.4933936E-004  0.1000000E+04  0.7546771E-02  0.8684367E-01
         11   -1    0    0    0    0  0.00000000000E+00  0.00000000000E+00  0.50000000000E+03  0.50000000000E+03  0.00000000000E+00 0. -1.
        -11   -1    0    0    0    0 -0.00000000000E+00 -0.00000000000E+00 -0.50000000000E+03  0.50000000000E+03  0.00000000000E+00 0.  1.
          5    1    1    2  501    0 -0.24979113799E+03 -0.14555065906E+03  0.40791825533E+03  0.50000000000E+03  0.47000000000E+01 0. -1.
         -5    1    1    2    0  501  0.24979113799E+03  0.14555065906E+03 -0.40791825533E+03  0.50000000000E+03  0.47000000000E+01 0.  1.
</event>
<event>
 4    1  0.4933936E-004  0.1000000E+04  0.7546771E-02  0.8684367E-01
         11   -1    0    0    0    0  0.00000000000E+00  0.00000000000E+00  0.50000000000E+03  0.50000000000E+03  0.00000000000E+00 0. -1.
        -11   -1    0    0    0    0 -0.00000000000E+00 -0.00000000000E+00 -0.50000000000E+03  0.50000000000E+03  0.00000000000E+00 0.  1.
          5    1    1    2  501    0  0.23811221663E+03 -0.24295004853E+03  0.36640927419E+03  0.50000000000E+03  0.47000000000E+01 0. -1.
         -5    1    1    2    0  501 -0.23811221663E+03  0.24295004853E+03 -0.36640927419E+03  0.50000000000E+03  0.47000000000E+01 0.  1.
</event>
<event>
 4    1  0.4933936E-004  0.1000000E+04  0.7546771E-02  0.8684367E-01
         11   -1    0    0    0    0  0.00000000000E+00  0.00000000000E+00  0.50000000000E+03  0.50000000000E+03  0.00000000000E+00 0. -1.
        -11   -1    0    0    0    0 -0.00000000000E+00 -0.00000000000E+00 -0.50000000000E+03  0.50000000000E+03  0.00000000000E+00 0.  1.
          5    1    1    2  501    0  0.80504659071E+02 -0.45581706329E+03  0.18901776288E+03  0.50000000000E+03  0.47000000000E+01 0. -1.
         -5    1    1    2    0  501 -0.80504659071E+02  0.45581706329E+03 -0.18901776288E+03  0.50000000000E+03  0.47000000000E+01 0.  1.
</event>
<event>
 4    1  0.4933936E-004  0.1000000E+04  0.7546771E-02  0.8684367E-01
         11   -1    0    0    0    0  0.00000000000E+00  0.00000000000E+00  0.50000000000E+03  0.50000000000E+03  0.00000000000E+00 0. -1.
        -11   -1    0    0    0    0 -0.00000000000E+00 -0.00000000000E+00 -0.50000000000E+03  0.50000000000E+03  0.00000000000E+00 0.  1.
          5    1    1    2  501    0 -0.20801433917E+01 -0.17300808684E+03  0.46908611671E+03  0.50000000000E+03  0.47000000000E+01 0. -1.
         -5    1    1    2    0  501  0.20801433917E+01  0.17300808684E+03 -0.46908611671E+03  0.50000000000E+03  0.47000000000E+01 0.  1.
</event>
<event>
 4    1  0.4933936E-004  0.1000000E+04  0.7546771E-02  0.8684367E-01
         11   -1    0    0    0    0  0.00000000000E+00  0.00000000000E+00  0.50000000000E+03  0.50000000000E+03  0.00000000000E+00 0. -1.
        -11   -1    0    0    0    0 -0.00000000000E+00 -0.00000000000E+00 -0.50000000000E+03  0.50000000000E+03  0.00000000000E+00 0.  1.
          5    1    1    2  501    0  0.38122539344E+03 -0.15428780055E+03  0.28432443440E+03  0.50000000000E+03  0.47000000000E+01 0. -1.
         -5    1    1    2    0  501 -0.38122539344E+03  0.15428780055E+03 -0.28432443440E+03  0.50000000000E+03  0.47000000000E+01 0.  1.
</event>
<event>
 4    1  0.4933936E-004  0.1000000E+04  0.7546771E-02  0.8684367E-01
         11   -1    0    0    0    0  0.00000000000E+00  0.00000000000E+00  0.50000000000E+03  0.50000000000E+03  0.00000000000E+00 0. -1.
        -11   -1    0    0    0    0 -0.00000000000E+00 -0.00000000000E+00 -0.50000000000E+03  0.50000000000E+03  0.00000000000E+00 0.  1.
          5    1    1    2  501    0 -0.23890701458E+03  0.32188189020E+03  0.29882000795E+03  0.50000000000E+03  0.47000000000E+01 0. -1.
         -5    1    1    2    0  501  0.23890701458E+03 -0.32188189020E+03 -0.29882000795E+03  0.50000000000E+03  0.47000000000E+01 0.  1.
</event>
<event>
 4    1  0.4933936E-004  0.1000000E+04  0.7546771E-02  0.8684367E-01
         11   -1    0    0    0    0  0.00000000000E+00  0.00000000000E+00  0.50000000000E+03  0.50000000000E+03  0.00000000000E+00 0.  1.
        -11   -1    0    0    0    0 -0.00000000000E+00 -0.00000000000E+00 -0.50000000000E+03  0.50000000000E+03  0.00000000000E+00 0. -1.
          5    1    1    2  501    0 -0.11773362440E+03 -0.77529592256E+01 -0.48585655837E+03  0.50000000000E+03  0.47000000000E+01 0. -1.
         -5    1    1    2    0  501  0.11773362440E+03  0.77529592256E+01  0.48585655837E+03  0.50000000000E+03  0.47000000000E+01 0.  1.
</event>
<event>
 4    1  0.4933936E-004  0.1000000E+04  0.7546771E-02  0.8684367E-01
         11   -1    0    0    0    0  0.00000000000E+00  0.00000000000E+00  0.50000000000E+03  0.50000000000E+03  0.00000000000E+00 0. -1.
        -11   -1    0    0    0    0 -0.00000000000E+00 -0.00000000000E+00 -0.50000000000E+03  0.50000000000E+03  0.00000000000E+00 0.  1.
          5    1    1    2  501    0 -0.20279268626E+03  0.39006181495E+03  0.23812773235E+03  0.50000000000E+03  0.47000000000E+01 0. -1.
         -5    1    1    2    0  501  0.20279268626E+03 -0.39006181495E+03 -0.23812773235E+03  0.50000000000E+03  0.47000000000E+01 0.  1.
</event>
<event>
 4    1  0.4933936E-004  0.1000000E+04  0.7546771E-02  0.8684367E-01
         11   -1    0    0    0    0  0.00000000000E+00  0.00000000000E+00  0.50000000000E+03  0.50000000000E+03  0.00000000000E+00 0. -1.
        -11   -1    0    0    0    0 -0.00000000000E+00 -0.00000000000E+00 -0.50000000000E+03  0.50000000000E+03  0.00000000000E+00 0.  1.
          5    1    1    2  501    0 -0.49525746515E+03 -0.65153227044E+02  0.21284036669E+02  0.50000000000E+03  0.47000000000E+01 0. -1.
         -5    1    1    2    0  501  0.49525746515E+03  0.65153227044E+02 -0.21284036669E+02  0.50000000000E+03  0.47000000000E+01 0.  1.
</event>
<event>
 4    1  0.4933936E-004  0.1000000E+04  0.7546771E-02  0.8684367E-01
         11   -1    0    0    0    0  0.00000000000E+00  0.00000000000E+00  0.50000000000E+03  0.50000000000E+03  0.00000000000E+00 0. -1.
        -11   -1    0    0    0    0 -0.00000000000E+00 -0.00000000000E+00 -0.50000000000E+03  0.50000000000E+03  0.00000000000E+00 0.  1.
          5    1    1    2  501    0  0.16505233668E+03  0.96844807302E+02  0.46190553088E+03  0.50000000000E+03  0.47000000000E+01 0. -1.
         -5    1    1    2    0  501 -0.16505233668E+03 -0.96844807302E+02 -0.46190553088E+03  0.50000000000E+03  0.47000000000E+01 0.  1.
</event>
<event>
 4    1  0.4933936E-004  0.1000000E+04  0.7546771E-02  0.8684367E-01
         11   -1    0    0    0    0  0.00000000000E+00  0.00000000000E+00  0.50000000000E+03  0.50000000000E+03  0.00000000000E+00 0. -1.
        -11   -1    0    0    0    0 -0.00000000000E+00 -0.00000000000E+00 -0.50000000000E+03  0.50000000000E+03  0.00000000000E+00 0.  1.
          5    1    1    2  501    0 -0.40394249960E+03  0.23324629567E+03  0.18001259003E+03  0.50000000000E+03  0.47000000000E+01 0. -1.
         -5    1    1    2    0  501  0.40394249960E+03 -0.23324629567E+03 -0.18001259003E+03  0.50000000000E+03  0.47000000000E+01 0.  1.
</event>
<event>
 4    1  0.4933936E-004  0.1000000E+04  0.7546771E-02  0.8684367E-01
         11   -1    0    0    0    0  0.00000000000E+00  0.00000000000E+00  0.50000000000E+03  0.50000000000E+03  0.00000000000E+00 0. -1.
        -11   -1    0    0    0    0 -0.00000000000E+00 -0.00000000000E+00 -0.50000000000E+03  0.50000000000E+03  0.00000000000E+00 0.  1.
          5    1    1    2  501    0 -0.20920968842E+03  0.43021053946E+02  0.45206017872E+03  0.50000000000E+03  0.47000000000E+01 0. -1.
         -5    1    1    2    0  501  0.20920968842E+03 -0.43021053946E+02 -0.45206017872E+03  0.50000000000E+03  0.47000000000E+01 0.  1.
</event>
<event>
 4    1  0.4933936E-004  0.1000000E+04  0.7546771E-02  0.8684367E-01
         11   -1    0    0    0    0  0.00000000000E+00  0.00000000000E+00  0.50000000000E+03  0.50000000000E+03  0.00000000000E+00 0. -1.
        -11   -1    0    0    0    0 -0.00000000000E+00 -0.00000000000E+00 -0.50000000000E+03  0.50000000000E+03  0.00000000000E+00 0.  1.
          5    1    1    2  501    0 -0.26055807641E+03  0.35088171807E+03  0.24283619734E+03  0.50000000000E+03  0.47000000000E+01 0. -1.
         -5    1    1    2    0  501  0.26055807641E+03 -0.35088171807E+03 -0.24283619734E+03  0.50000000000E+03  0.47000000000E+01 0.  1.
</event>
<event>
 4    1  0.4933936E-004  0.1000000E+04  0.7546771E-02  0.8684367E-01
         11   -1    0    0    0    0  0.00000000000E+00  0.00000000000E+00  0.50000000000E+03  0.50000000000E+03  0.00000000000E+00 0. -1.
        -11   -1    0    0    0    0 -0.00000000000E+00 -0.00000000000E+00 -0.50000000000E+03  0.50000000000E+03  0.00000000000E+00 0.  1.
          5    1    1    2  501    0  0.18433833349E+03 -0.30750599217E+03  0.34847862715E+03  0.50000000000E+03  0.47000000000E+01 0. -1.
         -5    1    1    2    0  501 -0.18433833349E+03  0.30750599217E+03 -0.34847862715E+03  0.50000000000E+03  0.47000000000E+01 0.  1.
</event>
<event>
 4    1  0.4933936E-004  0.1000000E+04  0.7546771E-02  0.8684367E-01
         11   -1    0    0    0    0  0.00000000000E+00  0.00000000000E+00  0.50000000000E+03  0.50000000000E+03  0.00000000000E+00 0. -1.
        -11   -1    0    0    0    0 -0.00000000000E+00 -0.00000000000E+00 -0.50000000000E+03  0.50000000000E+03  0.00000000000E+00 0.  1.
          5    1    1    2  501    0  0.46168791027E+03 -0.18279104062E+03  0.58391942773E+02  0.50000000000E+03  0.47000000000E+01 0. -1.
         -5    1    1    2    0  501 -0.46168791027E+03  0.18279104062E+03 -0.58391942773E+02  0.50000000000E+03  0.47000000000E+01 0.  1.
</event>
<event>
 4    1  0.4933936E-004  0.1000000E+04  0.7546771E-02  0.8684367E-01
         11   -1    0    0    0    0  0.00000000000E+00  0.00000000000E+00  0.50000000000E+03  0.50000000000E+03  0.00000000000E+00 0.  1.
        -11   -1    0    0    0    0 -0.00000000000E+00 -0.00000000000E+00 -0.50000000000E+03  0.50000000000E+03  0.00000000000E+00 0. -1.
          5    1    1    2  501    0 -0.13004326663E+03 -0.17049321276E+02  0.48246863053E+03  0.50000000000E+03  0.47000000000E+01 0.  1.
         -5    1    1    2    0  501  0.13004326663E+03  0.17049321276E+02 -0.48246863053E+03  0.50000000000E+03  0.47000000000E+01 0. -1.
</event>
<event>
 4    1  0.4933936E-004  0.1000000E+04  0.7546771E-02  0.8684367E-01
         11   -1    0    0    0    0  0.00000000000E+00  0.00000000000E+00  0.50000000000E+03  0.50000000000E+03  0.00000000000E+00 0. -1.
        -11   -1    0    0    0    0 -0.00000000000E+00 -0.00000000000E+00 -0.50000000000E+03  0.50000000000E+03  0.00000000000E+00 0.  1.
          5    1    1    2  501    0 -0.43292198081E+03 -0.24805802644E+03  0.31995062982E+02  0.50000000000E+03  0.47000000000E+01 0. -1.
         -5    1    1    2    0  501  0.43292198081E+03  0.24805802644E+03 -0.31995062982E+02  0.50000000000E+03  0.47000000000E+01 0.  1.
</event>
<event>
 4    1  0.4933936E-004  0.1000000E+04  0.7546771E-02  0.8684367E-01
         11   -1    0    0    0    0  0.00000000000E+00  0.00000000000E+00  0.50000000000E+03  0.50000000000E+03  0.00000000000E+00 0. -1.
        -11   -1    0    0    0    0 -0.00000000000E+00 -0.00000000000E+00 -0.50000000000E+03  0.50000000000E+03  0.00000000000E+00 0.  1.
          5    1    1    2  501    0  0.38044056492E+03  0.20719485811E+03  0.24962607504E+03  0.50000000000E+03  0.47000000000E+01 0. -1.
         -5    1    1    2    0  501 -0.38044056492E+03 -0.20719485811E+03 -0.24962607504E+03  0.50000000000E+03  0.47000000000E+01 0.  1.
</event>
<event>
 4    1  0.4933936E-004  0.1000000E+04  0.7546771E-02  0.8684367E-01
         11   -1    0    0    0    0  0.00000000000E+00  0.00000000000E+00  0.50000000000E+03  0.50000000000E+03  0.00000000000E+00 0. -1.
        -11   -1    0    0    0    0 -0.00000000000E+00 -0.00000000000E+00 -0.50000000000E+03  0.50000000000E+03  0.00000000000E+00 0.  1.
          5    1    1    2  501    0  0.29146715342E+03  0.35822636644E+03  0.19156899244E+03  0.50000000000E+03  0.47000000000E+01 0. -1.
         -5    1    1    2    0  501 -0.29146715342E+03 -0.35822636644E+03 -0.19156899244E+03  0.50000000000E+03  0.47000000000E+01 0.  1.
</event>
<event>
 4    1  0.4933936E-004  0.1000000E+04  0.7546771E-02  0.8684367E-01
         11   -1    0    0    0    0  0.00000000000E+00  0.00000000000E+00  0.50000000000E+03  0.50000000000E+03  0.00000000000E+00 0. -1.
        -11   -1    0    0    0    0 -0.00000000000E+00 -0.00000000000E+00 -0.50000000000E+03  0.50000000000E+03  0.00000000000E+00 0.  1.
          5    1    1    2  501    0 -0.22239675070E+03  0.41182548510E+03 -0.17583334466E+03  0.50000000000E+03  0.47000000000E+01 0. -1.
         -5    1    1    2    0  501  0.22239675070E+03 -0.41182548510E+03  0.17583334466E+03  0.50000000000E+03  0.47000000000E+01 0.  1.
</event>
<event>
 4    1  0.4933936E-004  0.1000000E+04  0.7546771E-02  0.8684367E-01
         11   -1    0    0    0    0  0.00000000000E+00  0.00000000000E+00  0.50000000000E+03  0.50000000000E+03  0.00000000000E+00 0. -1.
        -11   -1    0    0    0    0 -0.00000000000E+00 -0.00000000000E+00 -0.50000000000E+03  0.50000000000E+03  0.00000000000E+00 0.  1.
          5    1    1    2  501    0  0.41200790266E+03 -0.73160691216E+02  0.27363280396E+03  0.50000000000E+03  0.47000000000E+01 0. -1.
         -5    1    1    2    0  501 -0.41200790266E+03  0.73160691216E+02 -0.27363280396E+03  0.50000000000E+03  0.47000000000E+01 0.  1.
</event>
<event>
 4    1  0.4933936E-004  0.1000000E+04  0.7546771E-02  0.8684367E-01
         11   -1    0    0    0    0  0.00000000000E+00  0.00000000000E+00  0.50000000000E+03  0.50000000000E+03  0.00000000000E+00 0. -1.
        -11   -1    0    0    0    0 -0.00000000000E+00 -0.00000000000E+00 -0.50000000000E+03  0.50000000000E+03  0.00000000000E+00 0.  1.
          5    1    1    2  501    0  0.43172990582E+03 -0.15587864362E+03 -0.19821464851E+03  0.50000000000E+03  0.47000000000E+01 0.  1.
         -5    1    1    2    0  501 -0.43172990582E+03  0.15587864362E+03  0.19821464851E+03  0.50000000000E+03  0.47000000000E+01 0. -1.
</event>
<event>
 4    1  0.4933936E-004  0.1000000E+04  0.7546771E-02  0.8684367E-01
         11   -1    0    0    0    0  0.00000000000E+00  0.00000000000E+00  0.50000000000E+03  0.50000000000E+03  0.00000000000E+00 0. -1.
        -11   -1    0    0    0    0 -0.00000000000E+00 -0.00000000000E+00 -0.50000000000E+03  0.50000000000E+03  0.00000000000E+00 0.  1.
          5    1    1    2  501    0 -0.44835458900E+03  0.18651562984E+03  0.11902937599E+03  0.50000000000E+03  0.47000000000E+01 0. -1.
         -5    1    1    2    0  501  0.44835458900E+03 -0.18651562984E+03 -0.11902937599E+03  0.50000000000E+03  0.47000000000E+01 0.  1.
</event>
<event>
 4    1  0.4933936E-004  0.1000000E+04  0.7546771E-02  0.8684367E-01
         11   -1    0    0    0    0  0.00000000000E+00  0.00000000000E+00  0.50000000000E+03  0.50000000000E+03  0.00000000000E+00 0.  1.
        -11   -1    0    0    0    0 -0.00000000000E+00 -0.00000000000E+00 -0.50000000000E+03  0.50000000000E+03  0.00000000000E+00 0. -1.
          5    1    1    2  501    0 -0.18720456416E+03  0.40738704334E+01 -0.46359008266E+03  0.50000000000E+03  0.47000000000E+01 0. -1.
         -5    1    1    2    0  501  0.18720456416E+03 -0.40738704334E+01  0.46359008266E+03  0.50000000000E+03  0.47000000000E+01 0.  1.
</event>
<event>
 4    1  0.4933936E-004  0.1000000E+04  0.7546771E-02  0.8684367E-01
         11   -1    0    0    0    0  0.00000000000E+00  0.00000000000E+00  0.50000000000E+03  0.50000000000E+03  0.00000000000E+00 0. -1.
        -11   -1    0    0    0    0 -0.00000000000E+00 -0.00000000000E+00 -0.50000000000E+03  0.50000000000E+03  0.00000000000E+00 0.  1.
          5    1    1    2  501    0  0.36308233985E+03  0.25098835139E+03  0.23484882788E+03  0.50000000000E+03  0.47000000000E+01 0. -1.
         -5    1    1    2    0  501 -0.36308233985E+03 -0.25098835139E+03 -0.23484882788E+03  0.50000000000E+03  0.47000000000E+01 0.  1.
</event>
<event>
 4    1  0.4933936E-004  0.1000000E+04  0.7546771E-02  0.8684367E-01
         11   -1    0    0    0    0  0.00000000000E+00  0.00000000000E+00  0.50000000000E+03  0.50000000000E+03  0.00000000000E+00 0. -1.
        -11   -1    0    0    0    0 -0.00000000000E+00 -0.00000000000E+00 -0.50000000000E+03  0.50000000000E+03  0.00000000000E+00 0.  1.
          5    1    1    2  501    0 -0.28001248296E+03 -0.14569473837E+03  0.38774213416E+03  0.50000000000E+03  0.47000000000E+01 0. -1.
         -5    1    1    2    0  501  0.28001248296E+03  0.14569473837E+03 -0.38774213416E+03  0.50000000000E+03  0.47000000000E+01 0.  1.
</event>
<event>
 4    1  0.4933936E-004  0.1000000E+04  0.7546771E-02  0.8684367E-01
         11   -1    0    0    0    0  0.00000000000E+00  0.00000000000E+00  0.50000000000E+03  0.50000000000E+03  0.00000000000E+00 0. -1.
        -11   -1    0    0    0    0 -0.00000000000E+00 -0.00000000000E+00 -0.50000000000E+03  0.50000000000E+03  0.00000000000E+00 0.  1.
          5    1    1    2  501    0 -0.12133450828E+03 -0.17006430363E+03  0.45424000235E+03  0.50000000000E+03  0.47000000000E+01 0. -1.
         -5    1    1    2    0  501  0.12133450828E+03  0.17006430363E+03 -0.45424000235E+03  0.50000000000E+03  0.47000000000E+01 0.  1.
</event>
<event>
 4    1  0.4933936E-004  0.1000000E+04  0.7546771E-02  0.8684367E-01
         11   -1    0    0    0    0  0.00000000000E+00  0.00000000000E+00  0.50000000000E+03  0.50000000000E+03  0.00000000000E+00 0. -1.
        -11   -1    0    0    0    0 -0.00000000000E+00 -0.00000000000E+00 -0.50000000000E+03  0.50000000000E+03  0.00000000000E+00 0.  1.
          5    1    1    2  501    0 -0.15496371561E+03  0.47065334032E+03  0.66705247837E+02  0.50000000000E+03  0.47000000000E+01 0. -1.
         -5    1    1    2    0  501  0.15496371561E+03 -0.47065334032E+03 -0.66705247837E+02  0.50000000000E+03  0.47000000000E+01 0.  1.
</event>
<event>
 4    1  0.4933936E-004  0.1000000E+04  0.7546771E-02  0.8684367E-01
         11   -1    0    0    0    0  0.00000000000E+00  0.00000000000E+00  0.50000000000E+03  0.50000000000E+03  0.00000000000E+00 0. -1.
        -11   -1    0    0    0    0 -0.00000000000E+00 -0.00000000000E+00 -0.50000000000E+03  0.50000000000E+03  0.00000000000E+00 0.  1.
          5    1    1    2  501    0 -0.11282285990E+03 -0.31270961142E+02  0.48607719477E+03  0.50000000000E+03  0.47000000000E+01 0. -1.
         -5    1    1    2    0  501  0.11282285990E+03  0.31270961142E+02 -0.48607719477E+03  0.50000000000E+03  0.47000000000E+01 0.  1.
</event>
<event>
 4    1  0.4933936E-004  0.1000000E+04  0.7546771E-02  0.8684367E-01
         11   -1    0    0    0    0  0.00000000000E+00  0.00000000000E+00  0.50000000000E+03  0.50000000000E+03  0.00000000000E+00 0. -1.
        -11   -1    0    0    0    0 -0.00000000000E+00 -0.00000000000E+00 -0.50000000000E+03  0.50000000000E+03  0.00000000000E+00 0.  1.
          5    1    1    2  501    0 -0.38738756977E+03  0.31391055163E+03  0.36999275163E+02  0.50000000000E+03  0.47000000000E+01 0. -1.
         -5    1    1    2    0  501  0.38738756977E+03 -0.31391055163E+03 -0.36999275163E+02  0.50000000000E+03  0.47000000000E+01 0.  1.
</event>
<event>
 4    1  0.4933936E-004  0.1000000E+04  0.7546771E-02  0.8684367E-01
         11   -1    0    0    0    0  0.00000000000E+00  0.00000000000E+00  0.50000000000E+03  0.50000000000E+03  0.00000000000E+00 0. -1.
        -11   -1    0    0    0    0 -0.00000000000E+00 -0.00000000000E+00 -0.50000000000E+03  0.50000000000E+03  0.00000000000E+00 0.  1.
          5    1    1    2  501    0 -0.35428524215E+03  0.30954171333E+03  0.16924480761E+03  0.50000000000E+03  0.47000000000E+01 0. -1.
         -5    1    1    2    0  501  0.35428524215E+03 -0.30954171333E+03 -0.16924480761E+03  0.50000000000E+03  0.47000000000E+01 0.  1.
</event>
<event>
 4    1  0.4933936E-004  0.1000000E+04  0.7546771E-02  0.8684367E-01
         11   -1    0    0    0    0  0.00000000000E+00  0.00000000000E+00  0.50000000000E+03  0.50000000000E+03  0.00000000000E+00 0. -1.
        -11   -1    0    0    0    0 -0.00000000000E+00 -0.00000000000E+00 -0.50000000000E+03  0.50000000000E+03  0.00000000000E+00 0.  1.
          5    1    1    2  501    0  0.16208573009E+03  0.15611139952E+03  0.44646988369E+03  0.50000000000E+03  0.47000000000E+01 0. -1.
         -5    1    1    2    0  501 -0.16208573009E+03 -0.15611139952E+03 -0.44646988369E+03  0.50000000000E+03  0.47000000000E+01 0.  1.
</event>
<event>
 4    1  0.4933936E-004  0.1000000E+04  0.7546771E-02  0.8684367E-01
         11   -1    0    0    0    0  0.00000000000E+00  0.00000000000E+00  0.50000000000E+03  0.50000000000E+03  0.00000000000E+00 0. -1.
        -11   -1    0    0    0    0 -0.00000000000E+00 -0.00000000000E+00 -0.50000000000E+03  0.50000000000E+03  0.00000000000E+00 0.  1.
          5    1    1    2  501    0  0.11963515045E+03  0.39527764162E+03  0.28181718687E+03  0.50000000000E+03  0.47000000000E+01 0. -1.
         -5    1    1    2    0  501 -0.11963515045E+03 -0.39527764162E+03 -0.28181718687E+03  0.50000000000E+03  0.47000000000E+01 0.  1.
</event>
<event>
 4    1  0.4933936E-004  0.1000000E+04  0.7546771E-02  0.8684367E-01
         11   -1    0    0    0    0  0.00000000000E+00  0.00000000000E+00  0.50000000000E+03  0.50000000000E+03  0.00000000000E+00 0.  1.
        -11   -1    0    0    0    0 -0.00000000000E+00 -0.00000000000E+00 -0.50000000000E+03  0.50000000000E+03  0.00000000000E+00 0. -1.
          5    1    1    2  501    0 -0.45925072687E+03 -0.37118809546E+02 -0.19413622497E+03  0.50000000000E+03  0.47000000000E+01 0.  1.
         -5    1    1    2    0  501  0.45925072687E+03  0.37118809546E+02  0.19413622497E+03  0.50000000000E+03  0.47000000000E+01 0. -1.
</event>
<event>
 4    1  0.4933936E-004  0.1000000E+04  0.7546771E-02  0.8684367E-01
         11   -1    0    0    0    0  0.00000000000E+00  0.00000000000E+00  0.50000000000E+03  0.50000000000E+03  0.00000000000E+00 0. -1.
        -11   -1    0    0    0    0 -0.00000000000E+00 -0.00000000000E+00 -0.50000000000E+03  0.50000000000E+03  0.00000000000E+00 0.  1.
          5    1    1    2  501    0 -0.34754267670E+03  0.28993383720E+03  0.21243909226E+03  0.50000000000E+03  0.47000000000E+01 0. -1.
         -5    1    1    2    0  501  0.34754267670E+03 -0.28993383720E+03 -0.21243909226E+03  0.50000000000E+03  0.47000000000E+01 0.  1.
</event>
<event>
 4    1  0.4933936E-004  0.1000000E+04  0.7546771E-02  0.8684367E-01
         11   -1    0    0    0    0  0.00000000000E+00  0.00000000000E+00  0.50000000000E+03  0.50000000000E+03  0.00000000000E+00 0. -1.
        -11   -1    0    0    0    0 -0.00000000000E+00 -0.00000000000E+00 -0.50000000000E+03  0.50000000000E+03  0.00000000000E+00 0.  1.
          5    1    1    2  501    0 -0.59799921241E+02  0.47580180841E+03  0.14147267770E+03  0.50000000000E+03  0.47000000000E+01 0. -1.
         -5    1    1    2    0  501  0.59799921241E+02 -0.47580180841E+03 -0.14147267770E+03  0.50000000000E+03  0.47000000000E+01 0.  1.
</event>
<event>
 4    1  0.4933936E-004  0.1000000E+04  0.7546771E-02  0.8684367E-01
         11   -1    0    0    0    0  0.00000000000E+00  0.00000000000E+00  0.50000000000E+03  0.50000000000E+03  0.00000000000E+00 0. -1.
        -11   -1    0    0    0    0 -0.00000000000E+00 -0.00000000000E+00 -0.50000000000E+03  0.50000000000E+03  0.00000000000E+00 0.  1.
          5    1    1    2  501    0  0.28012895947E+03 -0.39146310792E+03 -0.13513811899E+03  0.50000000000E+03  0.47000000000E+01 0.  1.
         -5    1    1    2    0  501 -0.28012895947E+03  0.39146310792E+03  0.13513811899E+03  0.50000000000E+03  0.47000000000E+01 0. -1.
</event>
<event>
 4    1  0.4933936E-004  0.1000000E+04  0.7546771E-02  0.8684367E-01
         11   -1    0    0    0    0  0.00000000000E+00  0.00000000000E+00  0.50000000000E+03  0.50000000000E+03  0.00000000000E+00 0. -1.
        -11   -1    0    0    0    0 -0.00000000000E+00 -0.00000000000E+00 -0.50000000000E+03  0.50000000000E+03  0.00000000000E+00 0.  1.
          5    1    1    2  501    0 -0.19895119028E+03 -0.30900270313E+03  0.33898917880E+03  0.50000000000E+03  0.47000000000E+01 0. -1.
         -5    1    1    2    0  501  0.19895119028E+03  0.30900270313E+03 -0.33898917880E+03  0.50000000000E+03  0.47000000000E+01 0.  1.
</event>
<event>
 4    1  0.4933936E-004  0.1000000E+04  0.7546771E-02  0.8684367E-01
         11   -1    0    0    0    0  0.00000000000E+00  0.00000000000E+00  0.50000000000E+03  0.50000000000E+03  0.00000000000E+00 0. -1.
        -11   -1    0    0    0    0 -0.00000000000E+00 -0.00000000000E+00 -0.50000000000E+03  0.50000000000E+03  0.00000000000E+00 0.  1.
          5    1    1    2  501    0 -0.36416520683E+03  0.12129397337E+03  0.32038942579E+03  0.50000000000E+03  0.47000000000E+01 0. -1.
         -5    1    1    2    0  501  0.36416520683E+03 -0.12129397337E+03 -0.32038942579E+03  0.50000000000E+03  0.47000000000E+01 0.  1.
</event>
<event>
 4    1  0.4933936E-004  0.1000000E+04  0.7546771E-02  0.8684367E-01
         11   -1    0    0    0    0  0.00000000000E+00  0.00000000000E+00  0.50000000000E+03  0.50000000000E+03  0.00000000000E+00 0. -1.
        -11   -1    0    0    0    0 -0.00000000000E+00 -0.00000000000E+00 -0.50000000000E+03  0.50000000000E+03  0.00000000000E+00 0.  1.
          5    1    1    2  501    0  0.19777173573E+03  0.45919939951E+03  0.40254120722E+00  0.50000000000E+03  0.47000000000E+01 0. -1.
         -5    1    1    2    0  501 -0.19777173573E+03 -0.45919939951E+03 -0.40254120722E+00  0.50000000000E+03  0.47000000000E+01 0.  1.
</event>
<event>
 4    1  0.4933936E-004  0.1000000E+04  0.7546771E-02  0.8684367E-01
         11   -1    0    0    0    0  0.00000000000E+00  0.00000000000E+00  0.50000000000E+03  0.50000000000E+03  0.00000000000E+00 0. -1.
        -11   -1    0    0    0    0 -0.00000000000E+00 -0.00000000000E+00 -0.50000000000E+03  0.50000000000E+03  0.00000000000E+00 0.  1.
          5    1    1    2  501    0 -0.39431383106E+03  0.28064177775E+03  0.12543805328E+03  0.50000000000E+03  0.47000000000E+01 0. -1.
         -5    1    1    2    0  501  0.39431383106E+03 -0.28064177775E+03 -0.12543805328E+03  0.50000000000E+03  0.47000000000E+01 0.  1.
</event>
<event>
 4    1  0.4933936E-004  0.1000000E+04  0.7546771E-02  0.8684367E-01
         11   -1    0    0    0    0  0.00000000000E+00  0.00000000000E+00  0.50000000000E+03  0.50000000000E+03  0.00000000000E+00 0. -1.
        -11   -1    0    0    0    0 -0.00000000000E+00 -0.00000000000E+00 -0.50000000000E+03  0.50000000000E+03  0.00000000000E+00 0.  1.
          5    1    1    2  501    0 -0.77800982408E+02 -0.60177231046E+02  0.49020772944E+03  0.50000000000E+03  0.47000000000E+01 0. -1.
         -5    1    1    2    0  501  0.77800982408E+02  0.60177231046E+02 -0.49020772944E+03  0.50000000000E+03  0.47000000000E+01 0.  1.
</event>
<event>
 4    1  0.4933936E-004  0.1000000E+04  0.7546771E-02  0.8684367E-01
         11   -1    0    0    0    0  0.00000000000E+00  0.00000000000E+00  0.50000000000E+03  0.50000000000E+03  0.00000000000E+00 0. -1.
        -11   -1    0    0    0    0 -0.00000000000E+00 -0.00000000000E+00 -0.50000000000E+03  0.50000000000E+03  0.00000000000E+00 0.  1.
          5    1    1    2  501    0 -0.13622479084E+03  0.44452858969E+03  0.18388868729E+03  0.50000000000E+03  0.47000000000E+01 0. -1.
         -5    1    1    2    0  501  0.13622479084E+03 -0.44452858969E+03 -0.18388868729E+03  0.50000000000E+03  0.47000000000E+01 0.  1.
</event>
<event>
 4    1  0.4933936E-004  0.1000000E+04  0.7546771E-02  0.8684367E-01
         11   -1    0    0    0    0  0.00000000000E+00  0.00000000000E+00  0.50000000000E+03  0.50000000000E+03  0.00000000000E+00 0. -1.
        -11   -1    0    0    0    0 -0.00000000000E+00 -0.00000000000E+00 -0.50000000000E+03  0.50000000000E+03  0.00000000000E+00 0.  1.
          5    1    1    2  501    0  0.47530864331E+03 -0.50940937107E+02 -0.14650810393E+03  0.50000000000E+03  0.47000000000E+01 0. -1.
         -5    1    1    2    0  501 -0.47530864331E+03  0.50940937107E+02  0.14650810393E+03  0.50000000000E+03  0.47000000000E+01 0.  1.
</event>
<event>
 4    1  0.4933936E-004  0.1000000E+04  0.7546771E-02  0.8684367E-01
         11   -1    0    0    0    0  0.00000000000E+00  0.00000000000E+00  0.50000000000E+03  0.50000000000E+03  0.00000000000E+00 0. -1.
        -11   -1    0    0    0    0 -0.00000000000E+00 -0.00000000000E+00 -0.50000000000E+03  0.50000000000E+03  0.00000000000E+00 0.  1.
          5    1    1    2  501    0  0.45815107223E+03  0.90691624540E+02 -0.17846717977E+03  0.50000000000E+03  0.47000000000E+01 0. -1.
         -5    1    1    2    0  501 -0.45815107223E+03 -0.90691624540E+02  0.17846717977E+03  0.50000000000E+03  0.47000000000E+01 0.  1.
</event>
<event>
 4    1  0.4933936E-004  0.1000000E+04  0.7546771E-02  0.8684367E-01
         11   -1    0    0    0    0  0.00000000000E+00  0.00000000000E+00  0.50000000000E+03  0.50000000000E+03  0.00000000000E+00 0. -1.
        -11   -1    0    0    0    0 -0.00000000000E+00 -0.00000000000E+00 -0.50000000000E+03  0.50000000000E+03  0.00000000000E+00 0.  1.
          5    1    1    2  501    0  0.14002068434E+03  0.46374869821E+03 -0.12373060604E+03  0.50000000000E+03  0.47000000000E+01 0. -1.
         -5    1    1    2    0  501 -0.14002068434E+03 -0.46374869821E+03  0.12373060604E+03  0.50000000000E+03  0.47000000000E+01 0.  1.
</event>
<event>
 4    1  0.4933936E-004  0.1000000E+04  0.7546771E-02  0.8684367E-01
         11   -1    0    0    0    0  0.00000000000E+00  0.00000000000E+00  0.50000000000E+03  0.50000000000E+03  0.00000000000E+00 0. -1.
        -11   -1    0    0    0    0 -0.00000000000E+00 -0.00000000000E+00 -0.50000000000E+03  0.50000000000E+03  0.00000000000E+00 0.  1.
          5    1    1    2  501    0 -0.26514712177E+03 -0.37536638323E+03  0.19691366676E+03  0.50000000000E+03  0.47000000000E+01 0. -1.
         -5    1    1    2    0  501  0.26514712177E+03  0.37536638323E+03 -0.19691366676E+03  0.50000000000E+03  0.47000000000E+01 0.  1.
</event>
<event>
 4    1  0.4933936E-004  0.1000000E+04  0.7546771E-02  0.8684367E-01
         11   -1    0    0    0    0  0.00000000000E+00  0.00000000000E+00  0.50000000000E+03  0.50000000000E+03  0.00000000000E+00 0. -1.
        -11   -1    0    0    0    0 -0.00000000000E+00 -0.00000000000E+00 -0.50000000000E+03  0.50000000000E+03  0.00000000000E+00 0.  1.
          5    1    1    2  501    0  0.37999706460E+03  0.81121190526E+02  0.31464184932E+03  0.50000000000E+03  0.47000000000E+01 0. -1.
         -5    1    1    2    0  501 -0.37999706460E+03 -0.81121190526E+02 -0.31464184932E+03  0.50000000000E+03  0.47000000000E+01 0.  1.
</event>
<event>
 4    1  0.4933936E-004  0.1000000E+04  0.7546771E-02  0.8684367E-01
         11   -1    0    0    0    0  0.00000000000E+00  0.00000000000E+00  0.50000000000E+03  0.50000000000E+03  0.00000000000E+00 0.  1.
        -11   -1    0    0    0    0 -0.00000000000E+00 -0.00000000000E+00 -0.50000000000E+03  0.50000000000E+03  0.00000000000E+00 0. -1.
          5    1    1    2  501    0  0.11600823335E+03  0.66795287863E+02  0.48172439145E+03  0.50000000000E+03  0.47000000000E+01 0.  1.
         -5    1    1    2    0  501 -0.11600823335E+03 -0.66795287863E+02 -0.48172439145E+03  0.50000000000E+03  0.47000000000E+01 0. -1.
</event>
<event>
 4    1  0.4933936E-004  0.1000000E+04  0.7546771E-02  0.8684367E-01
         11   -1    0    0    0    0  0.00000000000E+00  0.00000000000E+00  0.50000000000E+03  0.50000000000E+03  0.00000000000E+00 0.  1.
        -11   -1    0    0    0    0 -0.00000000000E+00 -0.00000000000E+00 -0.50000000000E+03  0.50000000000E+03  0.00000000000E+00 0. -1.
          5    1    1    2  501    0  0.39625796215E+03  0.10534345072E+02  0.30470734321E+03  0.50000000000E+03  0.47000000000E+01 0.  1.
         -5    1    1    2    0  501 -0.39625796215E+03 -0.10534345072E+02 -0.30470734321E+03  0.50000000000E+03  0.47000000000E+01 0. -1.
</event>
<event>
 4    1  0.4933936E-004  0.1000000E+04  0.7546771E-02  0.8684367E-01
         11   -1    0    0    0    0  0.00000000000E+00  0.00000000000E+00  0.50000000000E+03  0.50000000000E+03  0.00000000000E+00 0.  1.
        -11   -1    0    0    0    0 -0.00000000000E+00 -0.00000000000E+00 -0.50000000000E+03  0.50000000000E+03  0.00000000000E+00 0. -1.
          5    1    1    2  501    0  0.42830949941E+03  0.25083932595E+03 -0.60070918706E+02  0.50000000000E+03  0.47000000000E+01 0. -1.
         -5    1    1    2    0  501 -0.42830949941E+03 -0.25083932595E+03  0.60070918706E+02  0.50000000000E+03  0.47000000000E+01 0.  1.
</event>
<event>
 4    1  0.4933936E-004  0.1000000E+04  0.7546771E-02  0.8684367E-01
         11   -1    0    0    0    0  0.00000000000E+00  0.00000000000E+00  0.50000000000E+03  0.50000000000E+03  0.00000000000E+00 0. -1.
        -11   -1    0    0    0    0 -0.00000000000E+00 -0.00000000000E+00 -0.50000000000E+03  0.50000000000E+03  0.00000000000E+00 0.  1.
          5    1    1    2  501    0  0.47296548446E+03  0.12644350178E+03 -0.10145738694E+03  0.50000000000E+03  0.47000000000E+01 0. -1.
         -5    1    1    2    0  501 -0.47296548446E+03 -0.12644350178E+03  0.10145738694E+03  0.50000000000E+03  0.47000000000E+01 0.  1.
</event>
<event>
 4    1  0.4933936E-004  0.1000000E+04  0.7546771E-02  0.8684367E-01
         11   -1    0    0    0    0  0.00000000000E+00  0.00000000000E+00  0.50000000000E+03  0.50000000000E+03  0.00000000000E+00 0. -1.
        -11   -1    0    0    0    0 -0.00000000000E+00 -0.00000000000E+00 -0.50000000000E+03  0.50000000000E+03  0.00000000000E+00 0.  1.
          5    1    1    2  501    0 -0.44469257797E+03  0.20726251965E+03  0.96273927138E+02  0.50000000000E+03  0.47000000000E+01 0. -1.
         -5    1    1    2    0  501  0.44469257797E+03 -0.20726251965E+03 -0.96273927138E+02  0.50000000000E+03  0.47000000000E+01 0.  1.
</event>
<event>
 4    1  0.4933936E-004  0.1000000E+04  0.7546771E-02  0.8684367E-01
         11   -1    0    0    0    0  0.00000000000E+00  0.00000000000E+00  0.50000000000E+03  0.50000000000E+03  0.00000000000E+00 0. -1.
        -11   -1    0    0    0    0 -0.00000000000E+00 -0.00000000000E+00 -0.50000000000E+03  0.50000000000E+03  0.00000000000E+00 0.  1.
          5    1    1    2  501    0  0.17953589180E+03 -0.16118681056E+03  0.43790819318E+03  0.50000000000E+03  0.47000000000E+01 0. -1.
         -5    1    1    2    0  501 -0.17953589180E+03  0.16118681056E+03 -0.43790819318E+03  0.50000000000E+03  0.47000000000E+01 0.  1.
</event>
<event>
 4    1  0.4933936E-004  0.1000000E+04  0.7546771E-02  0.8684367E-01
         11   -1    0    0    0    0  0.00000000000E+00  0.00000000000E+00  0.50000000000E+03  0.50000000000E+03  0.00000000000E+00 0. -1.
        -11   -1    0    0    0    0 -0.00000000000E+00 -0.00000000000E+00 -0.50000000000E+03  0.50000000000E+03  0.00000000000E+00 0.  1.
          5    1    1    2  501    0  0.11768035608E+02  0.98663808590E+02  0.49000497570E+03  0.50000000000E+03  0.47000000000E+01 0. -1.
         -5    1    1    2    0  501 -0.11768035608E+02 -0.98663808590E+02 -0.49000497570E+03  0.50000000000E+03  0.47000000000E+01 0.  1.
</event>
<event>
 4    1  0.4933936E-004  0.1000000E+04  0.7546771E-02  0.8684367E-01
         11   -1    0    0    0    0  0.00000000000E+00  0.00000000000E+00  0.50000000000E+03  0.50000000000E+03  0.00000000000E+00 0. -1.
        -11   -1    0    0    0    0 -0.00000000000E+00 -0.00000000000E+00 -0.50000000000E+03  0.50000000000E+03  0.00000000000E+00 0.  1.
          5    1    1    2  501    0  0.47942682359E+03 -0.13517480169E+03 -0.43076720011E+02  0.50000000000E+03  0.47000000000E+01 0.  1.
         -5    1    1    2    0  501 -0.47942682359E+03  0.13517480169E+03  0.43076720011E+02  0.50000000000E+03  0.47000000000E+01 0. -1.
</event>
<event>
 4    1  0.4933936E-004  0.1000000E+04  0.7546771E-02  0.8684367E-01
         11   -1    0    0    0    0  0.00000000000E+00  0.00000000000E+00  0.50000000000E+03  0.50000000000E+03  0.00000000000E+00 0. -1.
        -11   -1    0    0    0    0 -0.00000000000E+00 -0.00000000000E+00 -0.50000000000E+03  0.50000000000E+03  0.00000000000E+00 0.  1.
          5    1    1    2  501    0 -0.92159344120E+02  0.20264413697E+03  0.44768283309E+03  0.50000000000E+03  0.47000000000E+01 0. -1.
         -5    1    1    2    0  501  0.92159344120E+02 -0.20264413697E+03 -0.44768283309E+03  0.50000000000E+03  0.47000000000E+01 0.  1.
</event>
<event>
 4    1  0.4933936E-004  0.1000000E+04  0.7546771E-02  0.8684367E-01
         11   -1    0    0    0    0  0.00000000000E+00  0.00000000000E+00  0.50000000000E+03  0.50000000000E+03  0.00000000000E+00 0. -1.
        -11   -1    0    0    0    0 -0.00000000000E+00 -0.00000000000E+00 -0.50000000000E+03  0.50000000000E+03  0.00000000000E+00 0.  1.
          5    1    1    2  501    0 -0.42449462347E+03 -0.26887733711E+02  0.26279131345E+03  0.50000000000E+03  0.47000000000E+01 0. -1.
         -5    1    1    2    0  501  0.42449462347E+03  0.26887733711E+02 -0.26279131345E+03  0.50000000000E+03  0.47000000000E+01 0.  1.
</event>
<event>
 4    1  0.4933936E-004  0.1000000E+04  0.7546771E-02  0.8684367E-01
         11   -1    0    0    0    0  0.00000000000E+00  0.00000000000E+00  0.50000000000E+03  0.50000000000E+03  0.00000000000E+00 0. -1.
        -11   -1    0    0    0    0 -0.00000000000E+00 -0.00000000000E+00 -0.50000000000E+03  0.50000000000E+03  0.00000000000E+00 0.  1.
          5    1    1    2  501    0  0.43371289445E+03 -0.12741792935E+03  0.21362515411E+03  0.50000000000E+03  0.47000000000E+01 0. -1.
         -5    1    1    2    0  501 -0.43371289445E+03  0.12741792935E+03 -0.21362515411E+03  0.50000000000E+03  0.47000000000E+01 0.  1.
</event>
<event>
 4    1  0.4933936E-004  0.1000000E+04  0.7546771E-02  0.8684367E-01
         11   -1    0    0    0    0  0.00000000000E+00  0.00000000000E+00  0.50000000000E+03  0.50000000000E+03  0.00000000000E+00 0.  1.
        -11   -1    0    0    0    0 -0.00000000000E+00 -0.00000000000E+00 -0.50000000000E+03  0.50000000000E+03  0.00000000000E+00 0. -1.
          5    1    1    2  501    0 -0.45785074583E+02 -0.17728129392E+03  0.46524507496E+03  0.50000000000E+03  0.47000000000E+01 0.  1.
         -5    1    1    2    0  501  0.45785074583E+02  0.17728129392E+03 -0.46524507496E+03  0.50000000000E+03  0.47000000000E+01 0. -1.
</event>
<event>
 4    1  0.4933936E-004  0.1000000E+04  0.7546771E-02  0.8684367E-01
         11   -1    0    0    0    0  0.00000000000E+00  0.00000000000E+00  0.50000000000E+03  0.50000000000E+03  0.00000000000E+00 0. -1.
        -11   -1    0    0    0    0 -0.00000000000E+00 -0.00000000000E+00 -0.50000000000E+03  0.50000000000E+03  0.00000000000E+00 0.  1.
          5    1    1    2  501    0  0.44444225120E+03  0.20263521035E+03  0.10671441738E+03  0.50000000000E+03  0.47000000000E+01 0. -1.
         -5    1    1    2    0  501 -0.44444225120E+03 -0.20263521035E+03 -0.10671441738E+03  0.50000000000E+03  0.47000000000E+01 0.  1.
</event>
<event>
 4    1  0.4933936E-004  0.1000000E+04  0.7546771E-02  0.8684367E-01
         11   -1    0    0    0    0  0.00000000000E+00  0.00000000000E+00  0.50000000000E+03  0.50000000000E+03  0.00000000000E+00 0. -1.
        -11   -1    0    0    0    0 -0.00000000000E+00 -0.00000000000E+00 -0.50000000000E+03  0.50000000000E+03  0.00000000000E+00 0.  1.
          5    1    1    2  501    0 -0.31504020075E+03  0.18933941640E+03  0.33893681905E+03  0.50000000000E+03  0.47000000000E+01 0. -1.
         -5    1    1    2    0  501  0.31504020075E+03 -0.18933941640E+03 -0.33893681905E+03  0.50000000000E+03  0.47000000000E+01 0.  1.
</event>
<event>
 4    1  0.4933936E-004  0.1000000E+04  0.7546771E-02  0.8684367E-01
         11   -1    0    0    0    0  0.00000000000E+00  0.00000000000E+00  0.50000000000E+03  0.50000000000E+03  0.00000000000E+00 0. -1.
        -11   -1    0    0    0    0 -0.00000000000E+00 -0.00000000000E+00 -0.50000000000E+03  0.50000000000E+03  0.00000000000E+00 0.  1.
          5    1    1    2  501    0  0.41949793784E+03  0.20576012698E+03  0.17793864194E+03  0.50000000000E+03  0.47000000000E+01 0. -1.
         -5    1    1    2    0  501 -0.41949793784E+03 -0.20576012698E+03 -0.17793864194E+03  0.50000000000E+03  0.47000000000E+01 0.  1.
</event>
<event>
 4    1  0.4933936E-004  0.1000000E+04  0.7546771E-02  0.8684367E-01
         11   -1    0    0    0    0  0.00000000000E+00  0.00000000000E+00  0.50000000000E+03  0.50000000000E+03  0.00000000000E+00 0. -1.
        -11   -1    0    0    0    0 -0.00000000000E+00 -0.00000000000E+00 -0.50000000000E+03  0.50000000000E+03  0.00000000000E+00 0.  1.
          5    1    1    2  501    0 -0.44033412642E+03  0.22771467925E+03 -0.65036850848E+02  0.50000000000E+03  0.47000000000E+01 0. -1.
         -5    1    1    2    0  501  0.44033412642E+03 -0.22771467925E+03  0.65036850848E+02  0.50000000000E+03  0.47000000000E+01 0.  1.
</event>
<event>
 4    1  0.4933936E-004  0.1000000E+04  0.7546771E-02  0.8684367E-01
         11   -1    0    0    0    0  0.00000000000E+00  0.00000000000E+00  0.50000000000E+03  0.50000000000E+03  0.00000000000E+00 0. -1.
        -11   -1    0    0    0    0 -0.00000000000E+00 -0.00000000000E+00 -0.50000000000E+03  0.50000000000E+03  0.00000000000E+00 0.  1.
          5    1    1    2  501    0  0.18192497264E+03  0.21714813762E+02  0.46519853954E+03  0.50000000000E+03  0.47000000000E+01 0. -1.
         -5    1    1    2    0  501 -0.18192497264E+03 -0.21714813762E+02 -0.46519853954E+03  0.50000000000E+03  0.47000000000E+01 0.  1.
</event>
<event>
 4    1  0.4933936E-004  0.1000000E+04  0.7546771E-02  0.8684367E-01
         11   -1    0    0    0    0  0.00000000000E+00  0.00000000000E+00  0.50000000000E+03  0.50000000000E+03  0.00000000000E+00 0. -1.
        -11   -1    0    0    0    0 -0.00000000000E+00 -0.00000000000E+00 -0.50000000000E+03  0.50000000000E+03  0.00000000000E+00 0.  1.
          5    1    1    2  501    0 -0.15194020875E+03  0.12152623574E+03  0.46056862354E+03  0.50000000000E+03  0.47000000000E+01 0. -1.
         -5    1    1    2    0  501  0.15194020875E+03 -0.12152623574E+03 -0.46056862354E+03  0.50000000000E+03  0.47000000000E+01 0.  1.
</event>
<event>
 4    1  0.4933936E-004  0.1000000E+04  0.7546771E-02  0.8684367E-01
         11   -1    0    0    0    0  0.00000000000E+00  0.00000000000E+00  0.50000000000E+03  0.50000000000E+03  0.00000000000E+00 0. -1.
        -11   -1    0    0    0    0 -0.00000000000E+00 -0.00000000000E+00 -0.50000000000E+03  0.50000000000E+03  0.00000000000E+00 0.  1.
          5    1    1    2  501    0 -0.33010432033E+03  0.34588925017E+03  0.14618370058E+03  0.50000000000E+03  0.47000000000E+01 0. -1.
         -5    1    1    2    0  501  0.33010432033E+03 -0.34588925017E+03 -0.14618370058E+03  0.50000000000E+03  0.47000000000E+01 0.  1.
</event>
<event>
 4    1  0.4933936E-004  0.1000000E+04  0.7546771E-02  0.8684367E-01
         11   -1    0    0    0    0  0.00000000000E+00  0.00000000000E+00  0.50000000000E+03  0.50000000000E+03  0.00000000000E+00 0. -1.
        -11   -1    0    0    0    0 -0.00000000000E+00 -0.00000000000E+00 -0.50000000000E+03  0.50000000000E+03  0.00000000000E+00 0.  1.
          5    1    1    2  501    0 -0.82973531245E+02  0.20427466376E+03 -0.44873730050E+03  0.50000000000E+03  0.47000000000E+01 0.  1.
         -5    1    1    2    0  501  0.82973531245E+02 -0.20427466376E+03  0.44873730050E+03  0.50000000000E+03  0.47000000000E+01 0. -1.
</event>
<event>
 4    1  0.4933936E-004  0.1000000E+04  0.7546771E-02  0.8684367E-01
         11   -1    0    0    0    0  0.00000000000E+00  0.00000000000E+00  0.50000000000E+03  0.50000000000E+03  0.00000000000E+00 0. -1.
        -11   -1    0    0    0    0 -0.00000000000E+00 -0.00000000000E+00 -0.50000000000E+03  0.50000000000E+03  0.00000000000E+00 0.  1.
          5    1    1    2  501    0  0.27324729938E+03 -0.12957412432E+03  0.39815118948E+03  0.50000000000E+03  0.47000000000E+01 0. -1.
         -5    1    1    2    0  501 -0.27324729938E+03  0.12957412432E+03 -0.39815118948E+03  0.50000000000E+03  0.47000000000E+01 0.  1.
</event>
<event>
 4    1  0.4933936E-004  0.1000000E+04  0.7546771E-02  0.8684367E-01
         11   -1    0    0    0    0  0.00000000000E+00  0.00000000000E+00  0.50000000000E+03  0.50000000000E+03  0.00000000000E+00 0. -1.
        -11   -1    0    0    0    0 -0.00000000000E+00 -0.00000000000E+00 -0.50000000000E+03  0.50000000000E+03  0.00000000000E+00 0.  1.
          5    1    1    2  501    0  0.15685654927E+03 -0.45887432924E+03  0.12168928842E+03  0.50000000000E+03  0.47000000000E+01 0. -1.
         -5    1    1    2    0  501 -0.15685654927E+03  0.45887432924E+03 -0.12168928842E+03  0.50000000000E+03  0.47000000000E+01 0.  1.
</event>
<event>
 4    1  0.4933936E-004  0.1000000E+04  0.7546771E-02  0.8684367E-01
         11   -1    0    0    0    0  0.00000000000E+00  0.00000000000E+00  0.50000000000E+03  0.50000000000E+03  0.00000000000E+00 0. -1.
        -11   -1    0    0    0    0 -0.00000000000E+00 -0.00000000000E+00 -0.50000000000E+03  0.50000000000E+03  0.00000000000E+00 0.  1.
          5    1    1    2  501    0 -0.46845451371E+03  0.15981450400E+02  0.17399101076E+03  0.50000000000E+03  0.47000000000E+01 0. -1.
         -5    1    1    2    0  501  0.46845451371E+03 -0.15981450400E+02 -0.17399101076E+03  0.50000000000E+03  0.47000000000E+01 0.  1.
</event>
<event>
 4    1  0.4933936E-004  0.1000000E+04  0.7546771E-02  0.8684367E-01
         11   -1    0    0    0    0  0.00000000000E+00  0.00000000000E+00  0.50000000000E+03  0.50000000000E+03  0.00000000000E+00 0.  1.
        -11   -1    0    0    0    0 -0.00000000000E+00 -0.00000000000E+00 -0.50000000000E+03  0.50000000000E+03  0.00000000000E+00 0. -1.
          5    1    1    2  501    0 -0.35974672265E+03 -0.30252185899E+03  0.17041341020E+03  0.50000000000E+03  0.47000000000E+01 0.  1.
         -5    1    1    2    0  501  0.35974672265E+03  0.30252185899E+03 -0.17041341020E+03  0.50000000000E+03  0.47000000000E+01 0. -1.
</event>
<event>
 4    1  0.4933936E-004  0.1000000E+04  0.7546771E-02  0.8684367E-01
         11   -1    0    0    0    0  0.00000000000E+00  0.00000000000E+00  0.50000000000E+03  0.50000000000E+03  0.00000000000E+00 0. -1.
        -11   -1    0    0    0    0 -0.00000000000E+00 -0.00000000000E+00 -0.50000000000E+03  0.50000000000E+03  0.00000000000E+00 0.  1.
          5    1    1    2  501    0 -0.42312131344E+03 -0.22840020313E+03  0.13703872200E+03  0.50000000000E+03  0.47000000000E+01 0. -1.
         -5    1    1    2    0  501  0.42312131344E+03  0.22840020313E+03 -0.13703872200E+03  0.50000000000E+03  0.47000000000E+01 0.  1.
</event>
<event>
 4    1  0.4933936E-004  0.1000000E+04  0.7546771E-02  0.8684367E-01
         11   -1    0    0    0    0  0.00000000000E+00  0.00000000000E+00  0.50000000000E+03  0.50000000000E+03  0.00000000000E+00 0.  1.
        -11   -1    0    0    0    0 -0.00000000000E+00 -0.00000000000E+00 -0.50000000000E+03  0.50000000000E+03  0.00000000000E+00 0. -1.
          5    1    1    2  501    0  0.15159729186E+03  0.39792505949E+03  0.26201491967E+03  0.50000000000E+03  0.47000000000E+01 0.  1.
         -5    1    1    2    0  501 -0.15159729186E+03 -0.39792505949E+03 -0.26201491967E+03  0.50000000000E+03  0.47000000000E+01 0. -1.
</event>
<event>
 4    1  0.4933936E-004  0.1000000E+04  0.7546771E-02  0.8684367E-01
         11   -1    0    0    0    0  0.00000000000E+00  0.00000000000E+00  0.50000000000E+03  0.50000000000E+03  0.00000000000E+00 0. -1.
        -11   -1    0    0    0    0 -0.00000000000E+00 -0.00000000000E+00 -0.50000000000E+03  0.50000000000E+03  0.00000000000E+00 0.  1.
          5    1    1    2  501    0  0.30423656301E+03 -0.47526169947E+02  0.39390263632E+03  0.50000000000E+03  0.47000000000E+01 0. -1.
         -5    1    1    2    0  501 -0.30423656301E+03  0.47526169947E+02 -0.39390263632E+03  0.50000000000E+03  0.47000000000E+01 0.  1.
</event>
<event>
 4    1  0.4933936E-004  0.1000000E+04  0.7546771E-02  0.8684367E-01
         11   -1    0    0    0    0  0.00000000000E+00  0.00000000000E+00  0.50000000000E+03  0.50000000000E+03  0.00000000000E+00 0. -1.
        -11   -1    0    0    0    0 -0.00000000000E+00 -0.00000000000E+00 -0.50000000000E+03  0.50000000000E+03  0.00000000000E+00 0.  1.
          5    1    1    2  501    0 -0.38898051887E+02  0.30225785883E+03  0.39636477938E+03  0.50000000000E+03  0.47000000000E+01 0. -1.
         -5    1    1    2    0  501  0.38898051887E+02 -0.30225785883E+03 -0.39636477938E+03  0.50000000000E+03  0.47000000000E+01 0.  1.
</event>
<event>
 4    1  0.4933936E-004  0.1000000E+04  0.7546771E-02  0.8684367E-01
         11   -1    0    0    0    0  0.00000000000E+00  0.00000000000E+00  0.50000000000E+03  0.50000000000E+03  0.00000000000E+00 0.  1.
        -11   -1    0    0    0    0 -0.00000000000E+00 -0.00000000000E+00 -0.50000000000E+03  0.50000000000E+03  0.00000000000E+00 0. -1.
          5    1    1    2  501    0 -0.16517724059E+03 -0.22364144168E+03  0.41554650131E+03  0.50000000000E+03  0.47000000000E+01 0.  1.
         -5    1    1    2    0  501  0.16517724059E+03  0.22364144168E+03 -0.41554650131E+03  0.50000000000E+03  0.47000000000E+01 0. -1.
</event>
<event>
 4    1  0.4933936E-004  0.1000000E+04  0.7546771E-02  0.8684367E-01
         11   -1    0    0    0    0  0.00000000000E+00  0.00000000000E+00  0.50000000000E+03  0.50000000000E+03  0.00000000000E+00 0. -1.
        -11   -1    0    0    0    0 -0.00000000000E+00 -0.00000000000E+00 -0.50000000000E+03  0.50000000000E+03  0.00000000000E+00 0.  1.
          5    1    1    2  501    0 -0.26642691435E+03 -0.41090416422E+03  0.10075900526E+03  0.50000000000E+03  0.47000000000E+01 0. -1.
         -5    1    1    2    0  501  0.26642691435E+03  0.41090416422E+03 -0.10075900526E+03  0.50000000000E+03  0.47000000000E+01 0.  1.
</event>
<event>
 4    1  0.4933936E-004  0.1000000E+04  0.7546771E-02  0.8684367E-01
         11   -1    0    0    0    0  0.00000000000E+00  0.00000000000E+00  0.50000000000E+03  0.50000000000E+03  0.00000000000E+00 0. -1.
        -11   -1    0    0    0    0 -0.00000000000E+00 -0.00000000000E+00 -0.50000000000E+03  0.50000000000E+03  0.00000000000E+00 0.  1.
          5    1    1    2  501    0 -0.45826418403E+02  0.48596366262E+03  0.10824586824E+03  0.50000000000E+03  0.47000000000E+01 0. -1.
         -5    1    1    2    0  501  0.45826418403E+02 -0.48596366262E+03 -0.10824586824E+03  0.50000000000E+03  0.47000000000E+01 0.  1.
</event>
<event>
 4    1  0.4933936E-004  0.1000000E+04  0.7546771E-02  0.8684367E-01
         11   -1    0    0    0    0  0.00000000000E+00  0.00000000000E+00  0.50000000000E+03  0.50000000000E+03  0.00000000000E+00 0. -1.
        -11   -1    0    0    0    0 -0.00000000000E+00 -0.00000000000E+00 -0.50000000000E+03  0.50000000000E+03  0.00000000000E+00 0.  1.
          5    1    1    2  501    0  0.16371503882E+02  0.37339393370E+03  0.33209464635E+03  0.50000000000E+03  0.47000000000E+01 0. -1.
         -5    1    1    2    0  501 -0.16371503882E+02 -0.37339393370E+03 -0.33209464635E+03  0.50000000000E+03  0.47000000000E+01 0.  1.
</event>
<event>
 4    1  0.4933936E-004  0.1000000E+04  0.7546771E-02  0.8684367E-01
         11   -1    0    0    0    0  0.00000000000E+00  0.00000000000E+00  0.50000000000E+03  0.50000000000E+03  0.00000000000E+00 0.  1.
        -11   -1    0    0    0    0 -0.00000000000E+00 -0.00000000000E+00 -0.50000000000E+03  0.50000000000E+03  0.00000000000E+00 0. -1.
          5    1    1    2  501    0  0.42924588930E+03  0.16160484304E+03  0.19902198678E+03  0.50000000000E+03  0.47000000000E+01 0.  1.
         -5    1    1    2    0  501 -0.42924588930E+03 -0.16160484304E+03 -0.19902198678E+03  0.50000000000E+03  0.47000000000E+01 0. -1.
</event>
<event>
 4    1  0.4933936E-004  0.1000000E+04  0.7546771E-02  0.8684367E-01
         11   -1    0    0    0    0  0.00000000000E+00  0.00000000000E+00  0.50000000000E+03  0.50000000000E+03  0.00000000000E+00 0. -1.
        -11   -1    0    0    0    0 -0.00000000000E+00 -0.00000000000E+00 -0.50000000000E+03  0.50000000000E+03  0.00000000000E+00 0.  1.
          5    1    1    2  501    0 -0.45585498890E+03  0.19808957593E+03 -0.54172493007E+02  0.50000000000E+03  0.47000000000E+01 0. -1.
         -5    1    1    2    0  501  0.45585498890E+03 -0.19808957593E+03  0.54172493007E+02  0.50000000000E+03  0.47000000000E+01 0.  1.
</event>
<event>
 4    1  0.4933936E-004  0.1000000E+04  0.7546771E-02  0.8684367E-01
         11   -1    0    0    0    0  0.00000000000E+00  0.00000000000E+00  0.50000000000E+03  0.50000000000E+03  0.00000000000E+00 0. -1.
        -11   -1    0    0    0    0 -0.00000000000E+00 -0.00000000000E+00 -0.50000000000E+03  0.50000000000E+03  0.00000000000E+00 0.  1.
          5    1    1    2  501    0 -0.36976045988E+03  0.21401996976E+03  0.25971246573E+03  0.50000000000E+03  0.47000000000E+01 0. -1.
         -5    1    1    2    0  501  0.36976045988E+03 -0.21401996976E+03 -0.25971246573E+03  0.50000000000E+03  0.47000000000E+01 0.  1.
</event>
<event>
 4    1  0.4933936E-004  0.1000000E+04  0.7546771E-02  0.8684367E-01
         11   -1    0    0    0    0  0.00000000000E+00  0.00000000000E+00  0.50000000000E+03  0.50000000000E+03  0.00000000000E+00 0. -1.
        -11   -1    0    0    0    0 -0.00000000000E+00 -0.00000000000E+00 -0.50000000000E+03  0.50000000000E+03  0.00000000000E+00 0.  1.
          5    1    1    2  501    0  0.21018475783E+03 -0.25611798617E+03  0.37443805194E+03  0.50000000000E+03  0.47000000000E+01 0. -1.
         -5    1    1    2    0  501 -0.21018475783E+03  0.25611798617E+03 -0.37443805194E+03  0.50000000000E+03  0.47000000000E+01 0.  1.
</event>
<event>
 4    1  0.4933936E-004  0.1000000E+04  0.7546771E-02  0.8684367E-01
         11   -1    0    0    0    0  0.00000000000E+00  0.00000000000E+00  0.50000000000E+03  0.50000000000E+03  0.00000000000E+00 0. -1.
        -11   -1    0    0    0    0 -0.00000000000E+00 -0.00000000000E+00 -0.50000000000E+03  0.50000000000E+03  0.00000000000E+00 0.  1.
          5    1    1    2  501    0  0.37351779820E+03 -0.30671405716E+03  0.12801895004E+03  0.50000000000E+03  0.47000000000E+01 0. -1.
         -5    1    1    2    0  501 -0.37351779820E+03  0.30671405716E+03 -0.12801895004E+03  0.50000000000E+03  0.47000000000E+01 0.  1.
</event>
<event>
 4    1  0.4933936E-004  0.1000000E+04  0.7546771E-02  0.8684367E-01
         11   -1    0    0    0    0  0.00000000000E+00  0.00000000000E+00  0.50000000000E+03  0.50000000000E+03  0.00000000000E+00 0. -1.
        -11   -1    0    0    0    0 -0.00000000000E+00 -0.00000000000E+00 -0.50000000000E+03  0.50000000000E+03  0.00000000000E+00 0.  1.
          5    1    1    2  501    0 -0.27353339504E+03 -0.16201765037E+03  0.38588556952E+03  0.50000000000E+03  0.47000000000E+01 0. -1.
         -5    1    1    2    0  501  0.27353339504E+03  0.16201765037E+03 -0.38588556952E+03  0.50000000000E+03  0.47000000000E+01 0.  1.
</event>
<event>
 4    1  0.4933936E-004  0.1000000E+04  0.7546771E-02  0.8684367E-01
         11   -1    0    0    0    0  0.00000000000E+00  0.00000000000E+00  0.50000000000E+03  0.50000000000E+03  0.00000000000E+00 0. -1.
        -11   -1    0    0    0    0 -0.00000000000E+00 -0.00000000000E+00 -0.50000000000E+03  0.50000000000E+03  0.00000000000E+00 0.  1.
          5    1    1    2  501    0 -0.11300000378E+03 -0.10400853724E+03  0.47580577269E+03  0.50000000000E+03  0.47000000000E+01 0. -1.
         -5    1    1    2    0  501  0.11300000378E+03  0.10400853724E+03 -0.47580577269E+03  0.50000000000E+03  0.47000000000E+01 0.  1.
</event>
<event>
 4    1  0.4933936E-004  0.1000000E+04  0.7546771E-02  0.8684367E-01
         11   -1    0    0    0    0  0.00000000000E+00  0.00000000000E+00  0.50000000000E+03  0.50000000000E+03  0.00000000000E+00 0.  1.
        -11   -1    0    0    0    0 -0.00000000000E+00 -0.00000000000E+00 -0.50000000000E+03  0.50000000000E+03  0.00000000000E+00 0. -1.
          5    1    1    2  501    0 -0.33453863072E+02  0.34259747333E+03  0.36260959766E+03  0.50000000000E+03  0.47000000000E+01 0.  1.
         -5    1    1    2    0  501  0.33453863072E+02 -0.34259747333E+03 -0.36260959766E+03  0.50000000000E+03  0.47000000000E+01 0. -1.
</event>
<event>
 4    1  0.4933936E-004  0.1000000E+04  0.7546771E-02  0.8684367E-01
         11   -1    0    0    0    0  0.00000000000E+00  0.00000000000E+00  0.50000000000E+03  0.50000000000E+03  0.00000000000E+00 0. -1.
        -11   -1    0    0    0    0 -0.00000000000E+00 -0.00000000000E+00 -0.50000000000E+03  0.50000000000E+03  0.00000000000E+00 0.  1.
          5    1    1    2  501    0  0.34765098254E+03  0.11667034095E+03  0.33985987684E+03  0.50000000000E+03  0.47000000000E+01 0. -1.
         -5    1    1    2    0  501 -0.34765098254E+03 -0.11667034095E+03 -0.33985987684E+03  0.50000000000E+03  0.47000000000E+01 0.  1.
</event>
<event>
 4    1  0.4933936E-004  0.1000000E+04  0.7546771E-02  0.8684367E-01
         11   -1    0    0    0    0  0.00000000000E+00  0.00000000000E+00  0.50000000000E+03  0.50000000000E+03  0.00000000000E+00 0. -1.
        -11   -1    0    0    0    0 -0.00000000000E+00 -0.00000000000E+00 -0.50000000000E+03  0.50000000000E+03  0.00000000000E+00 0.  1.
          5    1    1    2  501    0  0.14993790378E+03  0.13702867428E+03  0.45685848732E+03  0.50000000000E+03  0.47000000000E+01 0. -1.
         -5    1    1    2    0  501 -0.14993790378E+03 -0.13702867428E+03 -0.45685848732E+03  0.50000000000E+03  0.47000000000E+01 0.  1.
</event>
<event>
 4    1  0.4933936E-004  0.1000000E+04  0.7546771E-02  0.8684367E-01
         11   -1    0    0    0    0  0.00000000000E+00  0.00000000000E+00  0.50000000000E+03  0.50000000000E+03  0.00000000000E+00 0. -1.
        -11   -1    0    0    0    0 -0.00000000000E+00 -0.00000000000E+00 -0.50000000000E+03  0.50000000000E+03  0.00000000000E+00 0.  1.
          5    1    1    2  501    0 -0.23262319445E+03 -0.14076865320E+03  0.41958139339E+03  0.50000000000E+03  0.47000000000E+01 0. -1.
         -5    1    1    2    0  501  0.23262319445E+03  0.14076865320E+03 -0.41958139339E+03  0.50000000000E+03  0.47000000000E+01 0.  1.
</event>
<event>
 4    1  0.4933936E-004  0.1000000E+04  0.7546771E-02  0.8684367E-01
         11   -1    0    0    0    0  0.00000000000E+00  0.00000000000E+00  0.50000000000E+03  0.50000000000E+03  0.00000000000E+00 0. -1.
        -11   -1    0    0    0    0 -0.00000000000E+00 -0.00000000000E+00 -0.50000000000E+03  0.50000000000E+03  0.00000000000E+00 0.  1.
          5    1    1    2  501    0  0.33872391891E+02 -0.49560327794E+03 -0.56638873212E+02  0.50000000000E+03  0.47000000000E+01 0.  1.
         -5    1    1    2    0  501 -0.33872391891E+02  0.49560327794E+03  0.56638873212E+02  0.50000000000E+03  0.47000000000E+01 0. -1.
</event>
<event>
 4    1  0.4933936E-004  0.1000000E+04  0.7546771E-02  0.8684367E-01
         11   -1    0    0    0    0  0.00000000000E+00  0.00000000000E+00  0.50000000000E+03  0.50000000000E+03  0.00000000000E+00 0. -1.
        -11   -1    0    0    0    0 -0.00000000000E+00 -0.00000000000E+00 -0.50000000000E+03  0.50000000000E+03  0.00000000000E+00 0.  1.
          5    1    1    2  501    0  0.91316348426E+02 -0.47774194040E+03  0.11576645840E+03  0.50000000000E+03  0.47000000000E+01 0. -1.
         -5    1    1    2    0  501 -0.91316348426E+02  0.47774194040E+03 -0.11576645840E+03  0.50000000000E+03  0.47000000000E+01 0.  1.
</event>
<event>
 4    1  0.4933936E-004  0.1000000E+04  0.7546771E-02  0.8684367E-01
         11   -1    0    0    0    0  0.00000000000E+00  0.00000000000E+00  0.50000000000E+03  0.50000000000E+03  0.00000000000E+00 0. -1.
        -11   -1    0    0    0    0 -0.00000000000E+00 -0.00000000000E+00 -0.50000000000E+03  0.50000000000E+03  0.00000000000E+00 0.  1.
          5    1    1    2  501    0 -0.10673991040E+03  0.37803374241E+03  0.30931374222E+03  0.50000000000E+03  0.47000000000E+01 0. -1.
         -5    1    1    2    0  501  0.10673991040E+03 -0.37803374241E+03 -0.30931374222E+03  0.50000000000E+03  0.47000000000E+01 0.  1.
</event>
<event>
 4    1  0.4933936E-004  0.1000000E+04  0.7546771E-02  0.8684367E-01
         11   -1    0    0    0    0  0.00000000000E+00  0.00000000000E+00  0.50000000000E+03  0.50000000000E+03  0.00000000000E+00 0. -1.
        -11   -1    0    0    0    0 -0.00000000000E+00 -0.00000000000E+00 -0.50000000000E+03  0.50000000000E+03  0.00000000000E+00 0.  1.
          5    1    1    2  501    0 -0.45626412643E+03 -0.18220649611E+03  0.92745618274E+02  0.50000000000E+03  0.47000000000E+01 0. -1.
         -5    1    1    2    0  501  0.45626412643E+03  0.18220649611E+03 -0.92745618274E+02  0.50000000000E+03  0.47000000000E+01 0.  1.
</event>
<event>
 4    1  0.4933936E-004  0.1000000E+04  0.7546771E-02  0.8684367E-01
         11   -1    0    0    0    0  0.00000000000E+00  0.00000000000E+00  0.50000000000E+03  0.50000000000E+03  0.00000000000E+00 0. -1.
        -11   -1    0    0    0    0 -0.00000000000E+00 -0.00000000000E+00 -0.50000000000E+03  0.50000000000E+03  0.00000000000E+00 0.  1.
          5    1    1    2  501    0 -0.89281650810E+02 -0.16297184213E+03  0.46416255289E+03  0.50000000000E+03  0.47000000000E+01 0. -1.
         -5    1    1    2    0  501  0.89281650810E+02  0.16297184213E+03 -0.46416255289E+03  0.50000000000E+03  0.47000000000E+01 0.  1.
</event>
<event>
 4    1  0.4933936E-004  0.1000000E+04  0.7546771E-02  0.8684367E-01
         11   -1    0    0    0    0  0.00000000000E+00  0.00000000000E+00  0.50000000000E+03  0.50000000000E+03  0.00000000000E+00 0. -1.
        -11   -1    0    0    0    0 -0.00000000000E+00 -0.00000000000E+00 -0.50000000000E+03  0.50000000000E+03  0.00000000000E+00 0.  1.
          5    1    1    2  501    0  0.49905441401E+03  0.12419023008E+02  0.27719482768E+02  0.50000000000E+03  0.47000000000E+01 0. -1.
         -5    1    1    2    0  501 -0.49905441401E+03 -0.12419023008E+02 -0.27719482768E+02  0.50000000000E+03  0.47000000000E+01 0.  1.
</event>
<event>
 4    1  0.4933936E-004  0.1000000E+04  0.7546771E-02  0.8684367E-01
         11   -1    0    0    0    0  0.00000000000E+00  0.00000000000E+00  0.50000000000E+03  0.50000000000E+03  0.00000000000E+00 0. -1.
        -11   -1    0    0    0    0 -0.00000000000E+00 -0.00000000000E+00 -0.50000000000E+03  0.50000000000E+03  0.00000000000E+00 0.  1.
          5    1    1    2  501    0 -0.45336742006E+03  0.21070359711E+03 -0.63155830515E+01  0.50000000000E+03  0.47000000000E+01 0. -1.
         -5    1    1    2    0  501  0.45336742006E+03 -0.21070359711E+03  0.63155830515E+01  0.50000000000E+03  0.47000000000E+01 0.  1.
</event>
<event>
 4    1  0.4933936E-004  0.1000000E+04  0.7546771E-02  0.8684367E-01
         11   -1    0    0    0    0  0.00000000000E+00  0.00000000000E+00  0.50000000000E+03  0.50000000000E+03  0.00000000000E+00 0. -1.
        -11   -1    0    0    0    0 -0.00000000000E+00 -0.00000000000E+00 -0.50000000000E+03  0.50000000000E+03  0.00000000000E+00 0.  1.
          5    1    1    2  501    0 -0.37346885591E+03  0.25713514932E+03  0.21066665291E+03  0.50000000000E+03  0.47000000000E+01 0. -1.
         -5    1    1    2    0  501  0.37346885591E+03 -0.25713514932E+03 -0.21066665291E+03  0.50000000000E+03  0.47000000000E+01 0.  1.
</event>
<event>
 4    1  0.4933936E-004  0.1000000E+04  0.7546771E-02  0.8684367E-01
         11   -1    0    0    0    0  0.00000000000E+00  0.00000000000E+00  0.50000000000E+03  0.50000000000E+03  0.00000000000E+00 0. -1.
        -11   -1    0    0    0    0 -0.00000000000E+00 -0.00000000000E+00 -0.50000000000E+03  0.50000000000E+03  0.00000000000E+00 0.  1.
          5    1    1    2  501    0 -0.40343173199E+03  0.27719379033E+03 -0.10190363204E+03  0.50000000000E+03  0.47000000000E+01 0. -1.
         -5    1    1    2    0  501  0.40343173199E+03 -0.27719379033E+03  0.10190363204E+03  0.50000000000E+03  0.47000000000E+01 0.  1.
</event>
<event>
 4    1  0.4933936E-004  0.1000000E+04  0.7546771E-02  0.8684367E-01
         11   -1    0    0    0    0  0.00000000000E+00  0.00000000000E+00  0.50000000000E+03  0.50000000000E+03  0.00000000000E+00 0. -1.
        -11   -1    0    0    0    0 -0.00000000000E+00 -0.00000000000E+00 -0.50000000000E+03  0.50000000000E+03  0.00000000000E+00 0.  1.
          5    1    1    2  501    0  0.91621892234E+02 -0.43987289731E+03 -0.21930611727E+03  0.50000000000E+03  0.47000000000E+01 0.  1.
         -5    1    1    2    0  501 -0.91621892234E+02  0.43987289731E+03  0.21930611727E+03  0.50000000000E+03  0.47000000000E+01 0. -1.
</event>
<event>
 4    1  0.4933936E-004  0.1000000E+04  0.7546771E-02  0.8684367E-01
         11   -1    0    0    0    0  0.00000000000E+00  0.00000000000E+00  0.50000000000E+03  0.50000000000E+03  0.00000000000E+00 0. -1.
        -11   -1    0    0    0    0 -0.00000000000E+00 -0.00000000000E+00 -0.50000000000E+03  0.50000000000E+03  0.00000000000E+00 0.  1.
          5    1    1    2  501    0 -0.13277506497E+03 -0.10400847755E+03  0.47067072218E+03  0.50000000000E+03  0.47000000000E+01 0. -1.
         -5    1    1    2    0  501  0.13277506497E+03  0.10400847755E+03 -0.47067072218E+03  0.50000000000E+03  0.47000000000E+01 0.  1.
</event>
<event>
 4    1  0.4933936E-004  0.1000000E+04  0.7546771E-02  0.8684367E-01
         11   -1    0    0    0    0  0.00000000000E+00  0.00000000000E+00  0.50000000000E+03  0.50000000000E+03  0.00000000000E+00 0.  1.
        -11   -1    0    0    0    0 -0.00000000000E+00 -0.00000000000E+00 -0.50000000000E+03  0.50000000000E+03  0.00000000000E+00 0. -1.
          5    1    1    2  501    0 -0.22262201674E+03 -0.43571410256E+03 -0.10281327002E+03  0.50000000000E+03  0.47000000000E+01 0.  1.
         -5    1    1    2    0  501  0.22262201674E+03  0.43571410256E+03  0.10281327002E+03  0.50000000000E+03  0.47000000000E+01 0. -1.
</event>
<event>
 4    1  0.4933936E-004  0.1000000E+04  0.7546771E-02  0.8684367E-01
         11   -1    0    0    0    0  0.00000000000E+00  0.00000000000E+00  0.50000000000E+03  0.50000000000E+03  0.00000000000E+00 0. -1.
        -11   -1    0    0    0    0 -0.00000000000E+00 -0.00000000000E+00 -0.50000000000E+03  0.50000000000E+03  0.00000000000E+00 0.  1.
          5    1    1    2  501    0  0.46710171572E+03 -0.14515768777E+02 -0.17771659920E+03  0.50000000000E+03  0.47000000000E+01 0.  1.
         -5    1    1    2    0  501 -0.46710171572E+03  0.14515768777E+02  0.17771659920E+03  0.50000000000E+03  0.47000000000E+01 0. -1.
</event>
<event>
 4    1  0.4933936E-004  0.1000000E+04  0.7546771E-02  0.8684367E-01
         11   -1    0    0    0    0  0.00000000000E+00  0.00000000000E+00  0.50000000000E+03  0.50000000000E+03  0.00000000000E+00 0. -1.
        -11   -1    0    0    0    0 -0.00000000000E+00 -0.00000000000E+00 -0.50000000000E+03  0.50000000000E+03  0.00000000000E+00 0.  1.
          5    1    1    2  501    0 -0.41296839357E+03 -0.20557826660E+03  0.19280195075E+03  0.50000000000E+03  0.47000000000E+01 0. -1.
         -5    1    1    2    0  501  0.41296839357E+03  0.20557826660E+03 -0.19280195075E+03  0.50000000000E+03  0.47000000000E+01 0.  1.
</event>
<event>
 4    1  0.4933936E-004  0.1000000E+04  0.7546771E-02  0.8684367E-01
         11   -1    0    0    0    0  0.00000000000E+00  0.00000000000E+00  0.50000000000E+03  0.50000000000E+03  0.00000000000E+00 0.  1.
        -11   -1    0    0    0    0 -0.00000000000E+00 -0.00000000000E+00 -0.50000000000E+03  0.50000000000E+03  0.00000000000E+00 0. -1.
          5    1    1    2  501    0 -0.46254537424E+03  0.13477490269E+03  0.13366155908E+03  0.50000000000E+03  0.47000000000E+01 0.  1.
         -5    1    1    2    0  501  0.46254537424E+03 -0.13477490269E+03 -0.13366155908E+03  0.50000000000E+03  0.47000000000E+01 0. -1.
</event>
<event>
 4    1  0.4933936E-004  0.1000000E+04  0.7546771E-02  0.8684367E-01
         11   -1    0    0    0    0  0.00000000000E+00  0.00000000000E+00  0.50000000000E+03  0.50000000000E+03  0.00000000000E+00 0. -1.
        -11   -1    0    0    0    0 -0.00000000000E+00 -0.00000000000E+00 -0.50000000000E+03  0.50000000000E+03  0.00000000000E+00 0.  1.
          5    1    1    2  501    0 -0.20483898939E+03 -0.24764879928E+03  0.38299996167E+03  0.50000000000E+03  0.47000000000E+01 0. -1.
         -5    1    1    2    0  501  0.20483898939E+03  0.24764879928E+03 -0.38299996167E+03  0.50000000000E+03  0.47000000000E+01 0.  1.
</event>
<event>
 4    1  0.4933936E-004  0.1000000E+04  0.7546771E-02  0.8684367E-01
         11   -1    0    0    0    0  0.00000000000E+00  0.00000000000E+00  0.50000000000E+03  0.50000000000E+03  0.00000000000E+00 0. -1.
        -11   -1    0    0    0    0 -0.00000000000E+00 -0.00000000000E+00 -0.50000000000E+03  0.50000000000E+03  0.00000000000E+00 0.  1.
          5    1    1    2  501    0  0.68658289641E+02 -0.44119018963E+03  0.22497814525E+03  0.50000000000E+03  0.47000000000E+01 0. -1.
         -5    1    1    2    0  501 -0.68658289641E+02  0.44119018963E+03 -0.22497814525E+03  0.50000000000E+03  0.47000000000E+01 0.  1.
</event>
<event>
 4    1  0.4933936E-004  0.1000000E+04  0.7546771E-02  0.8684367E-01
         11   -1    0    0    0    0  0.00000000000E+00  0.00000000000E+00  0.50000000000E+03  0.50000000000E+03  0.00000000000E+00 0.  1.
        -11   -1    0    0    0    0 -0.00000000000E+00 -0.00000000000E+00 -0.50000000000E+03  0.50000000000E+03  0.00000000000E+00 0. -1.
          5    1    1    2  501    0 -0.20318290167E+03 -0.23320052381E+03  0.39282583184E+03  0.50000000000E+03  0.47000000000E+01 0.  1.
         -5    1    1    2    0  501  0.20318290167E+03  0.23320052381E+03 -0.39282583184E+03  0.50000000000E+03  0.47000000000E+01 0. -1.
</event>
<event>
 4    1  0.4933936E-004  0.1000000E+04  0.7546771E-02  0.8684367E-01
         11   -1    0    0    0    0  0.00000000000E+00  0.00000000000E+00  0.50000000000E+03  0.50000000000E+03  0.00000000000E+00 0. -1.
        -11   -1    0    0    0    0 -0.00000000000E+00 -0.00000000000E+00 -0.50000000000E+03  0.50000000000E+03  0.00000000000E+00 0.  1.
          5    1    1    2  501    0  0.46870323703E+03  0.57833360285E+02  0.16416603801E+03  0.50000000000E+03  0.47000000000E+01 0. -1.
         -5    1    1    2    0  501 -0.46870323703E+03 -0.57833360285E+02 -0.16416603801E+03  0.50000000000E+03  0.47000000000E+01 0.  1.
</event>
<event>
 4    1  0.4933936E-004  0.1000000E+04  0.7546771E-02  0.8684367E-01
         11   -1    0    0    0    0  0.00000000000E+00  0.00000000000E+00  0.50000000000E+03  0.50000000000E+03  0.00000000000E+00 0.  1.
        -11   -1    0    0    0    0 -0.00000000000E+00 -0.00000000000E+00 -0.50000000000E+03  0.50000000000E+03  0.00000000000E+00 0. -1.
          5    1    1    2  501    0 -0.79709966871E+02 -0.51816242548E+02  0.49085568978E+03  0.50000000000E+03  0.47000000000E+01 0.  1.
         -5    1    1    2    0  501  0.79709966871E+02  0.51816242548E+02 -0.49085568978E+03  0.50000000000E+03  0.47000000000E+01 0. -1.
</event>
<event>
 4    1  0.4933936E-004  0.1000000E+04  0.7546771E-02  0.8684367E-01
         11   -1    0    0    0    0  0.00000000000E+00  0.00000000000E+00  0.50000000000E+03  0.50000000000E+03  0.00000000000E+00 0.  1.
        -11   -1    0    0    0    0 -0.00000000000E+00 -0.00000000000E+00 -0.50000000000E+03  0.50000000000E+03  0.00000000000E+00 0. -1.
          5    1    1    2  501    0  0.18015183315E+03 -0.19515481951E+03  0.42360101916E+03  0.50000000000E+03  0.47000000000E+01 0.  1.
         -5    1    1    2    0  501 -0.18015183315E+03  0.19515481951E+03 -0.42360101916E+03  0.50000000000E+03  0.47000000000E+01 0. -1.
</event>
<event>
 4    1  0.4933936E-004  0.1000000E+04  0.7546771E-02  0.8684367E-01
         11   -1    0    0    0    0  0.00000000000E+00  0.00000000000E+00  0.50000000000E+03  0.50000000000E+03  0.00000000000E+00 0. -1.
        -11   -1    0    0    0    0 -0.00000000000E+00 -0.00000000000E+00 -0.50000000000E+03  0.50000000000E+03  0.00000000000E+00 0.  1.
          5    1    1    2  501    0  0.21263165358E+03 -0.13816588801E+03  0.43090123843E+03  0.50000000000E+03  0.47000000000E+01 0. -1.
         -5    1    1    2    0  501 -0.21263165358E+03  0.13816588801E+03 -0.43090123843E+03  0.50000000000E+03  0.47000000000E+01 0.  1.
</event>
<event>
 4    1  0.4933936E-004  0.1000000E+04  0.7546771E-02  0.8684367E-01
         11   -1    0    0    0    0  0.00000000000E+00  0.00000000000E+00  0.50000000000E+03  0.50000000000E+03  0.00000000000E+00 0.  1.
        -11   -1    0    0    0    0 -0.00000000000E+00 -0.00000000000E+00 -0.50000000000E+03  0.50000000000E+03  0.00000000000E+00 0. -1.
          5    1    1    2  501    0 -0.43451650564E+02  0.19149340080E+03  0.45980446008E+03  0.50000000000E+03  0.47000000000E+01 0.  1.
         -5    1    1    2    0  501  0.43451650564E+02 -0.19149340080E+03 -0.45980446008E+03  0.50000000000E+03  0.47000000000E+01 0. -1.
</event>
<event>
 4    1  0.4933936E-004  0.1000000E+04  0.7546771E-02  0.8684367E-01
         11   -1    0    0    0    0  0.00000000000E+00  0.00000000000E+00  0.50000000000E+03  0.50000000000E+03  0.00000000000E+00 0. -1.
        -11   -1    0    0    0    0 -0.00000000000E+00 -0.00000000000E+00 -0.50000000000E+03  0.50000000000E+03  0.00000000000E+00 0.  1.
          5    1    1    2  501    0  0.40112513547E+03 -0.21759446926E+02  0.29766266505E+03  0.50000000000E+03  0.47000000000E+01 0. -1.
         -5    1    1    2    0  501 -0.40112513547E+03  0.21759446926E+02 -0.29766266505E+03  0.50000000000E+03  0.47000000000E+01 0.  1.
</event>
<event>
 4    1  0.4933936E-004  0.1000000E+04  0.7546771E-02  0.8684367E-01
         11   -1    0    0    0    0  0.00000000000E+00  0.00000000000E+00  0.50000000000E+03  0.50000000000E+03  0.00000000000E+00 0. -1.
        -11   -1    0    0    0    0 -0.00000000000E+00 -0.00000000000E+00 -0.50000000000E+03  0.50000000000E+03  0.00000000000E+00 0.  1.
          5    1    1    2  501    0 -0.21967900564E+03  0.41190754851E+02  0.44723860097E+03  0.50000000000E+03  0.47000000000E+01 0. -1.
         -5    1    1    2    0  501  0.21967900564E+03 -0.41190754851E+02 -0.44723860097E+03  0.50000000000E+03  0.47000000000E+01 0.  1.
</event>
<event>
 4    1  0.4933936E-004  0.1000000E+04  0.7546771E-02  0.8684367E-01
         11   -1    0    0    0    0  0.00000000000E+00  0.00000000000E+00  0.50000000000E+03  0.50000000000E+03  0.00000000000E+00 0. -1.
        -11   -1    0    0    0    0 -0.00000000000E+00 -0.00000000000E+00 -0.50000000000E+03  0.50000000000E+03  0.00000000000E+00 0.  1.
          5    1    1    2  501    0  0.44280347358E+03 -0.48725536152E+02  0.22699959451E+03  0.50000000000E+03  0.47000000000E+01 0. -1.
         -5    1    1    2    0  501 -0.44280347358E+03  0.48725536152E+02 -0.22699959451E+03  0.50000000000E+03  0.47000000000E+01 0.  1.
</event>
<event>
 4    1  0.4933936E-004  0.1000000E+04  0.7546771E-02  0.8684367E-01
         11   -1    0    0    0    0  0.00000000000E+00  0.00000000000E+00  0.50000000000E+03  0.50000000000E+03  0.00000000000E+00 0. -1.
        -11   -1    0    0    0    0 -0.00000000000E+00 -0.00000000000E+00 -0.50000000000E+03  0.50000000000E+03  0.00000000000E+00 0.  1.
          5    1    1    2  501    0  0.37362133587E+02 -0.26519385951E+03  0.42220160806E+03  0.50000000000E+03  0.47000000000E+01 0. -1.
         -5    1    1    2    0  501 -0.37362133587E+02  0.26519385951E+03 -0.42220160806E+03  0.50000000000E+03  0.47000000000E+01 0.  1.
</event>
<event>
 4    1  0.4933936E-004  0.1000000E+04  0.7546771E-02  0.8684367E-01
         11   -1    0    0    0    0  0.00000000000E+00  0.00000000000E+00  0.50000000000E+03  0.50000000000E+03  0.00000000000E+00 0.  1.
        -11   -1    0    0    0    0 -0.00000000000E+00 -0.00000000000E+00 -0.50000000000E+03  0.50000000000E+03  0.00000000000E+00 0. -1.
          5    1    1    2  501    0 -0.42871302354E+03 -0.18447096661E+03  0.17931401486E+03  0.50000000000E+03  0.47000000000E+01 0.  1.
         -5    1    1    2    0  501  0.42871302354E+03  0.18447096661E+03 -0.17931401486E+03  0.50000000000E+03  0.47000000000E+01 0. -1.
</event>
<event>
 4    1  0.4933936E-004  0.1000000E+04  0.7546771E-02  0.8684367E-01
         11   -1    0    0    0    0  0.00000000000E+00  0.00000000000E+00  0.50000000000E+03  0.50000000000E+03  0.00000000000E+00 0. -1.
        -11   -1    0    0    0    0 -0.00000000000E+00 -0.00000000000E+00 -0.50000000000E+03  0.50000000000E+03  0.00000000000E+00 0.  1.
          5    1    1    2  501    0 -0.12278162870E+01  0.49819308195E+03  0.42190704760E+02  0.50000000000E+03  0.47000000000E+01 0. -1.
         -5    1    1    2    0  501  0.12278162870E+01 -0.49819308195E+03 -0.42190704760E+02  0.50000000000E+03  0.47000000000E+01 0.  1.
</event>
<event>
 4    1  0.4933936E-004  0.1000000E+04  0.7546771E-02  0.8684367E-01
         11   -1    0    0    0    0  0.00000000000E+00  0.00000000000E+00  0.50000000000E+03  0.50000000000E+03  0.00000000000E+00 0. -1.
        -11   -1    0    0    0    0 -0.00000000000E+00 -0.00000000000E+00 -0.50000000000E+03  0.50000000000E+03  0.00000000000E+00 0.  1.
          5    1    1    2  501    0  0.20342792698E+03 -0.45598815935E+03  0.25880244444E+02  0.50000000000E+03  0.47000000000E+01 0. -1.
         -5    1    1    2    0  501 -0.20342792698E+03  0.45598815935E+03 -0.25880244444E+02  0.50000000000E+03  0.47000000000E+01 0.  1.
</event>
<event>
 4    1  0.4933936E-004  0.1000000E+04  0.7546771E-02  0.8684367E-01
         11   -1    0    0    0    0  0.00000000000E+00  0.00000000000E+00  0.50000000000E+03  0.50000000000E+03  0.00000000000E+00 0. -1.
        -11   -1    0    0    0    0 -0.00000000000E+00 -0.00000000000E+00 -0.50000000000E+03  0.50000000000E+03  0.00000000000E+00 0.  1.
          5    1    1    2  501    0 -0.21894592280E+03  0.42054308330E+02  0.44751762875E+03  0.50000000000E+03  0.47000000000E+01 0. -1.
         -5    1    1    2    0  501  0.21894592280E+03 -0.42054308330E+02 -0.44751762875E+03  0.50000000000E+03  0.47000000000E+01 0.  1.
</event>
<event>
 4    1  0.4933936E-004  0.1000000E+04  0.7546771E-02  0.8684367E-01
         11   -1    0    0    0    0  0.00000000000E+00  0.00000000000E+00  0.50000000000E+03  0.50000000000E+03  0.00000000000E+00 0.  1.
        -11   -1    0    0    0    0 -0.00000000000E+00 -0.00000000000E+00 -0.50000000000E+03  0.50000000000E+03  0.00000000000E+00 0. -1.
          5    1    1    2  501    0 -0.31602085598E+03  0.84952604911E+02 -0.37801029550E+03  0.50000000000E+03  0.47000000000E+01 0. -1.
         -5    1    1    2    0  501  0.31602085598E+03 -0.84952604911E+02  0.37801029550E+03  0.50000000000E+03  0.47000000000E+01 0.  1.
</event>
<event>
 4    1  0.4933936E-004  0.1000000E+04  0.7546771E-02  0.8684367E-01
         11   -1    0    0    0    0  0.00000000000E+00  0.00000000000E+00  0.50000000000E+03  0.50000000000E+03  0.00000000000E+00 0. -1.
        -11   -1    0    0    0    0 -0.00000000000E+00 -0.00000000000E+00 -0.50000000000E+03  0.50000000000E+03  0.00000000000E+00 0.  1.
          5    1    1    2  501    0 -0.36278750433E+01 -0.48736535697E+03  0.11153366015E+03  0.50000000000E+03  0.47000000000E+01 0. -1.
         -5    1    1    2    0  501  0.36278750433E+01  0.48736535697E+03 -0.11153366015E+03  0.50000000000E+03  0.47000000000E+01 0.  1.
</event>
<event>
 4    1  0.4933936E-004  0.1000000E+04  0.7546771E-02  0.8684367E-01
         11   -1    0    0    0    0  0.00000000000E+00  0.00000000000E+00  0.50000000000E+03  0.50000000000E+03  0.00000000000E+00 0. -1.
        -11   -1    0    0    0    0 -0.00000000000E+00 -0.00000000000E+00 -0.50000000000E+03  0.50000000000E+03  0.00000000000E+00 0.  1.
          5    1    1    2  501    0  0.25323714960E+03  0.20539040011E+03  0.37902986638E+03  0.50000000000E+03  0.47000000000E+01 0. -1.
         -5    1    1    2    0  501 -0.25323714960E+03 -0.20539040011E+03 -0.37902986638E+03  0.50000000000E+03  0.47000000000E+01 0.  1.
</event>
<event>
 4    1  0.4933936E-004  0.1000000E+04  0.7546771E-02  0.8684367E-01
         11   -1    0    0    0    0  0.00000000000E+00  0.00000000000E+00  0.50000000000E+03  0.50000000000E+03  0.00000000000E+00 0. -1.
        -11   -1    0    0    0    0 -0.00000000000E+00 -0.00000000000E+00 -0.50000000000E+03  0.50000000000E+03  0.00000000000E+00 0.  1.
          5    1    1    2  501    0 -0.22734278527E+03 -0.11988398196E+03  0.42886011572E+03  0.50000000000E+03  0.47000000000E+01 0. -1.
         -5    1    1    2    0  501  0.22734278527E+03  0.11988398196E+03 -0.42886011572E+03  0.50000000000E+03  0.47000000000E+01 0.  1.
</event>
<event>
 4    1  0.4933936E-004  0.1000000E+04  0.7546771E-02  0.8684367E-01
         11   -1    0    0    0    0  0.00000000000E+00  0.00000000000E+00  0.50000000000E+03  0.50000000000E+03  0.00000000000E+00 0. -1.
        -11   -1    0    0    0    0 -0.00000000000E+00 -0.00000000000E+00 -0.50000000000E+03  0.50000000000E+03  0.00000000000E+00 0.  1.
          5    1    1    2  501    0  0.42725398263E+03  0.41598759815E+02  0.25632301401E+03  0.50000000000E+03  0.47000000000E+01 0. -1.
         -5    1    1    2    0  501 -0.42725398263E+03 -0.41598759815E+02 -0.25632301401E+03  0.50000000000E+03  0.47000000000E+01 0.  1.
</event>
<event>
 4    1  0.4933936E-004  0.1000000E+04  0.7546771E-02  0.8684367E-01
         11   -1    0    0    0    0  0.00000000000E+00  0.00000000000E+00  0.50000000000E+03  0.50000000000E+03  0.00000000000E+00 0. -1.
        -11   -1    0    0    0    0 -0.00000000000E+00 -0.00000000000E+00 -0.50000000000E+03  0.50000000000E+03  0.00000000000E+00 0.  1.
          5    1    1    2  501    0 -0.33460735365E+02 -0.68595055186E+02  0.49411841455E+03  0.50000000000E+03  0.47000000000E+01 0. -1.
         -5    1    1    2    0  501  0.33460735365E+02  0.68595055186E+02 -0.49411841455E+03  0.50000000000E+03  0.47000000000E+01 0.  1.
</event>
<event>
 4    1  0.4933936E-004  0.1000000E+04  0.7546771E-02  0.8684367E-01
         11   -1    0    0    0    0  0.00000000000E+00  0.00000000000E+00  0.50000000000E+03  0.50000000000E+03  0.00000000000E+00 0. -1.
        -11   -1    0    0    0    0 -0.00000000000E+00 -0.00000000000E+00 -0.50000000000E+03  0.50000000000E+03  0.00000000000E+00 0.  1.
          5    1    1    2  501    0  0.37734987318E+03 -0.97129197478E+01  0.32785765570E+03  0.50000000000E+03  0.47000000000E+01 0. -1.
         -5    1    1    2    0  501 -0.37734987318E+03  0.97129197478E+01 -0.32785765570E+03  0.50000000000E+03  0.47000000000E+01 0.  1.
</event>
<event>
 4    1  0.4933936E-004  0.1000000E+04  0.7546771E-02  0.8684367E-01
         11   -1    0    0    0    0  0.00000000000E+00  0.00000000000E+00  0.50000000000E+03  0.50000000000E+03  0.00000000000E+00 0. -1.
        -11   -1    0    0    0    0 -0.00000000000E+00 -0.00000000000E+00 -0.50000000000E+03  0.50000000000E+03  0.00000000000E+00 0.  1.
          5    1    1    2  501    0  0.82494689869E+02 -0.48934497814E+03  0.60942829898E+02  0.50000000000E+03  0.47000000000E+01 0. -1.
         -5    1    1    2    0  501 -0.82494689869E+02  0.48934497814E+03 -0.60942829898E+02  0.50000000000E+03  0.47000000000E+01 0.  1.
</event>
<event>
 4    1  0.4933936E-004  0.1000000E+04  0.7546771E-02  0.8684367E-01
         11   -1    0    0    0    0  0.00000000000E+00  0.00000000000E+00  0.50000000000E+03  0.50000000000E+03  0.00000000000E+00 0. -1.
        -11   -1    0    0    0    0 -0.00000000000E+00 -0.00000000000E+00 -0.50000000000E+03  0.50000000000E+03  0.00000000000E+00 0.  1.
          5    1    1    2  501    0 -0.49267672248E+03  0.56355186459E+01 -0.84945853685E+02  0.50000000000E+03  0.47000000000E+01 0. -1.
         -5    1    1    2    0  501  0.49267672248E+03 -0.56355186459E+01  0.84945853685E+02  0.50000000000E+03  0.47000000000E+01 0.  1.
</event>
<event>
 4    1  0.4933936E-004  0.1000000E+04  0.7546771E-02  0.8684367E-01
         11   -1    0    0    0    0  0.00000000000E+00  0.00000000000E+00  0.50000000000E+03  0.50000000000E+03  0.00000000000E+00 0. -1.
        -11   -1    0    0    0    0 -0.00000000000E+00 -0.00000000000E+00 -0.50000000000E+03  0.50000000000E+03  0.00000000000E+00 0.  1.
          5    1    1    2  501    0 -0.90913981104E+02  0.27598271291E+03  0.40687356785E+03  0.50000000000E+03  0.47000000000E+01 0. -1.
         -5    1    1    2    0  501  0.90913981104E+02 -0.27598271291E+03 -0.40687356785E+03  0.50000000000E+03  0.47000000000E+01 0.  1.
</event>
<event>
 4    1  0.4933936E-004  0.1000000E+04  0.7546771E-02  0.8684367E-01
         11   -1    0    0    0    0  0.00000000000E+00  0.00000000000E+00  0.50000000000E+03  0.50000000000E+03  0.00000000000E+00 0. -1.
        -11   -1    0    0    0    0 -0.00000000000E+00 -0.00000000000E+00 -0.50000000000E+03  0.50000000000E+03  0.00000000000E+00 0.  1.
          5    1    1    2  501    0  0.32078079857E+03 -0.11308915223E+03  0.36645386192E+03  0.50000000000E+03  0.47000000000E+01 0. -1.
         -5    1    1    2    0  501 -0.32078079857E+03  0.11308915223E+03 -0.36645386192E+03  0.50000000000E+03  0.47000000000E+01 0.  1.
</event>
<event>
 4    1  0.4933936E-004  0.1000000E+04  0.7546771E-02  0.8684367E-01
         11   -1    0    0    0    0  0.00000000000E+00  0.00000000000E+00  0.50000000000E+03  0.50000000000E+03  0.00000000000E+00 0.  1.
        -11   -1    0    0    0    0 -0.00000000000E+00 -0.00000000000E+00 -0.50000000000E+03  0.50000000000E+03  0.00000000000E+00 0. -1.
          5    1    1    2  501    0  0.50272795726E+02 -0.44281313373E+03  0.22664307757E+03  0.50000000000E+03  0.47000000000E+01 0.  1.
         -5    1    1    2    0  501 -0.50272795726E+02  0.44281313373E+03 -0.22664307757E+03  0.50000000000E+03  0.47000000000E+01 0. -1.
</event>
<event>
 4    1  0.4933936E-004  0.1000000E+04  0.7546771E-02  0.8684367E-01
         11   -1    0    0    0    0  0.00000000000E+00  0.00000000000E+00  0.50000000000E+03  0.50000000000E+03  0.00000000000E+00 0. -1.
        -11   -1    0    0    0    0 -0.00000000000E+00 -0.00000000000E+00 -0.50000000000E+03  0.50000000000E+03  0.00000000000E+00 0.  1.
          5    1    1    2  501    0 -0.13858041535E+03 -0.40896314783E+03  0.25203674772E+03  0.50000000000E+03  0.47000000000E+01 0. -1.
         -5    1    1    2    0  501  0.13858041535E+03  0.40896314783E+03 -0.25203674772E+03  0.50000000000E+03  0.47000000000E+01 0.  1.
</event>
<event>
 4    1  0.4933936E-004  0.1000000E+04  0.7546771E-02  0.8684367E-01
         11   -1    0    0    0    0  0.00000000000E+00  0.00000000000E+00  0.50000000000E+03  0.50000000000E+03  0.00000000000E+00 0. -1.
        -11   -1    0    0    0    0 -0.00000000000E+00 -0.00000000000E+00 -0.50000000000E+03  0.50000000000E+03  0.00000000000E+00 0.  1.
          5    1    1    2  501    0  0.24217904313E+03 -0.89756359026E+02  0.42810164340E+03  0.50000000000E+03  0.47000000000E+01 0. -1.
         -5    1    1    2    0  501 -0.24217904313E+03  0.89756359026E+02 -0.42810164340E+03  0.50000000000E+03  0.47000000000E+01 0.  1.
</event>
<event>
 4    1  0.4933936E-004  0.1000000E+04  0.7546771E-02  0.8684367E-01
         11   -1    0    0    0    0  0.00000000000E+00  0.00000000000E+00  0.50000000000E+03  0.50000000000E+03  0.00000000000E+00 0. -1.
        -11   -1    0    0    0    0 -0.00000000000E+00 -0.00000000000E+00 -0.50000000000E+03  0.50000000000E+03  0.00000000000E+00 0.  1.
          5    1    1    2  501    0 -0.33497617830E+02 -0.48718734314E+03  0.10725815717E+03  0.50000000000E+03  0.47000000000E+01 0. -1.
         -5    1    1    2    0  501  0.33497617830E+02  0.48718734314E+03 -0.10725815717E+03  0.50000000000E+03  0.47000000000E+01 0.  1.
</event>
<event>
 4    1  0.4933936E-004  0.1000000E+04  0.7546771E-02  0.8684367E-01
         11   -1    0    0    0    0  0.00000000000E+00  0.00000000000E+00  0.50000000000E+03  0.50000000000E+03  0.00000000000E+00 0.  1.
        -11   -1    0    0    0    0 -0.00000000000E+00 -0.00000000000E+00 -0.50000000000E+03  0.50000000000E+03  0.00000000000E+00 0. -1.
          5    1    1    2  501    0  0.21388556606E+03 -0.23218442534E+03  0.38771286703E+03  0.50000000000E+03  0.47000000000E+01 0.  1.
         -5    1    1    2    0  501 -0.21388556606E+03  0.23218442534E+03 -0.38771286703E+03  0.50000000000E+03  0.47000000000E+01 0. -1.
</event>
<event>
 4    1  0.4933936E-004  0.1000000E+04  0.7546771E-02  0.8684367E-01
         11   -1    0    0    0    0  0.00000000000E+00  0.00000000000E+00  0.50000000000E+03  0.50000000000E+03  0.00000000000E+00 0. -1.
        -11   -1    0    0    0    0 -0.00000000000E+00 -0.00000000000E+00 -0.50000000000E+03  0.50000000000E+03  0.00000000000E+00 0.  1.
          5    1    1    2  501    0 -0.31848602086E+03 -0.32335573058E+03  0.20972752803E+03  0.50000000000E+03  0.47000000000E+01 0. -1.
         -5    1    1    2    0  501  0.31848602086E+03  0.32335573058E+03 -0.20972752803E+03  0.50000000000E+03  0.47000000000E+01 0.  1.
</event>
<event>
 4    1  0.4933936E-004  0.1000000E+04  0.7546771E-02  0.8684367E-01
         11   -1    0    0    0    0  0.00000000000E+00  0.00000000000E+00  0.50000000000E+03  0.50000000000E+03  0.00000000000E+00 0. -1.
        -11   -1    0    0    0    0 -0.00000000000E+00 -0.00000000000E+00 -0.50000000000E+03  0.50000000000E+03  0.00000000000E+00 0.  1.
          5    1    1    2  501    0 -0.38940374367E+03 -0.30975233264E+03 -0.48950248645E+02  0.50000000000E+03  0.47000000000E+01 0. -1.
         -5    1    1    2    0  501  0.38940374367E+03  0.30975233264E+03  0.48950248645E+02  0.50000000000E+03  0.47000000000E+01 0.  1.
</event>
<event>
 4    1  0.4933936E-004  0.1000000E+04  0.7546771E-02  0.8684367E-01
         11   -1    0    0    0    0  0.00000000000E+00  0.00000000000E+00  0.50000000000E+03  0.50000000000E+03  0.00000000000E+00 0. -1.
        -11   -1    0    0    0    0 -0.00000000000E+00 -0.00000000000E+00 -0.50000000000E+03  0.50000000000E+03  0.00000000000E+00 0.  1.
          5    1    1    2  501    0 -0.11869430622E+03 -0.45225877099E+03  0.17706376178E+03  0.50000000000E+03  0.47000000000E+01 0. -1.
         -5    1    1    2    0  501  0.11869430622E+03  0.45225877099E+03 -0.17706376178E+03  0.50000000000E+03  0.47000000000E+01 0.  1.
</event>
<event>
 4    1  0.4933936E-004  0.1000000E+04  0.7546771E-02  0.8684367E-01
         11   -1    0    0    0    0  0.00000000000E+00  0.00000000000E+00  0.50000000000E+03  0.50000000000E+03  0.00000000000E+00 0. -1.
        -11   -1    0    0    0    0 -0.00000000000E+00 -0.00000000000E+00 -0.50000000000E+03  0.50000000000E+03  0.00000000000E+00 0.  1.
          5    1    1    2  501    0  0.25356667492E+03 -0.40719259303E+02  0.42897994509E+03  0.50000000000E+03  0.47000000000E+01 0. -1.
         -5    1    1    2    0  501 -0.25356667492E+03  0.40719259303E+02 -0.42897994509E+03  0.50000000000E+03  0.47000000000E+01 0.  1.
</event>
<event>
 4    1  0.4933936E-004  0.1000000E+04  0.7546771E-02  0.8684367E-01
         11   -1    0    0    0    0  0.00000000000E+00  0.00000000000E+00  0.50000000000E+03  0.50000000000E+03  0.00000000000E+00 0.  1.
        -11   -1    0    0    0    0 -0.00000000000E+00 -0.00000000000E+00 -0.50000000000E+03  0.50000000000E+03  0.00000000000E+00 0. -1.
          5    1    1    2  501    0 -0.33063451792E+03 -0.28006898396E+03  0.24943955136E+03  0.50000000000E+03  0.47000000000E+01 0.  1.
         -5    1    1    2    0  501  0.33063451792E+03  0.28006898396E+03 -0.24943955136E+03  0.50000000000E+03  0.47000000000E+01 0. -1.
</event>
<event>
 4    1  0.4933936E-004  0.1000000E+04  0.7546771E-02  0.8684367E-01
         11   -1    0    0    0    0  0.00000000000E+00  0.00000000000E+00  0.50000000000E+03  0.50000000000E+03  0.00000000000E+00 0. -1.
        -11   -1    0    0    0    0 -0.00000000000E+00 -0.00000000000E+00 -0.50000000000E+03  0.50000000000E+03  0.00000000000E+00 0.  1.
          5    1    1    2  501    0  0.48568241942E+03 -0.35765858863E+02  0.11318701695E+03  0.50000000000E+03  0.47000000000E+01 0. -1.
         -5    1    1    2    0  501 -0.48568241942E+03  0.35765858863E+02 -0.11318701695E+03  0.50000000000E+03  0.47000000000E+01 0.  1.
</event>
<event>
 4    1  0.4933936E-004  0.1000000E+04  0.7546771E-02  0.8684367E-01
         11   -1    0    0    0    0  0.00000000000E+00  0.00000000000E+00  0.50000000000E+03  0.50000000000E+03  0.00000000000E+00 0. -1.
        -11   -1    0    0    0    0 -0.00000000000E+00 -0.00000000000E+00 -0.50000000000E+03  0.50000000000E+03  0.00000000000E+00 0.  1.
          5    1    1    2  501    0  0.19766576118E+03  0.32959744313E+03  0.31979944081E+03  0.50000000000E+03  0.47000000000E+01 0. -1.
         -5    1    1    2    0  501 -0.19766576118E+03 -0.32959744313E+03 -0.31979944081E+03  0.50000000000E+03  0.47000000000E+01 0.  1.
</event>
<event>
 4    1  0.4933936E-004  0.1000000E+04  0.7546771E-02  0.8684367E-01
         11   -1    0    0    0    0  0.00000000000E+00  0.00000000000E+00  0.50000000000E+03  0.50000000000E+03  0.00000000000E+00 0. -1.
        -11   -1    0    0    0    0 -0.00000000000E+00 -0.00000000000E+00 -0.50000000000E+03  0.50000000000E+03  0.00000000000E+00 0.  1.
          5    1    1    2  501    0  0.30222943905E+03  0.36346584459E+03  0.16287374249E+03  0.50000000000E+03  0.47000000000E+01 0. -1.
         -5    1    1    2    0  501 -0.30222943905E+03 -0.36346584459E+03 -0.16287374249E+03  0.50000000000E+03  0.47000000000E+01 0.  1.
</event>
<event>
 4    1  0.4933936E-004  0.1000000E+04  0.7546771E-02  0.8684367E-01
         11   -1    0    0    0    0  0.00000000000E+00  0.00000000000E+00  0.50000000000E+03  0.50000000000E+03  0.00000000000E+00 0.  1.
        -11   -1    0    0    0    0 -0.00000000000E+00 -0.00000000000E+00 -0.50000000000E+03  0.50000000000E+03  0.00000000000E+00 0. -1.
          5    1    1    2  501    0 -0.22815237263E+02 -0.54635201403E+02  0.49645983696E+03  0.50000000000E+03  0.47000000000E+01 0.  1.
         -5    1    1    2    0  501  0.22815237263E+02  0.54635201403E+02 -0.49645983696E+03  0.50000000000E+03  0.47000000000E+01 0. -1.
</event>
<event>
 4    1  0.4933936E-004  0.1000000E+04  0.7546771E-02  0.8684367E-01
         11   -1    0    0    0    0  0.00000000000E+00  0.00000000000E+00  0.50000000000E+03  0.50000000000E+03  0.00000000000E+00 0. -1.
        -11   -1    0    0    0    0 -0.00000000000E+00 -0.00000000000E+00 -0.50000000000E+03  0.50000000000E+03  0.00000000000E+00 0.  1.
          5    1    1    2  501    0 -0.20172622184E+03  0.24213416386E+03  0.38814364366E+03  0.50000000000E+03  0.47000000000E+01 0. -1.
         -5    1    1    2    0  501  0.20172622184E+03 -0.24213416386E+03 -0.38814364366E+03  0.50000000000E+03  0.47000000000E+01 0.  1.
</event>
<event>
 4    1  0.4933936E-004  0.1000000E+04  0.7546771E-02  0.8684367E-01
         11   -1    0    0    0    0  0.00000000000E+00  0.00000000000E+00  0.50000000000E+03  0.50000000000E+03  0.00000000000E+00 0. -1.
        -11   -1    0    0    0    0 -0.00000000000E+00 -0.00000000000E+00 -0.50000000000E+03  0.50000000000E+03  0.00000000000E+00 0.  1.
          5    1    1    2  501    0  0.34599762949E+03 -0.38662077951E+02  0.35884369037E+03  0.50000000000E+03  0.47000000000E+01 0. -1.
         -5    1    1    2    0  501 -0.34599762949E+03  0.38662077951E+02 -0.35884369037E+03  0.50000000000E+03  0.47000000000E+01 0.  1.
</event>
<event>
 4    1  0.4933936E-004  0.1000000E+04  0.7546771E-02  0.8684367E-01
         11   -1    0    0    0    0  0.00000000000E+00  0.00000000000E+00  0.50000000000E+03  0.50000000000E+03  0.00000000000E+00 0. -1.
        -11   -1    0    0    0    0 -0.00000000000E+00 -0.00000000000E+00 -0.50000000000E+03  0.50000000000E+03  0.00000000000E+00 0.  1.
          5    1    1    2  501    0 -0.22808648574E+03  0.21513081274E+03  0.38945243410E+03  0.50000000000E+03  0.47000000000E+01 0. -1.
         -5    1    1    2    0  501  0.22808648574E+03 -0.21513081274E+03 -0.38945243410E+03  0.50000000000E+03  0.47000000000E+01 0.  1.
</event>
<event>
 4    1  0.4933936E-004  0.1000000E+04  0.7546771E-02  0.8684367E-01
         11   -1    0    0    0    0  0.00000000000E+00  0.00000000000E+00  0.50000000000E+03  0.50000000000E+03  0.00000000000E+00 0. -1.
        -11   -1    0    0    0    0 -0.00000000000E+00 -0.00000000000E+00 -0.50000000000E+03  0.50000000000E+03  0.00000000000E+00 0.  1.
          5    1    1    2  501    0  0.83540943344E+02 -0.86303411796E+02  0.48533549417E+03  0.50000000000E+03  0.47000000000E+01 0. -1.
         -5    1    1    2    0  501 -0.83540943344E+02  0.86303411796E+02 -0.48533549417E+03  0.50000000000E+03  0.47000000000E+01 0.  1.
</event>
<event>
 4    1  0.4933936E-004  0.1000000E+04  0.7546771E-02  0.8684367E-01
         11   -1    0    0    0    0  0.00000000000E+00  0.00000000000E+00  0.50000000000E+03  0.50000000000E+03  0.00000000000E+00 0. -1.
        -11   -1    0    0    0    0 -0.00000000000E+00 -0.00000000000E+00 -0.50000000000E+03  0.50000000000E+03  0.00000000000E+00 0.  1.
          5    1    1    2  501    0 -0.36589175014E+03  0.41065569897E+02  0.33825250354E+03  0.50000000000E+03  0.47000000000E+01 0. -1.
         -5    1    1    2    0  501  0.36589175014E+03 -0.41065569897E+02 -0.33825250354E+03  0.50000000000E+03  0.47000000000E+01 0.  1.
</event>
<event>
 4    1  0.4933936E-004  0.1000000E+04  0.7546771E-02  0.8684367E-01
         11   -1    0    0    0    0  0.00000000000E+00  0.00000000000E+00  0.50000000000E+03  0.50000000000E+03  0.00000000000E+00 0. -1.
        -11   -1    0    0    0    0 -0.00000000000E+00 -0.00000000000E+00 -0.50000000000E+03  0.50000000000E+03  0.00000000000E+00 0.  1.
          5    1    1    2  501    0  0.33492590056E+03  0.19769233149E+03  0.31419785678E+03  0.50000000000E+03  0.47000000000E+01 0. -1.
         -5    1    1    2    0  501 -0.33492590056E+03 -0.19769233149E+03 -0.31419785678E+03  0.50000000000E+03  0.47000000000E+01 0.  1.
</event>
<event>
 4    1  0.4933936E-004  0.1000000E+04  0.7546771E-02  0.8684367E-01
         11   -1    0    0    0    0  0.00000000000E+00  0.00000000000E+00  0.50000000000E+03  0.50000000000E+03  0.00000000000E+00 0. -1.
        -11   -1    0    0    0    0 -0.00000000000E+00 -0.00000000000E+00 -0.50000000000E+03  0.50000000000E+03  0.00000000000E+00 0.  1.
          5    1    1    2  501    0  0.35476322555E+03  0.18635699817E+03  0.29898500469E+03  0.50000000000E+03  0.47000000000E+01 0. -1.
         -5    1    1    2    0  501 -0.35476322555E+03 -0.18635699817E+03 -0.29898500469E+03  0.50000000000E+03  0.47000000000E+01 0.  1.
</event>
<event>
 4    1  0.4933936E-004  0.1000000E+04  0.7546771E-02  0.8684367E-01
         11   -1    0    0    0    0  0.00000000000E+00  0.00000000000E+00  0.50000000000E+03  0.50000000000E+03  0.00000000000E+00 0. -1.
        -11   -1    0    0    0    0 -0.00000000000E+00 -0.00000000000E+00 -0.50000000000E+03  0.50000000000E+03  0.00000000000E+00 0.  1.
          5    1    1    2  501    0  0.26697783090E+03  0.15866469182E+03  0.39182427615E+03  0.50000000000E+03  0.47000000000E+01 0. -1.
         -5    1    1    2    0  501 -0.26697783090E+03 -0.15866469182E+03 -0.39182427615E+03  0.50000000000E+03  0.47000000000E+01 0.  1.
</event>
<event>
 4    1  0.4933936E-004  0.1000000E+04  0.7546771E-02  0.8684367E-01
         11   -1    0    0    0    0  0.00000000000E+00  0.00000000000E+00  0.50000000000E+03  0.50000000000E+03  0.00000000000E+00 0. -1.
        -11   -1    0    0    0    0 -0.00000000000E+00 -0.00000000000E+00 -0.50000000000E+03  0.50000000000E+03  0.00000000000E+00 0.  1.
          5    1    1    2  501    0 -0.24350955136E+03  0.33180843962E+03  0.28387350668E+03  0.50000000000E+03  0.47000000000E+01 0. -1.
         -5    1    1    2    0  501  0.24350955136E+03 -0.33180843962E+03 -0.28387350668E+03  0.50000000000E+03  0.47000000000E+01 0.  1.
</event>
<event>
 4    1  0.4933936E-004  0.1000000E+04  0.7546771E-02  0.8684367E-01
         11   -1    0    0    0    0  0.00000000000E+00  0.00000000000E+00  0.50000000000E+03  0.50000000000E+03  0.00000000000E+00 0. -1.
        -11   -1    0    0    0    0 -0.00000000000E+00 -0.00000000000E+00 -0.50000000000E+03  0.50000000000E+03  0.00000000000E+00 0.  1.
          5    1    1    2  501    0  0.12877106124E+03  0.38695147732E+03  0.28924812530E+03  0.50000000000E+03  0.47000000000E+01 0. -1.
         -5    1    1    2    0  501 -0.12877106124E+03 -0.38695147732E+03 -0.28924812530E+03  0.50000000000E+03  0.47000000000E+01 0.  1.
</event>
<event>
 4    1  0.4933936E-004  0.1000000E+04  0.7546771E-02  0.8684367E-01
         11   -1    0    0    0    0  0.00000000000E+00  0.00000000000E+00  0.50000000000E+03  0.50000000000E+03  0.00000000000E+00 0. -1.
        -11   -1    0    0    0    0 -0.00000000000E+00 -0.00000000000E+00 -0.50000000000E+03  0.50000000000E+03  0.00000000000E+00 0.  1.
          5    1    1    2  501    0 -0.10628860638E+03  0.29656400831E+03  0.38824017197E+03  0.50000000000E+03  0.47000000000E+01 0. -1.
         -5    1    1    2    0  501  0.10628860638E+03 -0.29656400831E+03 -0.38824017197E+03  0.50000000000E+03  0.47000000000E+01 0.  1.
</event>
<event>
 4    1  0.4933936E-004  0.1000000E+04  0.7546771E-02  0.8684367E-01
         11   -1    0    0    0    0  0.00000000000E+00  0.00000000000E+00  0.50000000000E+03  0.50000000000E+03  0.00000000000E+00 0. -1.
        -11   -1    0    0    0    0 -0.00000000000E+00 -0.00000000000E+00 -0.50000000000E+03  0.50000000000E+03  0.00000000000E+00 0.  1.
          5    1    1    2  501    0 -0.38071930631E+03  0.25699166953E+03  0.19744873156E+03  0.50000000000E+03  0.47000000000E+01 0. -1.
         -5    1    1    2    0  501  0.38071930631E+03 -0.25699166953E+03 -0.19744873156E+03  0.50000000000E+03  0.47000000000E+01 0.  1.
</event>
<event>
 4    1  0.4933936E-004  0.1000000E+04  0.7546771E-02  0.8684367E-01
         11   -1    0    0    0    0  0.00000000000E+00  0.00000000000E+00  0.50000000000E+03  0.50000000000E+03  0.00000000000E+00 0. -1.
        -11   -1    0    0    0    0 -0.00000000000E+00 -0.00000000000E+00 -0.50000000000E+03  0.50000000000E+03  0.00000000000E+00 0.  1.
          5    1    1    2  501    0  0.22374440292E+02  0.45618562731E+03  0.20340100259E+03  0.50000000000E+03  0.47000000000E+01 0. -1.
         -5    1    1    2    0  501 -0.22374440292E+02 -0.45618562731E+03 -0.20340100259E+03  0.50000000000E+03  0.47000000000E+01 0.  1.
</event>
<event>
 4    1  0.4933936E-004  0.1000000E+04  0.7546771E-02  0.8684367E-01
         11   -1    0    0    0    0  0.00000000000E+00  0.00000000000E+00  0.50000000000E+03  0.50000000000E+03  0.00000000000E+00 0.  1.
        -11   -1    0    0    0    0 -0.00000000000E+00 -0.00000000000E+00 -0.50000000000E+03  0.50000000000E+03  0.00000000000E+00 0. -1.
          5    1    1    2  501    0  0.39799851532E+03  0.28588632525E+03  0.99217442196E+02  0.50000000000E+03  0.47000000000E+01 0.  1.
         -5    1    1    2    0  501 -0.39799851532E+03 -0.28588632525E+03 -0.99217442196E+02  0.50000000000E+03  0.47000000000E+01 0. -1.
</event>
<event>
 4    1  0.4933936E-004  0.1000000E+04  0.7546771E-02  0.8684367E-01
         11   -1    0    0    0    0  0.00000000000E+00  0.00000000000E+00  0.50000000000E+03  0.50000000000E+03  0.00000000000E+00 0. -1.
        -11   -1    0    0    0    0 -0.00000000000E+00 -0.00000000000E+00 -0.50000000000E+03  0.50000000000E+03  0.00000000000E+00 0.  1.
          5    1    1    2  501    0  0.26900470274E+03 -0.19591945768E+03  0.37313529183E+03  0.50000000000E+03  0.47000000000E+01 0. -1.
         -5    1    1    2    0  501 -0.26900470274E+03  0.19591945768E+03 -0.37313529183E+03  0.50000000000E+03  0.47000000000E+01 0.  1.
</event>
<event>
 4    1  0.4933936E-004  0.1000000E+04  0.7546771E-02  0.8684367E-01
         11   -1    0    0    0    0  0.00000000000E+00  0.00000000000E+00  0.50000000000E+03  0.50000000000E+03  0.00000000000E+00 0. -1.
        -11   -1    0    0    0    0 -0.00000000000E+00 -0.00000000000E+00 -0.50000000000E+03  0.50000000000E+03  0.00000000000E+00 0.  1.
          5    1    1    2  501    0  0.30529184153E+03  0.48841746499E+02 -0.39292401974E+03  0.50000000000E+03  0.47000000000E+01 0. -1.
         -5    1    1    2    0  501 -0.30529184153E+03 -0.48841746499E+02  0.39292401974E+03  0.50000000000E+03  0.47000000000E+01 0.  1.
</event>
<event>
 4    1  0.4933936E-004  0.1000000E+04  0.7546771E-02  0.8684367E-01
         11   -1    0    0    0    0  0.00000000000E+00  0.00000000000E+00  0.50000000000E+03  0.50000000000E+03  0.00000000000E+00 0. -1.
        -11   -1    0    0    0    0 -0.00000000000E+00 -0.00000000000E+00 -0.50000000000E+03  0.50000000000E+03  0.00000000000E+00 0.  1.
          5    1    1    2  501    0  0.52154731160E+02  0.44192252778E+03  0.22795234909E+03  0.50000000000E+03  0.47000000000E+01 0. -1.
         -5    1    1    2    0  501 -0.52154731160E+02 -0.44192252778E+03 -0.22795234909E+03  0.50000000000E+03  0.47000000000E+01 0.  1.
</event>
<event>
 4    1  0.4933936E-004  0.1000000E+04  0.7546771E-02  0.8684367E-01
         11   -1    0    0    0    0  0.00000000000E+00  0.00000000000E+00  0.50000000000E+03  0.50000000000E+03  0.00000000000E+00 0. -1.
        -11   -1    0    0    0    0 -0.00000000000E+00 -0.00000000000E+00 -0.50000000000E+03  0.50000000000E+03  0.00000000000E+00 0.  1.
          5    1    1    2  501    0  0.49438858693E+03  0.69544598863E+02  0.26858590513E+02  0.50000000000E+03  0.47000000000E+01 0. -1.
         -5    1    1    2    0  501 -0.49438858693E+03 -0.69544598863E+02 -0.26858590513E+02  0.50000000000E+03  0.47000000000E+01 0.  1.
</event>
<event>
 4    1  0.4933936E-004  0.1000000E+04  0.7546771E-02  0.8684367E-01
         11   -1    0    0    0    0  0.00000000000E+00  0.00000000000E+00  0.50000000000E+03  0.50000000000E+03  0.00000000000E+00 0. -1.
        -11   -1    0    0    0    0 -0.00000000000E+00 -0.00000000000E+00 -0.50000000000E+03  0.50000000000E+03  0.00000000000E+00 0.  1.
          5    1    1    2  501    0  0.26538589387E+03  0.18987089709E+03  0.37881034803E+03  0.50000000000E+03  0.47000000000E+01 0. -1.
         -5    1    1    2    0  501 -0.26538589387E+03 -0.18987089709E+03 -0.37881034803E+03  0.50000000000E+03  0.47000000000E+01 0.  1.
</event>
<event>
 4    1  0.4933936E-004  0.1000000E+04  0.7546771E-02  0.8684367E-01
         11   -1    0    0    0    0  0.00000000000E+00  0.00000000000E+00  0.50000000000E+03  0.50000000000E+03  0.00000000000E+00 0. -1.
        -11   -1    0    0    0    0 -0.00000000000E+00 -0.00000000000E+00 -0.50000000000E+03  0.50000000000E+03  0.00000000000E+00 0.  1.
          5    1    1    2  501    0  0.13201763090E+03  0.21268598870E+03  0.43279778805E+03  0.50000000000E+03  0.47000000000E+01 0. -1.
         -5    1    1    2    0  501 -0.13201763090E+03 -0.21268598870E+03 -0.43279778805E+03  0.50000000000E+03  0.47000000000E+01 0.  1.
</event>
<event>
 4    1  0.4933936E-004  0.1000000E+04  0.7546771E-02  0.8684367E-01
         11   -1    0    0    0    0  0.00000000000E+00  0.00000000000E+00  0.50000000000E+03  0.50000000000E+03  0.00000000000E+00 0.  1.
        -11   -1    0    0    0    0 -0.00000000000E+00 -0.00000000000E+00 -0.50000000000E+03  0.50000000000E+03  0.00000000000E+00 0. -1.
          5    1    1    2  501    0 -0.34076024469E+02 -0.29597875531E+03  0.40151377431E+03  0.50000000000E+03  0.47000000000E+01 0.  1.
         -5    1    1    2    0  501  0.34076024469E+02  0.29597875531E+03 -0.40151377431E+03  0.50000000000E+03  0.47000000000E+01 0. -1.
</event>
<event>
 4    1  0.4933936E-004  0.1000000E+04  0.7546771E-02  0.8684367E-01
         11   -1    0    0    0    0  0.00000000000E+00  0.00000000000E+00  0.50000000000E+03  0.50000000000E+03  0.00000000000E+00 0. -1.
        -11   -1    0    0    0    0 -0.00000000000E+00 -0.00000000000E+00 -0.50000000000E+03  0.50000000000E+03  0.00000000000E+00 0.  1.
          5    1    1    2  501    0  0.76375819427E+02  0.49269381560E+03  0.37382459500E+02  0.50000000000E+03  0.47000000000E+01 0. -1.
         -5    1    1    2    0  501 -0.76375819427E+02 -0.49269381560E+03 -0.37382459500E+02  0.50000000000E+03  0.47000000000E+01 0.  1.
</event>
<event>
 4    1  0.4933936E-004  0.1000000E+04  0.7546771E-02  0.8684367E-01
         11   -1    0    0    0    0  0.00000000000E+00  0.00000000000E+00  0.50000000000E+03  0.50000000000E+03  0.00000000000E+00 0. -1.
        -11   -1    0    0    0    0 -0.00000000000E+00 -0.00000000000E+00 -0.50000000000E+03  0.50000000000E+03  0.00000000000E+00 0.  1.
          5    1    1    2  501    0 -0.22824325133E+03  0.16146943003E+03  0.41450036356E+03  0.50000000000E+03  0.47000000000E+01 0. -1.
         -5    1    1    2    0  501  0.22824325133E+03 -0.16146943003E+03 -0.41450036356E+03  0.50000000000E+03  0.47000000000E+01 0.  1.
</event>
<event>
 4    1  0.4933936E-004  0.1000000E+04  0.7546771E-02  0.8684367E-01
         11   -1    0    0    0    0  0.00000000000E+00  0.00000000000E+00  0.50000000000E+03  0.50000000000E+03  0.00000000000E+00 0.  1.
        -11   -1    0    0    0    0 -0.00000000000E+00 -0.00000000000E+00 -0.50000000000E+03  0.50000000000E+03  0.00000000000E+00 0. -1.
          5    1    1    2  501    0  0.32105410653E+03  0.30344723614E+03  0.23414086691E+03  0.50000000000E+03  0.47000000000E+01 0.  1.
         -5    1    1    2    0  501 -0.32105410653E+03 -0.30344723614E+03 -0.23414086691E+03  0.50000000000E+03  0.47000000000E+01 0. -1.
</event>
<event>
 4    1  0.4933936E-004  0.1000000E+04  0.7546771E-02  0.8684367E-01
         11   -1    0    0    0    0  0.00000000000E+00  0.00000000000E+00  0.50000000000E+03  0.50000000000E+03  0.00000000000E+00 0.  1.
        -11   -1    0    0    0    0 -0.00000000000E+00 -0.00000000000E+00 -0.50000000000E+03  0.50000000000E+03  0.00000000000E+00 0. -1.
          5    1    1    2  501    0 -0.49392368224E+03 -0.68015114803E+02 -0.37299467562E+02  0.50000000000E+03  0.47000000000E+01 0.  1.
         -5    1    1    2    0  501  0.49392368224E+03  0.68015114803E+02  0.37299467562E+02  0.50000000000E+03  0.47000000000E+01 0. -1.
</event>
<event>
 4    1  0.4933936E-004  0.1000000E+04  0.7546771E-02  0.8684367E-01
         11   -1    0    0    0    0  0.00000000000E+00  0.00000000000E+00  0.50000000000E+03  0.50000000000E+03  0.00000000000E+00 0. -1.
        -11   -1    0    0    0    0 -0.00000000000E+00 -0.00000000000E+00 -0.50000000000E+03  0.50000000000E+03  0.00000000000E+00 0.  1.
          5    1    1    2  501    0 -0.24550497831E+03 -0.20008130734E+03  0.38687554340E+03  0.50000000000E+03  0.47000000000E+01 0. -1.
         -5    1    1    2    0  501  0.24550497831E+03  0.20008130734E+03 -0.38687554340E+03  0.50000000000E+03  0.47000000000E+01 0.  1.
</event>
<event>
 4    1  0.4933936E-004  0.1000000E+04  0.7546771E-02  0.8684367E-01
         11   -1    0    0    0    0  0.00000000000E+00  0.00000000000E+00  0.50000000000E+03  0.50000000000E+03  0.00000000000E+00 0. -1.
        -11   -1    0    0    0    0 -0.00000000000E+00 -0.00000000000E+00 -0.50000000000E+03  0.50000000000E+03  0.00000000000E+00 0.  1.
          5    1    1    2  501    0 -0.24580470809E+03 -0.32356677782E+03  0.29131168149E+03  0.50000000000E+03  0.47000000000E+01 0. -1.
         -5    1    1    2    0  501  0.24580470809E+03  0.32356677782E+03 -0.29131168149E+03  0.50000000000E+03  0.47000000000E+01 0.  1.
</event>
<event>
 4    1  0.4933936E-004  0.1000000E+04  0.7546771E-02  0.8684367E-01
         11   -1    0    0    0    0  0.00000000000E+00  0.00000000000E+00  0.50000000000E+03  0.50000000000E+03  0.00000000000E+00 0. -1.
        -11   -1    0    0    0    0 -0.00000000000E+00 -0.00000000000E+00 -0.50000000000E+03  0.50000000000E+03  0.00000000000E+00 0.  1.
          5    1    1    2  501    0  0.77541935061E+02 -0.39892619919E+03  0.29124396287E+03  0.50000000000E+03  0.47000000000E+01 0. -1.
         -5    1    1    2    0  501 -0.77541935061E+02  0.39892619919E+03 -0.29124396287E+03  0.50000000000E+03  0.47000000000E+01 0.  1.
</event>
<event>
 4    1  0.4933936E-004  0.1000000E+04  0.7546771E-02  0.8684367E-01
         11   -1    0    0    0    0  0.00000000000E+00  0.00000000000E+00  0.50000000000E+03  0.50000000000E+03  0.00000000000E+00 0. -1.
        -11   -1    0    0    0    0 -0.00000000000E+00 -0.00000000000E+00 -0.50000000000E+03  0.50000000000E+03  0.00000000000E+00 0.  1.
          5    1    1    2  501    0 -0.22000045662E+03 -0.20229778523E+03  0.40081581203E+03  0.50000000000E+03  0.47000000000E+01 0. -1.
         -5    1    1    2    0  501  0.22000045662E+03  0.20229778523E+03 -0.40081581203E+03  0.50000000000E+03  0.47000000000E+01 0.  1.
</event>
<event>
 4    1  0.4933936E-004  0.1000000E+04  0.7546771E-02  0.8684367E-01
         11   -1    0    0    0    0  0.00000000000E+00  0.00000000000E+00  0.50000000000E+03  0.50000000000E+03  0.00000000000E+00 0. -1.
        -11   -1    0    0    0    0 -0.00000000000E+00 -0.00000000000E+00 -0.50000000000E+03  0.50000000000E+03  0.00000000000E+00 0.  1.
          5    1    1    2  501    0 -0.32692095433E+02  0.24101549278E+03  0.43683025209E+03  0.50000000000E+03  0.47000000000E+01 0. -1.
         -5    1    1    2    0  501  0.32692095433E+02 -0.24101549278E+03 -0.43683025209E+03  0.50000000000E+03  0.47000000000E+01 0.  1.
</event>
<event>
 4    1  0.4933936E-004  0.1000000E+04  0.7546771E-02  0.8684367E-01
         11   -1    0    0    0    0  0.00000000000E+00  0.00000000000E+00  0.50000000000E+03  0.50000000000E+03  0.00000000000E+00 0.  1.
        -11   -1    0    0    0    0 -0.00000000000E+00 -0.00000000000E+00 -0.50000000000E+03  0.50000000000E+03  0.00000000000E+00 0. -1.
          5    1    1    2  501    0 -0.39273575727E+03  0.14963477292E+02  0.30905117587E+03  0.50000000000E+03  0.47000000000E+01 0.  1.
         -5    1    1    2    0  501  0.39273575727E+03 -0.14963477292E+02 -0.30905117587E+03  0.50000000000E+03  0.47000000000E+01 0. -1.
</event>
<event>
 4    1  0.4933936E-004  0.1000000E+04  0.7546771E-02  0.8684367E-01
         11   -1    0    0    0    0  0.00000000000E+00  0.00000000000E+00  0.50000000000E+03  0.50000000000E+03  0.00000000000E+00 0. -1.
        -11   -1    0    0    0    0 -0.00000000000E+00 -0.00000000000E+00 -0.50000000000E+03  0.50000000000E+03  0.00000000000E+00 0.  1.
          5    1    1    2  501    0 -0.64898362601E+02  0.49571901106E+03 -0.53641968389E+01  0.50000000000E+03  0.47000000000E+01 0. -1.
         -5    1    1    2    0  501  0.64898362601E+02 -0.49571901106E+03  0.53641968389E+01  0.50000000000E+03  0.47000000000E+01 0.  1.
</event>
<event>
 4    1  0.4933936E-004  0.1000000E+04  0.7546771E-02  0.8684367E-01
         11   -1    0    0    0    0  0.00000000000E+00  0.00000000000E+00  0.50000000000E+03  0.50000000000E+03  0.00000000000E+00 0. -1.
        -11   -1    0    0    0    0 -0.00000000000E+00 -0.00000000000E+00 -0.50000000000E+03  0.50000000000E+03  0.00000000000E+00 0.  1.
          5    1    1    2  501    0 -0.46559134691E+03  0.10195661574E+03  0.15102137660E+03  0.50000000000E+03  0.47000000000E+01 0. -1.
         -5    1    1    2    0  501  0.46559134691E+03 -0.10195661574E+03 -0.15102137660E+03  0.50000000000E+03  0.47000000000E+01 0.  1.
</event>
<event>
 4    1  0.4933936E-004  0.1000000E+04  0.7546771E-02  0.8684367E-01
         11   -1    0    0    0    0  0.00000000000E+00  0.00000000000E+00  0.50000000000E+03  0.50000000000E+03  0.00000000000E+00 0. -1.
        -11   -1    0    0    0    0 -0.00000000000E+00 -0.00000000000E+00 -0.50000000000E+03  0.50000000000E+03  0.00000000000E+00 0.  1.
          5    1    1    2  501    0 -0.26281685449E+03 -0.19327315461E+03  0.37888085027E+03  0.50000000000E+03  0.47000000000E+01 0. -1.
         -5    1    1    2    0  501  0.26281685449E+03  0.19327315461E+03 -0.37888085027E+03  0.50000000000E+03  0.47000000000E+01 0.  1.
</event>
<event>
 4    1  0.4933936E-004  0.1000000E+04  0.7546771E-02  0.8684367E-01
         11   -1    0    0    0    0  0.00000000000E+00  0.00000000000E+00  0.50000000000E+03  0.50000000000E+03  0.00000000000E+00 0.  1.
        -11   -1    0    0    0    0 -0.00000000000E+00 -0.00000000000E+00 -0.50000000000E+03  0.50000000000E+03  0.00000000000E+00 0. -1.
          5    1    1    2  501    0  0.17210858517E+03  0.27859997010E+03 -0.37780762509E+03  0.50000000000E+03  0.47000000000E+01 0.  1.
         -5    1    1    2    0  501 -0.17210858517E+03 -0.27859997010E+03  0.37780762509E+03  0.50000000000E+03  0.47000000000E+01 0. -1.
</event>
<event>
 4    1  0.4933936E-004  0.1000000E+04  0.7546771E-02  0.8684367E-01
         11   -1    0    0    0    0  0.00000000000E+00  0.00000000000E+00  0.50000000000E+03  0.50000000000E+03  0.00000000000E+00 0. -1.
        -11   -1    0    0    0    0 -0.00000000000E+00 -0.00000000000E+00 -0.50000000000E+03  0.50000000000E+03  0.00000000000E+00 0.  1.
          5    1    1    2  501    0 -0.33638601895E+03 -0.15404632536E+03  0.33629166789E+03  0.50000000000E+03  0.47000000000E+01 0. -1.
         -5    1    1    2    0  501  0.33638601895E+03  0.15404632536E+03 -0.33629166789E+03  0.50000000000E+03  0.47000000000E+01 0.  1.
</event>
<event>
 4    1  0.4933936E-004  0.1000000E+04  0.7546771E-02  0.8684367E-01
         11   -1    0    0    0    0  0.00000000000E+00  0.00000000000E+00  0.50000000000E+03  0.50000000000E+03  0.00000000000E+00 0. -1.
        -11   -1    0    0    0    0 -0.00000000000E+00 -0.00000000000E+00 -0.50000000000E+03  0.50000000000E+03  0.00000000000E+00 0.  1.
          5    1    1    2  501    0  0.94318439335E+01 -0.97223371450E+02  0.49034331479E+03  0.50000000000E+03  0.47000000000E+01 0. -1.
         -5    1    1    2    0  501 -0.94318439335E+01  0.97223371450E+02 -0.49034331479E+03  0.50000000000E+03  0.47000000000E+01 0.  1.
</event>
<event>
 4    1  0.4933936E-004  0.1000000E+04  0.7546771E-02  0.8684367E-01
         11   -1    0    0    0    0  0.00000000000E+00  0.00000000000E+00  0.50000000000E+03  0.50000000000E+03  0.00000000000E+00 0.  1.
        -11   -1    0    0    0    0 -0.00000000000E+00 -0.00000000000E+00 -0.50000000000E+03  0.50000000000E+03  0.00000000000E+00 0. -1.
          5    1    1    2  501    0 -0.48492290932E+03  0.10625858583E+03  0.59470958935E+02  0.50000000000E+03  0.47000000000E+01 0.  1.
         -5    1    1    2    0  501  0.48492290932E+03 -0.10625858583E+03 -0.59470958935E+02  0.50000000000E+03  0.47000000000E+01 0. -1.
</event>
<event>
 4    1  0.4933936E-004  0.1000000E+04  0.7546771E-02  0.8684367E-01
         11   -1    0    0    0    0  0.00000000000E+00  0.00000000000E+00  0.50000000000E+03  0.50000000000E+03  0.00000000000E+00 0. -1.
        -11   -1    0    0    0    0 -0.00000000000E+00 -0.00000000000E+00 -0.50000000000E+03  0.50000000000E+03  0.00000000000E+00 0.  1.
          5    1    1    2  501    0 -0.53792199519E+02  0.41541732612E+03  0.27297024459E+03  0.50000000000E+03  0.47000000000E+01 0. -1.
         -5    1    1    2    0  501  0.53792199519E+02 -0.41541732612E+03 -0.27297024459E+03  0.50000000000E+03  0.47000000000E+01 0.  1.
</event>
<event>
 4    1  0.4933936E-004  0.1000000E+04  0.7546771E-02  0.8684367E-01
         11   -1    0    0    0    0  0.00000000000E+00  0.00000000000E+00  0.50000000000E+03  0.50000000000E+03  0.00000000000E+00 0. -1.
        -11   -1    0    0    0    0 -0.00000000000E+00 -0.00000000000E+00 -0.50000000000E+03  0.50000000000E+03  0.00000000000E+00 0.  1.
          5    1    1    2  501    0  0.24783076767E+03  0.26118492223E+03  0.34690093254E+03  0.50000000000E+03  0.47000000000E+01 0. -1.
         -5    1    1    2    0  501 -0.24783076767E+03 -0.26118492223E+03 -0.34690093254E+03  0.50000000000E+03  0.47000000000E+01 0.  1.
</event>
<event>
 4    1  0.4933936E-004  0.1000000E+04  0.7546771E-02  0.8684367E-01
         11   -1    0    0    0    0  0.00000000000E+00  0.00000000000E+00  0.50000000000E+03  0.50000000000E+03  0.00000000000E+00 0. -1.
        -11   -1    0    0    0    0 -0.00000000000E+00 -0.00000000000E+00 -0.50000000000E+03  0.50000000000E+03  0.00000000000E+00 0.  1.
          5    1    1    2  501    0  0.39311271202E+03 -0.25750000657E+03  0.17068700086E+03  0.50000000000E+03  0.47000000000E+01 0. -1.
         -5    1    1    2    0  501 -0.39311271202E+03  0.25750000657E+03 -0.17068700086E+03  0.50000000000E+03  0.47000000000E+01 0.  1.
</event>
<event>
 4    1  0.4933936E-004  0.1000000E+04  0.7546771E-02  0.8684367E-01
         11   -1    0    0    0    0  0.00000000000E+00  0.00000000000E+00  0.50000000000E+03  0.50000000000E+03  0.00000000000E+00 0. -1.
        -11   -1    0    0    0    0 -0.00000000000E+00 -0.00000000000E+00 -0.50000000000E+03  0.50000000000E+03  0.00000000000E+00 0.  1.
          5    1    1    2  501    0 -0.50362187384E+02  0.19727885011E+03  0.45664276561E+03  0.50000000000E+03  0.47000000000E+01 0. -1.
         -5    1    1    2    0  501  0.50362187384E+02 -0.19727885011E+03 -0.45664276561E+03  0.50000000000E+03  0.47000000000E+01 0.  1.
</event>
<event>
 4    1  0.4933936E-004  0.1000000E+04  0.7546771E-02  0.8684367E-01
         11   -1    0    0    0    0  0.00000000000E+00  0.00000000000E+00  0.50000000000E+03  0.50000000000E+03  0.00000000000E+00 0. -1.
        -11   -1    0    0    0    0 -0.00000000000E+00 -0.00000000000E+00 -0.50000000000E+03  0.50000000000E+03  0.00000000000E+00 0.  1.
          5    1    1    2  501    0  0.49766267112E+02 -0.37961603252E+03  0.32154765823E+03  0.50000000000E+03  0.47000000000E+01 0. -1.
         -5    1    1    2    0  501 -0.49766267112E+02  0.37961603252E+03 -0.32154765823E+03  0.50000000000E+03  0.47000000000E+01 0.  1.
</event>
<event>
 4    1  0.4933936E-004  0.1000000E+04  0.7546771E-02  0.8684367E-01
         11   -1    0    0    0    0  0.00000000000E+00  0.00000000000E+00  0.50000000000E+03  0.50000000000E+03  0.00000000000E+00 0. -1.
        -11   -1    0    0    0    0 -0.00000000000E+00 -0.00000000000E+00 -0.50000000000E+03  0.50000000000E+03  0.00000000000E+00 0.  1.
          5    1    1    2  501    0 -0.33364838883E+03  0.22981429615E+03  0.29298814296E+03  0.50000000000E+03  0.47000000000E+01 0. -1.
         -5    1    1    2    0  501  0.33364838883E+03 -0.22981429615E+03 -0.29298814296E+03  0.50000000000E+03  0.47000000000E+01 0.  1.
</event>
<event>
 4    1  0.4933936E-004  0.1000000E+04  0.7546771E-02  0.8684367E-01
         11   -1    0    0    0    0  0.00000000000E+00  0.00000000000E+00  0.50000000000E+03  0.50000000000E+03  0.00000000000E+00 0. -1.
        -11   -1    0    0    0    0 -0.00000000000E+00 -0.00000000000E+00 -0.50000000000E+03  0.50000000000E+03  0.00000000000E+00 0.  1.
          5    1    1    2  501    0 -0.36765217948E+03  0.33399533677E+03  0.57069255605E+02  0.50000000000E+03  0.47000000000E+01 0. -1.
         -5    1    1    2    0  501  0.36765217948E+03 -0.33399533677E+03 -0.57069255605E+02  0.50000000000E+03  0.47000000000E+01 0.  1.
</event>
<event>
 4    1  0.4933936E-004  0.1000000E+04  0.7546771E-02  0.8684367E-01
         11   -1    0    0    0    0  0.00000000000E+00  0.00000000000E+00  0.50000000000E+03  0.50000000000E+03  0.00000000000E+00 0. -1.
        -11   -1    0    0    0    0 -0.00000000000E+00 -0.00000000000E+00 -0.50000000000E+03  0.50000000000E+03  0.00000000000E+00 0.  1.
          5    1    1    2  501    0  0.15827806781E+03 -0.11124527157E+03  0.46103194337E+03  0.50000000000E+03  0.47000000000E+01 0. -1.
         -5    1    1    2    0  501 -0.15827806781E+03  0.11124527157E+03 -0.46103194337E+03  0.50000000000E+03  0.47000000000E+01 0.  1.
</event>
<event>
 4    1  0.4933936E-004  0.1000000E+04  0.7546771E-02  0.8684367E-01
         11   -1    0    0    0    0  0.00000000000E+00  0.00000000000E+00  0.50000000000E+03  0.50000000000E+03  0.00000000000E+00 0. -1.
        -11   -1    0    0    0    0 -0.00000000000E+00 -0.00000000000E+00 -0.50000000000E+03  0.50000000000E+03  0.00000000000E+00 0.  1.
          5    1    1    2  501    0  0.41383803027E+03  0.21591649145E+02 -0.27973164889E+03  0.50000000000E+03  0.47000000000E+01 0. -1.
         -5    1    1    2    0  501 -0.41383803027E+03 -0.21591649145E+02  0.27973164889E+03  0.50000000000E+03  0.47000000000E+01 0.  1.
</event>
<event>
 4    1  0.4933936E-004  0.1000000E+04  0.7546771E-02  0.8684367E-01
         11   -1    0    0    0    0  0.00000000000E+00  0.00000000000E+00  0.50000000000E+03  0.50000000000E+03  0.00000000000E+00 0.  1.
        -11   -1    0    0    0    0 -0.00000000000E+00 -0.00000000000E+00 -0.50000000000E+03  0.50000000000E+03  0.00000000000E+00 0. -1.
          5    1    1    2  501    0  0.45871354999E+02  0.92192698949E+01  0.49778382241E+03  0.50000000000E+03  0.47000000000E+01 0.  1.
         -5    1    1    2    0  501 -0.45871354999E+02 -0.92192698949E+01 -0.49778382241E+03  0.50000000000E+03  0.47000000000E+01 0. -1.
</event>
<event>
 4    1  0.4933936E-004  0.1000000E+04  0.7546771E-02  0.8684367E-01
         11   -1    0    0    0    0  0.00000000000E+00  0.00000000000E+00  0.50000000000E+03  0.50000000000E+03  0.00000000000E+00 0. -1.
        -11   -1    0    0    0    0 -0.00000000000E+00 -0.00000000000E+00 -0.50000000000E+03  0.50000000000E+03  0.00000000000E+00 0.  1.
          5    1    1    2  501    0 -0.20895112142E+03  0.31866937617E+02  0.45310245767E+03  0.50000000000E+03  0.47000000000E+01 0. -1.
         -5    1    1    2    0  501  0.20895112142E+03 -0.31866937617E+02 -0.45310245767E+03  0.50000000000E+03  0.47000000000E+01 0.  1.
</event>
<event>
 4    1  0.4933936E-004  0.1000000E+04  0.7546771E-02  0.8684367E-01
         11   -1    0    0    0    0  0.00000000000E+00  0.00000000000E+00  0.50000000000E+03  0.50000000000E+03  0.00000000000E+00 0. -1.
        -11   -1    0    0    0    0 -0.00000000000E+00 -0.00000000000E+00 -0.50000000000E+03  0.50000000000E+03  0.00000000000E+00 0.  1.
          5    1    1    2  501    0 -0.18915212197E+03  0.17964624769E+03  0.42652855760E+03  0.50000000000E+03  0.47000000000E+01 0. -1.
         -5    1    1    2    0  501  0.18915212197E+03 -0.17964624769E+03 -0.42652855760E+03  0.50000000000E+03  0.47000000000E+01 0.  1.
</event>
<event>
 4    1  0.4933936E-004  0.1000000E+04  0.7546771E-02  0.8684367E-01
         11   -1    0    0    0    0  0.00000000000E+00  0.00000000000E+00  0.50000000000E+03  0.50000000000E+03  0.00000000000E+00 0. -1.
        -11   -1    0    0    0    0 -0.00000000000E+00 -0.00000000000E+00 -0.50000000000E+03  0.50000000000E+03  0.00000000000E+00 0.  1.
          5    1    1    2  501    0 -0.30974999121E+03  0.28311955418E+02  0.39144767993E+03  0.50000000000E+03  0.47000000000E+01 0. -1.
         -5    1    1    2    0  501  0.30974999121E+03 -0.28311955418E+02 -0.39144767993E+03  0.50000000000E+03  0.47000000000E+01 0.  1.
</event>
<event>
 4    1  0.4933936E-004  0.1000000E+04  0.7546771E-02  0.8684367E-01
         11   -1    0    0    0    0  0.00000000000E+00  0.00000000000E+00  0.50000000000E+03  0.50000000000E+03  0.00000000000E+00 0. -1.
        -11   -1    0    0    0    0 -0.00000000000E+00 -0.00000000000E+00 -0.50000000000E+03  0.50000000000E+03  0.00000000000E+00 0.  1.
          5    1    1    2  501    0 -0.27491292505E+03 -0.40249098697E+03  0.11136336494E+03  0.50000000000E+03  0.47000000000E+01 0. -1.
         -5    1    1    2    0  501  0.27491292505E+03  0.40249098697E+03 -0.11136336494E+03  0.50000000000E+03  0.47000000000E+01 0.  1.
</event>
<event>
 4    1  0.4933936E-004  0.1000000E+04  0.7546771E-02  0.8684367E-01
         11   -1    0    0    0    0  0.00000000000E+00  0.00000000000E+00  0.50000000000E+03  0.50000000000E+03  0.00000000000E+00 0. -1.
        -11   -1    0    0    0    0 -0.00000000000E+00 -0.00000000000E+00 -0.50000000000E+03  0.50000000000E+03  0.00000000000E+00 0.  1.
          5    1    1    2  501    0 -0.30414376834E+03 -0.34356553339E+03 -0.19858802191E+03  0.50000000000E+03  0.47000000000E+01 0. -1.
         -5    1    1    2    0  501  0.30414376834E+03  0.34356553339E+03  0.19858802191E+03  0.50000000000E+03  0.47000000000E+01 0.  1.
</event>
<event>
 4    1  0.4933936E-004  0.1000000E+04  0.7546771E-02  0.8684367E-01
         11   -1    0    0    0    0  0.00000000000E+00  0.00000000000E+00  0.50000000000E+03  0.50000000000E+03  0.00000000000E+00 0.  1.
        -11   -1    0    0    0    0 -0.00000000000E+00 -0.00000000000E+00 -0.50000000000E+03  0.50000000000E+03  0.00000000000E+00 0. -1.
          5    1    1    2  501    0 -0.29138240430E+03 -0.56678943206E+02  0.40232039703E+03  0.50000000000E+03  0.47000000000E+01 0.  1.
         -5    1    1    2    0  501  0.29138240430E+03  0.56678943206E+02 -0.40232039703E+03  0.50000000000E+03  0.47000000000E+01 0. -1.
</event>
<event>
 4    1  0.4933936E-004  0.1000000E+04  0.7546771E-02  0.8684367E-01
         11   -1    0    0    0    0  0.00000000000E+00  0.00000000000E+00  0.50000000000E+03  0.50000000000E+03  0.00000000000E+00 0. -1.
        -11   -1    0    0    0    0 -0.00000000000E+00 -0.00000000000E+00 -0.50000000000E+03  0.50000000000E+03  0.00000000000E+00 0.  1.
          5    1    1    2  501    0 -0.38798367768E+03  0.31186692655E+03 -0.46750358025E+02  0.50000000000E+03  0.47000000000E+01 0. -1.
         -5    1    1    2    0  501  0.38798367768E+03 -0.31186692655E+03  0.46750358025E+02  0.50000000000E+03  0.47000000000E+01 0.  1.
</event>
<event>
 4    1  0.4933936E-004  0.1000000E+04  0.7546771E-02  0.8684367E-01
         11   -1    0    0    0    0  0.00000000000E+00  0.00000000000E+00  0.50000000000E+03  0.50000000000E+03  0.00000000000E+00 0.  1.
        -11   -1    0    0    0    0 -0.00000000000E+00 -0.00000000000E+00 -0.50000000000E+03  0.50000000000E+03  0.00000000000E+00 0. -1.
          5    1    1    2  501    0 -0.77733516429E+02  0.45619773629E+03  0.18925917634E+03  0.50000000000E+03  0.47000000000E+01 0.  1.
         -5    1    1    2    0  501  0.77733516429E+02 -0.45619773629E+03 -0.18925917634E+03  0.50000000000E+03  0.47000000000E+01 0. -1.
</event>
<event>
 4    1  0.4933936E-004  0.1000000E+04  0.7546771E-02  0.8684367E-01
         11   -1    0    0    0    0  0.00000000000E+00  0.00000000000E+00  0.50000000000E+03  0.50000000000E+03  0.00000000000E+00 0. -1.
        -11   -1    0    0    0    0 -0.00000000000E+00 -0.00000000000E+00 -0.50000000000E+03  0.50000000000E+03  0.00000000000E+00 0.  1.
          5    1    1    2  501    0  0.35752972647E+03  0.52266695432E+01  0.34946113749E+03  0.50000000000E+03  0.47000000000E+01 0. -1.
         -5    1    1    2    0  501 -0.35752972647E+03 -0.52266695432E+01 -0.34946113749E+03  0.50000000000E+03  0.47000000000E+01 0.  1.
</event>
<event>
 4    1  0.4933936E-004  0.1000000E+04  0.7546771E-02  0.8684367E-01
         11   -1    0    0    0    0  0.00000000000E+00  0.00000000000E+00  0.50000000000E+03  0.50000000000E+03  0.00000000000E+00 0. -1.
        -11   -1    0    0    0    0 -0.00000000000E+00 -0.00000000000E+00 -0.50000000000E+03  0.50000000000E+03  0.00000000000E+00 0.  1.
          5    1    1    2  501    0 -0.18772747448E+03 -0.44167404955E+03  0.14021533183E+03  0.50000000000E+03  0.47000000000E+01 0. -1.
         -5    1    1    2    0  501  0.18772747448E+03  0.44167404955E+03 -0.14021533183E+03  0.50000000000E+03  0.47000000000E+01 0.  1.
</event>
<event>
 4    1  0.4933936E-004  0.1000000E+04  0.7546771E-02  0.8684367E-01
         11   -1    0    0    0    0  0.00000000000E+00  0.00000000000E+00  0.50000000000E+03  0.50000000000E+03  0.00000000000E+00 0.  1.
        -11   -1    0    0    0    0 -0.00000000000E+00 -0.00000000000E+00 -0.50000000000E+03  0.50000000000E+03  0.00000000000E+00 0. -1.
          5    1    1    2  501    0 -0.28021832630E+03 -0.29493502411E+03 -0.29063539212E+03  0.50000000000E+03  0.47000000000E+01 0. -1.
         -5    1    1    2    0  501  0.28021832630E+03  0.29493502411E+03  0.29063539212E+03  0.50000000000E+03  0.47000000000E+01 0.  1.
</event>
<event>
 4    1  0.4933936E-004  0.1000000E+04  0.7546771E-02  0.8684367E-01
         11   -1    0    0    0    0  0.00000000000E+00  0.00000000000E+00  0.50000000000E+03  0.50000000000E+03  0.00000000000E+00 0.  1.
        -11   -1    0    0    0    0 -0.00000000000E+00 -0.00000000000E+00 -0.50000000000E+03  0.50000000000E+03  0.00000000000E+00 0. -1.
          5    1    1    2  501    0  0.22015518944E+03  0.29528527943E+03  0.33810679720E+03  0.50000000000E+03  0.47000000000E+01 0.  1.
         -5    1    1    2    0  501 -0.22015518944E+03 -0.29528527943E+03 -0.33810679720E+03  0.50000000000E+03  0.47000000000E+01 0. -1.
</event>
<event>
 4    1  0.4933936E-004  0.1000000E+04  0.7546771E-02  0.8684367E-01
         11   -1    0    0    0    0  0.00000000000E+00  0.00000000000E+00  0.50000000000E+03  0.50000000000E+03  0.00000000000E+00 0. -1.
        -11   -1    0    0    0    0 -0.00000000000E+00 -0.00000000000E+00 -0.50000000000E+03  0.50000000000E+03  0.00000000000E+00 0.  1.
          5    1    1    2  501    0 -0.39764932682E+03  0.21511258272E+03  0.21349355876E+03  0.50000000000E+03  0.47000000000E+01 0. -1.
         -5    1    1    2    0  501  0.39764932682E+03 -0.21511258272E+03 -0.21349355876E+03  0.50000000000E+03  0.47000000000E+01 0.  1.
</event>
<event>
 4    1  0.4933936E-004  0.1000000E+04  0.7546771E-02  0.8684367E-01
         11   -1    0    0    0    0  0.00000000000E+00  0.00000000000E+00  0.50000000000E+03  0.50000000000E+03  0.00000000000E+00 0. -1.
        -11   -1    0    0    0    0 -0.00000000000E+00 -0.00000000000E+00 -0.50000000000E+03  0.50000000000E+03  0.00000000000E+00 0.  1.
          5    1    1    2  501    0  0.22901723128E+03  0.26679669750E+03  0.35545539802E+03  0.50000000000E+03  0.47000000000E+01 0. -1.
         -5    1    1    2    0  501 -0.22901723128E+03 -0.26679669750E+03 -0.35545539802E+03  0.50000000000E+03  0.47000000000E+01 0.  1.
</event>
<event>
 4    1  0.4933936E-004  0.1000000E+04  0.7546771E-02  0.8684367E-01
         11   -1    0    0    0    0  0.00000000000E+00  0.00000000000E+00  0.50000000000E+03  0.50000000000E+03  0.00000000000E+00 0. -1.
        -11   -1    0    0    0    0 -0.00000000000E+00 -0.00000000000E+00 -0.50000000000E+03  0.50000000000E+03  0.00000000000E+00 0.  1.
          5    1    1    2  501    0  0.34708799144E+02 -0.18571953327E+03  0.46290545927E+03  0.50000000000E+03  0.47000000000E+01 0. -1.
         -5    1    1    2    0  501 -0.34708799144E+02  0.18571953327E+03 -0.46290545927E+03  0.50000000000E+03  0.47000000000E+01 0.  1.
</event>
<event>
 4    1  0.4933936E-004  0.1000000E+04  0.7546771E-02  0.8684367E-01
         11   -1    0    0    0    0  0.00000000000E+00  0.00000000000E+00  0.50000000000E+03  0.50000000000E+03  0.00000000000E+00 0. -1.
        -11   -1    0    0    0    0 -0.00000000000E+00 -0.00000000000E+00 -0.50000000000E+03  0.50000000000E+03  0.00000000000E+00 0.  1.
          5    1    1    2  501    0  0.26354349616E+03  0.33296230811E+03  0.26392960616E+03  0.50000000000E+03  0.47000000000E+01 0. -1.
         -5    1    1    2    0  501 -0.26354349616E+03 -0.33296230811E+03 -0.26392960616E+03  0.50000000000E+03  0.47000000000E+01 0.  1.
</event>
<event>
 4    1  0.4933936E-004  0.1000000E+04  0.7546771E-02  0.8684367E-01
         11   -1    0    0    0    0  0.00000000000E+00  0.00000000000E+00  0.50000000000E+03  0.50000000000E+03  0.00000000000E+00 0. -1.
        -11   -1    0    0    0    0 -0.00000000000E+00 -0.00000000000E+00 -0.50000000000E+03  0.50000000000E+03  0.00000000000E+00 0.  1.
          5    1    1    2  501    0  0.39023623311E+03  0.30263232168E+03  0.78149025840E+02  0.50000000000E+03  0.47000000000E+01 0. -1.
         -5    1    1    2    0  501 -0.39023623311E+03 -0.30263232168E+03 -0.78149025840E+02  0.50000000000E+03  0.47000000000E+01 0.  1.
</event>
<event>
 4    1  0.4933936E-004  0.1000000E+04  0.7546771E-02  0.8684367E-01
         11   -1    0    0    0    0  0.00000000000E+00  0.00000000000E+00  0.50000000000E+03  0.50000000000E+03  0.00000000000E+00 0. -1.
        -11   -1    0    0    0    0 -0.00000000000E+00 -0.00000000000E+00 -0.50000000000E+03  0.50000000000E+03  0.00000000000E+00 0.  1.
          5    1    1    2  501    0  0.17622040464E+03 -0.31488603398E+03  0.34607956396E+03  0.50000000000E+03  0.47000000000E+01 0. -1.
         -5    1    1    2    0  501 -0.17622040464E+03  0.31488603398E+03 -0.34607956396E+03  0.50000000000E+03  0.47000000000E+01 0.  1.
</event>
<event>
 4    1  0.4933936E-004  0.1000000E+04  0.7546771E-02  0.8684367E-01
         11   -1    0    0    0    0  0.00000000000E+00  0.00000000000E+00  0.50000000000E+03  0.50000000000E+03  0.00000000000E+00 0. -1.
        -11   -1    0    0    0    0 -0.00000000000E+00 -0.00000000000E+00 -0.50000000000E+03  0.50000000000E+03  0.00000000000E+00 0.  1.
          5    1    1    2  501    0  0.14993830623E+03 -0.47219927898E+03 -0.67262584398E+02  0.50000000000E+03  0.47000000000E+01 0. -1.
         -5    1    1    2    0  501 -0.14993830623E+03  0.47219927898E+03  0.67262584398E+02  0.50000000000E+03  0.47000000000E+01 0.  1.
</event>
<event>
 4    1  0.4933936E-004  0.1000000E+04  0.7546771E-02  0.8684367E-01
         11   -1    0    0    0    0  0.00000000000E+00  0.00000000000E+00  0.50000000000E+03  0.50000000000E+03  0.00000000000E+00 0. -1.
        -11   -1    0    0    0    0 -0.00000000000E+00 -0.00000000000E+00 -0.50000000000E+03  0.50000000000E+03  0.00000000000E+00 0.  1.
          5    1    1    2  501    0  0.10844496093E+03 -0.20553970790E+03  0.44268615172E+03  0.50000000000E+03  0.47000000000E+01 0. -1.
         -5    1    1    2    0  501 -0.10844496093E+03  0.20553970790E+03 -0.44268615172E+03  0.50000000000E+03  0.47000000000E+01 0.  1.
</event>
<event>
 4    1  0.4933936E-004  0.1000000E+04  0.7546771E-02  0.8684367E-01
         11   -1    0    0    0    0  0.00000000000E+00  0.00000000000E+00  0.50000000000E+03  0.50000000000E+03  0.00000000000E+00 0.  1.
        -11   -1    0    0    0    0 -0.00000000000E+00 -0.00000000000E+00 -0.50000000000E+03  0.50000000000E+03  0.00000000000E+00 0. -1.
          5    1    1    2  501    0 -0.41002931306E+03 -0.51890521030E+02  0.28135608445E+03  0.50000000000E+03  0.47000000000E+01 0.  1.
         -5    1    1    2    0  501  0.41002931306E+03  0.51890521030E+02 -0.28135608445E+03  0.50000000000E+03  0.47000000000E+01 0. -1.
</event>
<event>
 4    1  0.4933936E-004  0.1000000E+04  0.7546771E-02  0.8684367E-01
         11   -1    0    0    0    0  0.00000000000E+00  0.00000000000E+00  0.50000000000E+03  0.50000000000E+03  0.00000000000E+00 0. -1.
        -11   -1    0    0    0    0 -0.00000000000E+00 -0.00000000000E+00 -0.50000000000E+03  0.50000000000E+03  0.00000000000E+00 0.  1.
          5    1    1    2  501    0  0.16065630559E+01 -0.46506043523E+03  0.18355958309E+03  0.50000000000E+03  0.47000000000E+01 0. -1.
         -5    1    1    2    0  501 -0.16065630559E+01  0.46506043523E+03 -0.18355958309E+03  0.50000000000E+03  0.47000000000E+01 0.  1.
</event>
<event>
 4    1  0.4933936E-004  0.1000000E+04  0.7546771E-02  0.8684367E-01
         11   -1    0    0    0    0  0.00000000000E+00  0.00000000000E+00  0.50000000000E+03  0.50000000000E+03  0.00000000000E+00 0. -1.
        -11   -1    0    0    0    0 -0.00000000000E+00 -0.00000000000E+00 -0.50000000000E+03  0.50000000000E+03  0.00000000000E+00 0.  1.
          5    1    1    2  501    0  0.24864136759E+03 -0.21762836333E+03  0.37522430065E+03  0.50000000000E+03  0.47000000000E+01 0. -1.
         -5    1    1    2    0  501 -0.24864136759E+03  0.21762836333E+03 -0.37522430065E+03  0.50000000000E+03  0.47000000000E+01 0.  1.
</event>
<event>
 4    1  0.4933936E-004  0.1000000E+04  0.7546771E-02  0.8684367E-01
         11   -1    0    0    0    0  0.00000000000E+00  0.00000000000E+00  0.50000000000E+03  0.50000000000E+03  0.00000000000E+00 0. -1.
        -11   -1    0    0    0    0 -0.00000000000E+00 -0.00000000000E+00 -0.50000000000E+03  0.50000000000E+03  0.00000000000E+00 0.  1.
          5    1    1    2  501    0 -0.65833587997E+02  0.17887393535E+03  0.46222068749E+03  0.50000000000E+03  0.47000000000E+01 0. -1.
         -5    1    1    2    0  501  0.65833587997E+02 -0.17887393535E+03 -0.46222068749E+03  0.50000000000E+03  0.47000000000E+01 0.  1.
</event>
<event>
 4    1  0.4933936E-004  0.1000000E+04  0.7546771E-02  0.8684367E-01
         11   -1    0    0    0    0  0.00000000000E+00  0.00000000000E+00  0.50000000000E+03  0.50000000000E+03  0.00000000000E+00 0. -1.
        -11   -1    0    0    0    0 -0.00000000000E+00 -0.00000000000E+00 -0.50000000000E+03  0.50000000000E+03  0.00000000000E+00 0.  1.
          5    1    1    2  501    0 -0.22787377031E+03  0.27432824031E+03 -0.35042184774E+03  0.50000000000E+03  0.47000000000E+01 0. -1.
         -5    1    1    2    0  501  0.22787377031E+03 -0.27432824031E+03  0.35042184774E+03  0.50000000000E+03  0.47000000000E+01 0.  1.
</event>
<event>
 4    1  0.4933936E-004  0.1000000E+04  0.7546771E-02  0.8684367E-01
         11   -1    0    0    0    0  0.00000000000E+00  0.00000000000E+00  0.50000000000E+03  0.50000000000E+03  0.00000000000E+00 0. -1.
        -11   -1    0    0    0    0 -0.00000000000E+00 -0.00000000000E+00 -0.50000000000E+03  0.50000000000E+03  0.00000000000E+00 0.  1.
          5    1    1    2  501    0  0.12530220866E+03 -0.22446314060E+03  0.42882812993E+03  0.50000000000E+03  0.47000000000E+01 0. -1.
         -5    1    1    2    0  501 -0.12530220866E+03  0.22446314060E+03 -0.42882812993E+03  0.50000000000E+03  0.47000000000E+01 0.  1.
</event>
<event>
 4    1  0.4933936E-004  0.1000000E+04  0.7546771E-02  0.8684367E-01
         11   -1    0    0    0    0  0.00000000000E+00  0.00000000000E+00  0.50000000000E+03  0.50000000000E+03  0.00000000000E+00 0. -1.
        -11   -1    0    0    0    0 -0.00000000000E+00 -0.00000000000E+00 -0.50000000000E+03  0.50000000000E+03  0.00000000000E+00 0.  1.
          5    1    1    2  501    0  0.36830726224E+03 -0.25900646967E+03  0.21735528347E+03  0.50000000000E+03  0.47000000000E+01 0. -1.
         -5    1    1    2    0  501 -0.36830726224E+03  0.25900646967E+03 -0.21735528347E+03  0.50000000000E+03  0.47000000000E+01 0.  1.
</event>
<event>
 4    1  0.4933936E-004  0.1000000E+04  0.7546771E-02  0.8684367E-01
         11   -1    0    0    0    0  0.00000000000E+00  0.00000000000E+00  0.50000000000E+03  0.50000000000E+03  0.00000000000E+00 0. -1.
        -11   -1    0    0    0    0 -0.00000000000E+00 -0.00000000000E+00 -0.50000000000E+03  0.50000000000E+03  0.00000000000E+00 0.  1.
          5    1    1    2  501    0 -0.20509895825E+03 -0.51375129133E+02  0.45307055017E+03  0.50000000000E+03  0.47000000000E+01 0. -1.
         -5    1    1    2    0  501  0.20509895825E+03  0.51375129133E+02 -0.45307055017E+03  0.50000000000E+03  0.47000000000E+01 0.  1.
</event>
<event>
 4    1  0.4933936E-004  0.1000000E+04  0.7546771E-02  0.8684367E-01
         11   -1    0    0    0    0  0.00000000000E+00  0.00000000000E+00  0.50000000000E+03  0.50000000000E+03  0.00000000000E+00 0. -1.
        -11   -1    0    0    0    0 -0.00000000000E+00 -0.00000000000E+00 -0.50000000000E+03  0.50000000000E+03  0.00000000000E+00 0.  1.
          5    1    1    2  501    0 -0.13287501597E+03  0.98801542443E+02  0.47176307119E+03  0.50000000000E+03  0.47000000000E+01 0. -1.
         -5    1    1    2    0  501  0.13287501597E+03 -0.98801542443E+02 -0.47176307119E+03  0.50000000000E+03  0.47000000000E+01 0.  1.
</event>
<event>
 4    1  0.4933936E-004  0.1000000E+04  0.7546771E-02  0.8684367E-01
         11   -1    0    0    0    0  0.00000000000E+00  0.00000000000E+00  0.50000000000E+03  0.50000000000E+03  0.00000000000E+00 0. -1.
        -11   -1    0    0    0    0 -0.00000000000E+00 -0.00000000000E+00 -0.50000000000E+03  0.50000000000E+03  0.00000000000E+00 0.  1.
          5    1    1    2  501    0  0.15257783905E+01  0.30118004149E+02  0.49906761849E+03  0.50000000000E+03  0.47000000000E+01 0. -1.
         -5    1    1    2    0  501 -0.15257783905E+01 -0.30118004149E+02 -0.49906761849E+03  0.50000000000E+03  0.47000000000E+01 0.  1.
</event>
<event>
 4    1  0.4933936E-004  0.1000000E+04  0.7546771E-02  0.8684367E-01
         11   -1    0    0    0    0  0.00000000000E+00  0.00000000000E+00  0.50000000000E+03  0.50000000000E+03  0.00000000000E+00 0. -1.
        -11   -1    0    0    0    0 -0.00000000000E+00 -0.00000000000E+00 -0.50000000000E+03  0.50000000000E+03  0.00000000000E+00 0.  1.
          5    1    1    2  501    0  0.25367413297E+03 -0.38176144111E+03  0.19971366088E+03  0.50000000000E+03  0.47000000000E+01 0. -1.
         -5    1    1    2    0  501 -0.25367413297E+03  0.38176144111E+03 -0.19971366088E+03  0.50000000000E+03  0.47000000000E+01 0.  1.
</event>
<event>
 4    1  0.4933936E-004  0.1000000E+04  0.7546771E-02  0.8684367E-01
         11   -1    0    0    0    0  0.00000000000E+00  0.00000000000E+00  0.50000000000E+03  0.50000000000E+03  0.00000000000E+00 0. -1.
        -11   -1    0    0    0    0 -0.00000000000E+00 -0.00000000000E+00 -0.50000000000E+03  0.50000000000E+03  0.00000000000E+00 0.  1.
          5    1    1    2  501    0 -0.36057276489E+03 -0.24174681524E+03  0.24803965115E+03  0.50000000000E+03  0.47000000000E+01 0. -1.
         -5    1    1    2    0  501  0.36057276489E+03  0.24174681524E+03 -0.24803965115E+03  0.50000000000E+03  0.47000000000E+01 0.  1.
</event>
<event>
 4    1  0.4933936E-004  0.1000000E+04  0.7546771E-02  0.8684367E-01
         11   -1    0    0    0    0  0.00000000000E+00  0.00000000000E+00  0.50000000000E+03  0.50000000000E+03  0.00000000000E+00 0. -1.
        -11   -1    0    0    0    0 -0.00000000000E+00 -0.00000000000E+00 -0.50000000000E+03  0.50000000000E+03  0.00000000000E+00 0.  1.
          5    1    1    2  501    0  0.16788247674E+03  0.39127368428E+03  0.26210358257E+03  0.50000000000E+03  0.47000000000E+01 0. -1.
         -5    1    1    2    0  501 -0.16788247674E+03 -0.39127368428E+03 -0.26210358257E+03  0.50000000000E+03  0.47000000000E+01 0.  1.
</event>
<event>
 4    1  0.4933936E-004  0.1000000E+04  0.7546771E-02  0.8684367E-01
         11   -1    0    0    0    0  0.00000000000E+00  0.00000000000E+00  0.50000000000E+03  0.50000000000E+03  0.00000000000E+00 0. -1.
        -11   -1    0    0    0    0 -0.00000000000E+00 -0.00000000000E+00 -0.50000000000E+03  0.50000000000E+03  0.00000000000E+00 0.  1.
          5    1    1    2  501    0 -0.29361965496E+03 -0.10767845408E+03  0.39009070580E+03  0.50000000000E+03  0.47000000000E+01 0. -1.
         -5    1    1    2    0  501  0.29361965496E+03  0.10767845408E+03 -0.39009070580E+03  0.50000000000E+03  0.47000000000E+01 0.  1.
</event>
<event>
 4    1  0.4933936E-004  0.1000000E+04  0.7546771E-02  0.8684367E-01
         11   -1    0    0    0    0  0.00000000000E+00  0.00000000000E+00  0.50000000000E+03  0.50000000000E+03  0.00000000000E+00 0. -1.
        -11   -1    0    0    0    0 -0.00000000000E+00 -0.00000000000E+00 -0.50000000000E+03  0.50000000000E+03  0.00000000000E+00 0.  1.
          5    1    1    2  501    0 -0.42853721546E+03  0.24951152922E+03 -0.63857354685E+02  0.50000000000E+03  0.47000000000E+01 0. -1.
         -5    1    1    2    0  501  0.42853721546E+03 -0.24951152922E+03  0.63857354685E+02  0.50000000000E+03  0.47000000000E+01 0.  1.
</event>
<event>
 4    1  0.4933936E-004  0.1000000E+04  0.7546771E-02  0.8684367E-01
         11   -1    0    0    0    0  0.00000000000E+00  0.00000000000E+00  0.50000000000E+03  0.50000000000E+03  0.00000000000E+00 0.  1.
        -11   -1    0    0    0    0 -0.00000000000E+00 -0.00000000000E+00 -0.50000000000E+03  0.50000000000E+03  0.00000000000E+00 0. -1.
          5    1    1    2  501    0  0.36107815411E+03  0.25665734678E+03 -0.23179189581E+03  0.50000000000E+03  0.47000000000E+01 0.  1.
         -5    1    1    2    0  501 -0.36107815411E+03 -0.25665734678E+03  0.23179189581E+03  0.50000000000E+03  0.47000000000E+01 0. -1.
</event>
<event>
 4    1  0.4933936E-004  0.1000000E+04  0.7546771E-02  0.8684367E-01
         11   -1    0    0    0    0  0.00000000000E+00  0.00000000000E+00  0.50000000000E+03  0.50000000000E+03  0.00000000000E+00 0. -1.
        -11   -1    0    0    0    0 -0.00000000000E+00 -0.00000000000E+00 -0.50000000000E+03  0.50000000000E+03  0.00000000000E+00 0.  1.
          5    1    1    2  501    0 -0.16411954611E+02  0.49922351953E+03  0.22009890747E+02  0.50000000000E+03  0.47000000000E+01 0. -1.
         -5    1    1    2    0  501  0.16411954611E+02 -0.49922351953E+03 -0.22009890747E+02  0.50000000000E+03  0.47000000000E+01 0.  1.
</event>
<event>
 4    1  0.4933936E-004  0.1000000E+04  0.7546771E-02  0.8684367E-01
         11   -1    0    0    0    0  0.00000000000E+00  0.00000000000E+00  0.50000000000E+03  0.50000000000E+03  0.00000000000E+00 0. -1.
        -11   -1    0    0    0    0 -0.00000000000E+00 -0.00000000000E+00 -0.50000000000E+03  0.50000000000E+03  0.00000000000E+00 0.  1.
          5    1    1    2  501    0 -0.45661732127E+03  0.12058619151E+03  0.16412648274E+03  0.50000000000E+03  0.47000000000E+01 0. -1.
         -5    1    1    2    0  501  0.45661732127E+03 -0.12058619151E+03 -0.16412648274E+03  0.50000000000E+03  0.47000000000E+01 0.  1.
</event>
<event>
 4    1  0.4933936E-004  0.1000000E+04  0.7546771E-02  0.8684367E-01
         11   -1    0    0    0    0  0.00000000000E+00  0.00000000000E+00  0.50000000000E+03  0.50000000000E+03  0.00000000000E+00 0. -1.
        -11   -1    0    0    0    0 -0.00000000000E+00 -0.00000000000E+00 -0.50000000000E+03  0.50000000000E+03  0.00000000000E+00 0.  1.
          5    1    1    2  501    0  0.22704163019E+03 -0.27524354203E+03  0.35024420157E+03  0.50000000000E+03  0.47000000000E+01 0. -1.
         -5    1    1    2    0  501 -0.22704163019E+03  0.27524354203E+03 -0.35024420157E+03  0.50000000000E+03  0.47000000000E+01 0.  1.
</event>
<event>
 4    1  0.4933936E-004  0.1000000E+04  0.7546771E-02  0.8684367E-01
         11   -1    0    0    0    0  0.00000000000E+00  0.00000000000E+00  0.50000000000E+03  0.50000000000E+03  0.00000000000E+00 0. -1.
        -11   -1    0    0    0    0 -0.00000000000E+00 -0.00000000000E+00 -0.50000000000E+03  0.50000000000E+03  0.00000000000E+00 0.  1.
          5    1    1    2  501    0 -0.34088050403E+03 -0.27852575474E+02  0.36469525088E+03  0.50000000000E+03  0.47000000000E+01 0. -1.
         -5    1    1    2    0  501  0.34088050403E+03  0.27852575474E+02 -0.36469525088E+03  0.50000000000E+03  0.47000000000E+01 0.  1.
</event>
<event>
 4    1  0.4933936E-004  0.1000000E+04  0.7546771E-02  0.8684367E-01
         11   -1    0    0    0    0  0.00000000000E+00  0.00000000000E+00  0.50000000000E+03  0.50000000000E+03  0.00000000000E+00 0. -1.
        -11   -1    0    0    0    0 -0.00000000000E+00 -0.00000000000E+00 -0.50000000000E+03  0.50000000000E+03  0.00000000000E+00 0.  1.
          5    1    1    2  501    0  0.27631815053E+03  0.14991436042E+03  0.38878255391E+03  0.50000000000E+03  0.47000000000E+01 0. -1.
         -5    1    1    2    0  501 -0.27631815053E+03 -0.14991436042E+03 -0.38878255391E+03  0.50000000000E+03  0.47000000000E+01 0.  1.
</event>
<event>
 4    1  0.4933936E-004  0.1000000E+04  0.7546771E-02  0.8684367E-01
         11   -1    0    0    0    0  0.00000000000E+00  0.00000000000E+00  0.50000000000E+03  0.50000000000E+03  0.00000000000E+00 0. -1.
        -11   -1    0    0    0    0 -0.00000000000E+00 -0.00000000000E+00 -0.50000000000E+03  0.50000000000E+03  0.00000000000E+00 0.  1.
          5    1    1    2  501    0  0.98215921074E+02  0.43967660731E+03  0.21683178694E+03  0.50000000000E+03  0.47000000000E+01 0. -1.
         -5    1    1    2    0  501 -0.98215921074E+02 -0.43967660731E+03 -0.21683178694E+03  0.50000000000E+03  0.47000000000E+01 0.  1.
</event>
<event>
 4    1  0.4933936E-004  0.1000000E+04  0.7546771E-02  0.8684367E-01
         11   -1    0    0    0    0  0.00000000000E+00  0.00000000000E+00  0.50000000000E+03  0.50000000000E+03  0.00000000000E+00 0. -1.
        -11   -1    0    0    0    0 -0.00000000000E+00 -0.00000000000E+00 -0.50000000000E+03  0.50000000000E+03  0.00000000000E+00 0.  1.
          5    1    1    2  501    0 -0.48142796182E+03  0.22370542399E+02 -0.13305858264E+03  0.50000000000E+03  0.47000000000E+01 0. -1.
         -5    1    1    2    0  501  0.48142796182E+03 -0.22370542399E+02  0.13305858264E+03  0.50000000000E+03  0.47000000000E+01 0.  1.
</event>
<event>
 4    1  0.4933936E-004  0.1000000E+04  0.7546771E-02  0.8684367E-01
         11   -1    0    0    0    0  0.00000000000E+00  0.00000000000E+00  0.50000000000E+03  0.50000000000E+03  0.00000000000E+00 0. -1.
        -11   -1    0    0    0    0 -0.00000000000E+00 -0.00000000000E+00 -0.50000000000E+03  0.50000000000E+03  0.00000000000E+00 0.  1.
          5    1    1    2  501    0 -0.29606896110E+03 -0.28013510223E+03  0.28956070999E+03  0.50000000000E+03  0.47000000000E+01 0. -1.
         -5    1    1    2    0  501  0.29606896110E+03  0.28013510223E+03 -0.28956070999E+03  0.50000000000E+03  0.47000000000E+01 0.  1.
</event>
<event>
 4    1  0.4933936E-004  0.1000000E+04  0.7546771E-02  0.8684367E-01
         11   -1    0    0    0    0  0.00000000000E+00  0.00000000000E+00  0.50000000000E+03  0.50000000000E+03  0.00000000000E+00 0. -1.
        -11   -1    0    0    0    0 -0.00000000000E+00 -0.00000000000E+00 -0.50000000000E+03  0.50000000000E+03  0.00000000000E+00 0.  1.
          5    1    1    2  501    0  0.43676240790E+03  0.20044972662E+03  0.13797251951E+03  0.50000000000E+03  0.47000000000E+01 0. -1.
         -5    1    1    2    0  501 -0.43676240790E+03 -0.20044972662E+03 -0.13797251951E+03  0.50000000000E+03  0.47000000000E+01 0.  1.
</event>
<event>
 4    1  0.4933936E-004  0.1000000E+04  0.7546771E-02  0.8684367E-01
         11   -1    0    0    0    0  0.00000000000E+00  0.00000000000E+00  0.50000000000E+03  0.50000000000E+03  0.00000000000E+00 0. -1.
        -11   -1    0    0    0    0 -0.00000000000E+00 -0.00000000000E+00 -0.50000000000E+03  0.50000000000E+03  0.00000000000E+00 0.  1.
          5    1    1    2  501    0  0.10591417166E+03 -0.35054720935E+03  0.34040674532E+03  0.50000000000E+03  0.47000000000E+01 0. -1.
         -5    1    1    2    0  501 -0.10591417166E+03  0.35054720935E+03 -0.34040674532E+03  0.50000000000E+03  0.47000000000E+01 0.  1.
</event>
<event>
 4    1  0.4933936E-004  0.1000000E+04  0.7546771E-02  0.8684367E-01
         11   -1    0    0    0    0  0.00000000000E+00  0.00000000000E+00  0.50000000000E+03  0.50000000000E+03  0.00000000000E+00 0. -1.
        -11   -1    0    0    0    0 -0.00000000000E+00 -0.00000000000E+00 -0.50000000000E+03  0.50000000000E+03  0.00000000000E+00 0.  1.
          5    1    1    2  501    0  0.37176154028E+03  0.33370222917E+03 -0.20349187026E+02  0.50000000000E+03  0.47000000000E+01 0. -1.
         -5    1    1    2    0  501 -0.37176154028E+03 -0.33370222917E+03  0.20349187026E+02  0.50000000000E+03  0.47000000000E+01 0.  1.
</event>
<event>
 4    1  0.4933936E-004  0.1000000E+04  0.7546771E-02  0.8684367E-01
         11   -1    0    0    0    0  0.00000000000E+00  0.00000000000E+00  0.50000000000E+03  0.50000000000E+03  0.00000000000E+00 0. -1.
        -11   -1    0    0    0    0 -0.00000000000E+00 -0.00000000000E+00 -0.50000000000E+03  0.50000000000E+03  0.00000000000E+00 0.  1.
          5    1    1    2  501    0  0.48864516872E+02 -0.23740536639E+03 -0.43729722272E+03  0.50000000000E+03  0.47000000000E+01 0.  1.
         -5    1    1    2    0  501 -0.48864516872E+02  0.23740536639E+03  0.43729722272E+03  0.50000000000E+03  0.47000000000E+01 0. -1.
</event>
<event>
 4    1  0.4933936E-004  0.1000000E+04  0.7546771E-02  0.8684367E-01
         11   -1    0    0    0    0  0.00000000000E+00  0.00000000000E+00  0.50000000000E+03  0.50000000000E+03  0.00000000000E+00 0. -1.
        -11   -1    0    0    0    0 -0.00000000000E+00 -0.00000000000E+00 -0.50000000000E+03  0.50000000000E+03  0.00000000000E+00 0.  1.
          5    1    1    2  501    0  0.10537839823E+03 -0.85570654129E+02  0.48119742969E+03  0.50000000000E+03  0.47000000000E+01 0. -1.
         -5    1    1    2    0  501 -0.10537839823E+03  0.85570654129E+02 -0.48119742969E+03  0.50000000000E+03  0.47000000000E+01 0.  1.
</event>
<event>
 4    1  0.4933936E-004  0.1000000E+04  0.7546771E-02  0.8684367E-01
         11   -1    0    0    0    0  0.00000000000E+00  0.00000000000E+00  0.50000000000E+03  0.50000000000E+03  0.00000000000E+00 0. -1.
        -11   -1    0    0    0    0 -0.00000000000E+00 -0.00000000000E+00 -0.50000000000E+03  0.50000000000E+03  0.00000000000E+00 0.  1.
          5    1    1    2  501    0  0.15540535400E+03  0.41441826495E+03  0.23256093314E+03  0.50000000000E+03  0.47000000000E+01 0. -1.
         -5    1    1    2    0  501 -0.15540535400E+03 -0.41441826495E+03 -0.23256093314E+03  0.50000000000E+03  0.47000000000E+01 0.  1.
</event>
<event>
 4    1  0.4933936E-004  0.1000000E+04  0.7546771E-02  0.8684367E-01
         11   -1    0    0    0    0  0.00000000000E+00  0.00000000000E+00  0.50000000000E+03  0.50000000000E+03  0.00000000000E+00 0. -1.
        -11   -1    0    0    0    0 -0.00000000000E+00 -0.00000000000E+00 -0.50000000000E+03  0.50000000000E+03  0.00000000000E+00 0.  1.
          5    1    1    2  501    0 -0.55581626606E+02  0.41474578889E+03  0.27363209494E+03  0.50000000000E+03  0.47000000000E+01 0. -1.
         -5    1    1    2    0  501  0.55581626606E+02 -0.41474578889E+03 -0.27363209494E+03  0.50000000000E+03  0.47000000000E+01 0.  1.
</event>
<event>
 4    1  0.4933936E-004  0.1000000E+04  0.7546771E-02  0.8684367E-01
         11   -1    0    0    0    0  0.00000000000E+00  0.00000000000E+00  0.50000000000E+03  0.50000000000E+03  0.00000000000E+00 0. -1.
        -11   -1    0    0    0    0 -0.00000000000E+00 -0.00000000000E+00 -0.50000000000E+03  0.50000000000E+03  0.00000000000E+00 0.  1.
          5    1    1    2  501    0 -0.22204855687E+03 -0.13119326769E+03  0.42832309640E+03  0.50000000000E+03  0.47000000000E+01 0. -1.
         -5    1    1    2    0  501  0.22204855687E+03  0.13119326769E+03 -0.42832309640E+03  0.50000000000E+03  0.47000000000E+01 0.  1.
</event>
<event>
 4    1  0.4933936E-004  0.1000000E+04  0.7546771E-02  0.8684367E-01
         11   -1    0    0    0    0  0.00000000000E+00  0.00000000000E+00  0.50000000000E+03  0.50000000000E+03  0.00000000000E+00 0.  1.
        -11   -1    0    0    0    0 -0.00000000000E+00 -0.00000000000E+00 -0.50000000000E+03  0.50000000000E+03  0.00000000000E+00 0. -1.
          5    1    1    2  501    0  0.66148120867E+02 -0.44627628140E+03  0.21549899481E+03  0.50000000000E+03  0.47000000000E+01 0.  1.
         -5    1    1    2    0  501 -0.66148120867E+02  0.44627628140E+03 -0.21549899481E+03  0.50000000000E+03  0.47000000000E+01 0. -1.
</event>
<event>
 4    1  0.4933936E-004  0.1000000E+04  0.7546771E-02  0.8684367E-01
         11   -1    0    0    0    0  0.00000000000E+00  0.00000000000E+00  0.50000000000E+03  0.50000000000E+03  0.00000000000E+00 0. -1.
        -11   -1    0    0    0    0 -0.00000000000E+00 -0.00000000000E+00 -0.50000000000E+03  0.50000000000E+03  0.00000000000E+00 0.  1.
          5    1    1    2  501    0  0.11256404255E+03  0.48113301023E+03  0.76277603501E+02  0.50000000000E+03  0.47000000000E+01 0. -1.
         -5    1    1    2    0  501 -0.11256404255E+03 -0.48113301023E+03 -0.76277603501E+02  0.50000000000E+03  0.47000000000E+01 0.  1.
</event>
<event>
 4    1  0.4933936E-004  0.1000000E+04  0.7546771E-02  0.8684367E-01
         11   -1    0    0    0    0  0.00000000000E+00  0.00000000000E+00  0.50000000000E+03  0.50000000000E+03  0.00000000000E+00 0. -1.
        -11   -1    0    0    0    0 -0.00000000000E+00 -0.00000000000E+00 -0.50000000000E+03  0.50000000000E+03  0.00000000000E+00 0.  1.
          5    1    1    2  501    0  0.15590427925E+03  0.11945859608E+03  0.45978409013E+03  0.50000000000E+03  0.47000000000E+01 0. -1.
         -5    1    1    2    0  501 -0.15590427925E+03 -0.11945859608E+03 -0.45978409013E+03  0.50000000000E+03  0.47000000000E+01 0.  1.
</event>
<event>
 4    1  0.4933936E-004  0.1000000E+04  0.7546771E-02  0.8684367E-01
         11   -1    0    0    0    0  0.00000000000E+00  0.00000000000E+00  0.50000000000E+03  0.50000000000E+03  0.00000000000E+00 0. -1.
        -11   -1    0    0    0    0 -0.00000000000E+00 -0.00000000000E+00 -0.50000000000E+03  0.50000000000E+03  0.00000000000E+00 0.  1.
          5    1    1    2  501    0  0.24009096228E+03 -0.16665451725E+03  0.40566058684E+03  0.50000000000E+03  0.47000000000E+01 0. -1.
         -5    1    1    2    0  501 -0.24009096228E+03  0.16665451725E+03 -0.40566058684E+03  0.50000000000E+03  0.47000000000E+01 0.  1.
</event>
<event>
 4    1  0.4933936E-004  0.1000000E+04  0.7546771E-02  0.8684367E-01
         11   -1    0    0    0    0  0.00000000000E+00  0.00000000000E+00  0.50000000000E+03  0.50000000000E+03  0.00000000000E+00 0. -1.
        -11   -1    0    0    0    0 -0.00000000000E+00 -0.00000000000E+00 -0.50000000000E+03  0.50000000000E+03  0.00000000000E+00 0.  1.
          5    1    1    2  501    0 -0.38578257075E+03 -0.24448731638E+03  0.20341010357E+03  0.50000000000E+03  0.47000000000E+01 0. -1.
         -5    1    1    2    0  501  0.38578257075E+03  0.24448731638E+03 -0.20341010357E+03  0.50000000000E+03  0.47000000000E+01 0.  1.
</event>
<event>
 4    1  0.4933936E-004  0.1000000E+04  0.7546771E-02  0.8684367E-01
         11   -1    0    0    0    0  0.00000000000E+00  0.00000000000E+00  0.50000000000E+03  0.50000000000E+03  0.00000000000E+00 0. -1.
        -11   -1    0    0    0    0 -0.00000000000E+00 -0.00000000000E+00 -0.50000000000E+03  0.50000000000E+03  0.00000000000E+00 0.  1.
          5    1    1    2  501    0  0.36256681625E+02 -0.12005049541E+03 -0.48399508426E+03  0.50000000000E+03  0.47000000000E+01 0.  1.
         -5    1    1    2    0  501 -0.36256681625E+02  0.12005049541E+03  0.48399508426E+03  0.50000000000E+03  0.47000000000E+01 0. -1.
</event>
<event>
 4    1  0.4933936E-004  0.1000000E+04  0.7546771E-02  0.8684367E-01
         11   -1    0    0    0    0  0.00000000000E+00  0.00000000000E+00  0.50000000000E+03  0.50000000000E+03  0.00000000000E+00 0. -1.
        -11   -1    0    0    0    0 -0.00000000000E+00 -0.00000000000E+00 -0.50000000000E+03  0.50000000000E+03  0.00000000000E+00 0.  1.
          5    1    1    2  501    0  0.40901444583E+03 -0.94282512921E+02  0.27165400947E+03  0.50000000000E+03  0.47000000000E+01 0. -1.
         -5    1    1    2    0  501 -0.40901444583E+03  0.94282512921E+02 -0.27165400947E+03  0.50000000000E+03  0.47000000000E+01 0.  1.
</event>
<event>
 4    1  0.4933936E-004  0.1000000E+04  0.7546771E-02  0.8684367E-01
         11   -1    0    0    0    0  0.00000000000E+00  0.00000000000E+00  0.50000000000E+03  0.50000000000E+03  0.00000000000E+00 0. -1.
        -11   -1    0    0    0    0 -0.00000000000E+00 -0.00000000000E+00 -0.50000000000E+03  0.50000000000E+03  0.00000000000E+00 0.  1.
          5    1    1    2  501    0  0.41746511650E+03 -0.38914644883E+02  0.27237187248E+03  0.50000000000E+03  0.47000000000E+01 0. -1.
         -5    1    1    2    0  501 -0.41746511650E+03  0.38914644883E+02 -0.27237187248E+03  0.50000000000E+03  0.47000000000E+01 0.  1.
</event>
<event>
 4    1  0.4933936E-004  0.1000000E+04  0.7546771E-02  0.8684367E-01
         11   -1    0    0    0    0  0.00000000000E+00  0.00000000000E+00  0.50000000000E+03  0.50000000000E+03  0.00000000000E+00 0.  1.
        -11   -1    0    0    0    0 -0.00000000000E+00 -0.00000000000E+00 -0.50000000000E+03  0.50000000000E+03  0.00000000000E+00 0. -1.
          5    1    1    2  501    0 -0.13642050091E+03  0.42119952165E+03 -0.23228930215E+03  0.50000000000E+03  0.47000000000E+01 0. -1.
         -5    1    1    2    0  501  0.13642050091E+03 -0.42119952165E+03  0.23228930215E+03  0.50000000000E+03  0.47000000000E+01 0.  1.
</event>
<event>
 4    1  0.4933936E-004  0.1000000E+04  0.7546771E-02  0.8684367E-01
         11   -1    0    0    0    0  0.00000000000E+00  0.00000000000E+00  0.50000000000E+03  0.50000000000E+03  0.00000000000E+00 0. -1.
        -11   -1    0    0    0    0 -0.00000000000E+00 -0.00000000000E+00 -0.50000000000E+03  0.50000000000E+03  0.00000000000E+00 0.  1.
          5    1    1    2  501    0  0.25911845571E+03  0.25819737645E+03  0.34083669214E+03  0.50000000000E+03  0.47000000000E+01 0. -1.
         -5    1    1    2    0  501 -0.25911845571E+03 -0.25819737645E+03 -0.34083669214E+03  0.50000000000E+03  0.47000000000E+01 0.  1.
</event>
<event>
 4    1  0.4933936E-004  0.1000000E+04  0.7546771E-02  0.8684367E-01
         11   -1    0    0    0    0  0.00000000000E+00  0.00000000000E+00  0.50000000000E+03  0.50000000000E+03  0.00000000000E+00 0. -1.
        -11   -1    0    0    0    0 -0.00000000000E+00 -0.00000000000E+00 -0.50000000000E+03  0.50000000000E+03  0.00000000000E+00 0.  1.
          5    1    1    2  501    0  0.15457762044E+03  0.32509508599E+03  0.34698249858E+03  0.50000000000E+03  0.47000000000E+01 0. -1.
         -5    1    1    2    0  501 -0.15457762044E+03 -0.32509508599E+03 -0.34698249858E+03  0.50000000000E+03  0.47000000000E+01 0.  1.
</event>
<event>
 4    1  0.4933936E-004  0.1000000E+04  0.7546771E-02  0.8684367E-01
         11   -1    0    0    0    0  0.00000000000E+00  0.00000000000E+00  0.50000000000E+03  0.50000000000E+03  0.00000000000E+00 0. -1.
        -11   -1    0    0    0    0 -0.00000000000E+00 -0.00000000000E+00 -0.50000000000E+03  0.50000000000E+03  0.00000000000E+00 0.  1.
          5    1    1    2  501    0  0.75118904903E+02 -0.44309312974E+03  0.21909709834E+03  0.50000000000E+03  0.47000000000E+01 0. -1.
         -5    1    1    2    0  501 -0.75118904903E+02  0.44309312974E+03 -0.21909709834E+03  0.50000000000E+03  0.47000000000E+01 0.  1.
</event>
<event>
 4    1  0.4933936E-004  0.1000000E+04  0.7546771E-02  0.8684367E-01
         11   -1    0    0    0    0  0.00000000000E+00  0.00000000000E+00  0.50000000000E+03  0.50000000000E+03  0.00000000000E+00 0. -1.
        -11   -1    0    0    0    0 -0.00000000000E+00 -0.00000000000E+00 -0.50000000000E+03  0.50000000000E+03  0.00000000000E+00 0.  1.
          5    1    1    2  501    0  0.11296632532E+03  0.17073203405E+03  0.45614371846E+03  0.50000000000E+03  0.47000000000E+01 0. -1.
         -5    1    1    2    0  501 -0.11296632532E+03 -0.17073203405E+03 -0.45614371846E+03  0.50000000000E+03  0.47000000000E+01 0.  1.
</event>
<event>
 4    1  0.4933936E-004  0.1000000E+04  0.7546771E-02  0.8684367E-01
         11   -1    0    0    0    0  0.00000000000E+00  0.00000000000E+00  0.50000000000E+03  0.50000000000E+03  0.00000000000E+00 0. -1.
        -11   -1    0    0    0    0 -0.00000000000E+00 -0.00000000000E+00 -0.50000000000E+03  0.50000000000E+03  0.00000000000E+00 0.  1.
          5    1    1    2  501    0 -0.28917546524E+03 -0.69705943641E+02  0.40186632320E+03  0.50000000000E+03  0.47000000000E+01 0. -1.
         -5    1    1    2    0  501  0.28917546524E+03  0.69705943641E+02 -0.40186632320E+03  0.50000000000E+03  0.47000000000E+01 0.  1.
</event>
<event>
 4    1  0.4933936E-004  0.1000000E+04  0.7546771E-02  0.8684367E-01
         11   -1    0    0    0    0  0.00000000000E+00  0.00000000000E+00  0.50000000000E+03  0.50000000000E+03  0.00000000000E+00 0. -1.
        -11   -1    0    0    0    0 -0.00000000000E+00 -0.00000000000E+00 -0.50000000000E+03  0.50000000000E+03  0.00000000000E+00 0.  1.
          5    1    1    2  501    0 -0.48321852285E+03 -0.65753524236E+02  0.11024628442E+03  0.50000000000E+03  0.47000000000E+01 0. -1.
         -5    1    1    2    0  501  0.48321852285E+03  0.65753524236E+02 -0.11024628442E+03  0.50000000000E+03  0.47000000000E+01 0.  1.
</event>
<event>
 4    1  0.4933936E-004  0.1000000E+04  0.7546771E-02  0.8684367E-01
         11   -1    0    0    0    0  0.00000000000E+00  0.00000000000E+00  0.50000000000E+03  0.50000000000E+03  0.00000000000E+00 0. -1.
        -11   -1    0    0    0    0 -0.00000000000E+00 -0.00000000000E+00 -0.50000000000E+03  0.50000000000E+03  0.00000000000E+00 0.  1.
          5    1    1    2  501    0 -0.24574708601E+03 -0.21639190824E+01  0.43540968888E+03  0.50000000000E+03  0.47000000000E+01 0. -1.
         -5    1    1    2    0  501  0.24574708601E+03  0.21639190824E+01 -0.43540968888E+03  0.50000000000E+03  0.47000000000E+01 0.  1.
</event>
<event>
 4    1  0.4933936E-004  0.1000000E+04  0.7546771E-02  0.8684367E-01
         11   -1    0    0    0    0  0.00000000000E+00  0.00000000000E+00  0.50000000000E+03  0.50000000000E+03  0.00000000000E+00 0. -1.
        -11   -1    0    0    0    0 -0.00000000000E+00 -0.00000000000E+00 -0.50000000000E+03  0.50000000000E+03  0.00000000000E+00 0.  1.
          5    1    1    2  501    0  0.11546837586E+03  0.57122423107E+02 -0.48309625641E+03  0.50000000000E+03  0.47000000000E+01 0.  1.
         -5    1    1    2    0  501 -0.11546837586E+03 -0.57122423107E+02  0.48309625641E+03  0.50000000000E+03  0.47000000000E+01 0. -1.
</event>
<event>
 4    1  0.4933936E-004  0.1000000E+04  0.7546771E-02  0.8684367E-01
         11   -1    0    0    0    0  0.00000000000E+00  0.00000000000E+00  0.50000000000E+03  0.50000000000E+03  0.00000000000E+00 0. -1.
        -11   -1    0    0    0    0 -0.00000000000E+00 -0.00000000000E+00 -0.50000000000E+03  0.50000000000E+03  0.00000000000E+00 0.  1.
          5    1    1    2  501    0  0.40360575462E+03  0.24097088406E+03  0.17033302050E+03  0.50000000000E+03  0.47000000000E+01 0. -1.
         -5    1    1    2    0  501 -0.40360575462E+03 -0.24097088406E+03 -0.17033302050E+03  0.50000000000E+03  0.47000000000E+01 0.  1.
</event>
<event>
 4    1  0.4933936E-004  0.1000000E+04  0.7546771E-02  0.8684367E-01
         11   -1    0    0    0    0  0.00000000000E+00  0.00000000000E+00  0.50000000000E+03  0.50000000000E+03  0.00000000000E+00 0. -1.
        -11   -1    0    0    0    0 -0.00000000000E+00 -0.00000000000E+00 -0.50000000000E+03  0.50000000000E+03  0.00000000000E+00 0.  1.
          5    1    1    2  501    0  0.45060788139E+02  0.49785606824E+03  0.93150787444E+01  0.50000000000E+03  0.47000000000E+01 0. -1.
         -5    1    1    2    0  501 -0.45060788139E+02 -0.49785606824E+03 -0.93150787444E+01  0.50000000000E+03  0.47000000000E+01 0.  1.
</event>
<event>
 4    1  0.4933936E-004  0.1000000E+04  0.7546771E-02  0.8684367E-01
         11   -1    0    0    0    0  0.00000000000E+00  0.00000000000E+00  0.50000000000E+03  0.50000000000E+03  0.00000000000E+00 0. -1.
        -11   -1    0    0    0    0 -0.00000000000E+00 -0.00000000000E+00 -0.50000000000E+03  0.50000000000E+03  0.00000000000E+00 0.  1.
          5    1    1    2  501    0 -0.11704885859E+03 -0.24111326871E+03  0.42206855646E+03  0.50000000000E+03  0.47000000000E+01 0. -1.
         -5    1    1    2    0  501  0.11704885859E+03  0.24111326871E+03 -0.42206855646E+03  0.50000000000E+03  0.47000000000E+01 0.  1.
</event>
<event>
 4    1  0.4933936E-004  0.1000000E+04  0.7546771E-02  0.8684367E-01
         11   -1    0    0    0    0  0.00000000000E+00  0.00000000000E+00  0.50000000000E+03  0.50000000000E+03  0.00000000000E+00 0. -1.
        -11   -1    0    0    0    0 -0.00000000000E+00 -0.00000000000E+00 -0.50000000000E+03  0.50000000000E+03  0.00000000000E+00 0.  1.
          5    1    1    2  501    0 -0.30878146148E+03  0.30886455995E+03  0.24338159884E+03  0.50000000000E+03  0.47000000000E+01 0. -1.
         -5    1    1    2    0  501  0.30878146148E+03 -0.30886455995E+03 -0.24338159884E+03  0.50000000000E+03  0.47000000000E+01 0.  1.
</event>
<event>
 4    1  0.4933936E-004  0.1000000E+04  0.7546771E-02  0.8684367E-01
         11   -1    0    0    0    0  0.00000000000E+00  0.00000000000E+00  0.50000000000E+03  0.50000000000E+03  0.00000000000E+00 0.  1.
        -11   -1    0    0    0    0 -0.00000000000E+00 -0.00000000000E+00 -0.50000000000E+03  0.50000000000E+03  0.00000000000E+00 0. -1.
          5    1    1    2  501    0 -0.26712737867E+03 -0.25726592299E+03  0.33531346294E+03  0.50000000000E+03  0.47000000000E+01 0.  1.
         -5    1    1    2    0  501  0.26712737867E+03  0.25726592299E+03 -0.33531346294E+03  0.50000000000E+03  0.47000000000E+01 0. -1.
</event>
<event>
 4    1  0.4933936E-004  0.1000000E+04  0.7546771E-02  0.8684367E-01
         11   -1    0    0    0    0  0.00000000000E+00  0.00000000000E+00  0.50000000000E+03  0.50000000000E+03  0.00000000000E+00 0. -1.
        -11   -1    0    0    0    0 -0.00000000000E+00 -0.00000000000E+00 -0.50000000000E+03  0.50000000000E+03  0.00000000000E+00 0.  1.
          5    1    1    2  501    0 -0.13829951139E+03  0.37031452863E+03  0.30613445581E+03  0.50000000000E+03  0.47000000000E+01 0. -1.
         -5    1    1    2    0  501  0.13829951139E+03 -0.37031452863E+03 -0.30613445581E+03  0.50000000000E+03  0.47000000000E+01 0.  1.
</event>
<event>
 4    1  0.4933936E-004  0.1000000E+04  0.7546771E-02  0.8684367E-01
         11   -1    0    0    0    0  0.00000000000E+00  0.00000000000E+00  0.50000000000E+03  0.50000000000E+03  0.00000000000E+00 0. -1.
        -11   -1    0    0    0    0 -0.00000000000E+00 -0.00000000000E+00 -0.50000000000E+03  0.50000000000E+03  0.00000000000E+00 0.  1.
          5    1    1    2  501    0 -0.21297230479E+02 -0.49943244454E+03 -0.95692900057E+01  0.50000000000E+03  0.47000000000E+01 0. -1.
         -5    1    1    2    0  501  0.21297230479E+02  0.49943244454E+03  0.95692900057E+01  0.50000000000E+03  0.47000000000E+01 0.  1.
</event>
<event>
 4    1  0.4933936E-004  0.1000000E+04  0.7546771E-02  0.8684367E-01
         11   -1    0    0    0    0  0.00000000000E+00  0.00000000000E+00  0.50000000000E+03  0.50000000000E+03  0.00000000000E+00 0.  1.
        -11   -1    0    0    0    0 -0.00000000000E+00 -0.00000000000E+00 -0.50000000000E+03  0.50000000000E+03  0.00000000000E+00 0. -1.
          5    1    1    2  501    0  0.38836396583E+03  0.30667562924E+03  0.71424074925E+02  0.50000000000E+03  0.47000000000E+01 0.  1.
         -5    1    1    2    0  501 -0.38836396583E+03 -0.30667562924E+03 -0.71424074925E+02  0.50000000000E+03  0.47000000000E+01 0. -1.
</event>
<event>
 4    1  0.4933936E-004  0.1000000E+04  0.7546771E-02  0.8684367E-01
         11   -1    0    0    0    0  0.00000000000E+00  0.00000000000E+00  0.50000000000E+03  0.50000000000E+03  0.00000000000E+00 0. -1.
        -11   -1    0    0    0    0 -0.00000000000E+00 -0.00000000000E+00 -0.50000000000E+03  0.50000000000E+03  0.00000000000E+00 0.  1.
          5    1    1    2  501    0  0.82589210514E+02 -0.33203289727E+03  0.36456972919E+03  0.50000000000E+03  0.47000000000E+01 0. -1.
         -5    1    1    2    0  501 -0.82589210514E+02  0.33203289727E+03 -0.36456972919E+03  0.50000000000E+03  0.47000000000E+01 0.  1.
</event>
<event>
 4    1  0.4933936E-004  0.1000000E+04  0.7546771E-02  0.8684367E-01
         11   -1    0    0    0    0  0.00000000000E+00  0.00000000000E+00  0.50000000000E+03  0.50000000000E+03  0.00000000000E+00 0. -1.
        -11   -1    0    0    0    0 -0.00000000000E+00 -0.00000000000E+00 -0.50000000000E+03  0.50000000000E+03  0.00000000000E+00 0.  1.
          5    1    1    2  501    0 -0.36098351483E+03  0.34274913647E+03 -0.46817106565E+02  0.50000000000E+03  0.47000000000E+01 0. -1.
         -5    1    1    2    0  501  0.36098351483E+03 -0.34274913647E+03  0.46817106565E+02  0.50000000000E+03  0.47000000000E+01 0.  1.
</event>
<event>
 4    1  0.4933936E-004  0.1000000E+04  0.7546771E-02  0.8684367E-01
         11   -1    0    0    0    0  0.00000000000E+00  0.00000000000E+00  0.50000000000E+03  0.50000000000E+03  0.00000000000E+00 0. -1.
        -11   -1    0    0    0    0 -0.00000000000E+00 -0.00000000000E+00 -0.50000000000E+03  0.50000000000E+03  0.00000000000E+00 0.  1.
          5    1    1    2  501    0  0.20351844404E+02  0.15975201716E+03  0.47333181326E+03  0.50000000000E+03  0.47000000000E+01 0. -1.
         -5    1    1    2    0  501 -0.20351844404E+02 -0.15975201716E+03 -0.47333181326E+03  0.50000000000E+03  0.47000000000E+01 0.  1.
</event>
<event>
 4    1  0.4933936E-004  0.1000000E+04  0.7546771E-02  0.8684367E-01
         11   -1    0    0    0    0  0.00000000000E+00  0.00000000000E+00  0.50000000000E+03  0.50000000000E+03  0.00000000000E+00 0. -1.
        -11   -1    0    0    0    0 -0.00000000000E+00 -0.00000000000E+00 -0.50000000000E+03  0.50000000000E+03  0.00000000000E+00 0.  1.
          5    1    1    2  501    0 -0.24757600673E+03  0.40436467583E+03  0.15866076967E+03  0.50000000000E+03  0.47000000000E+01 0. -1.
         -5    1    1    2    0  501  0.24757600673E+03 -0.40436467583E+03 -0.15866076967E+03  0.50000000000E+03  0.47000000000E+01 0.  1.
</event>
<event>
 4    1  0.4933936E-004  0.1000000E+04  0.7546771E-02  0.8684367E-01
         11   -1    0    0    0    0  0.00000000000E+00  0.00000000000E+00  0.50000000000E+03  0.50000000000E+03  0.00000000000E+00 0.  1.
        -11   -1    0    0    0    0 -0.00000000000E+00 -0.00000000000E+00 -0.50000000000E+03  0.50000000000E+03  0.00000000000E+00 0. -1.
          5    1    1    2  501    0 -0.23684664717E+03 -0.20460403152E+03  0.38989583995E+03  0.50000000000E+03  0.47000000000E+01 0.  1.
         -5    1    1    2    0  501  0.23684664717E+03  0.20460403152E+03 -0.38989583995E+03  0.50000000000E+03  0.47000000000E+01 0. -1.
</event>
<event>
 4    1  0.4933936E-004  0.1000000E+04  0.7546771E-02  0.8684367E-01
         11   -1    0    0    0    0  0.00000000000E+00  0.00000000000E+00  0.50000000000E+03  0.50000000000E+03  0.00000000000E+00 0. -1.
        -11   -1    0    0    0    0 -0.00000000000E+00 -0.00000000000E+00 -0.50000000000E+03  0.50000000000E+03  0.00000000000E+00 0.  1.
          5    1    1    2  501    0  0.35397732844E+03 -0.23777232030E+03  0.26104077200E+03  0.50000000000E+03  0.47000000000E+01 0. -1.
         -5    1    1    2    0  501 -0.35397732844E+03  0.23777232030E+03 -0.26104077200E+03  0.50000000000E+03  0.47000000000E+01 0.  1.
</event>
<event>
 4    1  0.4933936E-004  0.1000000E+04  0.7546771E-02  0.8684367E-01
         11   -1    0    0    0    0  0.00000000000E+00  0.00000000000E+00  0.50000000000E+03  0.50000000000E+03  0.00000000000E+00 0. -1.
        -11   -1    0    0    0    0 -0.00000000000E+00 -0.00000000000E+00 -0.50000000000E+03  0.50000000000E+03  0.00000000000E+00 0.  1.
          5    1    1    2  501    0  0.37465627763E+03  0.32271447867E+03  0.73932055915E+02  0.50000000000E+03  0.47000000000E+01 0. -1.
         -5    1    1    2    0  501 -0.37465627763E+03 -0.32271447867E+03 -0.73932055915E+02  0.50000000000E+03  0.47000000000E+01 0.  1.
</event>
<event>
 4    1  0.4933936E-004  0.1000000E+04  0.7546771E-02  0.8684367E-01
         11   -1    0    0    0    0  0.00000000000E+00  0.00000000000E+00  0.50000000000E+03  0.50000000000E+03  0.00000000000E+00 0. -1.
        -11   -1    0    0    0    0 -0.00000000000E+00 -0.00000000000E+00 -0.50000000000E+03  0.50000000000E+03  0.00000000000E+00 0.  1.
          5    1    1    2  501    0 -0.15189855370E+03 -0.47251368024E+03 -0.60295616476E+02  0.50000000000E+03  0.47000000000E+01 0. -1.
         -5    1    1    2    0  501  0.15189855370E+03  0.47251368024E+03  0.60295616476E+02  0.50000000000E+03  0.47000000000E+01 0.  1.
</event>
<event>
 4    1  0.4933936E-004  0.1000000E+04  0.7546771E-02  0.8684367E-01
         11   -1    0    0    0    0  0.00000000000E+00  0.00000000000E+00  0.50000000000E+03  0.50000000000E+03  0.00000000000E+00 0. -1.
        -11   -1    0    0    0    0 -0.00000000000E+00 -0.00000000000E+00 -0.50000000000E+03  0.50000000000E+03  0.00000000000E+00 0.  1.
          5    1    1    2  501    0 -0.43762221501E+03  0.11222459531E+03  0.21417363781E+03  0.50000000000E+03  0.47000000000E+01 0. -1.
         -5    1    1    2    0  501  0.43762221501E+03 -0.11222459531E+03 -0.21417363781E+03  0.50000000000E+03  0.47000000000E+01 0.  1.
</event>
<event>
 4    1  0.4933936E-004  0.1000000E+04  0.7546771E-02  0.8684367E-01
         11   -1    0    0    0    0  0.00000000000E+00  0.00000000000E+00  0.50000000000E+03  0.50000000000E+03  0.00000000000E+00 0. -1.
        -11   -1    0    0    0    0 -0.00000000000E+00 -0.00000000000E+00 -0.50000000000E+03  0.50000000000E+03  0.00000000000E+00 0.  1.
          5    1    1    2  501    0  0.12501542380E+03 -0.37685828980E+03  0.30385339099E+03  0.50000000000E+03  0.47000000000E+01 0. -1.
         -5    1    1    2    0  501 -0.12501542380E+03  0.37685828980E+03 -0.30385339099E+03  0.50000000000E+03  0.47000000000E+01 0.  1.
</event>
<event>
 4    1  0.4933936E-004  0.1000000E+04  0.7546771E-02  0.8684367E-01
         11   -1    0    0    0    0  0.00000000000E+00  0.00000000000E+00  0.50000000000E+03  0.50000000000E+03  0.00000000000E+00 0. -1.
        -11   -1    0    0    0    0 -0.00000000000E+00 -0.00000000000E+00 -0.50000000000E+03  0.50000000000E+03  0.00000000000E+00 0.  1.
          5    1    1    2  501    0 -0.92767918469E+02  0.53986606326E+02  0.48832107229E+03  0.50000000000E+03  0.47000000000E+01 0. -1.
         -5    1    1    2    0  501  0.92767918469E+02 -0.53986606326E+02 -0.48832107229E+03  0.50000000000E+03  0.47000000000E+01 0.  1.
</event>
<event>
 4    1  0.4933936E-004  0.1000000E+04  0.7546771E-02  0.8684367E-01
         11   -1    0    0    0    0  0.00000000000E+00  0.00000000000E+00  0.50000000000E+03  0.50000000000E+03  0.00000000000E+00 0. -1.
        -11   -1    0    0    0    0 -0.00000000000E+00 -0.00000000000E+00 -0.50000000000E+03  0.50000000000E+03  0.00000000000E+00 0.  1.
          5    1    1    2  501    0  0.12631213106E+03  0.15352669674E+03  0.45875124952E+03  0.50000000000E+03  0.47000000000E+01 0. -1.
         -5    1    1    2    0  501 -0.12631213106E+03 -0.15352669674E+03 -0.45875124952E+03  0.50000000000E+03  0.47000000000E+01 0.  1.
</event>
<event>
 4    1  0.4933936E-004  0.1000000E+04  0.7546771E-02  0.8684367E-01
         11   -1    0    0    0    0  0.00000000000E+00  0.00000000000E+00  0.50000000000E+03  0.50000000000E+03  0.00000000000E+00 0. -1.
        -11   -1    0    0    0    0 -0.00000000000E+00 -0.00000000000E+00 -0.50000000000E+03  0.50000000000E+03  0.00000000000E+00 0.  1.
          5    1    1    2  501    0  0.27606114318E+03 -0.31943193544E+03  0.26782717160E+03  0.50000000000E+03  0.47000000000E+01 0. -1.
         -5    1    1    2    0  501 -0.27606114318E+03  0.31943193544E+03 -0.26782717160E+03  0.50000000000E+03  0.47000000000E+01 0.  1.
</event>
<event>
 4    1  0.4933936E-004  0.1000000E+04  0.7546771E-02  0.8684367E-01
         11   -1    0    0    0    0  0.00000000000E+00  0.00000000000E+00  0.50000000000E+03  0.50000000000E+03  0.00000000000E+00 0. -1.
        -11   -1    0    0    0    0 -0.00000000000E+00 -0.00000000000E+00 -0.50000000000E+03  0.50000000000E+03  0.00000000000E+00 0.  1.
          5    1    1    2  501    0 -0.25633349324E+03 -0.41513399866E+02  0.42725599806E+03  0.50000000000E+03  0.47000000000E+01 0. -1.
         -5    1    1    2    0  501  0.25633349324E+03  0.41513399866E+02 -0.42725599806E+03  0.50000000000E+03  0.47000000000E+01 0.  1.
</event>
<event>
 4    1  0.4933936E-004  0.1000000E+04  0.7546771E-02  0.8684367E-01
         11   -1    0    0    0    0  0.00000000000E+00  0.00000000000E+00  0.50000000000E+03  0.50000000000E+03  0.00000000000E+00 0.  1.
        -11   -1    0    0    0    0 -0.00000000000E+00 -0.00000000000E+00 -0.50000000000E+03  0.50000000000E+03  0.00000000000E+00 0. -1.
          5    1    1    2  501    0  0.35613307490E+03 -0.24442611037E+03  0.25179956222E+03  0.50000000000E+03  0.47000000000E+01 0.  1.
         -5    1    1    2    0  501 -0.35613307490E+03  0.24442611037E+03 -0.25179956222E+03  0.50000000000E+03  0.47000000000E+01 0. -1.
</event>
<event>
 4    1  0.4933936E-004  0.1000000E+04  0.7546771E-02  0.8684367E-01
         11   -1    0    0    0    0  0.00000000000E+00  0.00000000000E+00  0.50000000000E+03  0.50000000000E+03  0.00000000000E+00 0. -1.
        -11   -1    0    0    0    0 -0.00000000000E+00 -0.00000000000E+00 -0.50000000000E+03  0.50000000000E+03  0.00000000000E+00 0.  1.
          5    1    1    2  501    0 -0.47903067462E+03 -0.14177046758E+03  0.20215273871E+02  0.50000000000E+03  0.47000000000E+01 0. -1.
         -5    1    1    2    0  501  0.47903067462E+03  0.14177046758E+03 -0.20215273871E+02  0.50000000000E+03  0.47000000000E+01 0.  1.
</event>
<event>
 4    1  0.4933936E-004  0.1000000E+04  0.7546771E-02  0.8684367E-01
         11   -1    0    0    0    0  0.00000000000E+00  0.00000000000E+00  0.50000000000E+03  0.50000000000E+03  0.00000000000E+00 0. -1.
        -11   -1    0    0    0    0 -0.00000000000E+00 -0.00000000000E+00 -0.50000000000E+03  0.50000000000E+03  0.00000000000E+00 0.  1.
          5    1    1    2  501    0  0.18851950844E+03 -0.16537287133E+03  0.43253915241E+03  0.50000000000E+03  0.47000000000E+01 0. -1.
         -5    1    1    2    0  501 -0.18851950844E+03  0.16537287133E+03 -0.43253915241E+03  0.50000000000E+03  0.47000000000E+01 0.  1.
</event>
<event>
 4    1  0.4933936E-004  0.1000000E+04  0.7546771E-02  0.8684367E-01
         11   -1    0    0    0    0  0.00000000000E+00  0.00000000000E+00  0.50000000000E+03  0.50000000000E+03  0.00000000000E+00 0.  1.
        -11   -1    0    0    0    0 -0.00000000000E+00 -0.00000000000E+00 -0.50000000000E+03  0.50000000000E+03  0.00000000000E+00 0. -1.
          5    1    1    2  501    0  0.20668947941E+02  0.16791133732E+03 -0.47048537426E+03  0.50000000000E+03  0.47000000000E+01 0. -1.
         -5    1    1    2    0  501 -0.20668947941E+02 -0.16791133732E+03  0.47048537426E+03  0.50000000000E+03  0.47000000000E+01 0.  1.
</event>
<event>
 4    1  0.4933936E-004  0.1000000E+04  0.7546771E-02  0.8684367E-01
         11   -1    0    0    0    0  0.00000000000E+00  0.00000000000E+00  0.50000000000E+03  0.50000000000E+03  0.00000000000E+00 0. -1.
        -11   -1    0    0    0    0 -0.00000000000E+00 -0.00000000000E+00 -0.50000000000E+03  0.50000000000E+03  0.00000000000E+00 0.  1.
          5    1    1    2  501    0 -0.15283086133E+03  0.96480893744E+02  0.46616743233E+03  0.50000000000E+03  0.47000000000E+01 0. -1.
         -5    1    1    2    0  501  0.15283086133E+03 -0.96480893744E+02 -0.46616743233E+03  0.50000000000E+03  0.47000000000E+01 0.  1.
</event>
<event>
 4    1  0.4933936E-004  0.1000000E+04  0.7546771E-02  0.8684367E-01
         11   -1    0    0    0    0  0.00000000000E+00  0.00000000000E+00  0.50000000000E+03  0.50000000000E+03  0.00000000000E+00 0. -1.
        -11   -1    0    0    0    0 -0.00000000000E+00 -0.00000000000E+00 -0.50000000000E+03  0.50000000000E+03  0.00000000000E+00 0.  1.
          5    1    1    2  501    0  0.25084933250E+02 -0.33834630699E+03  0.36724710029E+03  0.50000000000E+03  0.47000000000E+01 0. -1.
         -5    1    1    2    0  501 -0.25084933250E+02  0.33834630699E+03 -0.36724710029E+03  0.50000000000E+03  0.47000000000E+01 0.  1.
</event>
<event>
 4    1  0.4933936E-004  0.1000000E+04  0.7546771E-02  0.8684367E-01
         11   -1    0    0    0    0  0.00000000000E+00  0.00000000000E+00  0.50000000000E+03  0.50000000000E+03  0.00000000000E+00 0. -1.
        -11   -1    0    0    0    0 -0.00000000000E+00 -0.00000000000E+00 -0.50000000000E+03  0.50000000000E+03  0.00000000000E+00 0.  1.
          5    1    1    2  501    0  0.88992039534E+02 -0.48068650746E+03  0.10487520413E+03  0.50000000000E+03  0.47000000000E+01 0. -1.
         -5    1    1    2    0  501 -0.88992039534E+02  0.48068650746E+03 -0.10487520413E+03  0.50000000000E+03  0.47000000000E+01 0.  1.
</event>
<event>
 4    1  0.4933936E-004  0.1000000E+04  0.7546771E-02  0.8684367E-01
         11   -1    0    0    0    0  0.00000000000E+00  0.00000000000E+00  0.50000000000E+03  0.50000000000E+03  0.00000000000E+00 0. -1.
        -11   -1    0    0    0    0 -0.00000000000E+00 -0.00000000000E+00 -0.50000000000E+03  0.50000000000E+03  0.00000000000E+00 0.  1.
          5    1    1    2  501    0 -0.91910383981E+02 -0.28775103476E+03  0.39840900255E+03  0.50000000000E+03  0.47000000000E+01 0. -1.
         -5    1    1    2    0  501  0.91910383981E+02  0.28775103476E+03 -0.39840900255E+03  0.50000000000E+03  0.47000000000E+01 0.  1.
</event>
<event>
 4    1  0.4933936E-004  0.1000000E+04  0.7546771E-02  0.8684367E-01
         11   -1    0    0    0    0  0.00000000000E+00  0.00000000000E+00  0.50000000000E+03  0.50000000000E+03  0.00000000000E+00 0. -1.
        -11   -1    0    0    0    0 -0.00000000000E+00 -0.00000000000E+00 -0.50000000000E+03  0.50000000000E+03  0.00000000000E+00 0.  1.
          5    1    1    2  501    0  0.40783328185E+03 -0.26216626651E+03  0.12214242883E+03  0.50000000000E+03  0.47000000000E+01 0. -1.
         -5    1    1    2    0  501 -0.40783328185E+03  0.26216626651E+03 -0.12214242883E+03  0.50000000000E+03  0.47000000000E+01 0.  1.
</event>
<event>
 4    1  0.4933936E-004  0.1000000E+04  0.7546771E-02  0.8684367E-01
         11   -1    0    0    0    0  0.00000000000E+00  0.00000000000E+00  0.50000000000E+03  0.50000000000E+03  0.00000000000E+00 0. -1.
        -11   -1    0    0    0    0 -0.00000000000E+00 -0.00000000000E+00 -0.50000000000E+03  0.50000000000E+03  0.00000000000E+00 0.  1.
          5    1    1    2  501    0 -0.37592155874E+03 -0.15750307412E+03  0.28957498738E+03  0.50000000000E+03  0.47000000000E+01 0. -1.
         -5    1    1    2    0  501  0.37592155874E+03  0.15750307412E+03 -0.28957498738E+03  0.50000000000E+03  0.47000000000E+01 0.  1.
</event>
<event>
 4    1  0.4933936E-004  0.1000000E+04  0.7546771E-02  0.8684367E-01
         11   -1    0    0    0    0  0.00000000000E+00  0.00000000000E+00  0.50000000000E+03  0.50000000000E+03  0.00000000000E+00 0. -1.
        -11   -1    0    0    0    0 -0.00000000000E+00 -0.00000000000E+00 -0.50000000000E+03  0.50000000000E+03  0.00000000000E+00 0.  1.
          5    1    1    2  501    0 -0.11404590235E+03 -0.44052832285E+03  0.20713821212E+03  0.50000000000E+03  0.47000000000E+01 0. -1.
         -5    1    1    2    0  501  0.11404590235E+03  0.44052832285E+03 -0.20713821212E+03  0.50000000000E+03  0.47000000000E+01 0.  1.
</event>
<event>
 4    1  0.4933936E-004  0.1000000E+04  0.7546771E-02  0.8684367E-01
         11   -1    0    0    0    0  0.00000000000E+00  0.00000000000E+00  0.50000000000E+03  0.50000000000E+03  0.00000000000E+00 0. -1.
        -11   -1    0    0    0    0 -0.00000000000E+00 -0.00000000000E+00 -0.50000000000E+03  0.50000000000E+03  0.00000000000E+00 0.  1.
          5    1    1    2  501    0 -0.43448459027E+03  0.31959786449E+02 -0.24531535392E+03  0.50000000000E+03  0.47000000000E+01 0. -1.
         -5    1    1    2    0  501  0.43448459027E+03 -0.31959786449E+02  0.24531535392E+03  0.50000000000E+03  0.47000000000E+01 0.  1.
</event>
<event>
 4    1  0.4933936E-004  0.1000000E+04  0.7546771E-02  0.8684367E-01
         11   -1    0    0    0    0  0.00000000000E+00  0.00000000000E+00  0.50000000000E+03  0.50000000000E+03  0.00000000000E+00 0. -1.
        -11   -1    0    0    0    0 -0.00000000000E+00 -0.00000000000E+00 -0.50000000000E+03  0.50000000000E+03  0.00000000000E+00 0.  1.
          5    1    1    2  501    0 -0.74040076569E+02 -0.28173975763E+03  0.40634798638E+03  0.50000000000E+03  0.47000000000E+01 0. -1.
         -5    1    1    2    0  501  0.74040076569E+02  0.28173975763E+03 -0.40634798638E+03  0.50000000000E+03  0.47000000000E+01 0.  1.
</event>
<event>
 4    1  0.4933936E-004  0.1000000E+04  0.7546771E-02  0.8684367E-01
         11   -1    0    0    0    0  0.00000000000E+00  0.00000000000E+00  0.50000000000E+03  0.50000000000E+03  0.00000000000E+00 0. -1.
        -11   -1    0    0    0    0 -0.00000000000E+00 -0.00000000000E+00 -0.50000000000E+03  0.50000000000E+03  0.00000000000E+00 0.  1.
          5    1    1    2  501    0 -0.32770965785E+03  0.27696334931E+03  0.25666241114E+03  0.50000000000E+03  0.47000000000E+01 0. -1.
         -5    1    1    2    0  501  0.32770965785E+03 -0.27696334931E+03 -0.25666241114E+03  0.50000000000E+03  0.47000000000E+01 0.  1.
</event>
<event>
 4    1  0.4933936E-004  0.1000000E+04  0.7546771E-02  0.8684367E-01
         11   -1    0    0    0    0  0.00000000000E+00  0.00000000000E+00  0.50000000000E+03  0.50000000000E+03  0.00000000000E+00 0. -1.
        -11   -1    0    0    0    0 -0.00000000000E+00 -0.00000000000E+00 -0.50000000000E+03  0.50000000000E+03  0.00000000000E+00 0.  1.
          5    1    1    2  501    0 -0.37201074266E+03  0.33351764135E+03  0.18759004580E+02  0.50000000000E+03  0.47000000000E+01 0. -1.
         -5    1    1    2    0  501  0.37201074266E+03 -0.33351764135E+03 -0.18759004580E+02  0.50000000000E+03  0.47000000000E+01 0.  1.
</event>
<event>
 4    1  0.4933936E-004  0.1000000E+04  0.7546771E-02  0.8684367E-01
         11   -1    0    0    0    0  0.00000000000E+00  0.00000000000E+00  0.50000000000E+03  0.50000000000E+03  0.00000000000E+00 0. -1.
        -11   -1    0    0    0    0 -0.00000000000E+00 -0.00000000000E+00 -0.50000000000E+03  0.50000000000E+03  0.00000000000E+00 0.  1.
          5    1    1    2  501    0 -0.43867479389E+03  0.18227531390E+03  0.15594244177E+03  0.50000000000E+03  0.47000000000E+01 0. -1.
         -5    1    1    2    0  501  0.43867479389E+03 -0.18227531390E+03 -0.15594244177E+03  0.50000000000E+03  0.47000000000E+01 0.  1.
</event>
<event>
 4    1  0.4933936E-004  0.1000000E+04  0.7546771E-02  0.8684367E-01
         11   -1    0    0    0    0  0.00000000000E+00  0.00000000000E+00  0.50000000000E+03  0.50000000000E+03  0.00000000000E+00 0.  1.
        -11   -1    0    0    0    0 -0.00000000000E+00 -0.00000000000E+00 -0.50000000000E+03  0.50000000000E+03  0.00000000000E+00 0. -1.
          5    1    1    2  501    0  0.27809086938E+02 -0.33761779747E+03  0.36772107298E+03  0.50000000000E+03  0.47000000000E+01 0.  1.
         -5    1    1    2    0  501 -0.27809086938E+02  0.33761779747E+03 -0.36772107298E+03  0.50000000000E+03  0.47000000000E+01 0. -1.
</event>
<event>
 4    1  0.4933936E-004  0.1000000E+04  0.7546771E-02  0.8684367E-01
         11   -1    0    0    0    0  0.00000000000E+00  0.00000000000E+00  0.50000000000E+03  0.50000000000E+03  0.00000000000E+00 0.  1.
        -11   -1    0    0    0    0 -0.00000000000E+00 -0.00000000000E+00 -0.50000000000E+03  0.50000000000E+03  0.00000000000E+00 0. -1.
          5    1    1    2  501    0 -0.25534467550E+03 -0.40782493827E+03  0.13585222274E+03  0.50000000000E+03  0.47000000000E+01 0.  1.
         -5    1    1    2    0  501  0.25534467550E+03  0.40782493827E+03 -0.13585222274E+03  0.50000000000E+03  0.47000000000E+01 0. -1.
</event>
<event>
 4    1  0.4933936E-004  0.1000000E+04  0.7546771E-02  0.8684367E-01
         11   -1    0    0    0    0  0.00000000000E+00  0.00000000000E+00  0.50000000000E+03  0.50000000000E+03  0.00000000000E+00 0. -1.
        -11   -1    0    0    0    0 -0.00000000000E+00 -0.00000000000E+00 -0.50000000000E+03  0.50000000000E+03  0.00000000000E+00 0.  1.
          5    1    1    2  501    0  0.37531286663E+03  0.31611317601E+03  0.95867732308E+02  0.50000000000E+03  0.47000000000E+01 0. -1.
         -5    1    1    2    0  501 -0.37531286663E+03 -0.31611317601E+03 -0.95867732308E+02  0.50000000000E+03  0.47000000000E+01 0.  1.
</event>
<event>
 4    1  0.4933936E-004  0.1000000E+04  0.7546771E-02  0.8684367E-01
         11   -1    0    0    0    0  0.00000000000E+00  0.00000000000E+00  0.50000000000E+03  0.50000000000E+03  0.00000000000E+00 0. -1.
        -11   -1    0    0    0    0 -0.00000000000E+00 -0.00000000000E+00 -0.50000000000E+03  0.50000000000E+03  0.00000000000E+00 0.  1.
          5    1    1    2  501    0  0.11151589277E+03 -0.16645741254E+03  0.45807646247E+03  0.50000000000E+03  0.47000000000E+01 0. -1.
         -5    1    1    2    0  501 -0.11151589277E+03  0.16645741254E+03 -0.45807646247E+03  0.50000000000E+03  0.47000000000E+01 0.  1.
</event>
<event>
 4    1  0.4933936E-004  0.1000000E+04  0.7546771E-02  0.8684367E-01
         11   -1    0    0    0    0  0.00000000000E+00  0.00000000000E+00  0.50000000000E+03  0.50000000000E+03  0.00000000000E+00 0. -1.
        -11   -1    0    0    0    0 -0.00000000000E+00 -0.00000000000E+00 -0.50000000000E+03  0.50000000000E+03  0.00000000000E+00 0.  1.
          5    1    1    2  501    0  0.14419367972E+03  0.47582295218E+03 -0.52712530865E+02  0.50000000000E+03  0.47000000000E+01 0. -1.
         -5    1    1    2    0  501 -0.14419367972E+03 -0.47582295218E+03  0.52712530865E+02  0.50000000000E+03  0.47000000000E+01 0.  1.
</event>
