<event>
 4    1  0.7509957E-002  0.6000000E+02  0.7546771E-02  0.1259629E+00
         11   -1    0    0    0    0  0.00000000000E+00  0.00000000000E+00  0.30000000000E+02  0.30000000000E+02  0.00000000000E+00 0.  1.
        -11   -1    0    0    0    0 -0.00000000000E+00 -0.00000000000E+00 -0.30000000000E+02  0.30000000000E+02  0.00000000000E+00 0. -1.
          5    1    1    2  501    0 -0.17860223710E+02 -0.16710913817E+02 -0.16723270268E+02  0.30000000000E+02  0.47000000000E+01 0. -1.
         -5    1    1    2    0  501  0.17860223710E+02  0.16710913817E+02  0.16723270268E+02  0.30000000000E+02  0.47000000000E+01 0.  1.
</event>
<event>
 4    1  0.7509957E-002  0.6000000E+02  0.7546771E-02  0.1259629E+00
         11   -1    0    0    0    0  0.00000000000E+00  0.00000000000E+00  0.30000000000E+02  0.30000000000E+02  0.00000000000E+00 0.  1.
        -11   -1    0    0    0    0 -0.00000000000E+00 -0.00000000000E+00 -0.30000000000E+02  0.30000000000E+02  0.00000000000E+00 0. -1.
          5    1    1    2  501    0 -0.26384718857E+02  0.87703618474E+01  0.10239011863E+02  0.30000000000E+02  0.47000000000E+01 0.  1.
         -5    1    1    2    0  501  0.26384718857E+02 -0.87703618474E+01 -0.10239011863E+02  0.30000000000E+02  0.47000000000E+01 0. -1.
</event>
<event>
 4    1  0.7509957E-002  0.6000000E+02  0.7546771E-02  0.1259629E+00
         11   -1    0    0    0    0  0.00000000000E+00  0.00000000000E+00  0.30000000000E+02  0.30000000000E+02  0.00000000000E+00 0. -1.
        -11   -1    0    0    0    0 -0.00000000000E+00 -0.00000000000E+00 -0.30000000000E+02  0.30000000000E+02  0.00000000000E+00 0.  1.
          5    1    1    2  501    0 -0.41692896825E+01  0.96462391094E+01 -0.27703376953E+02  0.30000000000E+02  0.47000000000E+01 0.  1.
         -5    1    1    2    0  501  0.41692896825E+01 -0.96462391094E+01  0.27703376953E+02  0.30000000000E+02  0.47000000000E+01 0. -1.
</event>
<event>
 4    1  0.7509957E-002  0.6000000E+02  0.7546771E-02  0.1259629E+00
         11   -1    0    0    0    0  0.00000000000E+00  0.00000000000E+00  0.30000000000E+02  0.30000000000E+02  0.00000000000E+00 0.  1.
        -11   -1    0    0    0    0 -0.00000000000E+00 -0.00000000000E+00 -0.30000000000E+02  0.30000000000E+02  0.00000000000E+00 0. -1.
          5    1    1    2  501    0  0.98272167704E+01  0.15460237760E+02 -0.23287697588E+02  0.30000000000E+02  0.47000000000E+01 0. -1.
         -5    1    1    2    0  501 -0.98272167704E+01 -0.15460237760E+02  0.23287697588E+02  0.30000000000E+02  0.47000000000E+01 0.  1.
</event>
<event>
 4    1  0.7509957E-002  0.6000000E+02  0.7546771E-02  0.1259629E+00
         11   -1    0    0    0    0  0.00000000000E+00  0.00000000000E+00  0.30000000000E+02  0.30000000000E+02  0.00000000000E+00 0.  1.
        -11   -1    0    0    0    0 -0.00000000000E+00 -0.00000000000E+00 -0.30000000000E+02  0.30000000000E+02  0.00000000000E+00 0. -1.
          5    1    1    2  501    0  0.89206876852E+01  0.83789734924E+01 -0.26983775393E+02  0.30000000000E+02  0.47000000000E+01 0. -1.
         -5    1    1    2    0  501 -0.89206876852E+01 -0.83789734924E+01  0.26983775393E+02  0.30000000000E+02  0.47000000000E+01 0.  1.
</event>
<event>
 4    1  0.7509957E-002  0.6000000E+02  0.7546771E-02  0.1259629E+00
         11   -1    0    0    0    0  0.00000000000E+00  0.00000000000E+00  0.30000000000E+02  0.30000000000E+02  0.00000000000E+00 0.  1.
        -11   -1    0    0    0    0 -0.00000000000E+00 -0.00000000000E+00 -0.30000000000E+02  0.30000000000E+02  0.00000000000E+00 0. -1.
          5    1    1    2  501    0  0.86624447202E+01  0.38770140239E+01  0.28068502164E+02  0.30000000000E+02  0.47000000000E+01 0.  1.
         -5    1    1    2    0  501 -0.86624447202E+01 -0.38770140239E+01 -0.28068502164E+02  0.30000000000E+02  0.47000000000E+01 0. -1.
</event>
<event>
 4    1  0.7509957E-002  0.6000000E+02  0.7546771E-02  0.1259629E+00
         11   -1    0    0    0    0  0.00000000000E+00  0.00000000000E+00  0.30000000000E+02  0.30000000000E+02  0.00000000000E+00 0.  1.
        -11   -1    0    0    0    0 -0.00000000000E+00 -0.00000000000E+00 -0.30000000000E+02  0.30000000000E+02  0.00000000000E+00 0. -1.
          5    1    1    2  501    0 -0.87389535255E+01  0.27146184272E+02 -0.80389906550E+01  0.30000000000E+02  0.47000000000E+01 0. -1.
         -5    1    1    2    0  501  0.87389535255E+01 -0.27146184272E+02  0.80389906550E+01  0.30000000000E+02  0.47000000000E+01 0.  1.
</event>
<event>
 4    1  0.7509957E-002  0.6000000E+02  0.7546771E-02  0.1259629E+00
         11   -1    0    0    0    0  0.00000000000E+00  0.00000000000E+00  0.30000000000E+02  0.30000000000E+02  0.00000000000E+00 0. -1.
        -11   -1    0    0    0    0 -0.00000000000E+00 -0.00000000000E+00 -0.30000000000E+02  0.30000000000E+02  0.00000000000E+00 0.  1.
          5    1    1    2  501    0 -0.25927462028E+02 -0.12722160638E+02  0.66199200520E+01  0.30000000000E+02  0.47000000000E+01 0.  1.
         -5    1    1    2    0  501  0.25927462028E+02  0.12722160638E+02 -0.66199200520E+01  0.30000000000E+02  0.47000000000E+01 0. -1.
</event>
<event>
 4    1  0.7509957E-002  0.6000000E+02  0.7546771E-02  0.1259629E+00
         11   -1    0    0    0    0  0.00000000000E+00  0.00000000000E+00  0.30000000000E+02  0.30000000000E+02  0.00000000000E+00 0.  1.
        -11   -1    0    0    0    0 -0.00000000000E+00 -0.00000000000E+00 -0.30000000000E+02  0.30000000000E+02  0.00000000000E+00 0. -1.
          5    1    1    2  501    0  0.21349091497E+02 -0.60737387752E+01 -0.19627429520E+02  0.30000000000E+02  0.47000000000E+01 0. -1.
         -5    1    1    2    0  501 -0.21349091497E+02  0.60737387752E+01  0.19627429520E+02  0.30000000000E+02  0.47000000000E+01 0.  1.
</event>
<event>
 4    1  0.7509957E-002  0.6000000E+02  0.7546771E-02  0.1259629E+00
         11   -1    0    0    0    0  0.00000000000E+00  0.00000000000E+00  0.30000000000E+02  0.30000000000E+02  0.00000000000E+00 0. -1.
        -11   -1    0    0    0    0 -0.00000000000E+00 -0.00000000000E+00 -0.30000000000E+02  0.30000000000E+02  0.00000000000E+00 0.  1.
          5    1    1    2  501    0  0.63345531258E+01 -0.22236481674E+01 -0.28858947062E+02  0.30000000000E+02  0.47000000000E+01 0.  1.
         -5    1    1    2    0  501 -0.63345531258E+01  0.22236481674E+01  0.28858947062E+02  0.30000000000E+02  0.47000000000E+01 0. -1.
</event>
<event>
 4    1  0.7509957E-002  0.6000000E+02  0.7546771E-02  0.1259629E+00
         11   -1    0    0    0    0  0.00000000000E+00  0.00000000000E+00  0.30000000000E+02  0.30000000000E+02  0.00000000000E+00 0.  1.
        -11   -1    0    0    0    0 -0.00000000000E+00 -0.00000000000E+00 -0.30000000000E+02  0.30000000000E+02  0.00000000000E+00 0. -1.
          5    1    1    2  501    0 -0.98940524858E+01  0.27086776047E+02  0.68061948822E+01  0.30000000000E+02  0.47000000000E+01 0.  1.
         -5    1    1    2    0  501  0.98940524858E+01 -0.27086776047E+02 -0.68061948822E+01  0.30000000000E+02  0.47000000000E+01 0. -1.
</event>
<event>
 4    1  0.7509957E-002  0.6000000E+02  0.7546771E-02  0.1259629E+00
         11   -1    0    0    0    0  0.00000000000E+00  0.00000000000E+00  0.30000000000E+02  0.30000000000E+02  0.00000000000E+00 0.  1.
        -11   -1    0    0    0    0 -0.00000000000E+00 -0.00000000000E+00 -0.30000000000E+02  0.30000000000E+02  0.00000000000E+00 0. -1.
          5    1    1    2  501    0  0.29195685164E+01 -0.96263774256E+01 -0.27869678458E+02  0.30000000000E+02  0.47000000000E+01 0. -1.
         -5    1    1    2    0  501 -0.29195685164E+01  0.96263774256E+01  0.27869678458E+02  0.30000000000E+02  0.47000000000E+01 0.  1.
</event>
<event>
 4    1  0.7509957E-002  0.6000000E+02  0.7546771E-02  0.1259629E+00
         11   -1    0    0    0    0  0.00000000000E+00  0.00000000000E+00  0.30000000000E+02  0.30000000000E+02  0.00000000000E+00 0.  1.
        -11   -1    0    0    0    0 -0.00000000000E+00 -0.00000000000E+00 -0.30000000000E+02  0.30000000000E+02  0.00000000000E+00 0. -1.
          5    1    1    2  501    0 -0.14865511797E+00  0.14998923121E+02 -0.25552303357E+02  0.30000000000E+02  0.47000000000E+01 0. -1.
         -5    1    1    2    0  501  0.14865511797E+00 -0.14998923121E+02  0.25552303357E+02  0.30000000000E+02  0.47000000000E+01 0.  1.
</event>
<event>
 4    1  0.7509957E-002  0.6000000E+02  0.7546771E-02  0.1259629E+00
         11   -1    0    0    0    0  0.00000000000E+00  0.00000000000E+00  0.30000000000E+02  0.30000000000E+02  0.00000000000E+00 0.  1.
        -11   -1    0    0    0    0 -0.00000000000E+00 -0.00000000000E+00 -0.30000000000E+02  0.30000000000E+02  0.00000000000E+00 0. -1.
          5    1    1    2  501    0 -0.12453509106E+02 -0.73439611200E+01 -0.25862837161E+02  0.30000000000E+02  0.47000000000E+01 0. -1.
         -5    1    1    2    0  501  0.12453509106E+02  0.73439611200E+01  0.25862837161E+02  0.30000000000E+02  0.47000000000E+01 0.  1.
</event>
<event>
 4    1  0.7509957E-002  0.6000000E+02  0.7546771E-02  0.1259629E+00
         11   -1    0    0    0    0  0.00000000000E+00  0.00000000000E+00  0.30000000000E+02  0.30000000000E+02  0.00000000000E+00 0.  1.
        -11   -1    0    0    0    0 -0.00000000000E+00 -0.00000000000E+00 -0.30000000000E+02  0.30000000000E+02  0.00000000000E+00 0. -1.
          5    1    1    2  501    0  0.13559787953E+02 -0.26298527009E+02 -0.15587263499E+01  0.30000000000E+02  0.47000000000E+01 0. -1.
         -5    1    1    2    0  501 -0.13559787953E+02  0.26298527009E+02  0.15587263499E+01  0.30000000000E+02  0.47000000000E+01 0.  1.
</event>
<event>
 4    1  0.7509957E-002  0.6000000E+02  0.7546771E-02  0.1259629E+00
         11   -1    0    0    0    0  0.00000000000E+00  0.00000000000E+00  0.30000000000E+02  0.30000000000E+02  0.00000000000E+00 0.  1.
        -11   -1    0    0    0    0 -0.00000000000E+00 -0.00000000000E+00 -0.30000000000E+02  0.30000000000E+02  0.00000000000E+00 0. -1.
          5    1    1    2  501    0  0.15178469770E+02 -0.25446105188E+02  0.14066335117E+00  0.30000000000E+02  0.47000000000E+01 0. -1.
         -5    1    1    2    0  501 -0.15178469770E+02  0.25446105188E+02 -0.14066335117E+00  0.30000000000E+02  0.47000000000E+01 0.  1.
</event>
<event>
 4    1  0.7509957E-002  0.6000000E+02  0.7546771E-02  0.1259629E+00
         11   -1    0    0    0    0  0.00000000000E+00  0.00000000000E+00  0.30000000000E+02  0.30000000000E+02  0.00000000000E+00 0.  1.
        -11   -1    0    0    0    0 -0.00000000000E+00 -0.00000000000E+00 -0.30000000000E+02  0.30000000000E+02  0.00000000000E+00 0. -1.
          5    1    1    2  501    0  0.26689728637E+02  0.29303923332E+01 -0.12529213306E+02  0.30000000000E+02  0.47000000000E+01 0. -1.
         -5    1    1    2    0  501 -0.26689728637E+02 -0.29303923332E+01  0.12529213306E+02  0.30000000000E+02  0.47000000000E+01 0.  1.
</event>
<event>
 4    1  0.7509957E-002  0.6000000E+02  0.7546771E-02  0.1259629E+00
         11   -1    0    0    0    0  0.00000000000E+00  0.00000000000E+00  0.30000000000E+02  0.30000000000E+02  0.00000000000E+00 0.  1.
        -11   -1    0    0    0    0 -0.00000000000E+00 -0.00000000000E+00 -0.30000000000E+02  0.30000000000E+02  0.00000000000E+00 0. -1.
          5    1    1    2  501    0  0.22469708571E+02 -0.56358604075E+01 -0.18473204221E+02  0.30000000000E+02  0.47000000000E+01 0. -1.
         -5    1    1    2    0  501 -0.22469708571E+02  0.56358604075E+01  0.18473204221E+02  0.30000000000E+02  0.47000000000E+01 0.  1.
</event>
<event>
 4    1  0.7509957E-002  0.6000000E+02  0.7546771E-02  0.1259629E+00
         11   -1    0    0    0    0  0.00000000000E+00  0.00000000000E+00  0.30000000000E+02  0.30000000000E+02  0.00000000000E+00 0.  1.
        -11   -1    0    0    0    0 -0.00000000000E+00 -0.00000000000E+00 -0.30000000000E+02  0.30000000000E+02  0.00000000000E+00 0. -1.
          5    1    1    2  501    0  0.26792236663E+02  0.12187085279E+02 -0.34001480857E+01  0.30000000000E+02  0.47000000000E+01 0.  1.
         -5    1    1    2    0  501 -0.26792236663E+02 -0.12187085279E+02  0.34001480857E+01  0.30000000000E+02  0.47000000000E+01 0.  1.
</event>
<event>
 4    1  0.7509957E-002  0.6000000E+02  0.7546771E-02  0.1259629E+00
         11   -1    0    0    0    0  0.00000000000E+00  0.00000000000E+00  0.30000000000E+02  0.30000000000E+02  0.00000000000E+00 0.  1.
        -11   -1    0    0    0    0 -0.00000000000E+00 -0.00000000000E+00 -0.30000000000E+02  0.30000000000E+02  0.00000000000E+00 0. -1.
          5    1    1    2  501    0  0.17436138938E+02 -0.22629705920E+01 -0.23848899829E+02  0.30000000000E+02  0.47000000000E+01 0. -1.
         -5    1    1    2    0  501 -0.17436138938E+02  0.22629705920E+01  0.23848899829E+02  0.30000000000E+02  0.47000000000E+01 0.  1.
</event>
<event>
 4    1  0.7509957E-002  0.6000000E+02  0.7546771E-02  0.1259629E+00
         11   -1    0    0    0    0  0.00000000000E+00  0.00000000000E+00  0.30000000000E+02  0.30000000000E+02  0.00000000000E+00 0.  1.
        -11   -1    0    0    0    0 -0.00000000000E+00 -0.00000000000E+00 -0.30000000000E+02  0.30000000000E+02  0.00000000000E+00 0. -1.
          5    1    1    2  501    0 -0.14571875442E+02 -0.10300391285E+02 -0.23653168614E+02  0.30000000000E+02  0.47000000000E+01 0. -1.
         -5    1    1    2    0  501  0.14571875442E+02  0.10300391285E+02  0.23653168614E+02  0.30000000000E+02  0.47000000000E+01 0.  1.
</event>
<event>
 4    1  0.7509957E-002  0.6000000E+02  0.7546771E-02  0.1259629E+00
         11   -1    0    0    0    0  0.00000000000E+00  0.00000000000E+00  0.30000000000E+02  0.30000000000E+02  0.00000000000E+00 0. -1.
        -11   -1    0    0    0    0 -0.00000000000E+00 -0.00000000000E+00 -0.30000000000E+02  0.30000000000E+02  0.00000000000E+00 0.  1.
          5    1    1    2  501    0 -0.28172128922E+02 -0.85139241409E+01 -0.34284468372E+01  0.30000000000E+02  0.47000000000E+01 0.  1.
         -5    1    1    2    0  501  0.28172128922E+02  0.85139241409E+01  0.34284468372E+01  0.30000000000E+02  0.47000000000E+01 0. -1.
</event>
<event>
 4    1  0.7509957E-002  0.6000000E+02  0.7546771E-02  0.1259629E+00
         11   -1    0    0    0    0  0.00000000000E+00  0.00000000000E+00  0.30000000000E+02  0.30000000000E+02  0.00000000000E+00 0.  1.
        -11   -1    0    0    0    0 -0.00000000000E+00 -0.00000000000E+00 -0.30000000000E+02  0.30000000000E+02  0.00000000000E+00 0. -1.
          5    1    1    2  501    0  0.16984714082E+02  0.22588422320E+01 -0.24172859147E+02  0.30000000000E+02  0.47000000000E+01 0. -1.
         -5    1    1    2    0  501 -0.16984714082E+02 -0.22588422320E+01  0.24172859147E+02  0.30000000000E+02  0.47000000000E+01 0.  1.
</event>
<event>
 4    1  0.7509957E-002  0.6000000E+02  0.7546771E-02  0.1259629E+00
         11   -1    0    0    0    0  0.00000000000E+00  0.00000000000E+00  0.30000000000E+02  0.30000000000E+02  0.00000000000E+00 0.  1.
        -11   -1    0    0    0    0 -0.00000000000E+00 -0.00000000000E+00 -0.30000000000E+02  0.30000000000E+02  0.00000000000E+00 0. -1.
          5    1    1    2  501    0 -0.22832188501E+02 -0.12802208419E+02 -0.13881809243E+02  0.30000000000E+02  0.47000000000E+01 0. -1.
         -5    1    1    2    0  501  0.22832188501E+02  0.12802208419E+02  0.13881809243E+02  0.30000000000E+02  0.47000000000E+01 0.  1.
</event>
<event>
 4    1  0.7509957E-002  0.6000000E+02  0.7546771E-02  0.1259629E+00
         11   -1    0    0    0    0  0.00000000000E+00  0.00000000000E+00  0.30000000000E+02  0.30000000000E+02  0.00000000000E+00 0. -1.
        -11   -1    0    0    0    0 -0.00000000000E+00 -0.00000000000E+00 -0.30000000000E+02  0.30000000000E+02  0.00000000000E+00 0.  1.
          5    1    1    2  501    0 -0.11047857210E+01 -0.19046931057E+02 -0.22669447850E+02  0.30000000000E+02  0.47000000000E+01 0.  1.
         -5    1    1    2    0  501  0.11047857210E+01  0.19046931057E+02  0.22669447850E+02  0.30000000000E+02  0.47000000000E+01 0. -1.
</event>
<event>
 4    1  0.7509957E-002  0.6000000E+02  0.7546771E-02  0.1259629E+00
         11   -1    0    0    0    0  0.00000000000E+00  0.00000000000E+00  0.30000000000E+02  0.30000000000E+02  0.00000000000E+00 0.  1.
        -11   -1    0    0    0    0 -0.00000000000E+00 -0.00000000000E+00 -0.30000000000E+02  0.30000000000E+02  0.00000000000E+00 0. -1.
          5    1    1    2  501    0  0.17817058799E+02 -0.74932545524E+01 -0.22456926592E+02  0.30000000000E+02  0.47000000000E+01 0. -1.
         -5    1    1    2    0  501 -0.17817058799E+02  0.74932545524E+01  0.22456926592E+02  0.30000000000E+02  0.47000000000E+01 0.  1.
</event>
<event>
 4    1  0.7509957E-002  0.6000000E+02  0.7546771E-02  0.1259629E+00
         11   -1    0    0    0    0  0.00000000000E+00  0.00000000000E+00  0.30000000000E+02  0.30000000000E+02  0.00000000000E+00 0.  1.
        -11   -1    0    0    0    0 -0.00000000000E+00 -0.00000000000E+00 -0.30000000000E+02  0.30000000000E+02  0.00000000000E+00 0. -1.
          5    1    1    2  501    0 -0.15618624401E+02 -0.23095856892E+02 -0.10027460608E+02  0.30000000000E+02  0.47000000000E+01 0. -1.
         -5    1    1    2    0  501  0.15618624401E+02  0.23095856892E+02  0.10027460608E+02  0.30000000000E+02  0.47000000000E+01 0.  1.
</event>
<event>
 4    1  0.7509957E-002  0.6000000E+02  0.7546771E-02  0.1259629E+00
         11   -1    0    0    0    0  0.00000000000E+00  0.00000000000E+00  0.30000000000E+02  0.30000000000E+02  0.00000000000E+00 0.  1.
        -11   -1    0    0    0    0 -0.00000000000E+00 -0.00000000000E+00 -0.30000000000E+02  0.30000000000E+02  0.00000000000E+00 0. -1.
          5    1    1    2  501    0 -0.24211078899E+02  0.72863115368E+01  0.15448084760E+02  0.30000000000E+02  0.47000000000E+01 0. -1.
         -5    1    1    2    0  501  0.24211078899E+02 -0.72863115368E+01 -0.15448084760E+02  0.30000000000E+02  0.47000000000E+01 0.  1.
</event>
<event>
 4    1  0.7509957E-002  0.6000000E+02  0.7546771E-02  0.1259629E+00
         11   -1    0    0    0    0  0.00000000000E+00  0.00000000000E+00  0.30000000000E+02  0.30000000000E+02  0.00000000000E+00 0.  1.
        -11   -1    0    0    0    0 -0.00000000000E+00 -0.00000000000E+00 -0.30000000000E+02  0.30000000000E+02  0.00000000000E+00 0. -1.
          5    1    1    2  501    0  0.31282109312E+01 -0.56441637990E+01  0.28918293715E+02  0.30000000000E+02  0.47000000000E+01 0.  1.
         -5    1    1    2    0  501 -0.31282109312E+01  0.56441637990E+01 -0.28918293715E+02  0.30000000000E+02  0.47000000000E+01 0. -1.
</event>
<event>
 4    1  0.7509957E-002  0.6000000E+02  0.7546771E-02  0.1259629E+00
         11   -1    0    0    0    0  0.00000000000E+00  0.00000000000E+00  0.30000000000E+02  0.30000000000E+02  0.00000000000E+00 0.  1.
        -11   -1    0    0    0    0 -0.00000000000E+00 -0.00000000000E+00 -0.30000000000E+02  0.30000000000E+02  0.00000000000E+00 0. -1.
          5    1    1    2  501    0 -0.47990739361E+01  0.16715195889E+02 -0.23989187476E+02  0.30000000000E+02  0.47000000000E+01 0. -1.
         -5    1    1    2    0  501  0.47990739361E+01 -0.16715195889E+02  0.23989187476E+02  0.30000000000E+02  0.47000000000E+01 0.  1.
</event>
<event>
 4    1  0.7509957E-002  0.6000000E+02  0.7546771E-02  0.1259629E+00
         11   -1    0    0    0    0  0.00000000000E+00  0.00000000000E+00  0.30000000000E+02  0.30000000000E+02  0.00000000000E+00 0.  1.
        -11   -1    0    0    0    0 -0.00000000000E+00 -0.00000000000E+00 -0.30000000000E+02  0.30000000000E+02  0.00000000000E+00 0. -1.
          5    1    1    2  501    0  0.27081452380E+02 -0.11620877762E+02 -0.30757335765E+01  0.30000000000E+02  0.47000000000E+01 0. -1.
         -5    1    1    2    0  501 -0.27081452380E+02  0.11620877762E+02  0.30757335765E+01  0.30000000000E+02  0.47000000000E+01 0.  1.
</event>
<event>
 4    1  0.7509957E-002  0.6000000E+02  0.7546771E-02  0.1259629E+00
         11   -1    0    0    0    0  0.00000000000E+00  0.00000000000E+00  0.30000000000E+02  0.30000000000E+02  0.00000000000E+00 0.  1.
        -11   -1    0    0    0    0 -0.00000000000E+00 -0.00000000000E+00 -0.30000000000E+02  0.30000000000E+02  0.00000000000E+00 0. -1.
          5    1    1    2  501    0 -0.24120384423E+02 -0.16819328879E+02 -0.36369260835E+01  0.30000000000E+02  0.47000000000E+01 0. -1.
         -5    1    1    2    0  501  0.24120384423E+02  0.16819328879E+02  0.36369260835E+01  0.30000000000E+02  0.47000000000E+01 0.  1.
</event>
<event>
 4    1  0.7509957E-002  0.6000000E+02  0.7546771E-02  0.1259629E+00
         11   -1    0    0    0    0  0.00000000000E+00  0.00000000000E+00  0.30000000000E+02  0.30000000000E+02  0.00000000000E+00 0.  1.
        -11   -1    0    0    0    0 -0.00000000000E+00 -0.00000000000E+00 -0.30000000000E+02  0.30000000000E+02  0.00000000000E+00 0. -1.
          5    1    1    2  501    0 -0.26823707309E+02  0.84865391761E+01 -0.92939431361E+01  0.30000000000E+02  0.47000000000E+01 0. -1.
         -5    1    1    2    0  501  0.26823707309E+02 -0.84865391761E+01  0.92939431361E+01  0.30000000000E+02  0.47000000000E+01 0.  1.
</event>
<event>
 4    1  0.7509957E-002  0.6000000E+02  0.7546771E-02  0.1259629E+00
         11   -1    0    0    0    0  0.00000000000E+00  0.00000000000E+00  0.30000000000E+02  0.30000000000E+02  0.00000000000E+00 0.  1.
        -11   -1    0    0    0    0 -0.00000000000E+00 -0.00000000000E+00 -0.30000000000E+02  0.30000000000E+02  0.00000000000E+00 0. -1.
          5    1    1    2  501    0 -0.81208683528E+00  0.11550888841E+02 -0.27273200802E+02  0.30000000000E+02  0.47000000000E+01 0. -1.
         -5    1    1    2    0  501  0.81208683528E+00 -0.11550888841E+02  0.27273200802E+02  0.30000000000E+02  0.47000000000E+01 0.  1.
</event>
<event>
 4    1  0.7509957E-002  0.6000000E+02  0.7546771E-02  0.1259629E+00
         11   -1    0    0    0    0  0.00000000000E+00  0.00000000000E+00  0.30000000000E+02  0.30000000000E+02  0.00000000000E+00 0.  1.
        -11   -1    0    0    0    0 -0.00000000000E+00 -0.00000000000E+00 -0.30000000000E+02  0.30000000000E+02  0.00000000000E+00 0. -1.
          5    1    1    2  501    0  0.11882790506E+01 -0.46234741741E+01 -0.29242460216E+02  0.30000000000E+02  0.47000000000E+01 0. -1.
         -5    1    1    2    0  501 -0.11882790506E+01  0.46234741741E+01  0.29242460216E+02  0.30000000000E+02  0.47000000000E+01 0.  1.
</event>
<event>
 4    1  0.7509957E-002  0.6000000E+02  0.7546771E-02  0.1259629E+00
         11   -1    0    0    0    0  0.00000000000E+00  0.00000000000E+00  0.30000000000E+02  0.30000000000E+02  0.00000000000E+00 0. -1.
        -11   -1    0    0    0    0 -0.00000000000E+00 -0.00000000000E+00 -0.30000000000E+02  0.30000000000E+02  0.00000000000E+00 0.  1.
          5    1    1    2  501    0  0.34750850359E+01  0.53840872211E+01 -0.28928280087E+02  0.30000000000E+02  0.47000000000E+01 0.  1.
         -5    1    1    2    0  501 -0.34750850359E+01 -0.53840872211E+01  0.28928280087E+02  0.30000000000E+02  0.47000000000E+01 0. -1.
</event>
<event>
 4    1  0.7509957E-002  0.6000000E+02  0.7546771E-02  0.1259629E+00
         11   -1    0    0    0    0  0.00000000000E+00  0.00000000000E+00  0.30000000000E+02  0.30000000000E+02  0.00000000000E+00 0.  1.
        -11   -1    0    0    0    0 -0.00000000000E+00 -0.00000000000E+00 -0.30000000000E+02  0.30000000000E+02  0.00000000000E+00 0. -1.
          5    1    1    2  501    0 -0.22427683295E+02  0.17868076666E+02 -0.74592800105E+01  0.30000000000E+02  0.47000000000E+01 0. -1.
         -5    1    1    2    0  501  0.22427683295E+02 -0.17868076666E+02  0.74592800105E+01  0.30000000000E+02  0.47000000000E+01 0.  1.
</event>
<event>
 4    1  0.7509957E-002  0.6000000E+02  0.7546771E-02  0.1259629E+00
         11   -1    0    0    0    0  0.00000000000E+00  0.00000000000E+00  0.30000000000E+02  0.30000000000E+02  0.00000000000E+00 0.  1.
        -11   -1    0    0    0    0 -0.00000000000E+00 -0.00000000000E+00 -0.30000000000E+02  0.30000000000E+02  0.00000000000E+00 0. -1.
          5    1    1    2  501    0 -0.23924545674E+02 -0.10399779069E+01 -0.17448339756E+02  0.30000000000E+02  0.47000000000E+01 0. -1.
         -5    1    1    2    0  501  0.23924545674E+02  0.10399779069E+01  0.17448339756E+02  0.30000000000E+02  0.47000000000E+01 0.  1.
</event>
<event>
 4    1  0.7509957E-002  0.6000000E+02  0.7546771E-02  0.1259629E+00
         11   -1    0    0    0    0  0.00000000000E+00  0.00000000000E+00  0.30000000000E+02  0.30000000000E+02  0.00000000000E+00 0.  1.
        -11   -1    0    0    0    0 -0.00000000000E+00 -0.00000000000E+00 -0.30000000000E+02  0.30000000000E+02  0.00000000000E+00 0. -1.
          5    1    1    2  501    0  0.25949326852E+02 -0.11460258980E+02 -0.85559862108E+01  0.30000000000E+02  0.47000000000E+01 0. -1.
         -5    1    1    2    0  501 -0.25949326852E+02  0.11460258980E+02  0.85559862108E+01  0.30000000000E+02  0.47000000000E+01 0.  1.
</event>
<event>
 4    1  0.7509957E-002  0.6000000E+02  0.7546771E-02  0.1259629E+00
         11   -1    0    0    0    0  0.00000000000E+00  0.00000000000E+00  0.30000000000E+02  0.30000000000E+02  0.00000000000E+00 0.  1.
        -11   -1    0    0    0    0 -0.00000000000E+00 -0.00000000000E+00 -0.30000000000E+02  0.30000000000E+02  0.00000000000E+00 0. -1.
          5    1    1    2  501    0  0.26082200362E+02 -0.14057643234E+02  0.10719601547E+00  0.30000000000E+02  0.47000000000E+01 0. -1.
         -5    1    1    2    0  501 -0.26082200362E+02  0.14057643234E+02 -0.10719601547E+00  0.30000000000E+02  0.47000000000E+01 0.  1.
</event>
<event>
 4    1  0.7509957E-002  0.6000000E+02  0.7546771E-02  0.1259629E+00
         11   -1    0    0    0    0  0.00000000000E+00  0.00000000000E+00  0.30000000000E+02  0.30000000000E+02  0.00000000000E+00 0.  1.
        -11   -1    0    0    0    0 -0.00000000000E+00 -0.00000000000E+00 -0.30000000000E+02  0.30000000000E+02  0.00000000000E+00 0. -1.
          5    1    1    2  501    0  0.61393075278E+00  0.20490760231E+01 -0.29552231328E+02  0.30000000000E+02  0.47000000000E+01 0. -1.
         -5    1    1    2    0  501 -0.61393075278E+00 -0.20490760231E+01  0.29552231328E+02  0.30000000000E+02  0.47000000000E+01 0.  1.
</event>
<event>
 4    1  0.7509957E-002  0.6000000E+02  0.7546771E-02  0.1259629E+00
         11   -1    0    0    0    0  0.00000000000E+00  0.00000000000E+00  0.30000000000E+02  0.30000000000E+02  0.00000000000E+00 0.  1.
        -11   -1    0    0    0    0 -0.00000000000E+00 -0.00000000000E+00 -0.30000000000E+02  0.30000000000E+02  0.00000000000E+00 0. -1.
          5    1    1    2  501    0  0.19940919628E+02  0.58317292625E+01 -0.21124882442E+02  0.30000000000E+02  0.47000000000E+01 0. -1.
         -5    1    1    2    0  501 -0.19940919628E+02 -0.58317292625E+01  0.21124882442E+02  0.30000000000E+02  0.47000000000E+01 0.  1.
</event>
<event>
 4    1  0.7509957E-002  0.6000000E+02  0.7546771E-02  0.1259629E+00
         11   -1    0    0    0    0  0.00000000000E+00  0.00000000000E+00  0.30000000000E+02  0.30000000000E+02  0.00000000000E+00 0. -1.
        -11   -1    0    0    0    0 -0.00000000000E+00 -0.00000000000E+00 -0.30000000000E+02  0.30000000000E+02  0.00000000000E+00 0.  1.
          5    1    1    2  501    0 -0.17435376929E+02 -0.19720419233E+02  0.13602304828E+02  0.30000000000E+02  0.47000000000E+01 0. -1.
         -5    1    1    2    0  501  0.17435376929E+02  0.19720419233E+02 -0.13602304828E+02  0.30000000000E+02  0.47000000000E+01 0.  1.
</event>
<event>
 4    1  0.7509957E-002  0.6000000E+02  0.7546771E-02  0.1259629E+00
         11   -1    0    0    0    0  0.00000000000E+00  0.00000000000E+00  0.30000000000E+02  0.30000000000E+02  0.00000000000E+00 0.  1.
        -11   -1    0    0    0    0 -0.00000000000E+00 -0.00000000000E+00 -0.30000000000E+02  0.30000000000E+02  0.00000000000E+00 0. -1.
          5    1    1    2  501    0 -0.58314071018E+00 -0.29066687530E+02  0.57181835351E+01  0.30000000000E+02  0.47000000000E+01 0. -1.
         -5    1    1    2    0  501  0.58314071018E+00  0.29066687530E+02 -0.57181835351E+01  0.30000000000E+02  0.47000000000E+01 0.  1.
</event>
<event>
 4    1  0.7509957E-002  0.6000000E+02  0.7546771E-02  0.1259629E+00
         11   -1    0    0    0    0  0.00000000000E+00  0.00000000000E+00  0.30000000000E+02  0.30000000000E+02  0.00000000000E+00 0. -1.
        -11   -1    0    0    0    0 -0.00000000000E+00 -0.00000000000E+00 -0.30000000000E+02  0.30000000000E+02  0.00000000000E+00 0.  1.
          5    1    1    2  501    0  0.17273344838E+02 -0.17233478383E+02 -0.16809187396E+02  0.30000000000E+02  0.47000000000E+01 0.  1.
         -5    1    1    2    0  501 -0.17273344838E+02  0.17233478383E+02  0.16809187396E+02  0.30000000000E+02  0.47000000000E+01 0. -1.
</event>
<event>
 4    1  0.7509957E-002  0.6000000E+02  0.7546771E-02  0.1259629E+00
         11   -1    0    0    0    0  0.00000000000E+00  0.00000000000E+00  0.30000000000E+02  0.30000000000E+02  0.00000000000E+00 0.  1.
        -11   -1    0    0    0    0 -0.00000000000E+00 -0.00000000000E+00 -0.30000000000E+02  0.30000000000E+02  0.00000000000E+00 0. -1.
          5    1    1    2  501    0 -0.24820422404E+02  0.15593941972E+02 -0.43226849797E+01  0.30000000000E+02  0.47000000000E+01 0. -1.
         -5    1    1    2    0  501  0.24820422404E+02 -0.15593941972E+02  0.43226849797E+01  0.30000000000E+02  0.47000000000E+01 0.  1.
</event>
<event>
 4    1  0.7509957E-002  0.6000000E+02  0.7546771E-02  0.1259629E+00
         11   -1    0    0    0    0  0.00000000000E+00  0.00000000000E+00  0.30000000000E+02  0.30000000000E+02  0.00000000000E+00 0. -1.
        -11   -1    0    0    0    0 -0.00000000000E+00 -0.00000000000E+00 -0.30000000000E+02  0.30000000000E+02  0.00000000000E+00 0.  1.
          5    1    1    2  501    0  0.51796207029E+01 -0.71060869151E+01 -0.28294611821E+02  0.30000000000E+02  0.47000000000E+01 0.  1.
         -5    1    1    2    0  501 -0.51796207029E+01  0.71060869151E+01  0.28294611821E+02  0.30000000000E+02  0.47000000000E+01 0. -1.
</event>
<event>
 4    1  0.7509957E-002  0.6000000E+02  0.7546771E-02  0.1259629E+00
         11   -1    0    0    0    0  0.00000000000E+00  0.00000000000E+00  0.30000000000E+02  0.30000000000E+02  0.00000000000E+00 0.  1.
        -11   -1    0    0    0    0 -0.00000000000E+00 -0.00000000000E+00 -0.30000000000E+02  0.30000000000E+02  0.00000000000E+00 0. -1.
          5    1    1    2  501    0 -0.27893323990E+02  0.37314753561E+01  0.92708450776E+01  0.30000000000E+02  0.47000000000E+01 0. -1.
         -5    1    1    2    0  501  0.27893323990E+02 -0.37314753561E+01 -0.92708450776E+01  0.30000000000E+02  0.47000000000E+01 0.  1.
</event>
<event>
 4    1  0.7509957E-002  0.6000000E+02  0.7546771E-02  0.1259629E+00
         11   -1    0    0    0    0  0.00000000000E+00  0.00000000000E+00  0.30000000000E+02  0.30000000000E+02  0.00000000000E+00 0.  1.
        -11   -1    0    0    0    0 -0.00000000000E+00 -0.00000000000E+00 -0.30000000000E+02  0.30000000000E+02  0.00000000000E+00 0. -1.
          5    1    1    2  501    0 -0.23758860321E+00  0.12921082479E+02  0.26662692648E+02  0.30000000000E+02  0.47000000000E+01 0.  1.
         -5    1    1    2    0  501  0.23758860321E+00 -0.12921082479E+02 -0.26662692648E+02  0.30000000000E+02  0.47000000000E+01 0. -1.
</event>
<event>
 4    1  0.7509957E-002  0.6000000E+02  0.7546771E-02  0.1259629E+00
         11   -1    0    0    0    0  0.00000000000E+00  0.00000000000E+00  0.30000000000E+02  0.30000000000E+02  0.00000000000E+00 0.  1.
        -11   -1    0    0    0    0 -0.00000000000E+00 -0.00000000000E+00 -0.30000000000E+02  0.30000000000E+02  0.00000000000E+00 0. -1.
          5    1    1    2  501    0 -0.24768546474E+02  0.71406048804E+01  0.14609615583E+02  0.30000000000E+02  0.47000000000E+01 0.  1.
         -5    1    1    2    0  501  0.24768546474E+02 -0.71406048804E+01 -0.14609615583E+02  0.30000000000E+02  0.47000000000E+01 0. -1.
</event>
<event>
 4    1  0.7509957E-002  0.6000000E+02  0.7546771E-02  0.1259629E+00
         11   -1    0    0    0    0  0.00000000000E+00  0.00000000000E+00  0.30000000000E+02  0.30000000000E+02  0.00000000000E+00 0.  1.
        -11   -1    0    0    0    0 -0.00000000000E+00 -0.00000000000E+00 -0.30000000000E+02  0.30000000000E+02  0.00000000000E+00 0. -1.
          5    1    1    2  501    0 -0.14218922376E+02 -0.24757195810E+02  0.79254969619E+01  0.30000000000E+02  0.47000000000E+01 0. -1.
         -5    1    1    2    0  501  0.14218922376E+02  0.24757195810E+02 -0.79254969619E+01  0.30000000000E+02  0.47000000000E+01 0.  1.
</event>
<event>
 4    1  0.7509957E-002  0.6000000E+02  0.7546771E-02  0.1259629E+00
         11   -1    0    0    0    0  0.00000000000E+00  0.00000000000E+00  0.30000000000E+02  0.30000000000E+02  0.00000000000E+00 0.  1.
        -11   -1    0    0    0    0 -0.00000000000E+00 -0.00000000000E+00 -0.30000000000E+02  0.30000000000E+02  0.00000000000E+00 0. -1.
          5    1    1    2  501    0 -0.20046111688E+02 -0.12733518451E+02 -0.17717813467E+02  0.30000000000E+02  0.47000000000E+01 0. -1.
         -5    1    1    2    0  501  0.20046111688E+02  0.12733518451E+02  0.17717813467E+02  0.30000000000E+02  0.47000000000E+01 0.  1.
</event>
<event>
 4    1  0.7509957E-002  0.6000000E+02  0.7546771E-02  0.1259629E+00
         11   -1    0    0    0    0  0.00000000000E+00  0.00000000000E+00  0.30000000000E+02  0.30000000000E+02  0.00000000000E+00 0. -1.
        -11   -1    0    0    0    0 -0.00000000000E+00 -0.00000000000E+00 -0.30000000000E+02  0.30000000000E+02  0.00000000000E+00 0.  1.
          5    1    1    2  501    0  0.75617176898E+01  0.27100458571E+02 -0.92895409380E+01  0.30000000000E+02  0.47000000000E+01 0.  1.
         -5    1    1    2    0  501 -0.75617176898E+01 -0.27100458571E+02  0.92895409380E+01  0.30000000000E+02  0.47000000000E+01 0. -1.
</event>
<event>
 4    1  0.7509957E-002  0.6000000E+02  0.7546771E-02  0.1259629E+00
         11   -1    0    0    0    0  0.00000000000E+00  0.00000000000E+00  0.30000000000E+02  0.30000000000E+02  0.00000000000E+00 0.  1.
        -11   -1    0    0    0    0 -0.00000000000E+00 -0.00000000000E+00 -0.30000000000E+02  0.30000000000E+02  0.00000000000E+00 0. -1.
          5    1    1    2  501    0  0.12698845010E+02 -0.20395006717E+02 -0.17340502773E+02  0.30000000000E+02  0.47000000000E+01 0. -1.
         -5    1    1    2    0  501 -0.12698845010E+02  0.20395006717E+02  0.17340502773E+02  0.30000000000E+02  0.47000000000E+01 0.  1.
</event>
<event>
 4    1  0.7509957E-002  0.6000000E+02  0.7546771E-02  0.1259629E+00
         11   -1    0    0    0    0  0.00000000000E+00  0.00000000000E+00  0.30000000000E+02  0.30000000000E+02  0.00000000000E+00 0.  1.
        -11   -1    0    0    0    0 -0.00000000000E+00 -0.00000000000E+00 -0.30000000000E+02  0.30000000000E+02  0.00000000000E+00 0. -1.
          5    1    1    2  501    0  0.66488844594E+01  0.15533706720E+02 -0.24339397917E+02  0.30000000000E+02  0.47000000000E+01 0. -1.
         -5    1    1    2    0  501 -0.66488844594E+01 -0.15533706720E+02  0.24339397917E+02  0.30000000000E+02  0.47000000000E+01 0.  1.
</event>
<event>
 4    1  0.7509957E-002  0.6000000E+02  0.7546771E-02  0.1259629E+00
         11   -1    0    0    0    0  0.00000000000E+00  0.00000000000E+00  0.30000000000E+02  0.30000000000E+02  0.00000000000E+00 0.  1.
        -11   -1    0    0    0    0 -0.00000000000E+00 -0.00000000000E+00 -0.30000000000E+02  0.30000000000E+02  0.00000000000E+00 0. -1.
          5    1    1    2  501    0  0.55714108161E+01  0.18641010809E+02 -0.22346858785E+02  0.30000000000E+02  0.47000000000E+01 0. -1.
         -5    1    1    2    0  501 -0.55714108161E+01 -0.18641010809E+02  0.22346858785E+02  0.30000000000E+02  0.47000000000E+01 0.  1.
</event>
<event>
 4    1  0.7509957E-002  0.6000000E+02  0.7546771E-02  0.1259629E+00
         11   -1    0    0    0    0  0.00000000000E+00  0.00000000000E+00  0.30000000000E+02  0.30000000000E+02  0.00000000000E+00 0. -1.
        -11   -1    0    0    0    0 -0.00000000000E+00 -0.00000000000E+00 -0.30000000000E+02  0.30000000000E+02  0.00000000000E+00 0.  1.
          5    1    1    2  501    0 -0.16250578713E+02 -0.19011827839E+02 -0.15886443710E+02  0.30000000000E+02  0.47000000000E+01 0.  1.
         -5    1    1    2    0  501  0.16250578713E+02  0.19011827839E+02  0.15886443710E+02  0.30000000000E+02  0.47000000000E+01 0. -1.
</event>
<event>
 4    1  0.7509957E-002  0.6000000E+02  0.7546771E-02  0.1259629E+00
         11   -1    0    0    0    0  0.00000000000E+00  0.00000000000E+00  0.30000000000E+02  0.30000000000E+02  0.00000000000E+00 0.  1.
        -11   -1    0    0    0    0 -0.00000000000E+00 -0.00000000000E+00 -0.30000000000E+02  0.30000000000E+02  0.00000000000E+00 0. -1.
          5    1    1    2  501    0  0.61442508256E+01 -0.50203509457E+00 -0.28981134252E+02  0.30000000000E+02  0.47000000000E+01 0. -1.
         -5    1    1    2    0  501 -0.61442508256E+01  0.50203509457E+00  0.28981134252E+02  0.30000000000E+02  0.47000000000E+01 0.  1.
</event>
<event>
 4    1  0.7509957E-002  0.6000000E+02  0.7546771E-02  0.1259629E+00
         11   -1    0    0    0    0  0.00000000000E+00  0.00000000000E+00  0.30000000000E+02  0.30000000000E+02  0.00000000000E+00 0.  1.
        -11   -1    0    0    0    0 -0.00000000000E+00 -0.00000000000E+00 -0.30000000000E+02  0.30000000000E+02  0.00000000000E+00 0. -1.
          5    1    1    2  501    0 -0.21334503781E+02 -0.82310316974E+01 -0.18841418886E+02  0.30000000000E+02  0.47000000000E+01 0. -1.
         -5    1    1    2    0  501  0.21334503781E+02  0.82310316974E+01  0.18841418886E+02  0.30000000000E+02  0.47000000000E+01 0.  1.
</event>
<event>
 4    1  0.7509957E-002  0.6000000E+02  0.7546771E-02  0.1259629E+00
         11   -1    0    0    0    0  0.00000000000E+00  0.00000000000E+00  0.30000000000E+02  0.30000000000E+02  0.00000000000E+00 0. -1.
        -11   -1    0    0    0    0 -0.00000000000E+00 -0.00000000000E+00 -0.30000000000E+02  0.30000000000E+02  0.00000000000E+00 0.  1.
          5    1    1    2  501    0 -0.11472277293E+02 -0.84803740028E+00  0.27305268471E+02  0.30000000000E+02  0.47000000000E+01 0. -1.
         -5    1    1    2    0  501  0.11472277293E+02  0.84803740028E+00 -0.27305268471E+02  0.30000000000E+02  0.47000000000E+01 0.  1.
</event>
<event>
 4    1  0.7509957E-002  0.6000000E+02  0.7546771E-02  0.1259629E+00
         11   -1    0    0    0    0  0.00000000000E+00  0.00000000000E+00  0.30000000000E+02  0.30000000000E+02  0.00000000000E+00 0.  1.
        -11   -1    0    0    0    0 -0.00000000000E+00 -0.00000000000E+00 -0.30000000000E+02  0.30000000000E+02  0.00000000000E+00 0. -1.
          5    1    1    2  501    0  0.16854453941E+01  0.29394767574E+02  0.33191735584E+01  0.30000000000E+02  0.47000000000E+01 0.  1.
         -5    1    1    2    0  501 -0.16854453941E+01 -0.29394767574E+02 -0.33191735584E+01  0.30000000000E+02  0.47000000000E+01 0. -1.
</event>
<event>
 4    1  0.7509957E-002  0.6000000E+02  0.7546771E-02  0.1259629E+00
         11   -1    0    0    0    0  0.00000000000E+00  0.00000000000E+00  0.30000000000E+02  0.30000000000E+02  0.00000000000E+00 0.  1.
        -11   -1    0    0    0    0 -0.00000000000E+00 -0.00000000000E+00 -0.30000000000E+02  0.30000000000E+02  0.00000000000E+00 0. -1.
          5    1    1    2  501    0 -0.25200694947E+02  0.58724775233E+01 -0.14434298803E+02  0.30000000000E+02  0.47000000000E+01 0. -1.
         -5    1    1    2    0  501  0.25200694947E+02 -0.58724775233E+01  0.14434298803E+02  0.30000000000E+02  0.47000000000E+01 0.  1.
</event>
<event>
 4    1  0.7509957E-002  0.6000000E+02  0.7546771E-02  0.1259629E+00
         11   -1    0    0    0    0  0.00000000000E+00  0.00000000000E+00  0.30000000000E+02  0.30000000000E+02  0.00000000000E+00 0.  1.
        -11   -1    0    0    0    0 -0.00000000000E+00 -0.00000000000E+00 -0.30000000000E+02  0.30000000000E+02  0.00000000000E+00 0. -1.
          5    1    1    2  501    0  0.22652611391E+02  0.18086447165E+02 -0.61359291172E+01  0.30000000000E+02  0.47000000000E+01 0. -1.
         -5    1    1    2    0  501 -0.22652611391E+02 -0.18086447165E+02  0.61359291172E+01  0.30000000000E+02  0.47000000000E+01 0.  1.
</event>
<event>
 4    1  0.7509957E-002  0.6000000E+02  0.7546771E-02  0.1259629E+00
         11   -1    0    0    0    0  0.00000000000E+00  0.00000000000E+00  0.30000000000E+02  0.30000000000E+02  0.00000000000E+00 0. -1.
        -11   -1    0    0    0    0 -0.00000000000E+00 -0.00000000000E+00 -0.30000000000E+02  0.30000000000E+02  0.00000000000E+00 0.  1.
          5    1    1    2  501    0 -0.25553939064E+01 -0.97908660090E+01 -0.27848140060E+02  0.30000000000E+02  0.47000000000E+01 0.  1.
         -5    1    1    2    0  501  0.25553939064E+01  0.97908660090E+01  0.27848140060E+02  0.30000000000E+02  0.47000000000E+01 0. -1.
</event>
<event>
 4    1  0.7509957E-002  0.6000000E+02  0.7546771E-02  0.1259629E+00
         11   -1    0    0    0    0  0.00000000000E+00  0.00000000000E+00  0.30000000000E+02  0.30000000000E+02  0.00000000000E+00 0.  1.
        -11   -1    0    0    0    0 -0.00000000000E+00 -0.00000000000E+00 -0.30000000000E+02  0.30000000000E+02  0.00000000000E+00 0. -1.
          5    1    1    2  501    0  0.56513574833E+01 -0.28119826212E+02 -0.74328683836E+01  0.30000000000E+02  0.47000000000E+01 0. -1.
         -5    1    1    2    0  501 -0.56513574833E+01  0.28119826212E+02  0.74328683836E+01  0.30000000000E+02  0.47000000000E+01 0.  1.
</event>
<event>
 4    1  0.7509957E-002  0.6000000E+02  0.7546771E-02  0.1259629E+00
         11   -1    0    0    0    0  0.00000000000E+00  0.00000000000E+00  0.30000000000E+02  0.30000000000E+02  0.00000000000E+00 0.  1.
        -11   -1    0    0    0    0 -0.00000000000E+00 -0.00000000000E+00 -0.30000000000E+02  0.30000000000E+02  0.00000000000E+00 0. -1.
          5    1    1    2  501    0  0.23833571736E+02 -0.35996578892E+01 -0.17231172954E+02  0.30000000000E+02  0.47000000000E+01 0. -1.
         -5    1    1    2    0  501 -0.23833571736E+02  0.35996578892E+01  0.17231172954E+02  0.30000000000E+02  0.47000000000E+01 0.  1.
</event>
<event>
 4    1  0.7509957E-002  0.6000000E+02  0.7546771E-02  0.1259629E+00
         11   -1    0    0    0    0  0.00000000000E+00  0.00000000000E+00  0.30000000000E+02  0.30000000000E+02  0.00000000000E+00 0. -1.
        -11   -1    0    0    0    0 -0.00000000000E+00 -0.00000000000E+00 -0.30000000000E+02  0.30000000000E+02  0.00000000000E+00 0.  1.
          5    1    1    2  501    0 -0.49453914285E+01  0.27691786716E+02 -0.93068819760E+01  0.30000000000E+02  0.47000000000E+01 0.  1.
         -5    1    1    2    0  501  0.49453914285E+01 -0.27691786716E+02  0.93068819760E+01  0.30000000000E+02  0.47000000000E+01 0. -1.
</event>
<event>
 4    1  0.7509957E-002  0.6000000E+02  0.7546771E-02  0.1259629E+00
         11   -1    0    0    0    0  0.00000000000E+00  0.00000000000E+00  0.30000000000E+02  0.30000000000E+02  0.00000000000E+00 0. -1.
        -11   -1    0    0    0    0 -0.00000000000E+00 -0.00000000000E+00 -0.30000000000E+02  0.30000000000E+02  0.00000000000E+00 0.  1.
          5    1    1    2  501    0 -0.16366865313E+02 -0.17975549426E+01 -0.24633402446E+02  0.30000000000E+02  0.47000000000E+01 0.  1.
         -5    1    1    2    0  501  0.16366865313E+02  0.17975549426E+01  0.24633402446E+02  0.30000000000E+02  0.47000000000E+01 0. -1.
</event>
<event>
 4    1  0.7509957E-002  0.6000000E+02  0.7546771E-02  0.1259629E+00
         11   -1    0    0    0    0  0.00000000000E+00  0.00000000000E+00  0.30000000000E+02  0.30000000000E+02  0.00000000000E+00 0.  1.
        -11   -1    0    0    0    0 -0.00000000000E+00 -0.00000000000E+00 -0.30000000000E+02  0.30000000000E+02  0.00000000000E+00 0. -1.
          5    1    1    2  501    0 -0.17831237652E+02 -0.37970877930E+00 -0.23660363164E+02  0.30000000000E+02  0.47000000000E+01 0. -1.
         -5    1    1    2    0  501  0.17831237652E+02  0.37970877930E+00  0.23660363164E+02  0.30000000000E+02  0.47000000000E+01 0.  1.
</event>
<event>
 4    1  0.7509957E-002  0.6000000E+02  0.7546771E-02  0.1259629E+00
         11   -1    0    0    0    0  0.00000000000E+00  0.00000000000E+00  0.30000000000E+02  0.30000000000E+02  0.00000000000E+00 0. -1.
        -11   -1    0    0    0    0 -0.00000000000E+00 -0.00000000000E+00 -0.30000000000E+02  0.30000000000E+02  0.00000000000E+00 0.  1.
          5    1    1    2  501    0 -0.49841272086E+00  0.19208695267E+02 -0.22554104081E+02  0.30000000000E+02  0.47000000000E+01 0.  1.
         -5    1    1    2    0  501  0.49841272086E+00 -0.19208695267E+02  0.22554104081E+02  0.30000000000E+02  0.47000000000E+01 0. -1.
</event>
<event>
 4    1  0.7509957E-002  0.6000000E+02  0.7546771E-02  0.1259629E+00
         11   -1    0    0    0    0  0.00000000000E+00  0.00000000000E+00  0.30000000000E+02  0.30000000000E+02  0.00000000000E+00 0. -1.
        -11   -1    0    0    0    0 -0.00000000000E+00 -0.00000000000E+00 -0.30000000000E+02  0.30000000000E+02  0.00000000000E+00 0.  1.
          5    1    1    2  501    0 -0.19065349335E+02  0.11925375205E+02 -0.19292689832E+02  0.30000000000E+02  0.47000000000E+01 0.  1.
         -5    1    1    2    0  501  0.19065349335E+02 -0.11925375205E+02  0.19292689832E+02  0.30000000000E+02  0.47000000000E+01 0. -1.
</event>
<event>
 4    1  0.7509957E-002  0.6000000E+02  0.7546771E-02  0.1259629E+00
         11   -1    0    0    0    0  0.00000000000E+00  0.00000000000E+00  0.30000000000E+02  0.30000000000E+02  0.00000000000E+00 0. -1.
        -11   -1    0    0    0    0 -0.00000000000E+00 -0.00000000000E+00 -0.30000000000E+02  0.30000000000E+02  0.00000000000E+00 0.  1.
          5    1    1    2  501    0  0.21289614327E+02  0.80156280906E+01 -0.18984520750E+02  0.30000000000E+02  0.47000000000E+01 0.  1.
         -5    1    1    2    0  501 -0.21289614327E+02 -0.80156280906E+01  0.18984520750E+02  0.30000000000E+02  0.47000000000E+01 0. -1.
</event>
<event>
 4    1  0.7509957E-002  0.6000000E+02  0.7546771E-02  0.1259629E+00
         11   -1    0    0    0    0  0.00000000000E+00  0.00000000000E+00  0.30000000000E+02  0.30000000000E+02  0.00000000000E+00 0.  1.
        -11   -1    0    0    0    0 -0.00000000000E+00 -0.00000000000E+00 -0.30000000000E+02  0.30000000000E+02  0.00000000000E+00 0. -1.
          5    1    1    2  501    0  0.17688599448E+02 -0.73057317945E+00 -0.23758992243E+02  0.30000000000E+02  0.47000000000E+01 0. -1.
         -5    1    1    2    0  501 -0.17688599448E+02  0.73057317945E+00  0.23758992243E+02  0.30000000000E+02  0.47000000000E+01 0.  1.
</event>
<event>
 4    1  0.7509957E-002  0.6000000E+02  0.7546771E-02  0.1259629E+00
         11   -1    0    0    0    0  0.00000000000E+00  0.00000000000E+00  0.30000000000E+02  0.30000000000E+02  0.00000000000E+00 0.  1.
        -11   -1    0    0    0    0 -0.00000000000E+00 -0.00000000000E+00 -0.30000000000E+02  0.30000000000E+02  0.00000000000E+00 0. -1.
          5    1    1    2  501    0  0.90486130486E-01  0.95397723192E+01 -0.28051640885E+02  0.30000000000E+02  0.47000000000E+01 0. -1.
         -5    1    1    2    0  501 -0.90486130486E-01 -0.95397723192E+01  0.28051640885E+02  0.30000000000E+02  0.47000000000E+01 0.  1.
</event>
<event>
 4    1  0.7509957E-002  0.6000000E+02  0.7546771E-02  0.1259629E+00
         11   -1    0    0    0    0  0.00000000000E+00  0.00000000000E+00  0.30000000000E+02  0.30000000000E+02  0.00000000000E+00 0.  1.
        -11   -1    0    0    0    0 -0.00000000000E+00 -0.00000000000E+00 -0.30000000000E+02  0.30000000000E+02  0.00000000000E+00 0. -1.
          5    1    1    2  501    0  0.12366248377E+02 -0.14775527388E+02 -0.22509324545E+02  0.30000000000E+02  0.47000000000E+01 0. -1.
         -5    1    1    2    0  501 -0.12366248377E+02  0.14775527388E+02  0.22509324545E+02  0.30000000000E+02  0.47000000000E+01 0.  1.
</event>
<event>
 4    1  0.7509957E-002  0.6000000E+02  0.7546771E-02  0.1259629E+00
         11   -1    0    0    0    0  0.00000000000E+00  0.00000000000E+00  0.30000000000E+02  0.30000000000E+02  0.00000000000E+00 0.  1.
        -11   -1    0    0    0    0 -0.00000000000E+00 -0.00000000000E+00 -0.30000000000E+02  0.30000000000E+02  0.00000000000E+00 0. -1.
          5    1    1    2  501    0 -0.11408662575E+02  0.85438609473E+01  0.25976043932E+02  0.30000000000E+02  0.47000000000E+01 0.  1.
         -5    1    1    2    0  501  0.11408662575E+02 -0.85438609473E+01 -0.25976043932E+02  0.30000000000E+02  0.47000000000E+01 0. -1.
</event>
<event>
 4    1  0.7509957E-002  0.6000000E+02  0.7546771E-02  0.1259629E+00
         11   -1    0    0    0    0  0.00000000000E+00  0.00000000000E+00  0.30000000000E+02  0.30000000000E+02  0.00000000000E+00 0.  1.
        -11   -1    0    0    0    0 -0.00000000000E+00 -0.00000000000E+00 -0.30000000000E+02  0.30000000000E+02  0.00000000000E+00 0. -1.
          5    1    1    2  501    0 -0.42642086013E+01  0.28858316647E+02 -0.51888423842E+01  0.30000000000E+02  0.47000000000E+01 0. -1.
         -5    1    1    2    0  501  0.42642086013E+01 -0.28858316647E+02  0.51888423842E+01  0.30000000000E+02  0.47000000000E+01 0.  1.
</event>
<event>
 4    1  0.7509957E-002  0.6000000E+02  0.7546771E-02  0.1259629E+00
         11   -1    0    0    0    0  0.00000000000E+00  0.00000000000E+00  0.30000000000E+02  0.30000000000E+02  0.00000000000E+00 0.  1.
        -11   -1    0    0    0    0 -0.00000000000E+00 -0.00000000000E+00 -0.30000000000E+02  0.30000000000E+02  0.00000000000E+00 0. -1.
          5    1    1    2  501    0 -0.16807634813E+01  0.28456330229E+02 -0.80822214764E+01  0.30000000000E+02  0.47000000000E+01 0. -1.
         -5    1    1    2    0  501  0.16807634813E+01 -0.28456330229E+02  0.80822214764E+01  0.30000000000E+02  0.47000000000E+01 0.  1.
</event>
<event>
 4    1  0.7509957E-002  0.6000000E+02  0.7546771E-02  0.1259629E+00
         11   -1    0    0    0    0  0.00000000000E+00  0.00000000000E+00  0.30000000000E+02  0.30000000000E+02  0.00000000000E+00 0.  1.
        -11   -1    0    0    0    0 -0.00000000000E+00 -0.00000000000E+00 -0.30000000000E+02  0.30000000000E+02  0.00000000000E+00 0. -1.
          5    1    1    2  501    0 -0.21640976137E+02  0.13919907570E+02 -0.14690620309E+02  0.30000000000E+02  0.47000000000E+01 0. -1.
         -5    1    1    2    0  501  0.21640976137E+02 -0.13919907570E+02  0.14690620309E+02  0.30000000000E+02  0.47000000000E+01 0.  1.
</event>
<event>
 4    1  0.7509957E-002  0.6000000E+02  0.7546771E-02  0.1259629E+00
         11   -1    0    0    0    0  0.00000000000E+00  0.00000000000E+00  0.30000000000E+02  0.30000000000E+02  0.00000000000E+00 0.  1.
        -11   -1    0    0    0    0 -0.00000000000E+00 -0.00000000000E+00 -0.30000000000E+02  0.30000000000E+02  0.00000000000E+00 0. -1.
          5    1    1    2  501    0 -0.21305729052E+02 -0.17974452410E+02 -0.10044648832E+02  0.30000000000E+02  0.47000000000E+01 0. -1.
         -5    1    1    2    0  501  0.21305729052E+02  0.17974452410E+02  0.10044648832E+02  0.30000000000E+02  0.47000000000E+01 0.  1.
</event>
<event>
 4    1  0.7509957E-002  0.6000000E+02  0.7546771E-02  0.1259629E+00
         11   -1    0    0    0    0  0.00000000000E+00  0.00000000000E+00  0.30000000000E+02  0.30000000000E+02  0.00000000000E+00 0. -1.
        -11   -1    0    0    0    0 -0.00000000000E+00 -0.00000000000E+00 -0.30000000000E+02  0.30000000000E+02  0.00000000000E+00 0.  1.
          5    1    1    2  501    0 -0.11426973445E+02  0.27283290484E+02 -0.17194005447E+01  0.30000000000E+02  0.47000000000E+01 0.  1.
         -5    1    1    2    0  501  0.11426973445E+02 -0.27283290484E+02  0.17194005447E+01  0.30000000000E+02  0.47000000000E+01 0. -1.
</event>
<event>
 4    1  0.7509957E-002  0.6000000E+02  0.7546771E-02  0.1259629E+00
         11   -1    0    0    0    0  0.00000000000E+00  0.00000000000E+00  0.30000000000E+02  0.30000000000E+02  0.00000000000E+00 0.  1.
        -11   -1    0    0    0    0 -0.00000000000E+00 -0.00000000000E+00 -0.30000000000E+02  0.30000000000E+02  0.00000000000E+00 0. -1.
          5    1    1    2  501    0  0.11606129413E+02  0.87268937107E+01 -0.25827293436E+02  0.30000000000E+02  0.47000000000E+01 0. -1.
         -5    1    1    2    0  501 -0.11606129413E+02 -0.87268937107E+01  0.25827293436E+02  0.30000000000E+02  0.47000000000E+01 0.  1.
</event>
<event>
 4    1  0.7509957E-002  0.6000000E+02  0.7546771E-02  0.1259629E+00
         11   -1    0    0    0    0  0.00000000000E+00  0.00000000000E+00  0.30000000000E+02  0.30000000000E+02  0.00000000000E+00 0.  1.
        -11   -1    0    0    0    0 -0.00000000000E+00 -0.00000000000E+00 -0.30000000000E+02  0.30000000000E+02  0.00000000000E+00 0. -1.
          5    1    1    2  501    0  0.12708490899E+02  0.13902572394E+01  0.26729598648E+02  0.30000000000E+02  0.47000000000E+01 0.  1.
         -5    1    1    2    0  501 -0.12708490899E+02 -0.13902572394E+01 -0.26729598648E+02  0.30000000000E+02  0.47000000000E+01 0. -1.
</event>
<event>
 4    1  0.7509957E-002  0.6000000E+02  0.7546771E-02  0.1259629E+00
         11   -1    0    0    0    0  0.00000000000E+00  0.00000000000E+00  0.30000000000E+02  0.30000000000E+02  0.00000000000E+00 0.  1.
        -11   -1    0    0    0    0 -0.00000000000E+00 -0.00000000000E+00 -0.30000000000E+02  0.30000000000E+02  0.00000000000E+00 0. -1.
          5    1    1    2  501    0 -0.25861474708E+02 -0.12939982279E+02 -0.64537573989E+01  0.30000000000E+02  0.47000000000E+01 0. -1.
         -5    1    1    2    0  501  0.25861474708E+02  0.12939982279E+02  0.64537573989E+01  0.30000000000E+02  0.47000000000E+01 0.  1.
</event>
<event>
 4    1  0.7509957E-002  0.6000000E+02  0.7546771E-02  0.1259629E+00
         11   -1    0    0    0    0  0.00000000000E+00  0.00000000000E+00  0.30000000000E+02  0.30000000000E+02  0.00000000000E+00 0. -1.
        -11   -1    0    0    0    0 -0.00000000000E+00 -0.00000000000E+00 -0.30000000000E+02  0.30000000000E+02  0.00000000000E+00 0.  1.
          5    1    1    2  501    0  0.28029516823E+02 -0.66375804323E+01 -0.69425292716E+01  0.30000000000E+02  0.47000000000E+01 0.  1.
         -5    1    1    2    0  501 -0.28029516823E+02  0.66375804323E+01  0.69425292716E+01  0.30000000000E+02  0.47000000000E+01 0. -1.
</event>
<event>
 4    1  0.7509957E-002  0.6000000E+02  0.7546771E-02  0.1259629E+00
         11   -1    0    0    0    0  0.00000000000E+00  0.00000000000E+00  0.30000000000E+02  0.30000000000E+02  0.00000000000E+00 0.  1.
        -11   -1    0    0    0    0 -0.00000000000E+00 -0.00000000000E+00 -0.30000000000E+02  0.30000000000E+02  0.00000000000E+00 0. -1.
          5    1    1    2  501    0 -0.88124249912E+01 -0.22802326947E+02 -0.16742313209E+02  0.30000000000E+02  0.47000000000E+01 0. -1.
         -5    1    1    2    0  501  0.88124249912E+01  0.22802326947E+02  0.16742313209E+02  0.30000000000E+02  0.47000000000E+01 0.  1.
</event>
<event>
 4    1  0.7509957E-002  0.6000000E+02  0.7546771E-02  0.1259629E+00
         11   -1    0    0    0    0  0.00000000000E+00  0.00000000000E+00  0.30000000000E+02  0.30000000000E+02  0.00000000000E+00 0.  1.
        -11   -1    0    0    0    0 -0.00000000000E+00 -0.00000000000E+00 -0.30000000000E+02  0.30000000000E+02  0.00000000000E+00 0. -1.
          5    1    1    2  501    0  0.20771022318E+01 -0.62250048842E+00 -0.29550095422E+02  0.30000000000E+02  0.47000000000E+01 0. -1.
         -5    1    1    2    0  501 -0.20771022318E+01  0.62250048842E+00  0.29550095422E+02  0.30000000000E+02  0.47000000000E+01 0.  1.
</event>
<event>
 4    1  0.7509957E-002  0.6000000E+02  0.7546771E-02  0.1259629E+00
         11   -1    0    0    0    0  0.00000000000E+00  0.00000000000E+00  0.30000000000E+02  0.30000000000E+02  0.00000000000E+00 0.  1.
        -11   -1    0    0    0    0 -0.00000000000E+00 -0.00000000000E+00 -0.30000000000E+02  0.30000000000E+02  0.00000000000E+00 0. -1.
          5    1    1    2  501    0 -0.11659146433E+02  0.22113103807E+02 -0.15905500447E+02  0.30000000000E+02  0.47000000000E+01 0. -1.
         -5    1    1    2    0  501  0.11659146433E+02 -0.22113103807E+02  0.15905500447E+02  0.30000000000E+02  0.47000000000E+01 0.  1.
</event>
<event>
 4    1  0.7509957E-002  0.6000000E+02  0.7546771E-02  0.1259629E+00
         11   -1    0    0    0    0  0.00000000000E+00  0.00000000000E+00  0.30000000000E+02  0.30000000000E+02  0.00000000000E+00 0. -1.
        -11   -1    0    0    0    0 -0.00000000000E+00 -0.00000000000E+00 -0.30000000000E+02  0.30000000000E+02  0.00000000000E+00 0.  1.
          5    1    1    2  501    0 -0.67579357432E+01 -0.92051061380E+01 -0.27340561909E+02  0.30000000000E+02  0.47000000000E+01 0.  1.
         -5    1    1    2    0  501  0.67579357432E+01  0.92051061380E+01  0.27340561909E+02  0.30000000000E+02  0.47000000000E+01 0. -1.
</event>
<event>
 4    1  0.7509957E-002  0.6000000E+02  0.7546771E-02  0.1259629E+00
         11   -1    0    0    0    0  0.00000000000E+00  0.00000000000E+00  0.30000000000E+02  0.30000000000E+02  0.00000000000E+00 0.  1.
        -11   -1    0    0    0    0 -0.00000000000E+00 -0.00000000000E+00 -0.30000000000E+02  0.30000000000E+02  0.00000000000E+00 0. -1.
          5    1    1    2  501    0  0.24008982240E+02  0.13069882506E+02 -0.11430526806E+02  0.30000000000E+02  0.47000000000E+01 0. -1.
         -5    1    1    2    0  501 -0.24008982240E+02 -0.13069882506E+02  0.11430526806E+02  0.30000000000E+02  0.47000000000E+01 0.  1.
</event>
<event>
 4    1  0.7509957E-002  0.6000000E+02  0.7546771E-02  0.1259629E+00
         11   -1    0    0    0    0  0.00000000000E+00  0.00000000000E+00  0.30000000000E+02  0.30000000000E+02  0.00000000000E+00 0. -1.
        -11   -1    0    0    0    0 -0.00000000000E+00 -0.00000000000E+00 -0.30000000000E+02  0.30000000000E+02  0.00000000000E+00 0.  1.
          5    1    1    2  501    0 -0.16466074131E+02 -0.79394202877E+01  0.23318319155E+02  0.30000000000E+02  0.47000000000E+01 0. -1.
         -5    1    1    2    0  501  0.16466074131E+02  0.79394202877E+01 -0.23318319155E+02  0.30000000000E+02  0.47000000000E+01 0.  1.
</event>
<event>
 4    1  0.7509957E-002  0.6000000E+02  0.7546771E-02  0.1259629E+00
         11   -1    0    0    0    0  0.00000000000E+00  0.00000000000E+00  0.30000000000E+02  0.30000000000E+02  0.00000000000E+00 0.  1.
        -11   -1    0    0    0    0 -0.00000000000E+00 -0.00000000000E+00 -0.30000000000E+02  0.30000000000E+02  0.00000000000E+00 0. -1.
          5    1    1    2  501    0 -0.28898035350E+02  0.12165596713E+01 -0.64291162289E+01  0.30000000000E+02  0.47000000000E+01 0. -1.
         -5    1    1    2    0  501  0.28898035350E+02 -0.12165596713E+01  0.64291162289E+01  0.30000000000E+02  0.47000000000E+01 0.  1.
</event>
<event>
 4    1  0.7509957E-002  0.6000000E+02  0.7546771E-02  0.1259629E+00
         11   -1    0    0    0    0  0.00000000000E+00  0.00000000000E+00  0.30000000000E+02  0.30000000000E+02  0.00000000000E+00 0.  1.
        -11   -1    0    0    0    0 -0.00000000000E+00 -0.00000000000E+00 -0.30000000000E+02  0.30000000000E+02  0.00000000000E+00 0. -1.
          5    1    1    2  501    0 -0.14322395013E+02  0.84372927705E+01 -0.24527353950E+02  0.30000000000E+02  0.47000000000E+01 0. -1.
         -5    1    1    2    0  501  0.14322395013E+02 -0.84372927705E+01  0.24527353950E+02  0.30000000000E+02  0.47000000000E+01 0.  1.
</event>
<event>
 4    1  0.7509957E-002  0.6000000E+02  0.7546771E-02  0.1259629E+00
         11   -1    0    0    0    0  0.00000000000E+00  0.00000000000E+00  0.30000000000E+02  0.30000000000E+02  0.00000000000E+00 0. -1.
        -11   -1    0    0    0    0 -0.00000000000E+00 -0.00000000000E+00 -0.30000000000E+02  0.30000000000E+02  0.00000000000E+00 0.  1.
          5    1    1    2  501    0  0.28401448270E+02  0.42455253977E+01  0.72967972601E+01  0.30000000000E+02  0.47000000000E+01 0.  1.
         -5    1    1    2    0  501 -0.28401448270E+02 -0.42455253977E+01 -0.72967972601E+01  0.30000000000E+02  0.47000000000E+01 0. -1.
</event>
<event>
 4    1  0.7509957E-002  0.6000000E+02  0.7546771E-02  0.1259629E+00
         11   -1    0    0    0    0  0.00000000000E+00  0.00000000000E+00  0.30000000000E+02  0.30000000000E+02  0.00000000000E+00 0.  1.
        -11   -1    0    0    0    0 -0.00000000000E+00 -0.00000000000E+00 -0.30000000000E+02  0.30000000000E+02  0.00000000000E+00 0. -1.
          5    1    1    2  501    0 -0.26084360419E+02 -0.13997730058E+02  0.12568590776E+01  0.30000000000E+02  0.47000000000E+01 0. -1.
         -5    1    1    2    0  501  0.26084360419E+02  0.13997730058E+02 -0.12568590776E+01  0.30000000000E+02  0.47000000000E+01 0.  1.
</event>
<event>
 4    1  0.7509957E-002  0.6000000E+02  0.7546771E-02  0.1259629E+00
         11   -1    0    0    0    0  0.00000000000E+00  0.00000000000E+00  0.30000000000E+02  0.30000000000E+02  0.00000000000E+00 0.  1.
        -11   -1    0    0    0    0 -0.00000000000E+00 -0.00000000000E+00 -0.30000000000E+02  0.30000000000E+02  0.00000000000E+00 0. -1.
          5    1    1    2  501    0 -0.13475791125E+02  0.17153111731E+02 -0.20052027616E+02  0.30000000000E+02  0.47000000000E+01 0. -1.
         -5    1    1    2    0  501  0.13475791125E+02 -0.17153111731E+02  0.20052027616E+02  0.30000000000E+02  0.47000000000E+01 0.  1.
</event>
<event>
 4    1  0.7509957E-002  0.6000000E+02  0.7546771E-02  0.1259629E+00
         11   -1    0    0    0    0  0.00000000000E+00  0.00000000000E+00  0.30000000000E+02  0.30000000000E+02  0.00000000000E+00 0.  1.
        -11   -1    0    0    0    0 -0.00000000000E+00 -0.00000000000E+00 -0.30000000000E+02  0.30000000000E+02  0.00000000000E+00 0. -1.
          5    1    1    2  501    0  0.12488343963E+01 -0.29567427583E+02 -0.14552108980E+01  0.30000000000E+02  0.47000000000E+01 0. -1.
         -5    1    1    2    0  501 -0.12488343963E+01  0.29567427583E+02  0.14552108980E+01  0.30000000000E+02  0.47000000000E+01 0.  1.
</event>
<event>
 4    1  0.7509957E-002  0.6000000E+02  0.7546771E-02  0.1259629E+00
         11   -1    0    0    0    0  0.00000000000E+00  0.00000000000E+00  0.30000000000E+02  0.30000000000E+02  0.00000000000E+00 0. -1.
        -11   -1    0    0    0    0 -0.00000000000E+00 -0.00000000000E+00 -0.30000000000E+02  0.30000000000E+02  0.00000000000E+00 0.  1.
          5    1    1    2  501    0 -0.64493498759E+01  0.47362648625E+01  0.28528646679E+02  0.30000000000E+02  0.47000000000E+01 0. -1.
         -5    1    1    2    0  501  0.64493498759E+01 -0.47362648625E+01 -0.28528646679E+02  0.30000000000E+02  0.47000000000E+01 0.  1.
</event>
<event>
 4    1  0.7509957E-002  0.6000000E+02  0.7546771E-02  0.1259629E+00
         11   -1    0    0    0    0  0.00000000000E+00  0.00000000000E+00  0.30000000000E+02  0.30000000000E+02  0.00000000000E+00 0.  1.
        -11   -1    0    0    0    0 -0.00000000000E+00 -0.00000000000E+00 -0.30000000000E+02  0.30000000000E+02  0.00000000000E+00 0. -1.
          5    1    1    2  501    0 -0.19376869957E+02 -0.22336102507E+02 -0.18829326766E+01  0.30000000000E+02  0.47000000000E+01 0. -1.
         -5    1    1    2    0  501  0.19376869957E+02  0.22336102507E+02  0.18829326766E+01  0.30000000000E+02  0.47000000000E+01 0.  1.
</event>
<event>
 4    1  0.7509957E-002  0.6000000E+02  0.7546771E-02  0.1259629E+00
         11   -1    0    0    0    0  0.00000000000E+00  0.00000000000E+00  0.30000000000E+02  0.30000000000E+02  0.00000000000E+00 0.  1.
        -11   -1    0    0    0    0 -0.00000000000E+00 -0.00000000000E+00 -0.30000000000E+02  0.30000000000E+02  0.00000000000E+00 0. -1.
          5    1    1    2  501    0 -0.16518122991E+02  0.19928364824E+02 -0.14419496812E+02  0.30000000000E+02  0.47000000000E+01 0. -1.
         -5    1    1    2    0  501  0.16518122991E+02 -0.19928364824E+02  0.14419496812E+02  0.30000000000E+02  0.47000000000E+01 0.  1.
</event>
<event>
 4    1  0.7509957E-002  0.6000000E+02  0.7546771E-02  0.1259629E+00
         11   -1    0    0    0    0  0.00000000000E+00  0.00000000000E+00  0.30000000000E+02  0.30000000000E+02  0.00000000000E+00 0.  1.
        -11   -1    0    0    0    0 -0.00000000000E+00 -0.00000000000E+00 -0.30000000000E+02  0.30000000000E+02  0.00000000000E+00 0. -1.
          5    1    1    2  501    0  0.10604822714E+02  0.41766373699E+01 -0.27349651469E+02  0.30000000000E+02  0.47000000000E+01 0. -1.
         -5    1    1    2    0  501 -0.10604822714E+02 -0.41766373699E+01  0.27349651469E+02  0.30000000000E+02  0.47000000000E+01 0.  1.
</event>
<event>
 4    1  0.7509957E-002  0.6000000E+02  0.7546771E-02  0.1259629E+00
         11   -1    0    0    0    0  0.00000000000E+00  0.00000000000E+00  0.30000000000E+02  0.30000000000E+02  0.00000000000E+00 0. -1.
        -11   -1    0    0    0    0 -0.00000000000E+00 -0.00000000000E+00 -0.30000000000E+02  0.30000000000E+02  0.00000000000E+00 0.  1.
          5    1    1    2  501    0 -0.12199183182E+02  0.21183703182E+02 -0.16743376277E+02  0.30000000000E+02  0.47000000000E+01 0.  1.
         -5    1    1    2    0  501  0.12199183182E+02 -0.21183703182E+02  0.16743376277E+02  0.30000000000E+02  0.47000000000E+01 0. -1.
</event>
<event>
 4    1  0.7509957E-002  0.6000000E+02  0.7546771E-02  0.1259629E+00
         11   -1    0    0    0    0  0.00000000000E+00  0.00000000000E+00  0.30000000000E+02  0.30000000000E+02  0.00000000000E+00 0.  1.
        -11   -1    0    0    0    0 -0.00000000000E+00 -0.00000000000E+00 -0.30000000000E+02  0.30000000000E+02  0.00000000000E+00 0. -1.
          5    1    1    2  501    0 -0.14765438402E+02 -0.11409793737E+02 -0.23015395623E+02  0.30000000000E+02  0.47000000000E+01 0. -1.
         -5    1    1    2    0  501  0.14765438402E+02  0.11409793737E+02  0.23015395623E+02  0.30000000000E+02  0.47000000000E+01 0.  1.
</event>
<event>
 4    1  0.7509957E-002  0.6000000E+02  0.7546771E-02  0.1259629E+00
         11   -1    0    0    0    0  0.00000000000E+00  0.00000000000E+00  0.30000000000E+02  0.30000000000E+02  0.00000000000E+00 0.  1.
        -11   -1    0    0    0    0 -0.00000000000E+00 -0.00000000000E+00 -0.30000000000E+02  0.30000000000E+02  0.00000000000E+00 0. -1.
          5    1    1    2  501    0  0.27056387888E+02 -0.79435424125E+01  0.90973627153E+01  0.30000000000E+02  0.47000000000E+01 0. -1.
         -5    1    1    2    0  501 -0.27056387888E+02  0.79435424125E+01 -0.90973627153E+01  0.30000000000E+02  0.47000000000E+01 0.  1.
</event>
<event>
 4    1  0.7509957E-002  0.6000000E+02  0.7546771E-02  0.1259629E+00
         11   -1    0    0    0    0  0.00000000000E+00  0.00000000000E+00  0.30000000000E+02  0.30000000000E+02  0.00000000000E+00 0. -1.
        -11   -1    0    0    0    0 -0.00000000000E+00 -0.00000000000E+00 -0.30000000000E+02  0.30000000000E+02  0.00000000000E+00 0.  1.
          5    1    1    2  501    0  0.23118510900E+00  0.11706986071E+02 -0.27217697011E+02  0.30000000000E+02  0.47000000000E+01 0.  1.
         -5    1    1    2    0  501 -0.23118510900E+00 -0.11706986071E+02  0.27217697011E+02  0.30000000000E+02  0.47000000000E+01 0. -1.
</event>
<event>
 4    1  0.7509957E-002  0.6000000E+02  0.7546771E-02  0.1259629E+00
         11   -1    0    0    0    0  0.00000000000E+00  0.00000000000E+00  0.30000000000E+02  0.30000000000E+02  0.00000000000E+00 0.  1.
        -11   -1    0    0    0    0 -0.00000000000E+00 -0.00000000000E+00 -0.30000000000E+02  0.30000000000E+02  0.00000000000E+00 0. -1.
          5    1    1    2  501    0 -0.17248307376E+02 -0.71967252042E+01 -0.22991586265E+02  0.30000000000E+02  0.47000000000E+01 0. -1.
         -5    1    1    2    0  501  0.17248307376E+02  0.71967252042E+01  0.22991586265E+02  0.30000000000E+02  0.47000000000E+01 0.  1.
</event>
<event>
 4    1  0.7509957E-002  0.6000000E+02  0.7546771E-02  0.1259629E+00
         11   -1    0    0    0    0  0.00000000000E+00  0.00000000000E+00  0.30000000000E+02  0.30000000000E+02  0.00000000000E+00 0.  1.
        -11   -1    0    0    0    0 -0.00000000000E+00 -0.00000000000E+00 -0.30000000000E+02  0.30000000000E+02  0.00000000000E+00 0. -1.
          5    1    1    2  501    0  0.10918997020E+02 -0.27308739362E+02 -0.35941978986E+01  0.30000000000E+02  0.47000000000E+01 0. -1.
         -5    1    1    2    0  501 -0.10918997020E+02  0.27308739362E+02  0.35941978986E+01  0.30000000000E+02  0.47000000000E+01 0.  1.
</event>
<event>
 4    1  0.7509957E-002  0.6000000E+02  0.7546771E-02  0.1259629E+00
         11   -1    0    0    0    0  0.00000000000E+00  0.00000000000E+00  0.30000000000E+02  0.30000000000E+02  0.00000000000E+00 0.  1.
        -11   -1    0    0    0    0 -0.00000000000E+00 -0.00000000000E+00 -0.30000000000E+02  0.30000000000E+02  0.00000000000E+00 0. -1.
          5    1    1    2  501    0  0.17471491422E+02  0.15070846117E+02 -0.18588345403E+02  0.30000000000E+02  0.47000000000E+01 0. -1.
         -5    1    1    2    0  501 -0.17471491422E+02 -0.15070846117E+02  0.18588345403E+02  0.30000000000E+02  0.47000000000E+01 0.  1.
</event>
<event>
 4    1  0.7509957E-002  0.6000000E+02  0.7546771E-02  0.1259629E+00
         11   -1    0    0    0    0  0.00000000000E+00  0.00000000000E+00  0.30000000000E+02  0.30000000000E+02  0.00000000000E+00 0.  1.
        -11   -1    0    0    0    0 -0.00000000000E+00 -0.00000000000E+00 -0.30000000000E+02  0.30000000000E+02  0.00000000000E+00 0. -1.
          5    1    1    2  501    0  0.21111923643E+01 -0.19371547599E+01  0.29490681549E+02  0.30000000000E+02  0.47000000000E+01 0.  1.
         -5    1    1    2    0  501 -0.21111923643E+01  0.19371547599E+01 -0.29490681549E+02  0.30000000000E+02  0.47000000000E+01 0. -1.
</event>
<event>
 4    1  0.7509957E-002  0.6000000E+02  0.7546771E-02  0.1259629E+00
         11   -1    0    0    0    0  0.00000000000E+00  0.00000000000E+00  0.30000000000E+02  0.30000000000E+02  0.00000000000E+00 0.  1.
        -11   -1    0    0    0    0 -0.00000000000E+00 -0.00000000000E+00 -0.30000000000E+02  0.30000000000E+02  0.00000000000E+00 0. -1.
          5    1    1    2  501    0 -0.10024473550E+02 -0.26161232981E+02  0.96441598365E+01  0.30000000000E+02  0.47000000000E+01 0.  1.
         -5    1    1    2    0  501  0.10024473550E+02  0.26161232981E+02 -0.96441598365E+01  0.30000000000E+02  0.47000000000E+01 0. -1.
</event>
<event>
 4    1  0.7509957E-002  0.6000000E+02  0.7546771E-02  0.1259629E+00
         11   -1    0    0    0    0  0.00000000000E+00  0.00000000000E+00  0.30000000000E+02  0.30000000000E+02  0.00000000000E+00 0.  1.
        -11   -1    0    0    0    0 -0.00000000000E+00 -0.00000000000E+00 -0.30000000000E+02  0.30000000000E+02  0.00000000000E+00 0. -1.
          5    1    1    2  501    0  0.24850160725E+02 -0.16133833542E+02  0.28093982716E+00  0.30000000000E+02  0.47000000000E+01 0. -1.
         -5    1    1    2    0  501 -0.24850160725E+02  0.16133833542E+02 -0.28093982716E+00  0.30000000000E+02  0.47000000000E+01 0.  1.
</event>
<event>
 4    1  0.7509957E-002  0.6000000E+02  0.7546771E-02  0.1259629E+00
         11   -1    0    0    0    0  0.00000000000E+00  0.00000000000E+00  0.30000000000E+02  0.30000000000E+02  0.00000000000E+00 0.  1.
        -11   -1    0    0    0    0 -0.00000000000E+00 -0.00000000000E+00 -0.30000000000E+02  0.30000000000E+02  0.00000000000E+00 0. -1.
          5    1    1    2  501    0 -0.22276765024E+02  0.20663863517E+01 -0.19426419833E+02  0.30000000000E+02  0.47000000000E+01 0. -1.
         -5    1    1    2    0  501  0.22276765024E+02 -0.20663863517E+01  0.19426419833E+02  0.30000000000E+02  0.47000000000E+01 0.  1.
</event>
<event>
 4    1  0.7509957E-002  0.6000000E+02  0.7546771E-02  0.1259629E+00
         11   -1    0    0    0    0  0.00000000000E+00  0.00000000000E+00  0.30000000000E+02  0.30000000000E+02  0.00000000000E+00 0.  1.
        -11   -1    0    0    0    0 -0.00000000000E+00 -0.00000000000E+00 -0.30000000000E+02  0.30000000000E+02  0.00000000000E+00 0. -1.
          5    1    1    2  501    0  0.23738555863E+02 -0.17319539933E+02  0.37979602470E+01  0.30000000000E+02  0.47000000000E+01 0. -1.
         -5    1    1    2    0  501 -0.23738555863E+02  0.17319539933E+02 -0.37979602470E+01  0.30000000000E+02  0.47000000000E+01 0.  1.
</event>
<event>
 4    1  0.7509957E-002  0.6000000E+02  0.7546771E-02  0.1259629E+00
         11   -1    0    0    0    0  0.00000000000E+00  0.00000000000E+00  0.30000000000E+02  0.30000000000E+02  0.00000000000E+00 0. -1.
        -11   -1    0    0    0    0 -0.00000000000E+00 -0.00000000000E+00 -0.30000000000E+02  0.30000000000E+02  0.00000000000E+00 0.  1.
          5    1    1    2  501    0 -0.27524679323E+02  0.65365722659E+01 -0.88076813740E+01  0.30000000000E+02  0.47000000000E+01 0.  1.
         -5    1    1    2    0  501  0.27524679323E+02 -0.65365722659E+01  0.88076813740E+01  0.30000000000E+02  0.47000000000E+01 0. -1.
</event>
<event>
 4    1  0.7509957E-002  0.6000000E+02  0.7546771E-02  0.1259629E+00
         11   -1    0    0    0    0  0.00000000000E+00  0.00000000000E+00  0.30000000000E+02  0.30000000000E+02  0.00000000000E+00 0.  1.
        -11   -1    0    0    0    0 -0.00000000000E+00 -0.00000000000E+00 -0.30000000000E+02  0.30000000000E+02  0.00000000000E+00 0. -1.
          5    1    1    2  501    0 -0.82549157109E+01  0.23958881405E+02 -0.15353773752E+02  0.30000000000E+02  0.47000000000E+01 0. -1.
         -5    1    1    2    0  501  0.82549157109E+01 -0.23958881405E+02  0.15353773752E+02  0.30000000000E+02  0.47000000000E+01 0.  1.
</event>
<event>
 4    1  0.7509957E-002  0.6000000E+02  0.7546771E-02  0.1259629E+00
         11   -1    0    0    0    0  0.00000000000E+00  0.00000000000E+00  0.30000000000E+02  0.30000000000E+02  0.00000000000E+00 0.  1.
        -11   -1    0    0    0    0 -0.00000000000E+00 -0.00000000000E+00 -0.30000000000E+02  0.30000000000E+02  0.00000000000E+00 0. -1.
          5    1    1    2  501    0 -0.20419121500E+02  0.90432146285E+00 -0.21451146353E+02  0.30000000000E+02  0.47000000000E+01 0. -1.
         -5    1    1    2    0  501  0.20419121500E+02 -0.90432146285E+00  0.21451146353E+02  0.30000000000E+02  0.47000000000E+01 0.  1.
</event>
<event>
 4    1  0.7509957E-002  0.6000000E+02  0.7546771E-02  0.1259629E+00
         11   -1    0    0    0    0  0.00000000000E+00  0.00000000000E+00  0.30000000000E+02  0.30000000000E+02  0.00000000000E+00 0.  1.
        -11   -1    0    0    0    0 -0.00000000000E+00 -0.00000000000E+00 -0.30000000000E+02  0.30000000000E+02  0.00000000000E+00 0. -1.
          5    1    1    2  501    0 -0.12376601780E+02  0.12842262063E+02 -0.23660220487E+02  0.30000000000E+02  0.47000000000E+01 0. -1.
         -5    1    1    2    0  501  0.12376601780E+02 -0.12842262063E+02  0.23660220487E+02  0.30000000000E+02  0.47000000000E+01 0.  1.
</event>
<event>
 4    1  0.7509957E-002  0.6000000E+02  0.7546771E-02  0.1259629E+00
         11   -1    0    0    0    0  0.00000000000E+00  0.00000000000E+00  0.30000000000E+02  0.30000000000E+02  0.00000000000E+00 0.  1.
        -11   -1    0    0    0    0 -0.00000000000E+00 -0.00000000000E+00 -0.30000000000E+02  0.30000000000E+02  0.00000000000E+00 0. -1.
          5    1    1    2  501    0  0.22598664953E+02 -0.18910454431E+02 -0.30992024102E+01  0.30000000000E+02  0.47000000000E+01 0. -1.
         -5    1    1    2    0  501 -0.22598664953E+02  0.18910454431E+02  0.30992024102E+01  0.30000000000E+02  0.47000000000E+01 0.  1.
</event>
<event>
 4    1  0.7509957E-002  0.6000000E+02  0.7546771E-02  0.1259629E+00
         11   -1    0    0    0    0  0.00000000000E+00  0.00000000000E+00  0.30000000000E+02  0.30000000000E+02  0.00000000000E+00 0.  1.
        -11   -1    0    0    0    0 -0.00000000000E+00 -0.00000000000E+00 -0.30000000000E+02  0.30000000000E+02  0.00000000000E+00 0. -1.
          5    1    1    2  501    0 -0.23103810304E+02 -0.13535003934E+02 -0.12685724968E+02  0.30000000000E+02  0.47000000000E+01 0. -1.
         -5    1    1    2    0  501  0.23103810304E+02  0.13535003934E+02  0.12685724968E+02  0.30000000000E+02  0.47000000000E+01 0.  1.
</event>
<event>
 4    1  0.7509957E-002  0.6000000E+02  0.7546771E-02  0.1259629E+00
         11   -1    0    0    0    0  0.00000000000E+00  0.00000000000E+00  0.30000000000E+02  0.30000000000E+02  0.00000000000E+00 0.  1.
        -11   -1    0    0    0    0 -0.00000000000E+00 -0.00000000000E+00 -0.30000000000E+02  0.30000000000E+02  0.00000000000E+00 0. -1.
          5    1    1    2  501    0  0.18777624815E+02  0.55959555898E+01  0.22226022751E+02  0.30000000000E+02  0.47000000000E+01 0.  1.
         -5    1    1    2    0  501 -0.18777624815E+02 -0.55959555898E+01 -0.22226022751E+02  0.30000000000E+02  0.47000000000E+01 0. -1.
</event>
<event>
 4    1  0.7509957E-002  0.6000000E+02  0.7546771E-02  0.1259629E+00
         11   -1    0    0    0    0  0.00000000000E+00  0.00000000000E+00  0.30000000000E+02  0.30000000000E+02  0.00000000000E+00 0.  1.
        -11   -1    0    0    0    0 -0.00000000000E+00 -0.00000000000E+00 -0.30000000000E+02  0.30000000000E+02  0.00000000000E+00 0. -1.
          5    1    1    2  501    0 -0.11094264381E+02  0.43182160144E+01 -0.27132642855E+02  0.30000000000E+02  0.47000000000E+01 0. -1.
         -5    1    1    2    0  501  0.11094264381E+02 -0.43182160144E+01  0.27132642855E+02  0.30000000000E+02  0.47000000000E+01 0.  1.
</event>
<event>
 4    1  0.7509957E-002  0.6000000E+02  0.7546771E-02  0.1259629E+00
         11   -1    0    0    0    0  0.00000000000E+00  0.00000000000E+00  0.30000000000E+02  0.30000000000E+02  0.00000000000E+00 0. -1.
        -11   -1    0    0    0    0 -0.00000000000E+00 -0.00000000000E+00 -0.30000000000E+02  0.30000000000E+02  0.00000000000E+00 0.  1.
          5    1    1    2  501    0  0.12072424171E+02 -0.25104143180E+02 -0.10096958444E+02  0.30000000000E+02  0.47000000000E+01 0.  1.
         -5    1    1    2    0  501 -0.12072424171E+02  0.25104143180E+02  0.10096958444E+02  0.30000000000E+02  0.47000000000E+01 0. -1.
</event>
<event>
 4    1  0.7509957E-002  0.6000000E+02  0.7546771E-02  0.1259629E+00
         11   -1    0    0    0    0  0.00000000000E+00  0.00000000000E+00  0.30000000000E+02  0.30000000000E+02  0.00000000000E+00 0.  1.
        -11   -1    0    0    0    0 -0.00000000000E+00 -0.00000000000E+00 -0.30000000000E+02  0.30000000000E+02  0.00000000000E+00 0. -1.
          5    1    1    2  501    0  0.59989537506E+01 -0.21713198840E+02 -0.19247325789E+02  0.30000000000E+02  0.47000000000E+01 0. -1.
         -5    1    1    2    0  501 -0.59989537506E+01  0.21713198840E+02  0.19247325789E+02  0.30000000000E+02  0.47000000000E+01 0.  1.
</event>
<event>
 4    1  0.7509957E-002  0.6000000E+02  0.7546771E-02  0.1259629E+00
         11   -1    0    0    0    0  0.00000000000E+00  0.00000000000E+00  0.30000000000E+02  0.30000000000E+02  0.00000000000E+00 0.  1.
        -11   -1    0    0    0    0 -0.00000000000E+00 -0.00000000000E+00 -0.30000000000E+02  0.30000000000E+02  0.00000000000E+00 0. -1.
          5    1    1    2  501    0  0.20126574758E+02 -0.21014082549E+02 -0.55892148929E+01  0.30000000000E+02  0.47000000000E+01 0. -1.
         -5    1    1    2    0  501 -0.20126574758E+02  0.21014082549E+02  0.55892148929E+01  0.30000000000E+02  0.47000000000E+01 0.  1.
</event>
<event>
 4    1  0.7509957E-002  0.6000000E+02  0.7546771E-02  0.1259629E+00
         11   -1    0    0    0    0  0.00000000000E+00  0.00000000000E+00  0.30000000000E+02  0.30000000000E+02  0.00000000000E+00 0.  1.
        -11   -1    0    0    0    0 -0.00000000000E+00 -0.00000000000E+00 -0.30000000000E+02  0.30000000000E+02  0.00000000000E+00 0. -1.
          5    1    1    2  501    0 -0.54854991795E+01  0.13172905601E+02 -0.25967168825E+02  0.30000000000E+02  0.47000000000E+01 0. -1.
         -5    1    1    2    0  501  0.54854991795E+01 -0.13172905601E+02  0.25967168825E+02  0.30000000000E+02  0.47000000000E+01 0.  1.
</event>
<event>
 4    1  0.7509957E-002  0.6000000E+02  0.7546771E-02  0.1259629E+00
         11   -1    0    0    0    0  0.00000000000E+00  0.00000000000E+00  0.30000000000E+02  0.30000000000E+02  0.00000000000E+00 0.  1.
        -11   -1    0    0    0    0 -0.00000000000E+00 -0.00000000000E+00 -0.30000000000E+02  0.30000000000E+02  0.00000000000E+00 0. -1.
          5    1    1    2  501    0 -0.52416993625E+01 -0.13081592933E+02  0.26063509244E+02  0.30000000000E+02  0.47000000000E+01 0.  1.
         -5    1    1    2    0  501  0.52416993625E+01  0.13081592933E+02 -0.26063509244E+02  0.30000000000E+02  0.47000000000E+01 0. -1.
</event>
<event>
 4    1  0.7509957E-002  0.6000000E+02  0.7546771E-02  0.1259629E+00
         11   -1    0    0    0    0  0.00000000000E+00  0.00000000000E+00  0.30000000000E+02  0.30000000000E+02  0.00000000000E+00 0. -1.
        -11   -1    0    0    0    0 -0.00000000000E+00 -0.00000000000E+00 -0.30000000000E+02  0.30000000000E+02  0.00000000000E+00 0.  1.
          5    1    1    2  501    0 -0.16501956036E+02  0.99012644236E+01 -0.22529101398E+02  0.30000000000E+02  0.47000000000E+01 0.  1.
         -5    1    1    2    0  501  0.16501956036E+02 -0.99012644236E+01  0.22529101398E+02  0.30000000000E+02  0.47000000000E+01 0. -1.
</event>
<event>
 4    1  0.7509957E-002  0.6000000E+02  0.7546771E-02  0.1259629E+00
         11   -1    0    0    0    0  0.00000000000E+00  0.00000000000E+00  0.30000000000E+02  0.30000000000E+02  0.00000000000E+00 0. -1.
        -11   -1    0    0    0    0 -0.00000000000E+00 -0.00000000000E+00 -0.30000000000E+02  0.30000000000E+02  0.00000000000E+00 0.  1.
          5    1    1    2  501    0 -0.21169894607E+02  0.63567405334E+01 -0.19731634806E+02  0.30000000000E+02  0.47000000000E+01 0.  1.
         -5    1    1    2    0  501  0.21169894607E+02 -0.63567405334E+01  0.19731634806E+02  0.30000000000E+02  0.47000000000E+01 0. -1.
</event>
<event>
 4    1  0.7509957E-002  0.6000000E+02  0.7546771E-02  0.1259629E+00
         11   -1    0    0    0    0  0.00000000000E+00  0.00000000000E+00  0.30000000000E+02  0.30000000000E+02  0.00000000000E+00 0.  1.
        -11   -1    0    0    0    0 -0.00000000000E+00 -0.00000000000E+00 -0.30000000000E+02  0.30000000000E+02  0.00000000000E+00 0. -1.
          5    1    1    2  501    0 -0.26660962497E+02  0.11231066047E+02  0.64004870251E+01  0.30000000000E+02  0.47000000000E+01 0. -1.
         -5    1    1    2    0  501  0.26660962497E+02 -0.11231066047E+02 -0.64004870251E+01  0.30000000000E+02  0.47000000000E+01 0.  1.
</event>
<event>
 4    1  0.7509957E-002  0.6000000E+02  0.7546771E-02  0.1259629E+00
         11   -1    0    0    0    0  0.00000000000E+00  0.00000000000E+00  0.30000000000E+02  0.30000000000E+02  0.00000000000E+00 0. -1.
        -11   -1    0    0    0    0 -0.00000000000E+00 -0.00000000000E+00 -0.30000000000E+02  0.30000000000E+02  0.00000000000E+00 0.  1.
          5    1    1    2  501    0 -0.19334561659E+02 -0.11342264497E+02 -0.19376216388E+02  0.30000000000E+02  0.47000000000E+01 0.  1.
         -5    1    1    2    0  501  0.19334561659E+02  0.11342264497E+02  0.19376216388E+02  0.30000000000E+02  0.47000000000E+01 0. -1.
</event>
<event>
 4    1  0.7509957E-002  0.6000000E+02  0.7546771E-02  0.1259629E+00
         11   -1    0    0    0    0  0.00000000000E+00  0.00000000000E+00  0.30000000000E+02  0.30000000000E+02  0.00000000000E+00 0.  1.
        -11   -1    0    0    0    0 -0.00000000000E+00 -0.00000000000E+00 -0.30000000000E+02  0.30000000000E+02  0.00000000000E+00 0. -1.
          5    1    1    2  501    0 -0.22768861388E+02  0.10718110656E+02 -0.15640046517E+02  0.30000000000E+02  0.47000000000E+01 0. -1.
         -5    1    1    2    0  501  0.22768861388E+02 -0.10718110656E+02  0.15640046517E+02  0.30000000000E+02  0.47000000000E+01 0.  1.
</event>
<event>
 4    1  0.7509957E-002  0.6000000E+02  0.7546771E-02  0.1259629E+00
         11   -1    0    0    0    0  0.00000000000E+00  0.00000000000E+00  0.30000000000E+02  0.30000000000E+02  0.00000000000E+00 0. -1.
        -11   -1    0    0    0    0 -0.00000000000E+00 -0.00000000000E+00 -0.30000000000E+02  0.30000000000E+02  0.00000000000E+00 0.  1.
          5    1    1    2  501    0 -0.17835875349E+02  0.37168177134E+01  0.23366146808E+02  0.30000000000E+02  0.47000000000E+01 0. -1.
         -5    1    1    2    0  501  0.17835875349E+02 -0.37168177134E+01 -0.23366146808E+02  0.30000000000E+02  0.47000000000E+01 0.  1.
</event>
<event>
 4    1  0.7509957E-002  0.6000000E+02  0.7546771E-02  0.1259629E+00
         11   -1    0    0    0    0  0.00000000000E+00  0.00000000000E+00  0.30000000000E+02  0.30000000000E+02  0.00000000000E+00 0.  1.
        -11   -1    0    0    0    0 -0.00000000000E+00 -0.00000000000E+00 -0.30000000000E+02  0.30000000000E+02  0.00000000000E+00 0. -1.
          5    1    1    2  501    0  0.29196595349E+02 -0.20049307597E+01  0.46313143578E+01  0.30000000000E+02  0.47000000000E+01 0. -1.
         -5    1    1    2    0  501 -0.29196595349E+02  0.20049307597E+01 -0.46313143578E+01  0.30000000000E+02  0.47000000000E+01 0.  1.
</event>
<event>
 4    1  0.7509957E-002  0.6000000E+02  0.7546771E-02  0.1259629E+00
         11   -1    0    0    0    0  0.00000000000E+00  0.00000000000E+00  0.30000000000E+02  0.30000000000E+02  0.00000000000E+00 0.  1.
        -11   -1    0    0    0    0 -0.00000000000E+00 -0.00000000000E+00 -0.30000000000E+02  0.30000000000E+02  0.00000000000E+00 0. -1.
          5    1    1    2  501    0 -0.92712576801E+01 -0.10871528844E+02 -0.25956957480E+02  0.30000000000E+02  0.47000000000E+01 0. -1.
         -5    1    1    2    0  501  0.92712576801E+01  0.10871528844E+02  0.25956957480E+02  0.30000000000E+02  0.47000000000E+01 0.  1.
</event>
<event>
 4    1  0.7509957E-002  0.6000000E+02  0.7546771E-02  0.1259629E+00
         11   -1    0    0    0    0  0.00000000000E+00  0.00000000000E+00  0.30000000000E+02  0.30000000000E+02  0.00000000000E+00 0.  1.
        -11   -1    0    0    0    0 -0.00000000000E+00 -0.00000000000E+00 -0.30000000000E+02  0.30000000000E+02  0.00000000000E+00 0. -1.
          5    1    1    2  501    0  0.29048582603E+02 -0.89780101087E+00 -0.57692115650E+01  0.30000000000E+02  0.47000000000E+01 0. -1.
         -5    1    1    2    0  501 -0.29048582603E+02  0.89780101087E+00  0.57692115650E+01  0.30000000000E+02  0.47000000000E+01 0.  1.
</event>
<event>
 4    1  0.7509957E-002  0.6000000E+02  0.7546771E-02  0.1259629E+00
         11   -1    0    0    0    0  0.00000000000E+00  0.00000000000E+00  0.30000000000E+02  0.30000000000E+02  0.00000000000E+00 0.  1.
        -11   -1    0    0    0    0 -0.00000000000E+00 -0.00000000000E+00 -0.30000000000E+02  0.30000000000E+02  0.00000000000E+00 0. -1.
          5    1    1    2  501    0 -0.21221796267E+02 -0.20547344895E+02 -0.23134348801E+01  0.30000000000E+02  0.47000000000E+01 0. -1.
         -5    1    1    2    0  501  0.21221796267E+02  0.20547344895E+02  0.23134348801E+01  0.30000000000E+02  0.47000000000E+01 0.  1.
</event>
<event>
 4    1  0.7509957E-002  0.6000000E+02  0.7546771E-02  0.1259629E+00
         11   -1    0    0    0    0  0.00000000000E+00  0.00000000000E+00  0.30000000000E+02  0.30000000000E+02  0.00000000000E+00 0.  1.
        -11   -1    0    0    0    0 -0.00000000000E+00 -0.00000000000E+00 -0.30000000000E+02  0.30000000000E+02  0.00000000000E+00 0. -1.
          5    1    1    2  501    0  0.13762415091E+02  0.22843350845E+02 -0.12910741770E+02  0.30000000000E+02  0.47000000000E+01 0.  1.
         -5    1    1    2    0  501 -0.13762415091E+02 -0.22843350845E+02  0.12910741770E+02  0.30000000000E+02  0.47000000000E+01 0.  1.
</event>
<event>
 4    1  0.7509957E-002  0.6000000E+02  0.7546771E-02  0.1259629E+00
         11   -1    0    0    0    0  0.00000000000E+00  0.00000000000E+00  0.30000000000E+02  0.30000000000E+02  0.00000000000E+00 0.  1.
        -11   -1    0    0    0    0 -0.00000000000E+00 -0.00000000000E+00 -0.30000000000E+02  0.30000000000E+02  0.00000000000E+00 0. -1.
          5    1    1    2  501    0 -0.66307427572E+01  0.21113904924E+02 -0.19701428104E+02  0.30000000000E+02  0.47000000000E+01 0. -1.
         -5    1    1    2    0  501  0.66307427572E+01 -0.21113904924E+02  0.19701428104E+02  0.30000000000E+02  0.47000000000E+01 0.  1.
</event>
<event>
 4    1  0.7509957E-002  0.6000000E+02  0.7546771E-02  0.1259629E+00
         11   -1    0    0    0    0  0.00000000000E+00  0.00000000000E+00  0.30000000000E+02  0.30000000000E+02  0.00000000000E+00 0.  1.
        -11   -1    0    0    0    0 -0.00000000000E+00 -0.00000000000E+00 -0.30000000000E+02  0.30000000000E+02  0.00000000000E+00 0. -1.
          5    1    1    2  501    0 -0.12036477542E+02  0.18224691206E+02 -0.20022333501E+02  0.30000000000E+02  0.47000000000E+01 0. -1.
         -5    1    1    2    0  501  0.12036477542E+02 -0.18224691206E+02  0.20022333501E+02  0.30000000000E+02  0.47000000000E+01 0.  1.
</event>
<event>
 4    1  0.7509957E-002  0.6000000E+02  0.7546771E-02  0.1259629E+00
         11   -1    0    0    0    0  0.00000000000E+00  0.00000000000E+00  0.30000000000E+02  0.30000000000E+02  0.00000000000E+00 0. -1.
        -11   -1    0    0    0    0 -0.00000000000E+00 -0.00000000000E+00 -0.30000000000E+02  0.30000000000E+02  0.00000000000E+00 0.  1.
          5    1    1    2  501    0 -0.23324721294E+01  0.10979452915E+02 -0.27421181365E+02  0.30000000000E+02  0.47000000000E+01 0.  1.
         -5    1    1    2    0  501  0.23324721294E+01 -0.10979452915E+02  0.27421181365E+02  0.30000000000E+02  0.47000000000E+01 0. -1.
</event>
<event>
 4    1  0.7509957E-002  0.6000000E+02  0.7546771E-02  0.1259629E+00
         11   -1    0    0    0    0  0.00000000000E+00  0.00000000000E+00  0.30000000000E+02  0.30000000000E+02  0.00000000000E+00 0. -1.
        -11   -1    0    0    0    0 -0.00000000000E+00 -0.00000000000E+00 -0.30000000000E+02  0.30000000000E+02  0.00000000000E+00 0.  1.
          5    1    1    2  501    0  0.28900236685E+01  0.20239503253E+02 -0.21445751823E+02  0.30000000000E+02  0.47000000000E+01 0.  1.
         -5    1    1    2    0  501 -0.28900236685E+01 -0.20239503253E+02  0.21445751823E+02  0.30000000000E+02  0.47000000000E+01 0. -1.
</event>
<event>
 4    1  0.7509957E-002  0.6000000E+02  0.7546771E-02  0.1259629E+00
         11   -1    0    0    0    0  0.00000000000E+00  0.00000000000E+00  0.30000000000E+02  0.30000000000E+02  0.00000000000E+00 0.  1.
        -11   -1    0    0    0    0 -0.00000000000E+00 -0.00000000000E+00 -0.30000000000E+02  0.30000000000E+02  0.00000000000E+00 0. -1.
          5    1    1    2  501    0 -0.15283129774E+02 -0.97605524013E+01 -0.23432190703E+02  0.30000000000E+02  0.47000000000E+01 0. -1.
         -5    1    1    2    0  501  0.15283129774E+02  0.97605524013E+01  0.23432190703E+02  0.30000000000E+02  0.47000000000E+01 0.  1.
</event>
<event>
 4    1  0.7509957E-002  0.6000000E+02  0.7546771E-02  0.1259629E+00
         11   -1    0    0    0    0  0.00000000000E+00  0.00000000000E+00  0.30000000000E+02  0.30000000000E+02  0.00000000000E+00 0. -1.
        -11   -1    0    0    0    0 -0.00000000000E+00 -0.00000000000E+00 -0.30000000000E+02  0.30000000000E+02  0.00000000000E+00 0.  1.
          5    1    1    2  501    0  0.55366974213E+01 -0.69831512905E+01 -0.28257575616E+02  0.30000000000E+02  0.47000000000E+01 0.  1.
         -5    1    1    2    0  501 -0.55366974213E+01  0.69831512905E+01  0.28257575616E+02  0.30000000000E+02  0.47000000000E+01 0. -1.
</event>
<event>
 4    1  0.7509957E-002  0.6000000E+02  0.7546771E-02  0.1259629E+00
         11   -1    0    0    0    0  0.00000000000E+00  0.00000000000E+00  0.30000000000E+02  0.30000000000E+02  0.00000000000E+00 0.  1.
        -11   -1    0    0    0    0 -0.00000000000E+00 -0.00000000000E+00 -0.30000000000E+02  0.30000000000E+02  0.00000000000E+00 0. -1.
          5    1    1    2  501    0 -0.14983475682E+02  0.23892335309E+02 -0.90863507514E+01  0.30000000000E+02  0.47000000000E+01 0. -1.
         -5    1    1    2    0  501  0.14983475682E+02 -0.23892335309E+02  0.90863507514E+01  0.30000000000E+02  0.47000000000E+01 0.  1.
</event>
<event>
 4    1  0.7509957E-002  0.6000000E+02  0.7546771E-02  0.1259629E+00
         11   -1    0    0    0    0  0.00000000000E+00  0.00000000000E+00  0.30000000000E+02  0.30000000000E+02  0.00000000000E+00 0.  1.
        -11   -1    0    0    0    0 -0.00000000000E+00 -0.00000000000E+00 -0.30000000000E+02  0.30000000000E+02  0.00000000000E+00 0. -1.
          5    1    1    2  501    0 -0.26579303062E+02  0.41774886164E+00 -0.13087250843E+02  0.30000000000E+02  0.47000000000E+01 0. -1.
         -5    1    1    2    0  501  0.26579303062E+02 -0.41774886164E+00  0.13087250843E+02  0.30000000000E+02  0.47000000000E+01 0.  1.
</event>
<event>
 4    1  0.7509957E-002  0.6000000E+02  0.7546771E-02  0.1259629E+00
         11   -1    0    0    0    0  0.00000000000E+00  0.00000000000E+00  0.30000000000E+02  0.30000000000E+02  0.00000000000E+00 0. -1.
        -11   -1    0    0    0    0 -0.00000000000E+00 -0.00000000000E+00 -0.30000000000E+02  0.30000000000E+02  0.00000000000E+00 0.  1.
          5    1    1    2  501    0 -0.17883623100E+01 -0.19581912311E+02 -0.22164396461E+02  0.30000000000E+02  0.47000000000E+01 0.  1.
         -5    1    1    2    0  501  0.17883623100E+01  0.19581912311E+02  0.22164396461E+02  0.30000000000E+02  0.47000000000E+01 0. -1.
</event>
<event>
 4    1  0.7509957E-002  0.6000000E+02  0.7546771E-02  0.1259629E+00
         11   -1    0    0    0    0  0.00000000000E+00  0.00000000000E+00  0.30000000000E+02  0.30000000000E+02  0.00000000000E+00 0.  1.
        -11   -1    0    0    0    0 -0.00000000000E+00 -0.00000000000E+00 -0.30000000000E+02  0.30000000000E+02  0.00000000000E+00 0. -1.
          5    1    1    2  501    0 -0.14074331368E+01  0.19618827559E+02 -0.22159213370E+02  0.30000000000E+02  0.47000000000E+01 0. -1.
         -5    1    1    2    0  501  0.14074331368E+01 -0.19618827559E+02  0.22159213370E+02  0.30000000000E+02  0.47000000000E+01 0.  1.
</event>
<event>
 4    1  0.7509957E-002  0.6000000E+02  0.7546771E-02  0.1259629E+00
         11   -1    0    0    0    0  0.00000000000E+00  0.00000000000E+00  0.30000000000E+02  0.30000000000E+02  0.00000000000E+00 0. -1.
        -11   -1    0    0    0    0 -0.00000000000E+00 -0.00000000000E+00 -0.30000000000E+02  0.30000000000E+02  0.00000000000E+00 0.  1.
          5    1    1    2  501    0  0.28278377205E+02 -0.49917722524E+00 -0.88314327684E+01  0.30000000000E+02  0.47000000000E+01 0.  1.
         -5    1    1    2    0  501 -0.28278377205E+02  0.49917722524E+00  0.88314327684E+01  0.30000000000E+02  0.47000000000E+01 0. -1.
</event>
<event>
 4    1  0.7509957E-002  0.6000000E+02  0.7546771E-02  0.1259629E+00
         11   -1    0    0    0    0  0.00000000000E+00  0.00000000000E+00  0.30000000000E+02  0.30000000000E+02  0.00000000000E+00 0.  1.
        -11   -1    0    0    0    0 -0.00000000000E+00 -0.00000000000E+00 -0.30000000000E+02  0.30000000000E+02  0.00000000000E+00 0. -1.
          5    1    1    2  501    0 -0.99614131354E+01 -0.15150671255E+02 -0.23433681078E+02  0.30000000000E+02  0.47000000000E+01 0. -1.
         -5    1    1    2    0  501  0.99614131354E+01  0.15150671255E+02  0.23433681078E+02  0.30000000000E+02  0.47000000000E+01 0.  1.
</event>
<event>
 4    1  0.7509957E-002  0.6000000E+02  0.7546771E-02  0.1259629E+00
         11   -1    0    0    0    0  0.00000000000E+00  0.00000000000E+00  0.30000000000E+02  0.30000000000E+02  0.00000000000E+00 0. -1.
        -11   -1    0    0    0    0 -0.00000000000E+00 -0.00000000000E+00 -0.30000000000E+02  0.30000000000E+02  0.00000000000E+00 0.  1.
          5    1    1    2  501    0  0.24884936735E+02 -0.51309171530E+01  0.15242165622E+02  0.30000000000E+02  0.47000000000E+01 0.  1.
         -5    1    1    2    0  501 -0.24884936735E+02  0.51309171530E+01 -0.15242165622E+02  0.30000000000E+02  0.47000000000E+01 0. -1.
</event>
<event>
 4    1  0.7509957E-002  0.6000000E+02  0.7546771E-02  0.1259629E+00
         11   -1    0    0    0    0  0.00000000000E+00  0.00000000000E+00  0.30000000000E+02  0.30000000000E+02  0.00000000000E+00 0. -1.
        -11   -1    0    0    0    0 -0.00000000000E+00 -0.00000000000E+00 -0.30000000000E+02  0.30000000000E+02  0.00000000000E+00 0.  1.
          5    1    1    2  501    0 -0.96658614525E+01  0.20686702043E+00 -0.28007826199E+02  0.30000000000E+02  0.47000000000E+01 0.  1.
         -5    1    1    2    0  501  0.96658614525E+01 -0.20686702043E+00  0.28007826199E+02  0.30000000000E+02  0.47000000000E+01 0. -1.
</event>
<event>
 4    1  0.7509957E-002  0.6000000E+02  0.7546771E-02  0.1259629E+00
         11   -1    0    0    0    0  0.00000000000E+00  0.00000000000E+00  0.30000000000E+02  0.30000000000E+02  0.00000000000E+00 0.  1.
        -11   -1    0    0    0    0 -0.00000000000E+00 -0.00000000000E+00 -0.30000000000E+02  0.30000000000E+02  0.00000000000E+00 0. -1.
          5    1    1    2  501    0 -0.13052407100E+01  0.12178143614E+02 -0.26979606461E+02  0.30000000000E+02  0.47000000000E+01 0. -1.
         -5    1    1    2    0  501  0.13052407100E+01 -0.12178143614E+02  0.26979606461E+02  0.30000000000E+02  0.47000000000E+01 0.  1.
</event>
<event>
 4    1  0.7509957E-002  0.6000000E+02  0.7546771E-02  0.1259629E+00
         11   -1    0    0    0    0  0.00000000000E+00  0.00000000000E+00  0.30000000000E+02  0.30000000000E+02  0.00000000000E+00 0.  1.
        -11   -1    0    0    0    0 -0.00000000000E+00 -0.00000000000E+00 -0.30000000000E+02  0.30000000000E+02  0.00000000000E+00 0. -1.
          5    1    1    2  501    0 -0.61775168787E+01  0.11757782048E+02 -0.26485899013E+02  0.30000000000E+02  0.47000000000E+01 0. -1.
         -5    1    1    2    0  501  0.61775168787E+01 -0.11757782048E+02  0.26485899013E+02  0.30000000000E+02  0.47000000000E+01 0.  1.
</event>
<event>
 4    1  0.7509957E-002  0.6000000E+02  0.7546771E-02  0.1259629E+00
         11   -1    0    0    0    0  0.00000000000E+00  0.00000000000E+00  0.30000000000E+02  0.30000000000E+02  0.00000000000E+00 0.  1.
        -11   -1    0    0    0    0 -0.00000000000E+00 -0.00000000000E+00 -0.30000000000E+02  0.30000000000E+02  0.00000000000E+00 0. -1.
          5    1    1    2  501    0 -0.22749475823E+02  0.18206825749E+02 -0.53742763168E+01  0.30000000000E+02  0.47000000000E+01 0. -1.
         -5    1    1    2    0  501  0.22749475823E+02 -0.18206825749E+02  0.53742763168E+01  0.30000000000E+02  0.47000000000E+01 0.  1.
</event>
<event>
 4    1  0.7509957E-002  0.6000000E+02  0.7546771E-02  0.1259629E+00
         11   -1    0    0    0    0  0.00000000000E+00  0.00000000000E+00  0.30000000000E+02  0.30000000000E+02  0.00000000000E+00 0. -1.
        -11   -1    0    0    0    0 -0.00000000000E+00 -0.00000000000E+00 -0.30000000000E+02  0.30000000000E+02  0.00000000000E+00 0.  1.
          5    1    1    2  501    0 -0.92791294018E+01 -0.15680621372E+02 -0.23365056622E+02  0.30000000000E+02  0.47000000000E+01 0.  1.
         -5    1    1    2    0  501  0.92791294018E+01  0.15680621372E+02  0.23365056622E+02  0.30000000000E+02  0.47000000000E+01 0. -1.
</event>
<event>
 4    1  0.7509957E-002  0.6000000E+02  0.7546771E-02  0.1259629E+00
         11   -1    0    0    0    0  0.00000000000E+00  0.00000000000E+00  0.30000000000E+02  0.30000000000E+02  0.00000000000E+00 0. -1.
        -11   -1    0    0    0    0 -0.00000000000E+00 -0.00000000000E+00 -0.30000000000E+02  0.30000000000E+02  0.00000000000E+00 0.  1.
          5    1    1    2  501    0 -0.85628493912E+01 -0.14670389087E+02  0.24276888069E+02  0.30000000000E+02  0.47000000000E+01 0. -1.
         -5    1    1    2    0  501  0.85628493912E+01  0.14670389087E+02 -0.24276888069E+02  0.30000000000E+02  0.47000000000E+01 0.  1.
</event>
<event>
 4    1  0.7509957E-002  0.6000000E+02  0.7546771E-02  0.1259629E+00
         11   -1    0    0    0    0  0.00000000000E+00  0.00000000000E+00  0.30000000000E+02  0.30000000000E+02  0.00000000000E+00 0.  1.
        -11   -1    0    0    0    0 -0.00000000000E+00 -0.00000000000E+00 -0.30000000000E+02  0.30000000000E+02  0.00000000000E+00 0. -1.
          5    1    1    2  501    0  0.24651668679E+02 -0.13438232058E+02 -0.94667391694E+01  0.30000000000E+02  0.47000000000E+01 0. -1.
         -5    1    1    2    0  501 -0.24651668679E+02  0.13438232058E+02  0.94667391694E+01  0.30000000000E+02  0.47000000000E+01 0.  1.
</event>
<event>
 4    1  0.7509957E-002  0.6000000E+02  0.7546771E-02  0.1259629E+00
         11   -1    0    0    0    0  0.00000000000E+00  0.00000000000E+00  0.30000000000E+02  0.30000000000E+02  0.00000000000E+00 0.  1.
        -11   -1    0    0    0    0 -0.00000000000E+00 -0.00000000000E+00 -0.30000000000E+02  0.30000000000E+02  0.00000000000E+00 0. -1.
          5    1    1    2  501    0  0.12120311315E+02  0.15593079846E+02 -0.22087641670E+02  0.30000000000E+02  0.47000000000E+01 0. -1.
         -5    1    1    2    0  501 -0.12120311315E+02 -0.15593079846E+02  0.22087641670E+02  0.30000000000E+02  0.47000000000E+01 0.  1.
</event>
<event>
 4    1  0.7509957E-002  0.6000000E+02  0.7546771E-02  0.1259629E+00
         11   -1    0    0    0    0  0.00000000000E+00  0.00000000000E+00  0.30000000000E+02  0.30000000000E+02  0.00000000000E+00 0.  1.
        -11   -1    0    0    0    0 -0.00000000000E+00 -0.00000000000E+00 -0.30000000000E+02  0.30000000000E+02  0.00000000000E+00 0. -1.
          5    1    1    2  501    0 -0.97727199352E+01  0.80807617519E+01 -0.26778820635E+02  0.30000000000E+02  0.47000000000E+01 0. -1.
         -5    1    1    2    0  501  0.97727199352E+01 -0.80807617519E+01  0.26778820635E+02  0.30000000000E+02  0.47000000000E+01 0.  1.
</event>
<event>
 4    1  0.7509957E-002  0.6000000E+02  0.7546771E-02  0.1259629E+00
         11   -1    0    0    0    0  0.00000000000E+00  0.00000000000E+00  0.30000000000E+02  0.30000000000E+02  0.00000000000E+00 0.  1.
        -11   -1    0    0    0    0 -0.00000000000E+00 -0.00000000000E+00 -0.30000000000E+02  0.30000000000E+02  0.00000000000E+00 0. -1.
          5    1    1    2  501    0 -0.24084821283E+02  0.17249255635E+02  0.54273731722E+00  0.30000000000E+02  0.47000000000E+01 0. -1.
         -5    1    1    2    0  501  0.24084821283E+02 -0.17249255635E+02 -0.54273731722E+00  0.30000000000E+02  0.47000000000E+01 0.  1.
</event>
<event>
 4    1  0.7509957E-002  0.6000000E+02  0.7546771E-02  0.1259629E+00
         11   -1    0    0    0    0  0.00000000000E+00  0.00000000000E+00  0.30000000000E+02  0.30000000000E+02  0.00000000000E+00 0.  1.
        -11   -1    0    0    0    0 -0.00000000000E+00 -0.00000000000E+00 -0.30000000000E+02  0.30000000000E+02  0.00000000000E+00 0. -1.
          5    1    1    2  501    0  0.23840390575E+02 -0.49892094436E+01 -0.16871679417E+02  0.30000000000E+02  0.47000000000E+01 0. -1.
         -5    1    1    2    0  501 -0.23840390575E+02  0.49892094436E+01  0.16871679417E+02  0.30000000000E+02  0.47000000000E+01 0.  1.
</event>
<event>
 4    1  0.7509957E-002  0.6000000E+02  0.7546771E-02  0.1259629E+00
         11   -1    0    0    0    0  0.00000000000E+00  0.00000000000E+00  0.30000000000E+02  0.30000000000E+02  0.00000000000E+00 0.  1.
        -11   -1    0    0    0    0 -0.00000000000E+00 -0.00000000000E+00 -0.30000000000E+02  0.30000000000E+02  0.00000000000E+00 0. -1.
          5    1    1    2  501    0 -0.24192972514E+02  0.11940895851E+02 -0.12248472853E+02  0.30000000000E+02  0.47000000000E+01 0. -1.
         -5    1    1    2    0  501  0.24192972514E+02 -0.11940895851E+02  0.12248472853E+02  0.30000000000E+02  0.47000000000E+01 0.  1.
</event>
<event>
 4    1  0.7509957E-002  0.6000000E+02  0.7546771E-02  0.1259629E+00
         11   -1    0    0    0    0  0.00000000000E+00  0.00000000000E+00  0.30000000000E+02  0.30000000000E+02  0.00000000000E+00 0.  1.
        -11   -1    0    0    0    0 -0.00000000000E+00 -0.00000000000E+00 -0.30000000000E+02  0.30000000000E+02  0.00000000000E+00 0. -1.
          5    1    1    2  501    0 -0.27102155448E+00 -0.24454129827E+02 -0.16728182260E+02  0.30000000000E+02  0.47000000000E+01 0. -1.
         -5    1    1    2    0  501  0.27102155448E+00  0.24454129827E+02  0.16728182260E+02  0.30000000000E+02  0.47000000000E+01 0.  1.
</event>
<event>
 4    1  0.7509957E-002  0.6000000E+02  0.7546771E-02  0.1259629E+00
         11   -1    0    0    0    0  0.00000000000E+00  0.00000000000E+00  0.30000000000E+02  0.30000000000E+02  0.00000000000E+00 0.  1.
        -11   -1    0    0    0    0 -0.00000000000E+00 -0.00000000000E+00 -0.30000000000E+02  0.30000000000E+02  0.00000000000E+00 0. -1.
          5    1    1    2  501    0  0.22980579863E+02  0.23386339389E+01 -0.18556231849E+02  0.30000000000E+02  0.47000000000E+01 0. -1.
         -5    1    1    2    0  501 -0.22980579863E+02 -0.23386339389E+01  0.18556231849E+02  0.30000000000E+02  0.47000000000E+01 0.  1.
</event>
<event>
 4    1  0.7509957E-002  0.6000000E+02  0.7546771E-02  0.1259629E+00
         11   -1    0    0    0    0  0.00000000000E+00  0.00000000000E+00  0.30000000000E+02  0.30000000000E+02  0.00000000000E+00 0.  1.
        -11   -1    0    0    0    0 -0.00000000000E+00 -0.00000000000E+00 -0.30000000000E+02  0.30000000000E+02  0.00000000000E+00 0. -1.
          5    1    1    2  501    0 -0.25651683863E+02 -0.76383335862E+01  0.12710506481E+02  0.30000000000E+02  0.47000000000E+01 0.  1.
         -5    1    1    2    0  501  0.25651683863E+02  0.76383335862E+01 -0.12710506481E+02  0.30000000000E+02  0.47000000000E+01 0. -1.
</event>
<event>
 4    1  0.7509957E-002  0.6000000E+02  0.7546771E-02  0.1259629E+00
         11   -1    0    0    0    0  0.00000000000E+00  0.00000000000E+00  0.30000000000E+02  0.30000000000E+02  0.00000000000E+00 0.  1.
        -11   -1    0    0    0    0 -0.00000000000E+00 -0.00000000000E+00 -0.30000000000E+02  0.30000000000E+02  0.00000000000E+00 0. -1.
          5    1    1    2  501    0 -0.42389295500E+01 -0.21253714491E+02 -0.20204482092E+02  0.30000000000E+02  0.47000000000E+01 0. -1.
         -5    1    1    2    0  501  0.42389295500E+01  0.21253714491E+02  0.20204482092E+02  0.30000000000E+02  0.47000000000E+01 0.  1.
</event>
<event>
 4    1  0.7509957E-002  0.6000000E+02  0.7546771E-02  0.1259629E+00
         11   -1    0    0    0    0  0.00000000000E+00  0.00000000000E+00  0.30000000000E+02  0.30000000000E+02  0.00000000000E+00 0.  1.
        -11   -1    0    0    0    0 -0.00000000000E+00 -0.00000000000E+00 -0.30000000000E+02  0.30000000000E+02  0.00000000000E+00 0. -1.
          5    1    1    2  501    0  0.13005024703E+02 -0.26616738401E+02 -0.57320971166E+00  0.30000000000E+02  0.47000000000E+01 0. -1.
         -5    1    1    2    0  501 -0.13005024703E+02  0.26616738401E+02  0.57320971166E+00  0.30000000000E+02  0.47000000000E+01 0.  1.
</event>
<event>
 4    1  0.7509957E-002  0.6000000E+02  0.7546771E-02  0.1259629E+00
         11   -1    0    0    0    0  0.00000000000E+00  0.00000000000E+00  0.30000000000E+02  0.30000000000E+02  0.00000000000E+00 0. -1.
        -11   -1    0    0    0    0 -0.00000000000E+00 -0.00000000000E+00 -0.30000000000E+02  0.30000000000E+02  0.00000000000E+00 0.  1.
          5    1    1    2  501    0  0.16764018767E+02  0.22780880248E+02 -0.88266171259E+01  0.30000000000E+02  0.47000000000E+01 0.  1.
         -5    1    1    2    0  501 -0.16764018767E+02 -0.22780880248E+02  0.88266171259E+01  0.30000000000E+02  0.47000000000E+01 0. -1.
</event>
<event>
 4    1  0.7509957E-002  0.6000000E+02  0.7546771E-02  0.1259629E+00
         11   -1    0    0    0    0  0.00000000000E+00  0.00000000000E+00  0.30000000000E+02  0.30000000000E+02  0.00000000000E+00 0.  1.
        -11   -1    0    0    0    0 -0.00000000000E+00 -0.00000000000E+00 -0.30000000000E+02  0.30000000000E+02  0.00000000000E+00 0. -1.
          5    1    1    2  501    0 -0.27234171344E+02  0.20946797462E+01  0.11481386152E+02  0.30000000000E+02  0.47000000000E+01 0. -1.
         -5    1    1    2    0  501  0.27234171344E+02 -0.20946797462E+01 -0.11481386152E+02  0.30000000000E+02  0.47000000000E+01 0.  1.
</event>
<event>
 4    1  0.7509957E-002  0.6000000E+02  0.7546771E-02  0.1259629E+00
         11   -1    0    0    0    0  0.00000000000E+00  0.00000000000E+00  0.30000000000E+02  0.30000000000E+02  0.00000000000E+00 0.  1.
        -11   -1    0    0    0    0 -0.00000000000E+00 -0.00000000000E+00 -0.30000000000E+02  0.30000000000E+02  0.00000000000E+00 0. -1.
          5    1    1    2  501    0 -0.12866965086E+02  0.21371643411E+02 -0.15987622318E+02  0.30000000000E+02  0.47000000000E+01 0. -1.
         -5    1    1    2    0  501  0.12866965086E+02 -0.21371643411E+02  0.15987622318E+02  0.30000000000E+02  0.47000000000E+01 0.  1.
</event>
<event>
 4    1  0.7509957E-002  0.6000000E+02  0.7546771E-02  0.1259629E+00
         11   -1    0    0    0    0  0.00000000000E+00  0.00000000000E+00  0.30000000000E+02  0.30000000000E+02  0.00000000000E+00 0.  1.
        -11   -1    0    0    0    0 -0.00000000000E+00 -0.00000000000E+00 -0.30000000000E+02  0.30000000000E+02  0.00000000000E+00 0. -1.
          5    1    1    2  501    0 -0.25571176645E+02 -0.14425414113E+02  0.39915351259E+01  0.30000000000E+02  0.47000000000E+01 0. -1.
         -5    1    1    2    0  501  0.25571176645E+02  0.14425414113E+02 -0.39915351259E+01  0.30000000000E+02  0.47000000000E+01 0.  1.
</event>
<event>
 4    1  0.7509957E-002  0.6000000E+02  0.7546771E-02  0.1259629E+00
         11   -1    0    0    0    0  0.00000000000E+00  0.00000000000E+00  0.30000000000E+02  0.30000000000E+02  0.00000000000E+00 0.  1.
        -11   -1    0    0    0    0 -0.00000000000E+00 -0.00000000000E+00 -0.30000000000E+02  0.30000000000E+02  0.00000000000E+00 0. -1.
          5    1    1    2  501    0 -0.82482183987E+01  0.33187328784E+01 -0.28264162916E+02  0.30000000000E+02  0.47000000000E+01 0. -1.
         -5    1    1    2    0  501  0.82482183987E+01 -0.33187328784E+01  0.28264162916E+02  0.30000000000E+02  0.47000000000E+01 0.  1.
</event>
<event>
 4    1  0.7509957E-002  0.6000000E+02  0.7546771E-02  0.1259629E+00
         11   -1    0    0    0    0  0.00000000000E+00  0.00000000000E+00  0.30000000000E+02  0.30000000000E+02  0.00000000000E+00 0.  1.
        -11   -1    0    0    0    0 -0.00000000000E+00 -0.00000000000E+00 -0.30000000000E+02  0.30000000000E+02  0.00000000000E+00 0. -1.
          5    1    1    2  501    0 -0.13084041312E+02  0.25062121215E+02  0.88661120647E+01  0.30000000000E+02  0.47000000000E+01 0. -1.
         -5    1    1    2    0  501  0.13084041312E+02 -0.25062121215E+02 -0.88661120647E+01  0.30000000000E+02  0.47000000000E+01 0.  1.
</event>
<event>
 4    1  0.7509957E-002  0.6000000E+02  0.7546771E-02  0.1259629E+00
         11   -1    0    0    0    0  0.00000000000E+00  0.00000000000E+00  0.30000000000E+02  0.30000000000E+02  0.00000000000E+00 0.  1.
        -11   -1    0    0    0    0 -0.00000000000E+00 -0.00000000000E+00 -0.30000000000E+02  0.30000000000E+02  0.00000000000E+00 0. -1.
          5    1    1    2  501    0 -0.13325880726E+02 -0.24543490919E+02 -0.98968659886E+01  0.30000000000E+02  0.47000000000E+01 0. -1.
         -5    1    1    2    0  501  0.13325880726E+02  0.24543490919E+02  0.98968659886E+01  0.30000000000E+02  0.47000000000E+01 0.  1.
</event>
<event>
 4    1  0.7509957E-002  0.6000000E+02  0.7546771E-02  0.1259629E+00
         11   -1    0    0    0    0  0.00000000000E+00  0.00000000000E+00  0.30000000000E+02  0.30000000000E+02  0.00000000000E+00 0.  1.
        -11   -1    0    0    0    0 -0.00000000000E+00 -0.00000000000E+00 -0.30000000000E+02  0.30000000000E+02  0.00000000000E+00 0. -1.
          5    1    1    2  501    0  0.28685169773E+02  0.72293781499E+01 -0.16754482017E+01  0.30000000000E+02  0.47000000000E+01 0. -1.
         -5    1    1    2    0  501 -0.28685169773E+02 -0.72293781499E+01  0.16754482017E+01  0.30000000000E+02  0.47000000000E+01 0.  1.
</event>
<event>
 4    1  0.7509957E-002  0.6000000E+02  0.7546771E-02  0.1259629E+00
         11   -1    0    0    0    0  0.00000000000E+00  0.00000000000E+00  0.30000000000E+02  0.30000000000E+02  0.00000000000E+00 0.  1.
        -11   -1    0    0    0    0 -0.00000000000E+00 -0.00000000000E+00 -0.30000000000E+02  0.30000000000E+02  0.00000000000E+00 0. -1.
          5    1    1    2  501    0 -0.18832030321E+02 -0.34812342566E+01  0.22608530294E+02  0.30000000000E+02  0.47000000000E+01 0.  1.
         -5    1    1    2    0  501  0.18832030321E+02  0.34812342566E+01 -0.22608530294E+02  0.30000000000E+02  0.47000000000E+01 0. -1.
</event>
<event>
 4    1  0.7509957E-002  0.6000000E+02  0.7546771E-02  0.1259629E+00
         11   -1    0    0    0    0  0.00000000000E+00  0.00000000000E+00  0.30000000000E+02  0.30000000000E+02  0.00000000000E+00 0.  1.
        -11   -1    0    0    0    0 -0.00000000000E+00 -0.00000000000E+00 -0.30000000000E+02  0.30000000000E+02  0.00000000000E+00 0. -1.
          5    1    1    2  501    0 -0.69553111075E+01  0.27586280843E+02 -0.82783305464E+01  0.30000000000E+02  0.47000000000E+01 0. -1.
         -5    1    1    2    0  501  0.69553111075E+01 -0.27586280843E+02  0.82783305464E+01  0.30000000000E+02  0.47000000000E+01 0.  1.
</event>
<event>
 4    1  0.7509957E-002  0.6000000E+02  0.7546771E-02  0.1259629E+00
         11   -1    0    0    0    0  0.00000000000E+00  0.00000000000E+00  0.30000000000E+02  0.30000000000E+02  0.00000000000E+00 0.  1.
        -11   -1    0    0    0    0 -0.00000000000E+00 -0.00000000000E+00 -0.30000000000E+02  0.30000000000E+02  0.00000000000E+00 0. -1.
          5    1    1    2  501    0 -0.86337602422E+01  0.24185294909E+02  0.14779705486E+02  0.30000000000E+02  0.47000000000E+01 0. -1.
         -5    1    1    2    0  501  0.86337602422E+01 -0.24185294909E+02 -0.14779705486E+02  0.30000000000E+02  0.47000000000E+01 0.  1.
</event>
<event>
 4    1  0.7509957E-002  0.6000000E+02  0.7546771E-02  0.1259629E+00
         11   -1    0    0    0    0  0.00000000000E+00  0.00000000000E+00  0.30000000000E+02  0.30000000000E+02  0.00000000000E+00 0. -1.
        -11   -1    0    0    0    0 -0.00000000000E+00 -0.00000000000E+00 -0.30000000000E+02  0.30000000000E+02  0.00000000000E+00 0.  1.
          5    1    1    2  501    0  0.13791997666E+02  0.12415510834E+02 -0.23098612320E+02  0.30000000000E+02  0.47000000000E+01 0. -1.
         -5    1    1    2    0  501 -0.13791997666E+02 -0.12415510834E+02  0.23098612320E+02  0.30000000000E+02  0.47000000000E+01 0.  1.
</event>
<event>
 4    1  0.7509957E-002  0.6000000E+02  0.7546771E-02  0.1259629E+00
         11   -1    0    0    0    0  0.00000000000E+00  0.00000000000E+00  0.30000000000E+02  0.30000000000E+02  0.00000000000E+00 0.  1.
        -11   -1    0    0    0    0 -0.00000000000E+00 -0.00000000000E+00 -0.30000000000E+02  0.30000000000E+02  0.00000000000E+00 0. -1.
          5    1    1    2  501    0 -0.25648536824E+02  0.45409364529E+01  0.14122409671E+02  0.30000000000E+02  0.47000000000E+01 0. -1.
         -5    1    1    2    0  501  0.25648536824E+02 -0.45409364529E+01 -0.14122409671E+02  0.30000000000E+02  0.47000000000E+01 0.  1.
</event>
<event>
 4    1  0.7509957E-002  0.6000000E+02  0.7546771E-02  0.1259629E+00
         11   -1    0    0    0    0  0.00000000000E+00  0.00000000000E+00  0.30000000000E+02  0.30000000000E+02  0.00000000000E+00 0.  1.
        -11   -1    0    0    0    0 -0.00000000000E+00 -0.00000000000E+00 -0.30000000000E+02  0.30000000000E+02  0.00000000000E+00 0. -1.
          5    1    1    2  501    0  0.18542634470E+02 -0.22285096375E+02 -0.61200642543E+01  0.30000000000E+02  0.47000000000E+01 0. -1.
         -5    1    1    2    0  501 -0.18542634470E+02  0.22285096375E+02  0.61200642543E+01  0.30000000000E+02  0.47000000000E+01 0.  1.
</event>
<event>
 4    1  0.7509957E-002  0.6000000E+02  0.7546771E-02  0.1259629E+00
         11   -1    0    0    0    0  0.00000000000E+00  0.00000000000E+00  0.30000000000E+02  0.30000000000E+02  0.00000000000E+00 0.  1.
        -11   -1    0    0    0    0 -0.00000000000E+00 -0.00000000000E+00 -0.30000000000E+02  0.30000000000E+02  0.00000000000E+00 0. -1.
          5    1    1    2  501    0 -0.71311194673E+01  0.25820065874E+01 -0.28642457596E+02  0.30000000000E+02  0.47000000000E+01 0. -1.
         -5    1    1    2    0  501  0.71311194673E+01 -0.25820065874E+01  0.28642457596E+02  0.30000000000E+02  0.47000000000E+01 0.  1.
</event>
<event>
 4    1  0.7509957E-002  0.6000000E+02  0.7546771E-02  0.1259629E+00
         11   -1    0    0    0    0  0.00000000000E+00  0.00000000000E+00  0.30000000000E+02  0.30000000000E+02  0.00000000000E+00 0.  1.
        -11   -1    0    0    0    0 -0.00000000000E+00 -0.00000000000E+00 -0.30000000000E+02  0.30000000000E+02  0.00000000000E+00 0. -1.
          5    1    1    2  501    0 -0.19841233671E+02 -0.71068637836E+01 -0.20826135829E+02  0.30000000000E+02  0.47000000000E+01 0. -1.
         -5    1    1    2    0  501  0.19841233671E+02  0.71068637836E+01  0.20826135829E+02  0.30000000000E+02  0.47000000000E+01 0.  1.
</event>
<event>
 4    1  0.7509957E-002  0.6000000E+02  0.7546771E-02  0.1259629E+00
         11   -1    0    0    0    0  0.00000000000E+00  0.00000000000E+00  0.30000000000E+02  0.30000000000E+02  0.00000000000E+00 0.  1.
        -11   -1    0    0    0    0 -0.00000000000E+00 -0.00000000000E+00 -0.30000000000E+02  0.30000000000E+02  0.00000000000E+00 0. -1.
          5    1    1    2  501    0 -0.18962564583E+02  0.22664396213E+02 -0.21578435363E+01  0.30000000000E+02  0.47000000000E+01 0. -1.
         -5    1    1    2    0  501  0.18962564583E+02 -0.22664396213E+02  0.21578435363E+01  0.30000000000E+02  0.47000000000E+01 0.  1.
</event>
<event>
 4    1  0.7509957E-002  0.6000000E+02  0.7546771E-02  0.1259629E+00
         11   -1    0    0    0    0  0.00000000000E+00  0.00000000000E+00  0.30000000000E+02  0.30000000000E+02  0.00000000000E+00 0.  1.
        -11   -1    0    0    0    0 -0.00000000000E+00 -0.00000000000E+00 -0.30000000000E+02  0.30000000000E+02  0.00000000000E+00 0. -1.
          5    1    1    2  501    0 -0.12922265330E+02  0.19350634454E+02 -0.18343336800E+02  0.30000000000E+02  0.47000000000E+01 0. -1.
         -5    1    1    2    0  501  0.12922265330E+02 -0.19350634454E+02  0.18343336800E+02  0.30000000000E+02  0.47000000000E+01 0.  1.
</event>
<event>
 4    1  0.7509957E-002  0.6000000E+02  0.7546771E-02  0.1259629E+00
         11   -1    0    0    0    0  0.00000000000E+00  0.00000000000E+00  0.30000000000E+02  0.30000000000E+02  0.00000000000E+00 0.  1.
        -11   -1    0    0    0    0 -0.00000000000E+00 -0.00000000000E+00 -0.30000000000E+02  0.30000000000E+02  0.00000000000E+00 0. -1.
          5    1    1    2  501    0 -0.51419964927E+01 -0.65028716578E+01 -0.28446133872E+02  0.30000000000E+02  0.47000000000E+01 0. -1.
         -5    1    1    2    0  501  0.51419964927E+01  0.65028716578E+01  0.28446133872E+02  0.30000000000E+02  0.47000000000E+01 0.  1.
</event>
<event>
 4    1  0.7509957E-002  0.6000000E+02  0.7546771E-02  0.1259629E+00
         11   -1    0    0    0    0  0.00000000000E+00  0.00000000000E+00  0.30000000000E+02  0.30000000000E+02  0.00000000000E+00 0. -1.
        -11   -1    0    0    0    0 -0.00000000000E+00 -0.00000000000E+00 -0.30000000000E+02  0.30000000000E+02  0.00000000000E+00 0.  1.
          5    1    1    2  501    0 -0.10778477088E+02 -0.40279546039E+01 -0.27304029252E+02  0.30000000000E+02  0.47000000000E+01 0.  1.
         -5    1    1    2    0  501  0.10778477088E+02  0.40279546039E+01  0.27304029252E+02  0.30000000000E+02  0.47000000000E+01 0. -1.
</event>
<event>
 4    1  0.7509957E-002  0.6000000E+02  0.7546771E-02  0.1259629E+00
         11   -1    0    0    0    0  0.00000000000E+00  0.00000000000E+00  0.30000000000E+02  0.30000000000E+02  0.00000000000E+00 0.  1.
        -11   -1    0    0    0    0 -0.00000000000E+00 -0.00000000000E+00 -0.30000000000E+02  0.30000000000E+02  0.00000000000E+00 0. -1.
          5    1    1    2  501    0 -0.21440900774E+02  0.16594431059E-01 -0.20449877717E+02  0.30000000000E+02  0.47000000000E+01 0. -1.
         -5    1    1    2    0  501  0.21440900774E+02 -0.16594431059E-01  0.20449877717E+02  0.30000000000E+02  0.47000000000E+01 0.  1.
</event>
<event>
 4    1  0.7509957E-002  0.6000000E+02  0.7546771E-02  0.1259629E+00
         11   -1    0    0    0    0  0.00000000000E+00  0.00000000000E+00  0.30000000000E+02  0.30000000000E+02  0.00000000000E+00 0.  1.
        -11   -1    0    0    0    0 -0.00000000000E+00 -0.00000000000E+00 -0.30000000000E+02  0.30000000000E+02  0.00000000000E+00 0. -1.
          5    1    1    2  501    0  0.11776129804E+02 -0.17870494408E+02 -0.20490929615E+02  0.30000000000E+02  0.47000000000E+01 0. -1.
         -5    1    1    2    0  501 -0.11776129804E+02  0.17870494408E+02  0.20490929615E+02  0.30000000000E+02  0.47000000000E+01 0.  1.
</event>
<event>
 4    1  0.7509957E-002  0.6000000E+02  0.7546771E-02  0.1259629E+00
         11   -1    0    0    0    0  0.00000000000E+00  0.00000000000E+00  0.30000000000E+02  0.30000000000E+02  0.00000000000E+00 0.  1.
        -11   -1    0    0    0    0 -0.00000000000E+00 -0.00000000000E+00 -0.30000000000E+02  0.30000000000E+02  0.00000000000E+00 0. -1.
          5    1    1    2  501    0  0.24926682485E+02 -0.15102486978E+02 -0.53371703497E+01  0.30000000000E+02  0.47000000000E+01 0. -1.
         -5    1    1    2    0  501 -0.24926682485E+02  0.15102486978E+02  0.53371703497E+01  0.30000000000E+02  0.47000000000E+01 0.  1.
</event>
<event>
 4    1  0.7509957E-002  0.6000000E+02  0.7546771E-02  0.1259629E+00
         11   -1    0    0    0    0  0.00000000000E+00  0.00000000000E+00  0.30000000000E+02  0.30000000000E+02  0.00000000000E+00 0.  1.
        -11   -1    0    0    0    0 -0.00000000000E+00 -0.00000000000E+00 -0.30000000000E+02  0.30000000000E+02  0.00000000000E+00 0. -1.
          5    1    1    2  501    0 -0.28400381843E+02  0.19577801465E+01  0.82155589030E+01  0.30000000000E+02  0.47000000000E+01 0. -1.
         -5    1    1    2    0  501  0.28400381843E+02 -0.19577801465E+01 -0.82155589030E+01  0.30000000000E+02  0.47000000000E+01 0.  1.
</event>
<event>
 4    1  0.7509957E-002  0.6000000E+02  0.7546771E-02  0.1259629E+00
         11   -1    0    0    0    0  0.00000000000E+00  0.00000000000E+00  0.30000000000E+02  0.30000000000E+02  0.00000000000E+00 0.  1.
        -11   -1    0    0    0    0 -0.00000000000E+00 -0.00000000000E+00 -0.30000000000E+02  0.30000000000E+02  0.00000000000E+00 0. -1.
          5    1    1    2  501    0  0.15807793103E+02  0.69448134222E+01 -0.24078896232E+02  0.30000000000E+02  0.47000000000E+01 0. -1.
         -5    1    1    2    0  501 -0.15807793103E+02 -0.69448134222E+01  0.24078896232E+02  0.30000000000E+02  0.47000000000E+01 0.  1.
</event>
<event>
 4    1  0.7509957E-002  0.6000000E+02  0.7546771E-02  0.1259629E+00
         11   -1    0    0    0    0  0.00000000000E+00  0.00000000000E+00  0.30000000000E+02  0.30000000000E+02  0.00000000000E+00 0.  1.
        -11   -1    0    0    0    0 -0.00000000000E+00 -0.00000000000E+00 -0.30000000000E+02  0.30000000000E+02  0.00000000000E+00 0. -1.
          5    1    1    2  501    0  0.17377838714E+02 -0.23867133507E+02 -0.25061244539E+01  0.30000000000E+02  0.47000000000E+01 0. -1.
         -5    1    1    2    0  501 -0.17377838714E+02  0.23867133507E+02  0.25061244539E+01  0.30000000000E+02  0.47000000000E+01 0.  1.
</event>
<event>
 4    1  0.7509957E-002  0.6000000E+02  0.7546771E-02  0.1259629E+00
         11   -1    0    0    0    0  0.00000000000E+00  0.00000000000E+00  0.30000000000E+02  0.30000000000E+02  0.00000000000E+00 0.  1.
        -11   -1    0    0    0    0 -0.00000000000E+00 -0.00000000000E+00 -0.30000000000E+02  0.30000000000E+02  0.00000000000E+00 0. -1.
          5    1    1    2  501    0  0.17034236316E+02 -0.22977199740E+02 -0.77325988673E+01  0.30000000000E+02  0.47000000000E+01 0. -1.
         -5    1    1    2    0  501 -0.17034236316E+02  0.22977199740E+02  0.77325988673E+01  0.30000000000E+02  0.47000000000E+01 0.  1.
</event>
<event>
 4    1  0.7509957E-002  0.6000000E+02  0.7546771E-02  0.1259629E+00
         11   -1    0    0    0    0  0.00000000000E+00  0.00000000000E+00  0.30000000000E+02  0.30000000000E+02  0.00000000000E+00 0. -1.
        -11   -1    0    0    0    0 -0.00000000000E+00 -0.00000000000E+00 -0.30000000000E+02  0.30000000000E+02  0.00000000000E+00 0.  1.
          5    1    1    2  501    0  0.86811736941E+01  0.10124618004E+02 -0.26458256435E+02  0.30000000000E+02  0.47000000000E+01 0.  1.
         -5    1    1    2    0  501 -0.86811736941E+01 -0.10124618004E+02  0.26458256435E+02  0.30000000000E+02  0.47000000000E+01 0. -1.
</event>
<event>
 4    1  0.7509957E-002  0.6000000E+02  0.7546771E-02  0.1259629E+00
         11   -1    0    0    0    0  0.00000000000E+00  0.00000000000E+00  0.30000000000E+02  0.30000000000E+02  0.00000000000E+00 0.  1.
        -11   -1    0    0    0    0 -0.00000000000E+00 -0.00000000000E+00 -0.30000000000E+02  0.30000000000E+02  0.00000000000E+00 0. -1.
          5    1    1    2  501    0 -0.22566245536E+01  0.22576865276E+02 -0.19055256491E+02  0.30000000000E+02  0.47000000000E+01 0. -1.
         -5    1    1    2    0  501  0.22566245536E+01 -0.22576865276E+02  0.19055256491E+02  0.30000000000E+02  0.47000000000E+01 0.  1.
</event>
<event>
 4    1  0.7509957E-002  0.6000000E+02  0.7546771E-02  0.1259629E+00
         11   -1    0    0    0    0  0.00000000000E+00  0.00000000000E+00  0.30000000000E+02  0.30000000000E+02  0.00000000000E+00 0.  1.
        -11   -1    0    0    0    0 -0.00000000000E+00 -0.00000000000E+00 -0.30000000000E+02  0.30000000000E+02  0.00000000000E+00 0. -1.
          5    1    1    2  501    0  0.26443209349E+02 -0.68966284559E+01  0.11450030361E+02  0.30000000000E+02  0.47000000000E+01 0.  1.
         -5    1    1    2    0  501 -0.26443209349E+02  0.68966284559E+01 -0.11450030361E+02  0.30000000000E+02  0.47000000000E+01 0. -1.
</event>
<event>
 4    1  0.7509957E-002  0.6000000E+02  0.7546771E-02  0.1259629E+00
         11   -1    0    0    0    0  0.00000000000E+00  0.00000000000E+00  0.30000000000E+02  0.30000000000E+02  0.00000000000E+00 0.  1.
        -11   -1    0    0    0    0 -0.00000000000E+00 -0.00000000000E+00 -0.30000000000E+02  0.30000000000E+02  0.00000000000E+00 0. -1.
          5    1    1    2  501    0 -0.86266892921E+00  0.26928696566E+02 -0.12329278308E+02  0.30000000000E+02  0.47000000000E+01 0. -1.
         -5    1    1    2    0  501  0.86266892921E+00 -0.26928696566E+02  0.12329278308E+02  0.30000000000E+02  0.47000000000E+01 0.  1.
</event>
<event>
 4    1  0.7509957E-002  0.6000000E+02  0.7546771E-02  0.1259629E+00
         11   -1    0    0    0    0  0.00000000000E+00  0.00000000000E+00  0.30000000000E+02  0.30000000000E+02  0.00000000000E+00 0.  1.
        -11   -1    0    0    0    0 -0.00000000000E+00 -0.00000000000E+00 -0.30000000000E+02  0.30000000000E+02  0.00000000000E+00 0. -1.
          5    1    1    2  501    0  0.72151725353E+01 -0.35547506286E+01 -0.28516925382E+02  0.30000000000E+02  0.47000000000E+01 0. -1.
         -5    1    1    2    0  501 -0.72151725353E+01  0.35547506286E+01  0.28516925382E+02  0.30000000000E+02  0.47000000000E+01 0.  1.
</event>
<event>
 4    1  0.7509957E-002  0.6000000E+02  0.7546771E-02  0.1259629E+00
         11   -1    0    0    0    0  0.00000000000E+00  0.00000000000E+00  0.30000000000E+02  0.30000000000E+02  0.00000000000E+00 0. -1.
        -11   -1    0    0    0    0 -0.00000000000E+00 -0.00000000000E+00 -0.30000000000E+02  0.30000000000E+02  0.00000000000E+00 0.  1.
          5    1    1    2  501    0  0.15193223988E+02  0.11330343791E+02 -0.22774969911E+02  0.30000000000E+02  0.47000000000E+01 0.  1.
         -5    1    1    2    0  501 -0.15193223988E+02 -0.11330343791E+02  0.22774969911E+02  0.30000000000E+02  0.47000000000E+01 0. -1.
</event>
<event>
 4    1  0.7509957E-002  0.6000000E+02  0.7546771E-02  0.1259629E+00
         11   -1    0    0    0    0  0.00000000000E+00  0.00000000000E+00  0.30000000000E+02  0.30000000000E+02  0.00000000000E+00 0.  1.
        -11   -1    0    0    0    0 -0.00000000000E+00 -0.00000000000E+00 -0.30000000000E+02  0.30000000000E+02  0.00000000000E+00 0. -1.
          5    1    1    2  501    0  0.68317831099E+01 -0.17414969200E+02 -0.22977284159E+02  0.30000000000E+02  0.47000000000E+01 0. -1.
         -5    1    1    2    0  501 -0.68317831099E+01  0.17414969200E+02  0.22977284159E+02  0.30000000000E+02  0.47000000000E+01 0.  1.
</event>
<event>
 4    1  0.7509957E-002  0.6000000E+02  0.7546771E-02  0.1259629E+00
         11   -1    0    0    0    0  0.00000000000E+00  0.00000000000E+00  0.30000000000E+02  0.30000000000E+02  0.00000000000E+00 0.  1.
        -11   -1    0    0    0    0 -0.00000000000E+00 -0.00000000000E+00 -0.30000000000E+02  0.30000000000E+02  0.00000000000E+00 0. -1.
          5    1    1    2  501    0  0.11672286277E+02  0.27231240516E+02 -0.35675348166E+00  0.30000000000E+02  0.47000000000E+01 0. -1.
         -5    1    1    2    0  501 -0.11672286277E+02 -0.27231240516E+02  0.35675348166E+00  0.30000000000E+02  0.47000000000E+01 0.  1.
</event>
<event>
 4    1  0.7509957E-002  0.6000000E+02  0.7546771E-02  0.1259629E+00
         11   -1    0    0    0    0  0.00000000000E+00  0.00000000000E+00  0.30000000000E+02  0.30000000000E+02  0.00000000000E+00 0.  1.
        -11   -1    0    0    0    0 -0.00000000000E+00 -0.00000000000E+00 -0.30000000000E+02  0.30000000000E+02  0.00000000000E+00 0. -1.
          5    1    1    2  501    0  0.21077973000E+02 -0.94910605874E+01 -0.18535070087E+02  0.30000000000E+02  0.47000000000E+01 0. -1.
         -5    1    1    2    0  501 -0.21077973000E+02  0.94910605874E+01  0.18535070087E+02  0.30000000000E+02  0.47000000000E+01 0.  1.
</event>
<event>
 4    1  0.7509957E-002  0.6000000E+02  0.7546771E-02  0.1259629E+00
         11   -1    0    0    0    0  0.00000000000E+00  0.00000000000E+00  0.30000000000E+02  0.30000000000E+02  0.00000000000E+00 0.  1.
        -11   -1    0    0    0    0 -0.00000000000E+00 -0.00000000000E+00 -0.30000000000E+02  0.30000000000E+02  0.00000000000E+00 0. -1.
          5    1    1    2  501    0  0.88361741985E+01 -0.11281632259E+01 -0.28258791079E+02  0.30000000000E+02  0.47000000000E+01 0. -1.
         -5    1    1    2    0  501 -0.88361741985E+01  0.11281632259E+01  0.28258791079E+02  0.30000000000E+02  0.47000000000E+01 0.  1.
</event>
<event>
 4    1  0.7509957E-002  0.6000000E+02  0.7546771E-02  0.1259629E+00
         11   -1    0    0    0    0  0.00000000000E+00  0.00000000000E+00  0.30000000000E+02  0.30000000000E+02  0.00000000000E+00 0.  1.
        -11   -1    0    0    0    0 -0.00000000000E+00 -0.00000000000E+00 -0.30000000000E+02  0.30000000000E+02  0.00000000000E+00 0. -1.
          5    1    1    2  501    0 -0.19918184483E+02 -0.21490456342E+02 -0.43972961129E+01  0.30000000000E+02  0.47000000000E+01 0. -1.
         -5    1    1    2    0  501  0.19918184483E+02  0.21490456342E+02  0.43972961129E+01  0.30000000000E+02  0.47000000000E+01 0.  1.
</event>
<event>
 4    1  0.7509957E-002  0.6000000E+02  0.7546771E-02  0.1259629E+00
         11   -1    0    0    0    0  0.00000000000E+00  0.00000000000E+00  0.30000000000E+02  0.30000000000E+02  0.00000000000E+00 0.  1.
        -11   -1    0    0    0    0 -0.00000000000E+00 -0.00000000000E+00 -0.30000000000E+02  0.30000000000E+02  0.00000000000E+00 0. -1.
          5    1    1    2  501    0  0.21192956277E+02  0.58158962929E+01 -0.19873196888E+02  0.30000000000E+02  0.47000000000E+01 0. -1.
         -5    1    1    2    0  501 -0.21192956277E+02 -0.58158962929E+01  0.19873196888E+02  0.30000000000E+02  0.47000000000E+01 0.  1.
</event>
<event>
 4    1  0.7509957E-002  0.6000000E+02  0.7546771E-02  0.1259629E+00
         11   -1    0    0    0    0  0.00000000000E+00  0.00000000000E+00  0.30000000000E+02  0.30000000000E+02  0.00000000000E+00 0. -1.
        -11   -1    0    0    0    0 -0.00000000000E+00 -0.00000000000E+00 -0.30000000000E+02  0.30000000000E+02  0.00000000000E+00 0.  1.
          5    1    1    2  501    0 -0.24758356920E+02 -0.15017566105E+02 -0.62774573607E+01  0.30000000000E+02  0.47000000000E+01 0.  1.
         -5    1    1    2    0  501  0.24758356920E+02  0.15017566105E+02  0.62774573607E+01  0.30000000000E+02  0.47000000000E+01 0. -1.
</event>
<event>
 4    1  0.7509957E-002  0.6000000E+02  0.7546771E-02  0.1259629E+00
         11   -1    0    0    0    0  0.00000000000E+00  0.00000000000E+00  0.30000000000E+02  0.30000000000E+02  0.00000000000E+00 0.  1.
        -11   -1    0    0    0    0 -0.00000000000E+00 -0.00000000000E+00 -0.30000000000E+02  0.30000000000E+02  0.00000000000E+00 0. -1.
          5    1    1    2  501    0  0.21786960973E+02 -0.17930102835E+02  0.90415564956E+01  0.30000000000E+02  0.47000000000E+01 0.  1.
         -5    1    1    2    0  501 -0.21786960973E+02  0.17930102835E+02 -0.90415564956E+01  0.30000000000E+02  0.47000000000E+01 0. -1.
</event>
<event>
 4    1  0.7509957E-002  0.6000000E+02  0.7546771E-02  0.1259629E+00
         11   -1    0    0    0    0  0.00000000000E+00  0.00000000000E+00  0.30000000000E+02  0.30000000000E+02  0.00000000000E+00 0.  1.
        -11   -1    0    0    0    0 -0.00000000000E+00 -0.00000000000E+00 -0.30000000000E+02  0.30000000000E+02  0.00000000000E+00 0. -1.
          5    1    1    2  501    0  0.14923646968E+02  0.10352651151E+02 -0.23409770937E+02  0.30000000000E+02  0.47000000000E+01 0. -1.
         -5    1    1    2    0  501 -0.14923646968E+02 -0.10352651151E+02  0.23409770937E+02  0.30000000000E+02  0.47000000000E+01 0.  1.
</event>
<event>
 4    1  0.7509957E-002  0.6000000E+02  0.7546771E-02  0.1259629E+00
         11   -1    0    0    0    0  0.00000000000E+00  0.00000000000E+00  0.30000000000E+02  0.30000000000E+02  0.00000000000E+00 0.  1.
        -11   -1    0    0    0    0 -0.00000000000E+00 -0.00000000000E+00 -0.30000000000E+02  0.30000000000E+02  0.00000000000E+00 0. -1.
          5    1    1    2  501    0  0.56123798784E+00  0.26327363028E+02 -0.13581788096E+02  0.30000000000E+02  0.47000000000E+01 0. -1.
         -5    1    1    2    0  501 -0.56123798784E+00 -0.26327363028E+02  0.13581788096E+02  0.30000000000E+02  0.47000000000E+01 0.  1.
</event>
<event>
 4    1  0.7509957E-002  0.6000000E+02  0.7546771E-02  0.1259629E+00
         11   -1    0    0    0    0  0.00000000000E+00  0.00000000000E+00  0.30000000000E+02  0.30000000000E+02  0.00000000000E+00 0. -1.
        -11   -1    0    0    0    0 -0.00000000000E+00 -0.00000000000E+00 -0.30000000000E+02  0.30000000000E+02  0.00000000000E+00 0.  1.
          5    1    1    2  501    0  0.12091606499E+02  0.20454905525E+02 -0.17700279440E+02  0.30000000000E+02  0.47000000000E+01 0.  1.
         -5    1    1    2    0  501 -0.12091606499E+02 -0.20454905525E+02  0.17700279440E+02  0.30000000000E+02  0.47000000000E+01 0. -1.
</event>
<event>
 4    1  0.7509957E-002  0.6000000E+02  0.7546771E-02  0.1259629E+00
         11   -1    0    0    0    0  0.00000000000E+00  0.00000000000E+00  0.30000000000E+02  0.30000000000E+02  0.00000000000E+00 0. -1.
        -11   -1    0    0    0    0 -0.00000000000E+00 -0.00000000000E+00 -0.30000000000E+02  0.30000000000E+02  0.00000000000E+00 0.  1.
          5    1    1    2  501    0  0.12347985319E+02  0.11768087534E+02 -0.24227038085E+02  0.30000000000E+02  0.47000000000E+01 0.  1.
         -5    1    1    2    0  501 -0.12347985319E+02 -0.11768087534E+02  0.24227038085E+02  0.30000000000E+02  0.47000000000E+01 0. -1.
</event>
<event>
 4    1  0.7509957E-002  0.6000000E+02  0.7546771E-02  0.1259629E+00
         11   -1    0    0    0    0  0.00000000000E+00  0.00000000000E+00  0.30000000000E+02  0.30000000000E+02  0.00000000000E+00 0. -1.
        -11   -1    0    0    0    0 -0.00000000000E+00 -0.00000000000E+00 -0.30000000000E+02  0.30000000000E+02  0.00000000000E+00 0.  1.
          5    1    1    2  501    0  0.31112569779E+01  0.11699952014E+01 -0.29442506538E+02  0.30000000000E+02  0.47000000000E+01 0.  1.
         -5    1    1    2    0  501 -0.31112569779E+01 -0.11699952014E+01  0.29442506538E+02  0.30000000000E+02  0.47000000000E+01 0. -1.
</event>
<event>
 4    1  0.7509957E-002  0.6000000E+02  0.7546771E-02  0.1259629E+00
         11   -1    0    0    0    0  0.00000000000E+00  0.00000000000E+00  0.30000000000E+02  0.30000000000E+02  0.00000000000E+00 0.  1.
        -11   -1    0    0    0    0 -0.00000000000E+00 -0.00000000000E+00 -0.30000000000E+02  0.30000000000E+02  0.00000000000E+00 0. -1.
          5    1    1    2  501    0 -0.70884139786E+01 -0.88482407517E+01 -0.27374678498E+02  0.30000000000E+02  0.47000000000E+01 0. -1.
         -5    1    1    2    0  501  0.70884139786E+01  0.88482407517E+01  0.27374678498E+02  0.30000000000E+02  0.47000000000E+01 0.  1.
</event>
<event>
 4    1  0.7509957E-002  0.6000000E+02  0.7546771E-02  0.1259629E+00
         11   -1    0    0    0    0  0.00000000000E+00  0.00000000000E+00  0.30000000000E+02  0.30000000000E+02  0.00000000000E+00 0.  1.
        -11   -1    0    0    0    0 -0.00000000000E+00 -0.00000000000E+00 -0.30000000000E+02  0.30000000000E+02  0.00000000000E+00 0. -1.
          5    1    1    2  501    0  0.71455036632E+01 -0.14914137384E+02  0.24584960514E+02  0.30000000000E+02  0.47000000000E+01 0.  1.
         -5    1    1    2    0  501 -0.71455036632E+01  0.14914137384E+02 -0.24584960514E+02  0.30000000000E+02  0.47000000000E+01 0. -1.
</event>
<event>
 4    1  0.7509957E-002  0.6000000E+02  0.7546771E-02  0.1259629E+00
         11   -1    0    0    0    0  0.00000000000E+00  0.00000000000E+00  0.30000000000E+02  0.30000000000E+02  0.00000000000E+00 0.  1.
        -11   -1    0    0    0    0 -0.00000000000E+00 -0.00000000000E+00 -0.30000000000E+02  0.30000000000E+02  0.00000000000E+00 0. -1.
          5    1    1    2  501    0 -0.27454952597E+02 -0.63381376730E+01 -0.91631647770E+01  0.30000000000E+02  0.47000000000E+01 0. -1.
         -5    1    1    2    0  501  0.27454952597E+02  0.63381376730E+01  0.91631647770E+01  0.30000000000E+02  0.47000000000E+01 0.  1.
</event>
<event>
 4    1  0.7509957E-002  0.6000000E+02  0.7546771E-02  0.1259629E+00
         11   -1    0    0    0    0  0.00000000000E+00  0.00000000000E+00  0.30000000000E+02  0.30000000000E+02  0.00000000000E+00 0. -1.
        -11   -1    0    0    0    0 -0.00000000000E+00 -0.00000000000E+00 -0.30000000000E+02  0.30000000000E+02  0.00000000000E+00 0.  1.
          5    1    1    2  501    0 -0.27718523880E+02  0.10007821951E+02 -0.30719592607E+01  0.30000000000E+02  0.47000000000E+01 0.  1.
         -5    1    1    2    0  501  0.27718523880E+02 -0.10007821951E+02  0.30719592607E+01  0.30000000000E+02  0.47000000000E+01 0. -1.
</event>
<event>
 4    1  0.7509957E-002  0.6000000E+02  0.7546771E-02  0.1259629E+00
         11   -1    0    0    0    0  0.00000000000E+00  0.00000000000E+00  0.30000000000E+02  0.30000000000E+02  0.00000000000E+00 0.  1.
        -11   -1    0    0    0    0 -0.00000000000E+00 -0.00000000000E+00 -0.30000000000E+02  0.30000000000E+02  0.00000000000E+00 0. -1.
          5    1    1    2  501    0 -0.12400298902E+02  0.71838201351E+01 -0.25933285858E+02  0.30000000000E+02  0.47000000000E+01 0. -1.
         -5    1    1    2    0  501  0.12400298902E+02 -0.71838201351E+01  0.25933285858E+02  0.30000000000E+02  0.47000000000E+01 0.  1.
</event>
<event>
 4    1  0.7509957E-002  0.6000000E+02  0.7546771E-02  0.1259629E+00
         11   -1    0    0    0    0  0.00000000000E+00  0.00000000000E+00  0.30000000000E+02  0.30000000000E+02  0.00000000000E+00 0.  1.
        -11   -1    0    0    0    0 -0.00000000000E+00 -0.00000000000E+00 -0.30000000000E+02  0.30000000000E+02  0.00000000000E+00 0. -1.
          5    1    1    2  501    0  0.53212621354E+01  0.12396342415E+02 -0.26380387867E+02  0.30000000000E+02  0.47000000000E+01 0. -1.
         -5    1    1    2    0  501 -0.53212621354E+01 -0.12396342415E+02  0.26380387867E+02  0.30000000000E+02  0.47000000000E+01 0.  1.
</event>
<event>
 4    1  0.7509957E-002  0.6000000E+02  0.7546771E-02  0.1259629E+00
         11   -1    0    0    0    0  0.00000000000E+00  0.00000000000E+00  0.30000000000E+02  0.30000000000E+02  0.00000000000E+00 0. -1.
        -11   -1    0    0    0    0 -0.00000000000E+00 -0.00000000000E+00 -0.30000000000E+02  0.30000000000E+02  0.00000000000E+00 0.  1.
          5    1    1    2  501    0  0.95206853440E+01 -0.54005778793E+01 -0.27533621432E+02  0.30000000000E+02  0.47000000000E+01 0.  1.
         -5    1    1    2    0  501 -0.95206853440E+01  0.54005778793E+01  0.27533621432E+02  0.30000000000E+02  0.47000000000E+01 0. -1.
</event>
<event>
 4    1  0.7509957E-002  0.6000000E+02  0.7546771E-02  0.1259629E+00
         11   -1    0    0    0    0  0.00000000000E+00  0.00000000000E+00  0.30000000000E+02  0.30000000000E+02  0.00000000000E+00 0.  1.
        -11   -1    0    0    0    0 -0.00000000000E+00 -0.00000000000E+00 -0.30000000000E+02  0.30000000000E+02  0.00000000000E+00 0. -1.
          5    1    1    2  501    0 -0.15185638580E+02  0.25405646272E+02  0.13636415956E+01  0.30000000000E+02  0.47000000000E+01 0. -1.
         -5    1    1    2    0  501  0.15185638580E+02 -0.25405646272E+02 -0.13636415956E+01  0.30000000000E+02  0.47000000000E+01 0.  1.
</event>
<event>
 4    1  0.7509957E-002  0.6000000E+02  0.7546771E-02  0.1259629E+00
         11   -1    0    0    0    0  0.00000000000E+00  0.00000000000E+00  0.30000000000E+02  0.30000000000E+02  0.00000000000E+00 0.  1.
        -11   -1    0    0    0    0 -0.00000000000E+00 -0.00000000000E+00 -0.30000000000E+02  0.30000000000E+02  0.00000000000E+00 0. -1.
          5    1    1    2  501    0 -0.13747811185E+02  0.16635932263E+02 -0.20301562633E+02  0.30000000000E+02  0.47000000000E+01 0. -1.
         -5    1    1    2    0  501  0.13747811185E+02 -0.16635932263E+02  0.20301562633E+02  0.30000000000E+02  0.47000000000E+01 0.  1.
</event>
<event>
 4    1  0.7509957E-002  0.6000000E+02  0.7546771E-02  0.1259629E+00
         11   -1    0    0    0    0  0.00000000000E+00  0.00000000000E+00  0.30000000000E+02  0.30000000000E+02  0.00000000000E+00 0.  1.
        -11   -1    0    0    0    0 -0.00000000000E+00 -0.00000000000E+00 -0.30000000000E+02  0.30000000000E+02  0.00000000000E+00 0. -1.
          5    1    1    2  501    0  0.76852285269E+01 -0.47825982535E+01 -0.28213011474E+02  0.30000000000E+02  0.47000000000E+01 0. -1.
         -5    1    1    2    0  501 -0.76852285269E+01  0.47825982535E+01  0.28213011474E+02  0.30000000000E+02  0.47000000000E+01 0.  1.
</event>
<event>
 4    1  0.7509957E-002  0.6000000E+02  0.7546771E-02  0.1259629E+00
         11   -1    0    0    0    0  0.00000000000E+00  0.00000000000E+00  0.30000000000E+02  0.30000000000E+02  0.00000000000E+00 0.  1.
        -11   -1    0    0    0    0 -0.00000000000E+00 -0.00000000000E+00 -0.30000000000E+02  0.30000000000E+02  0.00000000000E+00 0. -1.
          5    1    1    2  501    0 -0.18574151908E+02 -0.13378312689E+02 -0.18813070735E+02  0.30000000000E+02  0.47000000000E+01 0. -1.
         -5    1    1    2    0  501  0.18574151908E+02  0.13378312689E+02  0.18813070735E+02  0.30000000000E+02  0.47000000000E+01 0.  1.
</event>
<event>
 4    1  0.7509957E-002  0.6000000E+02  0.7546771E-02  0.1259629E+00
         11   -1    0    0    0    0  0.00000000000E+00  0.00000000000E+00  0.30000000000E+02  0.30000000000E+02  0.00000000000E+00 0.  1.
        -11   -1    0    0    0    0 -0.00000000000E+00 -0.00000000000E+00 -0.30000000000E+02  0.30000000000E+02  0.00000000000E+00 0. -1.
          5    1    1    2  501    0  0.13241886294E+02  0.19001884264E+02  0.18479470820E+02  0.30000000000E+02  0.47000000000E+01 0. -1.
         -5    1    1    2    0  501 -0.13241886294E+02 -0.19001884264E+02 -0.18479470820E+02  0.30000000000E+02  0.47000000000E+01 0.  1.
</event>
<event>
 4    1  0.7509957E-002  0.6000000E+02  0.7546771E-02  0.1259629E+00
         11   -1    0    0    0    0  0.00000000000E+00  0.00000000000E+00  0.30000000000E+02  0.30000000000E+02  0.00000000000E+00 0.  1.
        -11   -1    0    0    0    0 -0.00000000000E+00 -0.00000000000E+00 -0.30000000000E+02  0.30000000000E+02  0.00000000000E+00 0. -1.
          5    1    1    2  501    0 -0.25931287240E+02 -0.13111584656E+02 -0.57935041107E+01  0.30000000000E+02  0.47000000000E+01 0. -1.
         -5    1    1    2    0  501  0.25931287240E+02  0.13111584656E+02  0.57935041107E+01  0.30000000000E+02  0.47000000000E+01 0.  1.
</event>
<event>
 4    1  0.7509957E-002  0.6000000E+02  0.7546771E-02  0.1259629E+00
         11   -1    0    0    0    0  0.00000000000E+00  0.00000000000E+00  0.30000000000E+02  0.30000000000E+02  0.00000000000E+00 0. -1.
        -11   -1    0    0    0    0 -0.00000000000E+00 -0.00000000000E+00 -0.30000000000E+02  0.30000000000E+02  0.00000000000E+00 0.  1.
          5    1    1    2  501    0  0.19139838982E+02  0.14484182369E+02 -0.17371960881E+02  0.30000000000E+02  0.47000000000E+01 0.  1.
         -5    1    1    2    0  501 -0.19139838982E+02 -0.14484182369E+02  0.17371960881E+02  0.30000000000E+02  0.47000000000E+01 0. -1.
</event>
<event>
 4    1  0.7509957E-002  0.6000000E+02  0.7546771E-02  0.1259629E+00
         11   -1    0    0    0    0  0.00000000000E+00  0.00000000000E+00  0.30000000000E+02  0.30000000000E+02  0.00000000000E+00 0.  1.
        -11   -1    0    0    0    0 -0.00000000000E+00 -0.00000000000E+00 -0.30000000000E+02  0.30000000000E+02  0.00000000000E+00 0. -1.
          5    1    1    2  501    0 -0.49866084378E+01 -0.27825521101E+02 -0.88760414466E+01  0.30000000000E+02  0.47000000000E+01 0. -1.
         -5    1    1    2    0  501  0.49866084378E+01  0.27825521101E+02  0.88760414466E+01  0.30000000000E+02  0.47000000000E+01 0.  1.
</event>
<event>
 4    1  0.7509957E-002  0.6000000E+02  0.7546771E-02  0.1259629E+00
         11   -1    0    0    0    0  0.00000000000E+00  0.00000000000E+00  0.30000000000E+02  0.30000000000E+02  0.00000000000E+00 0. -1.
        -11   -1    0    0    0    0 -0.00000000000E+00 -0.00000000000E+00 -0.30000000000E+02  0.30000000000E+02  0.00000000000E+00 0.  1.
          5    1    1    2  501    0 -0.32210175448E+01 -0.16552965433E+02  0.24362561059E+02  0.30000000000E+02  0.47000000000E+01 0.  1.
         -5    1    1    2    0  501  0.32210175448E+01  0.16552965433E+02 -0.24362561059E+02  0.30000000000E+02  0.47000000000E+01 0. -1.
</event>
<event>
 4    1  0.7509957E-002  0.6000000E+02  0.7546771E-02  0.1259629E+00
         11   -1    0    0    0    0  0.00000000000E+00  0.00000000000E+00  0.30000000000E+02  0.30000000000E+02  0.00000000000E+00 0.  1.
        -11   -1    0    0    0    0 -0.00000000000E+00 -0.00000000000E+00 -0.30000000000E+02  0.30000000000E+02  0.00000000000E+00 0. -1.
          5    1    1    2  501    0  0.19440027711E+02  0.21737241045E+02 -0.52428689057E+01  0.30000000000E+02  0.47000000000E+01 0. -1.
         -5    1    1    2    0  501 -0.19440027711E+02 -0.21737241045E+02  0.52428689057E+01  0.30000000000E+02  0.47000000000E+01 0.  1.
</event>
<event>
 4    1  0.7509957E-002  0.6000000E+02  0.7546771E-02  0.1259629E+00
         11   -1    0    0    0    0  0.00000000000E+00  0.00000000000E+00  0.30000000000E+02  0.30000000000E+02  0.00000000000E+00 0.  1.
        -11   -1    0    0    0    0 -0.00000000000E+00 -0.00000000000E+00 -0.30000000000E+02  0.30000000000E+02  0.00000000000E+00 0. -1.
          5    1    1    2  501    0  0.16407140016E+02 -0.12435483769E+02 -0.21309023908E+02  0.30000000000E+02  0.47000000000E+01 0. -1.
         -5    1    1    2    0  501 -0.16407140016E+02  0.12435483769E+02  0.21309023908E+02  0.30000000000E+02  0.47000000000E+01 0.  1.
</event>
<event>
 4    1  0.7509957E-002  0.6000000E+02  0.7546771E-02  0.1259629E+00
         11   -1    0    0    0    0  0.00000000000E+00  0.00000000000E+00  0.30000000000E+02  0.30000000000E+02  0.00000000000E+00 0.  1.
        -11   -1    0    0    0    0 -0.00000000000E+00 -0.00000000000E+00 -0.30000000000E+02  0.30000000000E+02  0.00000000000E+00 0. -1.
          5    1    1    2  501    0  0.22576521100E+02  0.11378791983E+02 -0.15451012524E+02  0.30000000000E+02  0.47000000000E+01 0. -1.
         -5    1    1    2    0  501 -0.22576521100E+02 -0.11378791983E+02  0.15451012524E+02  0.30000000000E+02  0.47000000000E+01 0.  1.
</event>
<event>
 4    1  0.7509957E-002  0.6000000E+02  0.7546771E-02  0.1259629E+00
         11   -1    0    0    0    0  0.00000000000E+00  0.00000000000E+00  0.30000000000E+02  0.30000000000E+02  0.00000000000E+00 0.  1.
        -11   -1    0    0    0    0 -0.00000000000E+00 -0.00000000000E+00 -0.30000000000E+02  0.30000000000E+02  0.00000000000E+00 0. -1.
          5    1    1    2  501    0  0.21888620706E+02  0.95135818402E+01  0.17558190230E+02  0.30000000000E+02  0.47000000000E+01 0. -1.
         -5    1    1    2    0  501 -0.21888620706E+02 -0.95135818402E+01 -0.17558190230E+02  0.30000000000E+02  0.47000000000E+01 0.  1.
</event>
<event>
 4    1  0.7509957E-002  0.6000000E+02  0.7546771E-02  0.1259629E+00
         11   -1    0    0    0    0  0.00000000000E+00  0.00000000000E+00  0.30000000000E+02  0.30000000000E+02  0.00000000000E+00 0.  1.
        -11   -1    0    0    0    0 -0.00000000000E+00 -0.00000000000E+00 -0.30000000000E+02  0.30000000000E+02  0.00000000000E+00 0. -1.
          5    1    1    2  501    0 -0.24005874651E+02  0.16731978707E+02  0.46549834369E+01  0.30000000000E+02  0.47000000000E+01 0. -1.
         -5    1    1    2    0  501  0.24005874651E+02 -0.16731978707E+02 -0.46549834369E+01  0.30000000000E+02  0.47000000000E+01 0.  1.
</event>
<event>
 4    1  0.7509957E-002  0.6000000E+02  0.7546771E-02  0.1259629E+00
         11   -1    0    0    0    0  0.00000000000E+00  0.00000000000E+00  0.30000000000E+02  0.30000000000E+02  0.00000000000E+00 0.  1.
        -11   -1    0    0    0    0 -0.00000000000E+00 -0.00000000000E+00 -0.30000000000E+02  0.30000000000E+02  0.00000000000E+00 0. -1.
          5    1    1    2  501    0 -0.18003847342E+01 -0.28725972972E+00 -0.29573401845E+02  0.30000000000E+02  0.47000000000E+01 0. -1.
         -5    1    1    2    0  501  0.18003847342E+01  0.28725972972E+00  0.29573401845E+02  0.30000000000E+02  0.47000000000E+01 0.  1.
</event>
<event>
 4    1  0.7509957E-002  0.6000000E+02  0.7546771E-02  0.1259629E+00
         11   -1    0    0    0    0  0.00000000000E+00  0.00000000000E+00  0.30000000000E+02  0.30000000000E+02  0.00000000000E+00 0.  1.
        -11   -1    0    0    0    0 -0.00000000000E+00 -0.00000000000E+00 -0.30000000000E+02  0.30000000000E+02  0.00000000000E+00 0. -1.
          5    1    1    2  501    0 -0.65474844245E+00 -0.19739512198E+02 -0.22086940998E+02  0.30000000000E+02  0.47000000000E+01 0. -1.
         -5    1    1    2    0  501  0.65474844245E+00  0.19739512198E+02  0.22086940998E+02  0.30000000000E+02  0.47000000000E+01 0.  1.
</event>
<event>
 4    1  0.7509957E-002  0.6000000E+02  0.7546771E-02  0.1259629E+00
         11   -1    0    0    0    0  0.00000000000E+00  0.00000000000E+00  0.30000000000E+02  0.30000000000E+02  0.00000000000E+00 0.  1.
        -11   -1    0    0    0    0 -0.00000000000E+00 -0.00000000000E+00 -0.30000000000E+02  0.30000000000E+02  0.00000000000E+00 0. -1.
          5    1    1    2  501    0 -0.17431028894E+02 -0.99830469880E+01 -0.21780909176E+02  0.30000000000E+02  0.47000000000E+01 0. -1.
         -5    1    1    2    0  501  0.17431028894E+02  0.99830469880E+01  0.21780909176E+02  0.30000000000E+02  0.47000000000E+01 0.  1.
</event>
<event>
 4    1  0.7509957E-002  0.6000000E+02  0.7546771E-02  0.1259629E+00
         11   -1    0    0    0    0  0.00000000000E+00  0.00000000000E+00  0.30000000000E+02  0.30000000000E+02  0.00000000000E+00 0. -1.
        -11   -1    0    0    0    0 -0.00000000000E+00 -0.00000000000E+00 -0.30000000000E+02  0.30000000000E+02  0.00000000000E+00 0.  1.
          5    1    1    2  501    0  0.76915049158E+01 -0.46929623020E+01 -0.28226350401E+02  0.30000000000E+02  0.47000000000E+01 0.  1.
         -5    1    1    2    0  501 -0.76915049158E+01  0.46929623020E+01  0.28226350401E+02  0.30000000000E+02  0.47000000000E+01 0. -1.
</event>
<event>
 4    1  0.7509957E-002  0.6000000E+02  0.7546771E-02  0.1259629E+00
         11   -1    0    0    0    0  0.00000000000E+00  0.00000000000E+00  0.30000000000E+02  0.30000000000E+02  0.00000000000E+00 0. -1.
        -11   -1    0    0    0    0 -0.00000000000E+00 -0.00000000000E+00 -0.30000000000E+02  0.30000000000E+02  0.00000000000E+00 0.  1.
          5    1    1    2  501    0  0.19702259510E+02  0.19450073545E+02  0.10555832951E+02  0.30000000000E+02  0.47000000000E+01 0.  1.
         -5    1    1    2    0  501 -0.19702259510E+02 -0.19450073545E+02 -0.10555832951E+02  0.30000000000E+02  0.47000000000E+01 0. -1.
</event>
<event>
 4    1  0.7509957E-002  0.6000000E+02  0.7546771E-02  0.1259629E+00
         11   -1    0    0    0    0  0.00000000000E+00  0.00000000000E+00  0.30000000000E+02  0.30000000000E+02  0.00000000000E+00 0.  1.
        -11   -1    0    0    0    0 -0.00000000000E+00 -0.00000000000E+00 -0.30000000000E+02  0.30000000000E+02  0.00000000000E+00 0. -1.
          5    1    1    2  501    0 -0.95265056306E+01 -0.29886151813E+01 -0.27896664133E+02  0.30000000000E+02  0.47000000000E+01 0. -1.
         -5    1    1    2    0  501  0.95265056306E+01  0.29886151813E+01  0.27896664133E+02  0.30000000000E+02  0.47000000000E+01 0.  1.
</event>
<event>
 4    1  0.7509957E-002  0.6000000E+02  0.7546771E-02  0.1259629E+00
         11   -1    0    0    0    0  0.00000000000E+00  0.00000000000E+00  0.30000000000E+02  0.30000000000E+02  0.00000000000E+00 0. -1.
        -11   -1    0    0    0    0 -0.00000000000E+00 -0.00000000000E+00 -0.30000000000E+02  0.30000000000E+02  0.00000000000E+00 0.  1.
          5    1    1    2  501    0 -0.23301476227E+01 -0.28790668079E+02  0.66013516524E+01  0.30000000000E+02  0.47000000000E+01 0.  1.
         -5    1    1    2    0  501  0.23301476227E+01  0.28790668079E+02 -0.66013516524E+01  0.30000000000E+02  0.47000000000E+01 0. -1.
</event>
<event>
 4    1  0.7509957E-002  0.6000000E+02  0.7546771E-02  0.1259629E+00
         11   -1    0    0    0    0  0.00000000000E+00  0.00000000000E+00  0.30000000000E+02  0.30000000000E+02  0.00000000000E+00 0.  1.
        -11   -1    0    0    0    0 -0.00000000000E+00 -0.00000000000E+00 -0.30000000000E+02  0.30000000000E+02  0.00000000000E+00 0. -1.
          5    1    1    2  501    0 -0.93716624663E-01  0.26089808037E+02 -0.14043615410E+02  0.30000000000E+02  0.47000000000E+01 0. -1.
         -5    1    1    2    0  501  0.93716624663E-01 -0.26089808037E+02  0.14043615410E+02  0.30000000000E+02  0.47000000000E+01 0.  1.
</event>
<event>
 4    1  0.7509957E-002  0.6000000E+02  0.7546771E-02  0.1259629E+00
         11   -1    0    0    0    0  0.00000000000E+00  0.00000000000E+00  0.30000000000E+02  0.30000000000E+02  0.00000000000E+00 0.  1.
        -11   -1    0    0    0    0 -0.00000000000E+00 -0.00000000000E+00 -0.30000000000E+02  0.30000000000E+02  0.00000000000E+00 0. -1.
          5    1    1    2  501    0 -0.35935951340E+01 -0.12792320367E+02 -0.26483062769E+02  0.30000000000E+02  0.47000000000E+01 0. -1.
         -5    1    1    2    0  501  0.35935951340E+01  0.12792320367E+02  0.26483062769E+02  0.30000000000E+02  0.47000000000E+01 0.  1.
</event>
<event>
 4    1  0.7509957E-002  0.6000000E+02  0.7546771E-02  0.1259629E+00
         11   -1    0    0    0    0  0.00000000000E+00  0.00000000000E+00  0.30000000000E+02  0.30000000000E+02  0.00000000000E+00 0.  1.
        -11   -1    0    0    0    0 -0.00000000000E+00 -0.00000000000E+00 -0.30000000000E+02  0.30000000000E+02  0.00000000000E+00 0. -1.
          5    1    1    2  501    0 -0.38517333764E+01 -0.16204046187E+02 -0.24505163480E+02  0.30000000000E+02  0.47000000000E+01 0. -1.
         -5    1    1    2    0  501  0.38517333764E+01  0.16204046187E+02  0.24505163480E+02  0.30000000000E+02  0.47000000000E+01 0.  1.
</event>
<event>
 4    1  0.7509957E-002  0.6000000E+02  0.7546771E-02  0.1259629E+00
         11   -1    0    0    0    0  0.00000000000E+00  0.00000000000E+00  0.30000000000E+02  0.30000000000E+02  0.00000000000E+00 0.  1.
        -11   -1    0    0    0    0 -0.00000000000E+00 -0.00000000000E+00 -0.30000000000E+02  0.30000000000E+02  0.00000000000E+00 0. -1.
          5    1    1    2  501    0  0.14506660648E+02 -0.24773149839E+02 -0.73319740786E+01  0.30000000000E+02  0.47000000000E+01 0. -1.
         -5    1    1    2    0  501 -0.14506660648E+02  0.24773149839E+02  0.73319740786E+01  0.30000000000E+02  0.47000000000E+01 0.  1.
</event>
<event>
 4    1  0.7509957E-002  0.6000000E+02  0.7546771E-02  0.1259629E+00
         11   -1    0    0    0    0  0.00000000000E+00  0.00000000000E+00  0.30000000000E+02  0.30000000000E+02  0.00000000000E+00 0.  1.
        -11   -1    0    0    0    0 -0.00000000000E+00 -0.00000000000E+00 -0.30000000000E+02  0.30000000000E+02  0.00000000000E+00 0. -1.
          5    1    1    2  501    0 -0.17719278478E+02  0.10733403616E+01 -0.23723092351E+02  0.30000000000E+02  0.47000000000E+01 0. -1.
         -5    1    1    2    0  501  0.17719278478E+02 -0.10733403616E+01  0.23723092351E+02  0.30000000000E+02  0.47000000000E+01 0.  1.
</event>
<event>
 4    1  0.7509957E-002  0.6000000E+02  0.7546771E-02  0.1259629E+00
         11   -1    0    0    0    0  0.00000000000E+00  0.00000000000E+00  0.30000000000E+02  0.30000000000E+02  0.00000000000E+00 0. -1.
        -11   -1    0    0    0    0 -0.00000000000E+00 -0.00000000000E+00 -0.30000000000E+02  0.30000000000E+02  0.00000000000E+00 0.  1.
          5    1    1    2  501    0 -0.14037218000E+02 -0.16683776594E+02 -0.20062853969E+02  0.30000000000E+02  0.47000000000E+01 0.  1.
         -5    1    1    2    0  501  0.14037218000E+02  0.16683776594E+02  0.20062853969E+02  0.30000000000E+02  0.47000000000E+01 0. -1.
</event>
<event>
 4    1  0.7509957E-002  0.6000000E+02  0.7546771E-02  0.1259629E+00
         11   -1    0    0    0    0  0.00000000000E+00  0.00000000000E+00  0.30000000000E+02  0.30000000000E+02  0.00000000000E+00 0.  1.
        -11   -1    0    0    0    0 -0.00000000000E+00 -0.00000000000E+00 -0.30000000000E+02  0.30000000000E+02  0.00000000000E+00 0. -1.
          5    1    1    2  501    0 -0.13371777338E+02 -0.17216392291E+02 -0.20067421541E+02  0.30000000000E+02  0.47000000000E+01 0. -1.
         -5    1    1    2    0  501  0.13371777338E+02  0.17216392291E+02  0.20067421541E+02  0.30000000000E+02  0.47000000000E+01 0.  1.
</event>
<event>
 4    1  0.7509957E-002  0.6000000E+02  0.7546771E-02  0.1259629E+00
         11   -1    0    0    0    0  0.00000000000E+00  0.00000000000E+00  0.30000000000E+02  0.30000000000E+02  0.00000000000E+00 0.  1.
        -11   -1    0    0    0    0 -0.00000000000E+00 -0.00000000000E+00 -0.30000000000E+02  0.30000000000E+02  0.00000000000E+00 0. -1.
          5    1    1    2  501    0 -0.34520057813E+01 -0.27484622637E+02 -0.10516138768E+02  0.30000000000E+02  0.47000000000E+01 0. -1.
         -5    1    1    2    0  501  0.34520057813E+01  0.27484622637E+02  0.10516138768E+02  0.30000000000E+02  0.47000000000E+01 0.  1.
</event>
<event>
 4    1  0.7509957E-002  0.6000000E+02  0.7546771E-02  0.1259629E+00
         11   -1    0    0    0    0  0.00000000000E+00  0.00000000000E+00  0.30000000000E+02  0.30000000000E+02  0.00000000000E+00 0.  1.
        -11   -1    0    0    0    0 -0.00000000000E+00 -0.00000000000E+00 -0.30000000000E+02  0.30000000000E+02  0.00000000000E+00 0. -1.
          5    1    1    2  501    0 -0.29423901045E+02  0.34795780230E+01  0.19126963731E+00  0.30000000000E+02  0.47000000000E+01 0. -1.
         -5    1    1    2    0  501  0.29423901045E+02 -0.34795780230E+01 -0.19126963731E+00  0.30000000000E+02  0.47000000000E+01 0.  1.
</event>
<event>
 4    1  0.7509957E-002  0.6000000E+02  0.7546771E-02  0.1259629E+00
         11   -1    0    0    0    0  0.00000000000E+00  0.00000000000E+00  0.30000000000E+02  0.30000000000E+02  0.00000000000E+00 0.  1.
        -11   -1    0    0    0    0 -0.00000000000E+00 -0.00000000000E+00 -0.30000000000E+02  0.30000000000E+02  0.00000000000E+00 0. -1.
          5    1    1    2  501    0  0.56107345715E+01 -0.27396173908E+02 -0.97917982413E+01  0.30000000000E+02  0.47000000000E+01 0. -1.
         -5    1    1    2    0  501 -0.56107345715E+01  0.27396173908E+02  0.97917982413E+01  0.30000000000E+02  0.47000000000E+01 0.  1.
</event>
<event>
 4    1  0.7509957E-002  0.6000000E+02  0.7546771E-02  0.1259629E+00
         11   -1    0    0    0    0  0.00000000000E+00  0.00000000000E+00  0.30000000000E+02  0.30000000000E+02  0.00000000000E+00 0.  1.
        -11   -1    0    0    0    0 -0.00000000000E+00 -0.00000000000E+00 -0.30000000000E+02  0.30000000000E+02  0.00000000000E+00 0. -1.
          5    1    1    2  501    0  0.12504582382E+02  0.20224727874E+01 -0.26785350908E+02  0.30000000000E+02  0.47000000000E+01 0. -1.
         -5    1    1    2    0  501 -0.12504582382E+02 -0.20224727874E+01  0.26785350908E+02  0.30000000000E+02  0.47000000000E+01 0.  1.
</event>
<event>
 4    1  0.7509957E-002  0.6000000E+02  0.7546771E-02  0.1259629E+00
         11   -1    0    0    0    0  0.00000000000E+00  0.00000000000E+00  0.30000000000E+02  0.30000000000E+02  0.00000000000E+00 0.  1.
        -11   -1    0    0    0    0 -0.00000000000E+00 -0.00000000000E+00 -0.30000000000E+02  0.30000000000E+02  0.00000000000E+00 0. -1.
          5    1    1    2  501    0 -0.51257532533E+01 -0.19724258119E+02 -0.21507912387E+02  0.30000000000E+02  0.47000000000E+01 0. -1.
         -5    1    1    2    0  501  0.51257532533E+01  0.19724258119E+02  0.21507912387E+02  0.30000000000E+02  0.47000000000E+01 0.  1.
</event>
<event>
 4    1  0.7509957E-002  0.6000000E+02  0.7546771E-02  0.1259629E+00
         11   -1    0    0    0    0  0.00000000000E+00  0.00000000000E+00  0.30000000000E+02  0.30000000000E+02  0.00000000000E+00 0. -1.
        -11   -1    0    0    0    0 -0.00000000000E+00 -0.00000000000E+00 -0.30000000000E+02  0.30000000000E+02  0.00000000000E+00 0.  1.
          5    1    1    2  501    0 -0.13282922585E+02  0.18075540527E+02  0.19358429747E+02  0.30000000000E+02  0.47000000000E+01 0.  1.
         -5    1    1    2    0  501  0.13282922585E+02 -0.18075540527E+02 -0.19358429747E+02  0.30000000000E+02  0.47000000000E+01 0. -1.
</event>
<event>
 4    1  0.7509957E-002  0.6000000E+02  0.7546771E-02  0.1259629E+00
         11   -1    0    0    0    0  0.00000000000E+00  0.00000000000E+00  0.30000000000E+02  0.30000000000E+02  0.00000000000E+00 0.  1.
        -11   -1    0    0    0    0 -0.00000000000E+00 -0.00000000000E+00 -0.30000000000E+02  0.30000000000E+02  0.00000000000E+00 0. -1.
          5    1    1    2  501    0  0.25867358913E+02 -0.74176327483E+01 -0.12400341418E+02  0.30000000000E+02  0.47000000000E+01 0. -1.
         -5    1    1    2    0  501 -0.25867358913E+02  0.74176327483E+01  0.12400341418E+02  0.30000000000E+02  0.47000000000E+01 0.  1.
</event>
<event>
 4    1  0.7509957E-002  0.6000000E+02  0.7546771E-02  0.1259629E+00
         11   -1    0    0    0    0  0.00000000000E+00  0.00000000000E+00  0.30000000000E+02  0.30000000000E+02  0.00000000000E+00 0.  1.
        -11   -1    0    0    0    0 -0.00000000000E+00 -0.00000000000E+00 -0.30000000000E+02  0.30000000000E+02  0.00000000000E+00 0. -1.
          5    1    1    2  501    0  0.90221509828E+01  0.17903356114E+02 -0.21816980348E+02  0.30000000000E+02  0.47000000000E+01 0. -1.
         -5    1    1    2    0  501 -0.90221509828E+01 -0.17903356114E+02  0.21816980348E+02  0.30000000000E+02  0.47000000000E+01 0.  1.
</event>
<event>
 4    1  0.7509957E-002  0.6000000E+02  0.7546771E-02  0.1259629E+00
         11   -1    0    0    0    0  0.00000000000E+00  0.00000000000E+00  0.30000000000E+02  0.30000000000E+02  0.00000000000E+00 0. -1.
        -11   -1    0    0    0    0 -0.00000000000E+00 -0.00000000000E+00 -0.30000000000E+02  0.30000000000E+02  0.00000000000E+00 0.  1.
          5    1    1    2  501    0 -0.93252145816E+01 -0.25866351258E+02 -0.11040029239E+02  0.30000000000E+02  0.47000000000E+01 0.  1.
         -5    1    1    2    0  501  0.93252145816E+01  0.25866351258E+02  0.11040029239E+02  0.30000000000E+02  0.47000000000E+01 0. -1.
</event>
<event>
 4    1  0.7509957E-002  0.6000000E+02  0.7546771E-02  0.1259629E+00
         11   -1    0    0    0    0  0.00000000000E+00  0.00000000000E+00  0.30000000000E+02  0.30000000000E+02  0.00000000000E+00 0. -1.
        -11   -1    0    0    0    0 -0.00000000000E+00 -0.00000000000E+00 -0.30000000000E+02  0.30000000000E+02  0.00000000000E+00 0.  1.
          5    1    1    2  501    0 -0.24594381670E+02  0.12979395935E+02  0.10225540155E+02  0.30000000000E+02  0.47000000000E+01 0.  1.
         -5    1    1    2    0  501  0.24594381670E+02 -0.12979395935E+02 -0.10225540155E+02  0.30000000000E+02  0.47000000000E+01 0. -1.
</event>
<event>
 4    1  0.7509957E-002  0.6000000E+02  0.7546771E-02  0.1259629E+00
         11   -1    0    0    0    0  0.00000000000E+00  0.00000000000E+00  0.30000000000E+02  0.30000000000E+02  0.00000000000E+00 0. -1.
        -11   -1    0    0    0    0 -0.00000000000E+00 -0.00000000000E+00 -0.30000000000E+02  0.30000000000E+02  0.00000000000E+00 0.  1.
          5    1    1    2  501    0 -0.14437950563E+02 -0.25808742474E+02 -0.18342288480E+01  0.30000000000E+02  0.47000000000E+01 0. -1.
         -5    1    1    2    0  501  0.14437950563E+02  0.25808742474E+02  0.18342288480E+01  0.30000000000E+02  0.47000000000E+01 0.  1.
</event>
<event>
 4    1  0.7509957E-002  0.6000000E+02  0.7546771E-02  0.1259629E+00
         11   -1    0    0    0    0  0.00000000000E+00  0.00000000000E+00  0.30000000000E+02  0.30000000000E+02  0.00000000000E+00 0.  1.
        -11   -1    0    0    0    0 -0.00000000000E+00 -0.00000000000E+00 -0.30000000000E+02  0.30000000000E+02  0.00000000000E+00 0. -1.
          5    1    1    2  501    0 -0.11897949179E+02 -0.10882780804E+02 -0.24857873749E+02  0.30000000000E+02  0.47000000000E+01 0. -1.
         -5    1    1    2    0  501  0.11897949179E+02  0.10882780804E+02  0.24857873749E+02  0.30000000000E+02  0.47000000000E+01 0.  1.
</event>
<event>
 4    1  0.7509957E-002  0.6000000E+02  0.7546771E-02  0.1259629E+00
         11   -1    0    0    0    0  0.00000000000E+00  0.00000000000E+00  0.30000000000E+02  0.30000000000E+02  0.00000000000E+00 0.  1.
        -11   -1    0    0    0    0 -0.00000000000E+00 -0.00000000000E+00 -0.30000000000E+02  0.30000000000E+02  0.00000000000E+00 0. -1.
          5    1    1    2  501    0  0.57506737158E+01  0.29030364379E+02  0.14414214544E+01  0.30000000000E+02  0.47000000000E+01 0.  1.
         -5    1    1    2    0  501 -0.57506737158E+01 -0.29030364379E+02 -0.14414214544E+01  0.30000000000E+02  0.47000000000E+01 0. -1.
</event>
<event>
 4    1  0.7509957E-002  0.6000000E+02  0.7546771E-02  0.1259629E+00
         11   -1    0    0    0    0  0.00000000000E+00  0.00000000000E+00  0.30000000000E+02  0.30000000000E+02  0.00000000000E+00 0.  1.
        -11   -1    0    0    0    0 -0.00000000000E+00 -0.00000000000E+00 -0.30000000000E+02  0.30000000000E+02  0.00000000000E+00 0. -1.
          5    1    1    2  501    0  0.18806661512E+02 -0.52373383094E+01 -0.22288781264E+02  0.30000000000E+02  0.47000000000E+01 0. -1.
         -5    1    1    2    0  501 -0.18806661512E+02  0.52373383094E+01  0.22288781264E+02  0.30000000000E+02  0.47000000000E+01 0.  1.
</event>
<event>
 4    1  0.7509957E-002  0.6000000E+02  0.7546771E-02  0.1259629E+00
         11   -1    0    0    0    0  0.00000000000E+00  0.00000000000E+00  0.30000000000E+02  0.30000000000E+02  0.00000000000E+00 0.  1.
        -11   -1    0    0    0    0 -0.00000000000E+00 -0.00000000000E+00 -0.30000000000E+02  0.30000000000E+02  0.00000000000E+00 0. -1.
          5    1    1    2  501    0  0.15369365389E+02 -0.22223060755E+02 -0.12158461178E+02  0.30000000000E+02  0.47000000000E+01 0. -1.
         -5    1    1    2    0  501 -0.15369365389E+02  0.22223060755E+02  0.12158461178E+02  0.30000000000E+02  0.47000000000E+01 0.  1.
</event>
<event>
 4    1  0.7509957E-002  0.6000000E+02  0.7546771E-02  0.1259629E+00
         11   -1    0    0    0    0  0.00000000000E+00  0.00000000000E+00  0.30000000000E+02  0.30000000000E+02  0.00000000000E+00 0. -1.
        -11   -1    0    0    0    0 -0.00000000000E+00 -0.00000000000E+00 -0.30000000000E+02  0.30000000000E+02  0.00000000000E+00 0.  1.
          5    1    1    2  501    0 -0.76570452585E+01  0.94810696040E+01 -0.27007202319E+02  0.30000000000E+02  0.47000000000E+01 0.  1.
         -5    1    1    2    0  501  0.76570452585E+01 -0.94810696040E+01  0.27007202319E+02  0.30000000000E+02  0.47000000000E+01 0. -1.
</event>
<event>
 4    1  0.7509957E-002  0.6000000E+02  0.7546771E-02  0.1259629E+00
         11   -1    0    0    0    0  0.00000000000E+00  0.00000000000E+00  0.30000000000E+02  0.30000000000E+02  0.00000000000E+00 0.  1.
        -11   -1    0    0    0    0 -0.00000000000E+00 -0.00000000000E+00 -0.30000000000E+02  0.30000000000E+02  0.00000000000E+00 0. -1.
          5    1    1    2  501    0  0.28953741350E+02  0.23758920830E+01 -0.58263194788E+01  0.30000000000E+02  0.47000000000E+01 0. -1.
         -5    1    1    2    0  501 -0.28953741350E+02 -0.23758920830E+01  0.58263194788E+01  0.30000000000E+02  0.47000000000E+01 0.  1.
</event>
<event>
 4    1  0.7509957E-002  0.6000000E+02  0.7546771E-02  0.1259629E+00
         11   -1    0    0    0    0  0.00000000000E+00  0.00000000000E+00  0.30000000000E+02  0.30000000000E+02  0.00000000000E+00 0.  1.
        -11   -1    0    0    0    0 -0.00000000000E+00 -0.00000000000E+00 -0.30000000000E+02  0.30000000000E+02  0.00000000000E+00 0. -1.
          5    1    1    2  501    0 -0.15343180805E+02 -0.90145189270E+01 -0.23690404203E+02  0.30000000000E+02  0.47000000000E+01 0. -1.
         -5    1    1    2    0  501  0.15343180805E+02  0.90145189270E+01  0.23690404203E+02  0.30000000000E+02  0.47000000000E+01 0.  1.
</event>
<event>
 4    1  0.7509957E-002  0.6000000E+02  0.7546771E-02  0.1259629E+00
         11   -1    0    0    0    0  0.00000000000E+00  0.00000000000E+00  0.30000000000E+02  0.30000000000E+02  0.00000000000E+00 0.  1.
        -11   -1    0    0    0    0 -0.00000000000E+00 -0.00000000000E+00 -0.30000000000E+02  0.30000000000E+02  0.00000000000E+00 0. -1.
          5    1    1    2  501    0 -0.44025467822E+01 -0.20845993264E+02 -0.20590583932E+02  0.30000000000E+02  0.47000000000E+01 0. -1.
         -5    1    1    2    0  501  0.44025467822E+01  0.20845993264E+02  0.20590583932E+02  0.30000000000E+02  0.47000000000E+01 0.  1.
</event>
<event>
 4    1  0.7509957E-002  0.6000000E+02  0.7546771E-02  0.1259629E+00
         11   -1    0    0    0    0  0.00000000000E+00  0.00000000000E+00  0.30000000000E+02  0.30000000000E+02  0.00000000000E+00 0.  1.
        -11   -1    0    0    0    0 -0.00000000000E+00 -0.00000000000E+00 -0.30000000000E+02  0.30000000000E+02  0.00000000000E+00 0. -1.
          5    1    1    2  501    0 -0.85567737753E+01  0.92080675054E+01  0.26831010331E+02  0.30000000000E+02  0.47000000000E+01 0.  1.
         -5    1    1    2    0  501  0.85567737753E+01 -0.92080675054E+01 -0.26831010331E+02  0.30000000000E+02  0.47000000000E+01 0. -1.
</event>
<event>
 4    1  0.7509957E-002  0.6000000E+02  0.7546771E-02  0.1259629E+00
         11   -1    0    0    0    0  0.00000000000E+00  0.00000000000E+00  0.30000000000E+02  0.30000000000E+02  0.00000000000E+00 0. -1.
        -11   -1    0    0    0    0 -0.00000000000E+00 -0.00000000000E+00 -0.30000000000E+02  0.30000000000E+02  0.00000000000E+00 0.  1.
          5    1    1    2  501    0  0.21277767100E+02  0.11136222901E+02 -0.17353707578E+02  0.30000000000E+02  0.47000000000E+01 0.  1.
         -5    1    1    2    0  501 -0.21277767100E+02 -0.11136222901E+02  0.17353707578E+02  0.30000000000E+02  0.47000000000E+01 0. -1.
</event>
<event>
 4    1  0.7509957E-002  0.6000000E+02  0.7546771E-02  0.1259629E+00
         11   -1    0    0    0    0  0.00000000000E+00  0.00000000000E+00  0.30000000000E+02  0.30000000000E+02  0.00000000000E+00 0.  1.
        -11   -1    0    0    0    0 -0.00000000000E+00 -0.00000000000E+00 -0.30000000000E+02  0.30000000000E+02  0.00000000000E+00 0. -1.
          5    1    1    2  501    0  0.16125156686E+02 -0.23477672699E+02 -0.81662847440E+01  0.30000000000E+02  0.47000000000E+01 0. -1.
         -5    1    1    2    0  501 -0.16125156686E+02  0.23477672699E+02  0.81662847440E+01  0.30000000000E+02  0.47000000000E+01 0.  1.
</event>
<event>
 4    1  0.7509957E-002  0.6000000E+02  0.7546771E-02  0.1259629E+00
         11   -1    0    0    0    0  0.00000000000E+00  0.00000000000E+00  0.30000000000E+02  0.30000000000E+02  0.00000000000E+00 0.  1.
        -11   -1    0    0    0    0 -0.00000000000E+00 -0.00000000000E+00 -0.30000000000E+02  0.30000000000E+02  0.00000000000E+00 0. -1.
          5    1    1    2  501    0  0.14369833588E+02  0.18171415200E+02 -0.18472074932E+02  0.30000000000E+02  0.47000000000E+01 0. -1.
         -5    1    1    2    0  501 -0.14369833588E+02 -0.18171415200E+02  0.18472074932E+02  0.30000000000E+02  0.47000000000E+01 0.  1.
</event>
<event>
 4    1  0.7509957E-002  0.6000000E+02  0.7546771E-02  0.1259629E+00
         11   -1    0    0    0    0  0.00000000000E+00  0.00000000000E+00  0.30000000000E+02  0.30000000000E+02  0.00000000000E+00 0.  1.
        -11   -1    0    0    0    0 -0.00000000000E+00 -0.00000000000E+00 -0.30000000000E+02  0.30000000000E+02  0.00000000000E+00 0. -1.
          5    1    1    2  501    0  0.10747966175E+02 -0.17756920066E+02  0.21144337608E+02  0.30000000000E+02  0.47000000000E+01 0.  1.
         -5    1    1    2    0  501 -0.10747966175E+02  0.17756920066E+02 -0.21144337608E+02  0.30000000000E+02  0.47000000000E+01 0. -1.
</event>
<event>
 4    1  0.7509957E-002  0.6000000E+02  0.7546771E-02  0.1259629E+00
         11   -1    0    0    0    0  0.00000000000E+00  0.00000000000E+00  0.30000000000E+02  0.30000000000E+02  0.00000000000E+00 0.  1.
        -11   -1    0    0    0    0 -0.00000000000E+00 -0.00000000000E+00 -0.30000000000E+02  0.30000000000E+02  0.00000000000E+00 0. -1.
          5    1    1    2  501    0 -0.12246279966E+02  0.15637254703E+02 -0.21986698077E+02  0.30000000000E+02  0.47000000000E+01 0. -1.
         -5    1    1    2    0  501  0.12246279966E+02 -0.15637254703E+02  0.21986698077E+02  0.30000000000E+02  0.47000000000E+01 0.  1.
</event>
<event>
 4    1  0.7509957E-002  0.6000000E+02  0.7546771E-02  0.1259629E+00
         11   -1    0    0    0    0  0.00000000000E+00  0.00000000000E+00  0.30000000000E+02  0.30000000000E+02  0.00000000000E+00 0.  1.
        -11   -1    0    0    0    0 -0.00000000000E+00 -0.00000000000E+00 -0.30000000000E+02  0.30000000000E+02  0.00000000000E+00 0. -1.
          5    1    1    2  501    0  0.99574523849E+01  0.27812615950E+02 -0.22841926435E+01  0.30000000000E+02  0.47000000000E+01 0. -1.
         -5    1    1    2    0  501 -0.99574523849E+01 -0.27812615950E+02  0.22841926435E+01  0.30000000000E+02  0.47000000000E+01 0.  1.
</event>
<event>
 4    1  0.7509957E-002  0.6000000E+02  0.7546771E-02  0.1259629E+00
         11   -1    0    0    0    0  0.00000000000E+00  0.00000000000E+00  0.30000000000E+02  0.30000000000E+02  0.00000000000E+00 0.  1.
        -11   -1    0    0    0    0 -0.00000000000E+00 -0.00000000000E+00 -0.30000000000E+02  0.30000000000E+02  0.00000000000E+00 0. -1.
          5    1    1    2  501    0  0.17706583012E+02 -0.10479334441E+02 -0.21320658238E+02  0.30000000000E+02  0.47000000000E+01 0. -1.
         -5    1    1    2    0  501 -0.17706583012E+02  0.10479334441E+02  0.21320658238E+02  0.30000000000E+02  0.47000000000E+01 0.  1.
</event>
<event>
 4    1  0.7509957E-002  0.6000000E+02  0.7546771E-02  0.1259629E+00
         11   -1    0    0    0    0  0.00000000000E+00  0.00000000000E+00  0.30000000000E+02  0.30000000000E+02  0.00000000000E+00 0.  1.
        -11   -1    0    0    0    0 -0.00000000000E+00 -0.00000000000E+00 -0.30000000000E+02  0.30000000000E+02  0.00000000000E+00 0. -1.
          5    1    1    2  501    0 -0.99724937533E+01  0.25419026998E+00 -0.27899726802E+02  0.30000000000E+02  0.47000000000E+01 0. -1.
         -5    1    1    2    0  501  0.99724937533E+01 -0.25419026998E+00  0.27899726802E+02  0.30000000000E+02  0.47000000000E+01 0.  1.
</event>
<event>
 4    1  0.7509957E-002  0.6000000E+02  0.7546771E-02  0.1259629E+00
         11   -1    0    0    0    0  0.00000000000E+00  0.00000000000E+00  0.30000000000E+02  0.30000000000E+02  0.00000000000E+00 0.  1.
        -11   -1    0    0    0    0 -0.00000000000E+00 -0.00000000000E+00 -0.30000000000E+02  0.30000000000E+02  0.00000000000E+00 0. -1.
          5    1    1    2  501    0  0.18088702298E+02 -0.17549287995E+02 -0.15579837613E+02  0.30000000000E+02  0.47000000000E+01 0. -1.
         -5    1    1    2    0  501 -0.18088702298E+02  0.17549287995E+02  0.15579837613E+02  0.30000000000E+02  0.47000000000E+01 0.  1.
</event>
<event>
 4    1  0.7509957E-002  0.6000000E+02  0.7546771E-02  0.1259629E+00
         11   -1    0    0    0    0  0.00000000000E+00  0.00000000000E+00  0.30000000000E+02  0.30000000000E+02  0.00000000000E+00 0.  1.
        -11   -1    0    0    0    0 -0.00000000000E+00 -0.00000000000E+00 -0.30000000000E+02  0.30000000000E+02  0.00000000000E+00 0. -1.
          5    1    1    2  501    0  0.50714101369E+01  0.29076789070E+02 -0.25944434118E+01  0.30000000000E+02  0.47000000000E+01 0.  1.
         -5    1    1    2    0  501 -0.50714101369E+01 -0.29076789070E+02  0.25944434118E+01  0.30000000000E+02  0.47000000000E+01 0. -1.
</event>
<event>
 4    1  0.7509957E-002  0.6000000E+02  0.7546771E-02  0.1259629E+00
         11   -1    0    0    0    0  0.00000000000E+00  0.00000000000E+00  0.30000000000E+02  0.30000000000E+02  0.00000000000E+00 0.  1.
        -11   -1    0    0    0    0 -0.00000000000E+00 -0.00000000000E+00 -0.30000000000E+02  0.30000000000E+02  0.00000000000E+00 0. -1.
          5    1    1    2  501    0 -0.22733022468E+02 -0.44880814895E+01 -0.18465557506E+02  0.30000000000E+02  0.47000000000E+01 0. -1.
         -5    1    1    2    0  501  0.22733022468E+02  0.44880814895E+01  0.18465557506E+02  0.30000000000E+02  0.47000000000E+01 0.  1.
</event>
<event>
 4    1  0.7509957E-002  0.6000000E+02  0.7546771E-02  0.1259629E+00
         11   -1    0    0    0    0  0.00000000000E+00  0.00000000000E+00  0.30000000000E+02  0.30000000000E+02  0.00000000000E+00 0.  1.
        -11   -1    0    0    0    0 -0.00000000000E+00 -0.00000000000E+00 -0.30000000000E+02  0.30000000000E+02  0.00000000000E+00 0. -1.
          5    1    1    2  501    0 -0.27819536550E+02 -0.83206740419E+01 -0.58948935229E+01  0.30000000000E+02  0.47000000000E+01 0. -1.
         -5    1    1    2    0  501  0.27819536550E+02  0.83206740419E+01  0.58948935229E+01  0.30000000000E+02  0.47000000000E+01 0.  1.
</event>
<event>
 4    1  0.7509957E-002  0.6000000E+02  0.7546771E-02  0.1259629E+00
         11   -1    0    0    0    0  0.00000000000E+00  0.00000000000E+00  0.30000000000E+02  0.30000000000E+02  0.00000000000E+00 0.  1.
        -11   -1    0    0    0    0 -0.00000000000E+00 -0.00000000000E+00 -0.30000000000E+02  0.30000000000E+02  0.00000000000E+00 0. -1.
          5    1    1    2  501    0  0.14855925546E+02  0.19718976039E+02 -0.16382107928E+02  0.30000000000E+02  0.47000000000E+01 0. -1.
         -5    1    1    2    0  501 -0.14855925546E+02 -0.19718976039E+02  0.16382107928E+02  0.30000000000E+02  0.47000000000E+01 0.  1.
</event>
<event>
 4    1  0.7509957E-002  0.6000000E+02  0.7546771E-02  0.1259629E+00
         11   -1    0    0    0    0  0.00000000000E+00  0.00000000000E+00  0.30000000000E+02  0.30000000000E+02  0.00000000000E+00 0.  1.
        -11   -1    0    0    0    0 -0.00000000000E+00 -0.00000000000E+00 -0.30000000000E+02  0.30000000000E+02  0.00000000000E+00 0. -1.
          5    1    1    2  501    0 -0.16262489260E+02 -0.19954180056E+02 -0.14672155307E+02  0.30000000000E+02  0.47000000000E+01 0. -1.
         -5    1    1    2    0  501  0.16262489260E+02  0.19954180056E+02  0.14672155307E+02  0.30000000000E+02  0.47000000000E+01 0.  1.
</event>
<event>
 4    1  0.7509957E-002  0.6000000E+02  0.7546771E-02  0.1259629E+00
         11   -1    0    0    0    0  0.00000000000E+00  0.00000000000E+00  0.30000000000E+02  0.30000000000E+02  0.00000000000E+00 0. -1.
        -11   -1    0    0    0    0 -0.00000000000E+00 -0.00000000000E+00 -0.30000000000E+02  0.30000000000E+02  0.00000000000E+00 0.  1.
          5    1    1    2  501    0 -0.52019081360E+01 -0.19019700780E+02 -0.22115630987E+02  0.30000000000E+02  0.47000000000E+01 0.  1.
         -5    1    1    2    0  501  0.52019081360E+01  0.19019700780E+02  0.22115630987E+02  0.30000000000E+02  0.47000000000E+01 0. -1.
</event>
<event>
 4    1  0.7509957E-002  0.6000000E+02  0.7546771E-02  0.1259629E+00
         11   -1    0    0    0    0  0.00000000000E+00  0.00000000000E+00  0.30000000000E+02  0.30000000000E+02  0.00000000000E+00 0.  1.
        -11   -1    0    0    0    0 -0.00000000000E+00 -0.00000000000E+00 -0.30000000000E+02  0.30000000000E+02  0.00000000000E+00 0. -1.
          5    1    1    2  501    0 -0.74412156589E+01  0.10971505911E+02 -0.26498384244E+02  0.30000000000E+02  0.47000000000E+01 0. -1.
         -5    1    1    2    0  501  0.74412156589E+01 -0.10971505911E+02  0.26498384244E+02  0.30000000000E+02  0.47000000000E+01 0.  1.
</event>
<event>
 4    1  0.7509957E-002  0.6000000E+02  0.7546771E-02  0.1259629E+00
         11   -1    0    0    0    0  0.00000000000E+00  0.00000000000E+00  0.30000000000E+02  0.30000000000E+02  0.00000000000E+00 0.  1.
        -11   -1    0    0    0    0 -0.00000000000E+00 -0.00000000000E+00 -0.30000000000E+02  0.30000000000E+02  0.00000000000E+00 0. -1.
          5    1    1    2  501    0  0.27906806659E+02  0.98992371088E+01  0.10607764808E+01  0.30000000000E+02  0.47000000000E+01 0. -1.
         -5    1    1    2    0  501 -0.27906806659E+02 -0.98992371088E+01 -0.10607764808E+01  0.30000000000E+02  0.47000000000E+01 0.  1.
</event>
<event>
 4    1  0.7509957E-002  0.6000000E+02  0.7546771E-02  0.1259629E+00
         11   -1    0    0    0    0  0.00000000000E+00  0.00000000000E+00  0.30000000000E+02  0.30000000000E+02  0.00000000000E+00 0.  1.
        -11   -1    0    0    0    0 -0.00000000000E+00 -0.00000000000E+00 -0.30000000000E+02  0.30000000000E+02  0.00000000000E+00 0. -1.
          5    1    1    2  501    0  0.18249262321E+01  0.16152593908E+02 -0.24772431336E+02  0.30000000000E+02  0.47000000000E+01 0. -1.
         -5    1    1    2    0  501 -0.18249262321E+01 -0.16152593908E+02  0.24772431336E+02  0.30000000000E+02  0.47000000000E+01 0.  1.
</event>
<event>
 4    1  0.7509957E-002  0.6000000E+02  0.7546771E-02  0.1259629E+00
         11   -1    0    0    0    0  0.00000000000E+00  0.00000000000E+00  0.30000000000E+02  0.30000000000E+02  0.00000000000E+00 0. -1.
        -11   -1    0    0    0    0 -0.00000000000E+00 -0.00000000000E+00 -0.30000000000E+02  0.30000000000E+02  0.00000000000E+00 0.  1.
          5    1    1    2  501    0  0.11741747045E+02  0.74918718379E+01 -0.26151734793E+02  0.30000000000E+02  0.47000000000E+01 0.  1.
         -5    1    1    2    0  501 -0.11741747045E+02 -0.74918718379E+01  0.26151734793E+02  0.30000000000E+02  0.47000000000E+01 0. -1.
</event>
<event>
 4    1  0.7509957E-002  0.6000000E+02  0.7546771E-02  0.1259629E+00
         11   -1    0    0    0    0  0.00000000000E+00  0.00000000000E+00  0.30000000000E+02  0.30000000000E+02  0.00000000000E+00 0.  1.
        -11   -1    0    0    0    0 -0.00000000000E+00 -0.00000000000E+00 -0.30000000000E+02  0.30000000000E+02  0.00000000000E+00 0. -1.
          5    1    1    2  501    0 -0.65724956707E+00  0.27933422494E+02  0.98591039532E+01  0.30000000000E+02  0.47000000000E+01 0.  1.
         -5    1    1    2    0  501  0.65724956707E+00 -0.27933422494E+02 -0.98591039532E+01  0.30000000000E+02  0.47000000000E+01 0. -1.
</event>
<event>
 4    1  0.7509957E-002  0.6000000E+02  0.7546771E-02  0.1259629E+00
         11   -1    0    0    0    0  0.00000000000E+00  0.00000000000E+00  0.30000000000E+02  0.30000000000E+02  0.00000000000E+00 0. -1.
        -11   -1    0    0    0    0 -0.00000000000E+00 -0.00000000000E+00 -0.30000000000E+02  0.30000000000E+02  0.00000000000E+00 0.  1.
          5    1    1    2  501    0 -0.24026808003E+02 -0.17211872261E+02 -0.20913991545E+01  0.30000000000E+02  0.47000000000E+01 0.  1.
         -5    1    1    2    0  501  0.24026808003E+02  0.17211872261E+02  0.20913991545E+01  0.30000000000E+02  0.47000000000E+01 0. -1.
</event>
<event>
 4    1  0.7509957E-002  0.6000000E+02  0.7546771E-02  0.1259629E+00
         11   -1    0    0    0    0  0.00000000000E+00  0.00000000000E+00  0.30000000000E+02  0.30000000000E+02  0.00000000000E+00 0.  1.
        -11   -1    0    0    0    0 -0.00000000000E+00 -0.00000000000E+00 -0.30000000000E+02  0.30000000000E+02  0.00000000000E+00 0. -1.
          5    1    1    2  501    0 -0.13761789817E+02 -0.25804581457E+02 -0.47588566796E+01  0.30000000000E+02  0.47000000000E+01 0.  1.
         -5    1    1    2    0  501  0.13761789817E+02  0.25804581457E+02  0.47588566796E+01  0.30000000000E+02  0.47000000000E+01 0. -1.
</event>
<event>
 4    1  0.7509957E-002  0.6000000E+02  0.7546771E-02  0.1259629E+00
         11   -1    0    0    0    0  0.00000000000E+00  0.00000000000E+00  0.30000000000E+02  0.30000000000E+02  0.00000000000E+00 0.  1.
        -11   -1    0    0    0    0 -0.00000000000E+00 -0.00000000000E+00 -0.30000000000E+02  0.30000000000E+02  0.00000000000E+00 0. -1.
          5    1    1    2  501    0 -0.37303407365E+01  0.16897198574E+02 -0.24051595339E+02  0.30000000000E+02  0.47000000000E+01 0. -1.
         -5    1    1    2    0  501  0.37303407365E+01 -0.16897198574E+02  0.24051595339E+02  0.30000000000E+02  0.47000000000E+01 0.  1.
</event>
<event>
 4    1  0.7509957E-002  0.6000000E+02  0.7546771E-02  0.1259629E+00
         11   -1    0    0    0    0  0.00000000000E+00  0.00000000000E+00  0.30000000000E+02  0.30000000000E+02  0.00000000000E+00 0. -1.
        -11   -1    0    0    0    0 -0.00000000000E+00 -0.00000000000E+00 -0.30000000000E+02  0.30000000000E+02  0.00000000000E+00 0.  1.
          5    1    1    2  501    0 -0.53172078389E+01  0.10721624879E+02 -0.27105056000E+02  0.30000000000E+02  0.47000000000E+01 0.  1.
         -5    1    1    2    0  501  0.53172078389E+01 -0.10721624879E+02  0.27105056000E+02  0.30000000000E+02  0.47000000000E+01 0. -1.
</event>
<event>
 4    1  0.7509957E-002  0.6000000E+02  0.7546771E-02  0.1259629E+00
         11   -1    0    0    0    0  0.00000000000E+00  0.00000000000E+00  0.30000000000E+02  0.30000000000E+02  0.00000000000E+00 0.  1.
        -11   -1    0    0    0    0 -0.00000000000E+00 -0.00000000000E+00 -0.30000000000E+02  0.30000000000E+02  0.00000000000E+00 0. -1.
          5    1    1    2  501    0  0.29204389839E+01 -0.29439771176E+02 -0.16373482447E+01  0.30000000000E+02  0.47000000000E+01 0. -1.
         -5    1    1    2    0  501 -0.29204389839E+01  0.29439771176E+02  0.16373482447E+01  0.30000000000E+02  0.47000000000E+01 0.  1.
</event>
<event>
 4    1  0.7509957E-002  0.6000000E+02  0.7546771E-02  0.1259629E+00
         11   -1    0    0    0    0  0.00000000000E+00  0.00000000000E+00  0.30000000000E+02  0.30000000000E+02  0.00000000000E+00 0.  1.
        -11   -1    0    0    0    0 -0.00000000000E+00 -0.00000000000E+00 -0.30000000000E+02  0.30000000000E+02  0.00000000000E+00 0. -1.
          5    1    1    2  501    0  0.23590002295E+02  0.25208009407E+01 -0.17750136741E+02  0.30000000000E+02  0.47000000000E+01 0. -1.
         -5    1    1    2    0  501 -0.23590002295E+02 -0.25208009407E+01  0.17750136741E+02  0.30000000000E+02  0.47000000000E+01 0.  1.
</event>
<event>
 4    1  0.7509957E-002  0.6000000E+02  0.7546771E-02  0.1259629E+00
         11   -1    0    0    0    0  0.00000000000E+00  0.00000000000E+00  0.30000000000E+02  0.30000000000E+02  0.00000000000E+00 0.  1.
        -11   -1    0    0    0    0 -0.00000000000E+00 -0.00000000000E+00 -0.30000000000E+02  0.30000000000E+02  0.00000000000E+00 0. -1.
          5    1    1    2  501    0  0.26177587161E+02  0.13679929176E+02  0.23459471800E+01  0.30000000000E+02  0.47000000000E+01 0. -1.
         -5    1    1    2    0  501 -0.26177587161E+02 -0.13679929176E+02 -0.23459471800E+01  0.30000000000E+02  0.47000000000E+01 0.  1.
</event>
<event>
 4    1  0.7509957E-002  0.6000000E+02  0.7546771E-02  0.1259629E+00
         11   -1    0    0    0    0  0.00000000000E+00  0.00000000000E+00  0.30000000000E+02  0.30000000000E+02  0.00000000000E+00 0.  1.
        -11   -1    0    0    0    0 -0.00000000000E+00 -0.00000000000E+00 -0.30000000000E+02  0.30000000000E+02  0.00000000000E+00 0. -1.
          5    1    1    2  501    0 -0.29361859429E+02  0.35419119159E+01  0.18016855602E+01  0.30000000000E+02  0.47000000000E+01 0. -1.
         -5    1    1    2    0  501  0.29361859429E+02 -0.35419119159E+01 -0.18016855602E+01  0.30000000000E+02  0.47000000000E+01 0.  1.
</event>
<event>
 4    1  0.7509957E-002  0.6000000E+02  0.7546771E-02  0.1259629E+00
         11   -1    0    0    0    0  0.00000000000E+00  0.00000000000E+00  0.30000000000E+02  0.30000000000E+02  0.00000000000E+00 0.  1.
        -11   -1    0    0    0    0 -0.00000000000E+00 -0.00000000000E+00 -0.30000000000E+02  0.30000000000E+02  0.00000000000E+00 0. -1.
          5    1    1    2  501    0  0.23738277320E+02 -0.13275375150E+02  0.11754514218E+02  0.30000000000E+02  0.47000000000E+01 0.  1.
         -5    1    1    2    0  501 -0.23738277320E+02  0.13275375150E+02 -0.11754514218E+02  0.30000000000E+02  0.47000000000E+01 0. -1.
</event>
<event>
 4    1  0.7509957E-002  0.6000000E+02  0.7546771E-02  0.1259629E+00
         11   -1    0    0    0    0  0.00000000000E+00  0.00000000000E+00  0.30000000000E+02  0.30000000000E+02  0.00000000000E+00 0.  1.
        -11   -1    0    0    0    0 -0.00000000000E+00 -0.00000000000E+00 -0.30000000000E+02  0.30000000000E+02  0.00000000000E+00 0. -1.
          5    1    1    2  501    0  0.23146207624E+02 -0.32632410287E+01  0.18207534995E+02  0.30000000000E+02  0.47000000000E+01 0.  1.
         -5    1    1    2    0  501 -0.23146207624E+02  0.32632410287E+01 -0.18207534995E+02  0.30000000000E+02  0.47000000000E+01 0. -1.
</event>
<event>
 4    1  0.7509957E-002  0.6000000E+02  0.7546771E-02  0.1259629E+00
         11   -1    0    0    0    0  0.00000000000E+00  0.00000000000E+00  0.30000000000E+02  0.30000000000E+02  0.00000000000E+00 0.  1.
        -11   -1    0    0    0    0 -0.00000000000E+00 -0.00000000000E+00 -0.30000000000E+02  0.30000000000E+02  0.00000000000E+00 0. -1.
          5    1    1    2  501    0 -0.23758910736E+01 -0.54684804288E+01 -0.29023453678E+02  0.30000000000E+02  0.47000000000E+01 0. -1.
         -5    1    1    2    0  501  0.23758910736E+01  0.54684804288E+01  0.29023453678E+02  0.30000000000E+02  0.47000000000E+01 0.  1.
</event>
<event>
 4    1  0.7509957E-002  0.6000000E+02  0.7546771E-02  0.1259629E+00
         11   -1    0    0    0    0  0.00000000000E+00  0.00000000000E+00  0.30000000000E+02  0.30000000000E+02  0.00000000000E+00 0.  1.
        -11   -1    0    0    0    0 -0.00000000000E+00 -0.00000000000E+00 -0.30000000000E+02  0.30000000000E+02  0.00000000000E+00 0. -1.
          5    1    1    2  501    0 -0.83741254878E+01  0.24024491406E+02 -0.15185777392E+02  0.30000000000E+02  0.47000000000E+01 0. -1.
         -5    1    1    2    0  501  0.83741254878E+01 -0.24024491406E+02  0.15185777392E+02  0.30000000000E+02  0.47000000000E+01 0.  1.
</event>
<event>
 4    1  0.7509957E-002  0.6000000E+02  0.7546771E-02  0.1259629E+00
         11   -1    0    0    0    0  0.00000000000E+00  0.00000000000E+00  0.30000000000E+02  0.30000000000E+02  0.00000000000E+00 0.  1.
        -11   -1    0    0    0    0 -0.00000000000E+00 -0.00000000000E+00 -0.30000000000E+02  0.30000000000E+02  0.00000000000E+00 0. -1.
          5    1    1    2  501    0  0.97477699364E+01 -0.19912102072E+02 -0.19657038748E+02  0.30000000000E+02  0.47000000000E+01 0. -1.
         -5    1    1    2    0  501 -0.97477699364E+01  0.19912102072E+02  0.19657038748E+02  0.30000000000E+02  0.47000000000E+01 0.  1.
</event>
<event>
 4    1  0.7509957E-002  0.6000000E+02  0.7546771E-02  0.1259629E+00
         11   -1    0    0    0    0  0.00000000000E+00  0.00000000000E+00  0.30000000000E+02  0.30000000000E+02  0.00000000000E+00 0.  1.
        -11   -1    0    0    0    0 -0.00000000000E+00 -0.00000000000E+00 -0.30000000000E+02  0.30000000000E+02  0.00000000000E+00 0. -1.
          5    1    1    2  501    0  0.10068995978E+02 -0.15940103195E+01 -0.27820576038E+02  0.30000000000E+02  0.47000000000E+01 0. -1.
         -5    1    1    2    0  501 -0.10068995978E+02  0.15940103195E+01  0.27820576038E+02  0.30000000000E+02  0.47000000000E+01 0.  1.
</event>
<event>
 4    1  0.7509957E-002  0.6000000E+02  0.7546771E-02  0.1259629E+00
         11   -1    0    0    0    0  0.00000000000E+00  0.00000000000E+00  0.30000000000E+02  0.30000000000E+02  0.00000000000E+00 0.  1.
        -11   -1    0    0    0    0 -0.00000000000E+00 -0.00000000000E+00 -0.30000000000E+02  0.30000000000E+02  0.00000000000E+00 0. -1.
          5    1    1    2  501    0 -0.12508801887E+01 -0.29033691620E+02  0.57784123854E+01  0.30000000000E+02  0.47000000000E+01 0. -1.
         -5    1    1    2    0  501  0.12508801887E+01  0.29033691620E+02 -0.57784123854E+01  0.30000000000E+02  0.47000000000E+01 0.  1.
</event>
<event>
 4    1  0.7509957E-002  0.6000000E+02  0.7546771E-02  0.1259629E+00
         11   -1    0    0    0    0  0.00000000000E+00  0.00000000000E+00  0.30000000000E+02  0.30000000000E+02  0.00000000000E+00 0.  1.
        -11   -1    0    0    0    0 -0.00000000000E+00 -0.00000000000E+00 -0.30000000000E+02  0.30000000000E+02  0.00000000000E+00 0. -1.
          5    1    1    2  501    0  0.24749125708E+02 -0.14826007362E+02 -0.67513170848E+01  0.30000000000E+02  0.47000000000E+01 0. -1.
         -5    1    1    2    0  501 -0.24749125708E+02  0.14826007362E+02  0.67513170848E+01  0.30000000000E+02  0.47000000000E+01 0.  1.
</event>
<event>
 4    1  0.7509957E-002  0.6000000E+02  0.7546771E-02  0.1259629E+00
         11   -1    0    0    0    0  0.00000000000E+00  0.00000000000E+00  0.30000000000E+02  0.30000000000E+02  0.00000000000E+00 0. -1.
        -11   -1    0    0    0    0 -0.00000000000E+00 -0.00000000000E+00 -0.30000000000E+02  0.30000000000E+02  0.00000000000E+00 0.  1.
          5    1    1    2  501    0  0.17241413489E+02  0.15059392260E+02 -0.18811123455E+02  0.30000000000E+02  0.47000000000E+01 0.  1.
         -5    1    1    2    0  501 -0.17241413489E+02 -0.15059392260E+02  0.18811123455E+02  0.30000000000E+02  0.47000000000E+01 0. -1.
</event>
<event>
 4    1  0.7509957E-002  0.6000000E+02  0.7546771E-02  0.1259629E+00
         11   -1    0    0    0    0  0.00000000000E+00  0.00000000000E+00  0.30000000000E+02  0.30000000000E+02  0.00000000000E+00 0.  1.
        -11   -1    0    0    0    0 -0.00000000000E+00 -0.00000000000E+00 -0.30000000000E+02  0.30000000000E+02  0.00000000000E+00 0. -1.
          5    1    1    2  501    0 -0.20928350136E+02 -0.15008455081E+02 -0.14651294710E+02  0.30000000000E+02  0.47000000000E+01 0. -1.
         -5    1    1    2    0  501  0.20928350136E+02  0.15008455081E+02  0.14651294710E+02  0.30000000000E+02  0.47000000000E+01 0.  1.
</event>
<event>
 4    1  0.7509957E-002  0.6000000E+02  0.7546771E-02  0.1259629E+00
         11   -1    0    0    0    0  0.00000000000E+00  0.00000000000E+00  0.30000000000E+02  0.30000000000E+02  0.00000000000E+00 0. -1.
        -11   -1    0    0    0    0 -0.00000000000E+00 -0.00000000000E+00 -0.30000000000E+02  0.30000000000E+02  0.00000000000E+00 0.  1.
          5    1    1    2  501    0  0.25981384109E+02 -0.12568224171E+02  0.67020460297E+01  0.30000000000E+02  0.47000000000E+01 0.  1.
         -5    1    1    2    0  501 -0.25981384109E+02  0.12568224171E+02 -0.67020460297E+01  0.30000000000E+02  0.47000000000E+01 0. -1.
</event>
<event>
 4    1  0.7509957E-002  0.6000000E+02  0.7546771E-02  0.1259629E+00
         11   -1    0    0    0    0  0.00000000000E+00  0.00000000000E+00  0.30000000000E+02  0.30000000000E+02  0.00000000000E+00 0.  1.
        -11   -1    0    0    0    0 -0.00000000000E+00 -0.00000000000E+00 -0.30000000000E+02  0.30000000000E+02  0.00000000000E+00 0. -1.
          5    1    1    2  501    0  0.10366089051E+02  0.26046382066E+02 -0.95937572966E+01  0.30000000000E+02  0.47000000000E+01 0. -1.
         -5    1    1    2    0  501 -0.10366089051E+02 -0.26046382066E+02  0.95937572966E+01  0.30000000000E+02  0.47000000000E+01 0.  1.
</event>
<event>
 4    1  0.7509957E-002  0.6000000E+02  0.7546771E-02  0.1259629E+00
         11   -1    0    0    0    0  0.00000000000E+00  0.00000000000E+00  0.30000000000E+02  0.30000000000E+02  0.00000000000E+00 0. -1.
        -11   -1    0    0    0    0 -0.00000000000E+00 -0.00000000000E+00 -0.30000000000E+02  0.30000000000E+02  0.00000000000E+00 0.  1.
          5    1    1    2  501    0 -0.66114060583E+01 -0.11280403647E+02 -0.26588565277E+02  0.30000000000E+02  0.47000000000E+01 0.  1.
         -5    1    1    2    0  501  0.66114060583E+01  0.11280403647E+02  0.26588565277E+02  0.30000000000E+02  0.47000000000E+01 0. -1.
</event>
<event>
 4    1  0.7509957E-002  0.6000000E+02  0.7546771E-02  0.1259629E+00
         11   -1    0    0    0    0  0.00000000000E+00  0.00000000000E+00  0.30000000000E+02  0.30000000000E+02  0.00000000000E+00 0.  1.
        -11   -1    0    0    0    0 -0.00000000000E+00 -0.00000000000E+00 -0.30000000000E+02  0.30000000000E+02  0.00000000000E+00 0. -1.
          5    1    1    2  501    0 -0.18742667822E+02  0.17134018063E+02  0.15265904099E+02  0.30000000000E+02  0.47000000000E+01 0. -1.
         -5    1    1    2    0  501  0.18742667822E+02 -0.17134018063E+02 -0.15265904099E+02  0.30000000000E+02  0.47000000000E+01 0.  1.
</event>
<event>
 4    1  0.7509957E-002  0.6000000E+02  0.7546771E-02  0.1259629E+00
         11   -1    0    0    0    0  0.00000000000E+00  0.00000000000E+00  0.30000000000E+02  0.30000000000E+02  0.00000000000E+00 0.  1.
        -11   -1    0    0    0    0 -0.00000000000E+00 -0.00000000000E+00 -0.30000000000E+02  0.30000000000E+02  0.00000000000E+00 0. -1.
          5    1    1    2  501    0 -0.30742928258E+01 -0.22068317847E+02 -0.19530695611E+02  0.30000000000E+02  0.47000000000E+01 0. -1.
         -5    1    1    2    0  501  0.30742928258E+01  0.22068317847E+02  0.19530695611E+02  0.30000000000E+02  0.47000000000E+01 0.  1.
</event>
<event>
 4    1  0.7509957E-002  0.6000000E+02  0.7546771E-02  0.1259629E+00
         11   -1    0    0    0    0  0.00000000000E+00  0.00000000000E+00  0.30000000000E+02  0.30000000000E+02  0.00000000000E+00 0.  1.
        -11   -1    0    0    0    0 -0.00000000000E+00 -0.00000000000E+00 -0.30000000000E+02  0.30000000000E+02  0.00000000000E+00 0. -1.
          5    1    1    2  501    0  0.23084363738E+02  0.16512214375E+02 -0.85069928446E+01  0.30000000000E+02  0.47000000000E+01 0. -1.
         -5    1    1    2    0  501 -0.23084363738E+02 -0.16512214375E+02  0.85069928446E+01  0.30000000000E+02  0.47000000000E+01 0.  1.
</event>
<event>
 4    1  0.7509957E-002  0.6000000E+02  0.7546771E-02  0.1259629E+00
         11   -1    0    0    0    0  0.00000000000E+00  0.00000000000E+00  0.30000000000E+02  0.30000000000E+02  0.00000000000E+00 0.  1.
        -11   -1    0    0    0    0 -0.00000000000E+00 -0.00000000000E+00 -0.30000000000E+02  0.30000000000E+02  0.00000000000E+00 0. -1.
          5    1    1    2  501    0 -0.19925014127E+02 -0.21767747616E+02 -0.26587545586E+01  0.30000000000E+02  0.47000000000E+01 0. -1.
         -5    1    1    2    0  501  0.19925014127E+02  0.21767747616E+02  0.26587545586E+01  0.30000000000E+02  0.47000000000E+01 0.  1.
</event>
<event>
 4    1  0.7509957E-002  0.6000000E+02  0.7546771E-02  0.1259629E+00
         11   -1    0    0    0    0  0.00000000000E+00  0.00000000000E+00  0.30000000000E+02  0.30000000000E+02  0.00000000000E+00 0.  1.
        -11   -1    0    0    0    0 -0.00000000000E+00 -0.00000000000E+00 -0.30000000000E+02  0.30000000000E+02  0.00000000000E+00 0. -1.
          5    1    1    2  501    0  0.17204019130E+02 -0.23983613886E+02  0.25919087050E+01  0.30000000000E+02  0.47000000000E+01 0. -1.
         -5    1    1    2    0  501 -0.17204019130E+02  0.23983613886E+02 -0.25919087050E+01  0.30000000000E+02  0.47000000000E+01 0.  1.
</event>
<event>
 4    1  0.7509957E-002  0.6000000E+02  0.7546771E-02  0.1259629E+00
         11   -1    0    0    0    0  0.00000000000E+00  0.00000000000E+00  0.30000000000E+02  0.30000000000E+02  0.00000000000E+00 0.  1.
        -11   -1    0    0    0    0 -0.00000000000E+00 -0.00000000000E+00 -0.30000000000E+02  0.30000000000E+02  0.00000000000E+00 0. -1.
          5    1    1    2  501    0  0.99091581253E+01  0.10426430145E+02 -0.25903824808E+02  0.30000000000E+02  0.47000000000E+01 0. -1.
         -5    1    1    2    0  501 -0.99091581253E+01 -0.10426430145E+02  0.25903824808E+02  0.30000000000E+02  0.47000000000E+01 0.  1.
</event>
<event>
 4    1  0.7509957E-002  0.6000000E+02  0.7546771E-02  0.1259629E+00
         11   -1    0    0    0    0  0.00000000000E+00  0.00000000000E+00  0.30000000000E+02  0.30000000000E+02  0.00000000000E+00 0.  1.
        -11   -1    0    0    0    0 -0.00000000000E+00 -0.00000000000E+00 -0.30000000000E+02  0.30000000000E+02  0.00000000000E+00 0. -1.
          5    1    1    2  501    0 -0.18277696739E+02 -0.19601120023E+02  0.12634551664E+02  0.30000000000E+02  0.47000000000E+01 0.  1.
         -5    1    1    2    0  501  0.18277696739E+02  0.19601120023E+02 -0.12634551664E+02  0.30000000000E+02  0.47000000000E+01 0. -1.
</event>
<event>
 4    1  0.7509957E-002  0.6000000E+02  0.7546771E-02  0.1259629E+00
         11   -1    0    0    0    0  0.00000000000E+00  0.00000000000E+00  0.30000000000E+02  0.30000000000E+02  0.00000000000E+00 0. -1.
        -11   -1    0    0    0    0 -0.00000000000E+00 -0.00000000000E+00 -0.30000000000E+02  0.30000000000E+02  0.00000000000E+00 0.  1.
          5    1    1    2  501    0 -0.20166772359E+01 -0.21721944300E+02  0.20049941365E+02  0.30000000000E+02  0.47000000000E+01 0. -1.
         -5    1    1    2    0  501  0.20166772359E+01  0.21721944300E+02 -0.20049941365E+02  0.30000000000E+02  0.47000000000E+01 0.  1.
</event>
<event>
 4    1  0.7509957E-002  0.6000000E+02  0.7546771E-02  0.1259629E+00
         11   -1    0    0    0    0  0.00000000000E+00  0.00000000000E+00  0.30000000000E+02  0.30000000000E+02  0.00000000000E+00 0.  1.
        -11   -1    0    0    0    0 -0.00000000000E+00 -0.00000000000E+00 -0.30000000000E+02  0.30000000000E+02  0.00000000000E+00 0. -1.
          5    1    1    2  501    0  0.23098542282E+02  0.68853433602E+01 -0.17232509720E+02  0.30000000000E+02  0.47000000000E+01 0. -1.
         -5    1    1    2    0  501 -0.23098542282E+02 -0.68853433602E+01  0.17232509720E+02  0.30000000000E+02  0.47000000000E+01 0.  1.
</event>
<event>
 4    1  0.7509957E-002  0.6000000E+02  0.7546771E-02  0.1259629E+00
         11   -1    0    0    0    0  0.00000000000E+00  0.00000000000E+00  0.30000000000E+02  0.30000000000E+02  0.00000000000E+00 0. -1.
        -11   -1    0    0    0    0 -0.00000000000E+00 -0.00000000000E+00 -0.30000000000E+02  0.30000000000E+02  0.00000000000E+00 0.  1.
          5    1    1    2  501    0 -0.10236656212E+02 -0.25820342641E+02 -0.10316529236E+02  0.30000000000E+02  0.47000000000E+01 0.  1.
         -5    1    1    2    0  501  0.10236656212E+02  0.25820342641E+02  0.10316529236E+02  0.30000000000E+02  0.47000000000E+01 0. -1.
</event>
<event>
 4    1  0.7509957E-002  0.6000000E+02  0.7546771E-02  0.1259629E+00
         11   -1    0    0    0    0  0.00000000000E+00  0.00000000000E+00  0.30000000000E+02  0.30000000000E+02  0.00000000000E+00 0.  1.
        -11   -1    0    0    0    0 -0.00000000000E+00 -0.00000000000E+00 -0.30000000000E+02  0.30000000000E+02  0.00000000000E+00 0. -1.
          5    1    1    2  501    0 -0.41227952099E+01  0.18238544698E+02 -0.22984082470E+02  0.30000000000E+02  0.47000000000E+01 0. -1.
         -5    1    1    2    0  501  0.41227952099E+01 -0.18238544698E+02  0.22984082470E+02  0.30000000000E+02  0.47000000000E+01 0.  1.
</event>
<event>
 4    1  0.7509957E-002  0.6000000E+02  0.7546771E-02  0.1259629E+00
         11   -1    0    0    0    0  0.00000000000E+00  0.00000000000E+00  0.30000000000E+02  0.30000000000E+02  0.00000000000E+00 0.  1.
        -11   -1    0    0    0    0 -0.00000000000E+00 -0.00000000000E+00 -0.30000000000E+02  0.30000000000E+02  0.00000000000E+00 0. -1.
          5    1    1    2  501    0 -0.17371275501E+01  0.17220171705E+02 -0.24049076371E+02  0.30000000000E+02  0.47000000000E+01 0. -1.
         -5    1    1    2    0  501  0.17371275501E+01 -0.17220171705E+02  0.24049076371E+02  0.30000000000E+02  0.47000000000E+01 0.  1.
</event>
<event>
 4    1  0.7509957E-002  0.6000000E+02  0.7546771E-02  0.1259629E+00
         11   -1    0    0    0    0  0.00000000000E+00  0.00000000000E+00  0.30000000000E+02  0.30000000000E+02  0.00000000000E+00 0. -1.
        -11   -1    0    0    0    0 -0.00000000000E+00 -0.00000000000E+00 -0.30000000000E+02  0.30000000000E+02  0.00000000000E+00 0.  1.
          5    1    1    2  501    0 -0.69547010300E+01 -0.23545189485E+02 -0.16588133882E+02  0.30000000000E+02  0.47000000000E+01 0.  1.
         -5    1    1    2    0  501  0.69547010300E+01  0.23545189485E+02  0.16588133882E+02  0.30000000000E+02  0.47000000000E+01 0. -1.
</event>
<event>
 4    1  0.7509957E-002  0.6000000E+02  0.7546771E-02  0.1259629E+00
         11   -1    0    0    0    0  0.00000000000E+00  0.00000000000E+00  0.30000000000E+02  0.30000000000E+02  0.00000000000E+00 0.  1.
        -11   -1    0    0    0    0 -0.00000000000E+00 -0.00000000000E+00 -0.30000000000E+02  0.30000000000E+02  0.00000000000E+00 0. -1.
          5    1    1    2  501    0 -0.65654943966E+01 -0.23311226123E+02 -0.17070179261E+02  0.30000000000E+02  0.47000000000E+01 0. -1.
         -5    1    1    2    0  501  0.65654943966E+01  0.23311226123E+02  0.17070179261E+02  0.30000000000E+02  0.47000000000E+01 0.  1.
</event>
<event>
 4    1  0.7509957E-002  0.6000000E+02  0.7546771E-02  0.1259629E+00
         11   -1    0    0    0    0  0.00000000000E+00  0.00000000000E+00  0.30000000000E+02  0.30000000000E+02  0.00000000000E+00 0.  1.
        -11   -1    0    0    0    0 -0.00000000000E+00 -0.00000000000E+00 -0.30000000000E+02  0.30000000000E+02  0.00000000000E+00 0. -1.
          5    1    1    2  501    0 -0.88947653444E+00  0.21479200545E+01 -0.29538200198E+02  0.30000000000E+02  0.47000000000E+01 0. -1.
         -5    1    1    2    0  501  0.88947653444E+00 -0.21479200545E+01  0.29538200198E+02  0.30000000000E+02  0.47000000000E+01 0.  1.
</event>
<event>
 4    1  0.7509957E-002  0.6000000E+02  0.7546771E-02  0.1259629E+00
         11   -1    0    0    0    0  0.00000000000E+00  0.00000000000E+00  0.30000000000E+02  0.30000000000E+02  0.00000000000E+00 0.  1.
        -11   -1    0    0    0    0 -0.00000000000E+00 -0.00000000000E+00 -0.30000000000E+02  0.30000000000E+02  0.00000000000E+00 0. -1.
          5    1    1    2  501    0 -0.38815037486E+01  0.19403989686E+02 -0.22052870855E+02  0.30000000000E+02  0.47000000000E+01 0. -1.
         -5    1    1    2    0  501  0.38815037486E+01 -0.19403989686E+02  0.22052870855E+02  0.30000000000E+02  0.47000000000E+01 0.  1.
</event>
<event>
 4    1  0.7509957E-002  0.6000000E+02  0.7546771E-02  0.1259629E+00
         11   -1    0    0    0    0  0.00000000000E+00  0.00000000000E+00  0.30000000000E+02  0.30000000000E+02  0.00000000000E+00 0. -1.
        -11   -1    0    0    0    0 -0.00000000000E+00 -0.00000000000E+00 -0.30000000000E+02  0.30000000000E+02  0.00000000000E+00 0.  1.
          5    1    1    2  501    0 -0.13730625888E+02  0.20173484399E+02 -0.16805071851E+02  0.30000000000E+02  0.47000000000E+01 0.  1.
         -5    1    1    2    0  501  0.13730625888E+02 -0.20173484399E+02  0.16805071851E+02  0.30000000000E+02  0.47000000000E+01 0. -1.
</event>
<event>
 4    1  0.7509957E-002  0.6000000E+02  0.7546771E-02  0.1259629E+00
         11   -1    0    0    0    0  0.00000000000E+00  0.00000000000E+00  0.30000000000E+02  0.30000000000E+02  0.00000000000E+00 0.  1.
        -11   -1    0    0    0    0 -0.00000000000E+00 -0.00000000000E+00 -0.30000000000E+02  0.30000000000E+02  0.00000000000E+00 0. -1.
          5    1    1    2  501    0 -0.11420283989E+02 -0.16524533745E+02 -0.21781342891E+02  0.30000000000E+02  0.47000000000E+01 0. -1.
         -5    1    1    2    0  501  0.11420283989E+02  0.16524533745E+02  0.21781342891E+02  0.30000000000E+02  0.47000000000E+01 0.  1.
</event>
<event>
 4    1  0.7509957E-002  0.6000000E+02  0.7546771E-02  0.1259629E+00
         11   -1    0    0    0    0  0.00000000000E+00  0.00000000000E+00  0.30000000000E+02  0.30000000000E+02  0.00000000000E+00 0.  1.
        -11   -1    0    0    0    0 -0.00000000000E+00 -0.00000000000E+00 -0.30000000000E+02  0.30000000000E+02  0.00000000000E+00 0. -1.
          5    1    1    2  501    0 -0.62647675950E+01  0.21059832122E+02 -0.19878283577E+02  0.30000000000E+02  0.47000000000E+01 0. -1.
         -5    1    1    2    0  501  0.62647675950E+01 -0.21059832122E+02  0.19878283577E+02  0.30000000000E+02  0.47000000000E+01 0.  1.
</event>
<event>
 4    1  0.7509957E-002  0.6000000E+02  0.7546771E-02  0.1259629E+00
         11   -1    0    0    0    0  0.00000000000E+00  0.00000000000E+00  0.30000000000E+02  0.30000000000E+02  0.00000000000E+00 0.  1.
        -11   -1    0    0    0    0 -0.00000000000E+00 -0.00000000000E+00 -0.30000000000E+02  0.30000000000E+02  0.00000000000E+00 0. -1.
          5    1    1    2  501    0  0.18563597756E+02  0.23093209291E+02 -0.80765043760E-01  0.30000000000E+02  0.47000000000E+01 0. -1.
         -5    1    1    2    0  501 -0.18563597756E+02 -0.23093209291E+02  0.80765043760E-01  0.30000000000E+02  0.47000000000E+01 0.  1.
</event>
<event>
 4    1  0.7509957E-002  0.6000000E+02  0.7546771E-02  0.1259629E+00
         11   -1    0    0    0    0  0.00000000000E+00  0.00000000000E+00  0.30000000000E+02  0.30000000000E+02  0.00000000000E+00 0.  1.
        -11   -1    0    0    0    0 -0.00000000000E+00 -0.00000000000E+00 -0.30000000000E+02  0.30000000000E+02  0.00000000000E+00 0. -1.
          5    1    1    2  501    0  0.54396966149E+01  0.60435179445E+01 -0.28492026807E+02  0.30000000000E+02  0.47000000000E+01 0. -1.
         -5    1    1    2    0  501 -0.54396966149E+01 -0.60435179445E+01  0.28492026807E+02  0.30000000000E+02  0.47000000000E+01 0.  1.
</event>
<event>
 4    1  0.7509957E-002  0.6000000E+02  0.7546771E-02  0.1259629E+00
         11   -1    0    0    0    0  0.00000000000E+00  0.00000000000E+00  0.30000000000E+02  0.30000000000E+02  0.00000000000E+00 0.  1.
        -11   -1    0    0    0    0 -0.00000000000E+00 -0.00000000000E+00 -0.30000000000E+02  0.30000000000E+02  0.00000000000E+00 0. -1.
          5    1    1    2  501    0 -0.30628929859E+01 -0.26593444598E+02 -0.12701078338E+02  0.30000000000E+02  0.47000000000E+01 0. -1.
         -5    1    1    2    0  501  0.30628929859E+01  0.26593444598E+02  0.12701078338E+02  0.30000000000E+02  0.47000000000E+01 0.  1.
</event>
<event>
 4    1  0.7509957E-002  0.6000000E+02  0.7546771E-02  0.1259629E+00
         11   -1    0    0    0    0  0.00000000000E+00  0.00000000000E+00  0.30000000000E+02  0.30000000000E+02  0.00000000000E+00 0.  1.
        -11   -1    0    0    0    0 -0.00000000000E+00 -0.00000000000E+00 -0.30000000000E+02  0.30000000000E+02  0.00000000000E+00 0. -1.
          5    1    1    2  501    0 -0.69536006969E+01 -0.22415332579E+02 -0.18086190940E+02  0.30000000000E+02  0.47000000000E+01 0. -1.
         -5    1    1    2    0  501  0.69536006969E+01  0.22415332579E+02  0.18086190940E+02  0.30000000000E+02  0.47000000000E+01 0.  1.
</event>
<event>
 4    1  0.7509957E-002  0.6000000E+02  0.7546771E-02  0.1259629E+00
         11   -1    0    0    0    0  0.00000000000E+00  0.00000000000E+00  0.30000000000E+02  0.30000000000E+02  0.00000000000E+00 0.  1.
        -11   -1    0    0    0    0 -0.00000000000E+00 -0.00000000000E+00 -0.30000000000E+02  0.30000000000E+02  0.00000000000E+00 0. -1.
          5    1    1    2  501    0  0.66038129620E+01  0.24168913736E+02  0.15816550293E+02  0.30000000000E+02  0.47000000000E+01 0. -1.
         -5    1    1    2    0  501 -0.66038129620E+01 -0.24168913736E+02 -0.15816550293E+02  0.30000000000E+02  0.47000000000E+01 0.  1.
</event>
<event>
 4    1  0.7509957E-002  0.6000000E+02  0.7546771E-02  0.1259629E+00
         11   -1    0    0    0    0  0.00000000000E+00  0.00000000000E+00  0.30000000000E+02  0.30000000000E+02  0.00000000000E+00 0. -1.
        -11   -1    0    0    0    0 -0.00000000000E+00 -0.00000000000E+00 -0.30000000000E+02  0.30000000000E+02  0.00000000000E+00 0.  1.
          5    1    1    2  501    0  0.14088792272E+02  0.37103710829E+01  0.25800175944E+02  0.30000000000E+02  0.47000000000E+01 0. -1.
         -5    1    1    2    0  501 -0.14088792272E+02 -0.37103710829E+01 -0.25800175944E+02  0.30000000000E+02  0.47000000000E+01 0.  1.
</event>
<event>
 4    1  0.7509957E-002  0.6000000E+02  0.7546771E-02  0.1259629E+00
         11   -1    0    0    0    0  0.00000000000E+00  0.00000000000E+00  0.30000000000E+02  0.30000000000E+02  0.00000000000E+00 0. -1.
        -11   -1    0    0    0    0 -0.00000000000E+00 -0.00000000000E+00 -0.30000000000E+02  0.30000000000E+02  0.00000000000E+00 0.  1.
          5    1    1    2  501    0  0.14790434851E+02  0.19282759936E+02  0.16950758278E+02  0.30000000000E+02  0.47000000000E+01 0. -1.
         -5    1    1    2    0  501 -0.14790434851E+02 -0.19282759936E+02 -0.16950758278E+02  0.30000000000E+02  0.47000000000E+01 0.  1.
</event>
<event>
 4    1  0.7509957E-002  0.6000000E+02  0.7546771E-02  0.1259629E+00
         11   -1    0    0    0    0  0.00000000000E+00  0.00000000000E+00  0.30000000000E+02  0.30000000000E+02  0.00000000000E+00 0.  1.
        -11   -1    0    0    0    0 -0.00000000000E+00 -0.00000000000E+00 -0.30000000000E+02  0.30000000000E+02  0.00000000000E+00 0. -1.
          5    1    1    2  501    0 -0.12463127574E+02  0.32933617978E+01 -0.26678347384E+02  0.30000000000E+02  0.47000000000E+01 0. -1.
         -5    1    1    2    0  501  0.12463127574E+02 -0.32933617978E+01  0.26678347384E+02  0.30000000000E+02  0.47000000000E+01 0.  1.
</event>
<event>
 4    1  0.7509957E-002  0.6000000E+02  0.7546771E-02  0.1259629E+00
         11   -1    0    0    0    0  0.00000000000E+00  0.00000000000E+00  0.30000000000E+02  0.30000000000E+02  0.00000000000E+00 0. -1.
        -11   -1    0    0    0    0 -0.00000000000E+00 -0.00000000000E+00 -0.30000000000E+02  0.30000000000E+02  0.00000000000E+00 0.  1.
          5    1    1    2  501    0 -0.11881212450E+02  0.14748013310E+02 -0.22786901811E+02  0.30000000000E+02  0.47000000000E+01 0.  1.
         -5    1    1    2    0  501  0.11881212450E+02 -0.14748013310E+02  0.22786901811E+02  0.30000000000E+02  0.47000000000E+01 0. -1.
</event>
<event>
 4    1  0.7509957E-002  0.6000000E+02  0.7546771E-02  0.1259629E+00
         11   -1    0    0    0    0  0.00000000000E+00  0.00000000000E+00  0.30000000000E+02  0.30000000000E+02  0.00000000000E+00 0.  1.
        -11   -1    0    0    0    0 -0.00000000000E+00 -0.00000000000E+00 -0.30000000000E+02  0.30000000000E+02  0.00000000000E+00 0. -1.
          5    1    1    2  501    0  0.12166868868E+02  0.36281193674E+01 -0.26771515680E+02  0.30000000000E+02  0.47000000000E+01 0. -1.
         -5    1    1    2    0  501 -0.12166868868E+02 -0.36281193674E+01  0.26771515680E+02  0.30000000000E+02  0.47000000000E+01 0.  1.
</event>
<event>
 4    1  0.7509957E-002  0.6000000E+02  0.7546771E-02  0.1259629E+00
         11   -1    0    0    0    0  0.00000000000E+00  0.00000000000E+00  0.30000000000E+02  0.30000000000E+02  0.00000000000E+00 0. -1.
        -11   -1    0    0    0    0 -0.00000000000E+00 -0.00000000000E+00 -0.30000000000E+02  0.30000000000E+02  0.00000000000E+00 0.  1.
          5    1    1    2  501    0  0.34604335926E+01 -0.27042060374E+02 -0.11604411664E+02  0.30000000000E+02  0.47000000000E+01 0.  1.
         -5    1    1    2    0  501 -0.34604335926E+01  0.27042060374E+02  0.11604411664E+02  0.30000000000E+02  0.47000000000E+01 0. -1.
</event>
<event>
 4    1  0.7509957E-002  0.6000000E+02  0.7546771E-02  0.1259629E+00
         11   -1    0    0    0    0  0.00000000000E+00  0.00000000000E+00  0.30000000000E+02  0.30000000000E+02  0.00000000000E+00 0.  1.
        -11   -1    0    0    0    0 -0.00000000000E+00 -0.00000000000E+00 -0.30000000000E+02  0.30000000000E+02  0.00000000000E+00 0. -1.
          5    1    1    2  501    0  0.54458265048E+01 -0.18175569943E+02 -0.22757452206E+02  0.30000000000E+02  0.47000000000E+01 0. -1.
         -5    1    1    2    0  501 -0.54458265048E+01  0.18175569943E+02  0.22757452206E+02  0.30000000000E+02  0.47000000000E+01 0.  1.
</event>
<event>
 4    1  0.7509957E-002  0.6000000E+02  0.7546771E-02  0.1259629E+00
         11   -1    0    0    0    0  0.00000000000E+00  0.00000000000E+00  0.30000000000E+02  0.30000000000E+02  0.00000000000E+00 0.  1.
        -11   -1    0    0    0    0 -0.00000000000E+00 -0.00000000000E+00 -0.30000000000E+02  0.30000000000E+02  0.00000000000E+00 0. -1.
          5    1    1    2  501    0 -0.57512353778E+01 -0.20463137570E+02 -0.20642027333E+02  0.30000000000E+02  0.47000000000E+01 0. -1.
         -5    1    1    2    0  501  0.57512353778E+01  0.20463137570E+02  0.20642027333E+02  0.30000000000E+02  0.47000000000E+01 0.  1.
</event>
<event>
 4    1  0.7509957E-002  0.6000000E+02  0.7546771E-02  0.1259629E+00
         11   -1    0    0    0    0  0.00000000000E+00  0.00000000000E+00  0.30000000000E+02  0.30000000000E+02  0.00000000000E+00 0.  1.
        -11   -1    0    0    0    0 -0.00000000000E+00 -0.00000000000E+00 -0.30000000000E+02  0.30000000000E+02  0.00000000000E+00 0. -1.
          5    1    1    2  501    0  0.94253275269E+01  0.26160430720E+02 -0.10232549318E+02  0.30000000000E+02  0.47000000000E+01 0. -1.
         -5    1    1    2    0  501 -0.94253275269E+01 -0.26160430720E+02  0.10232549318E+02  0.30000000000E+02  0.47000000000E+01 0.  1.
</event>
<event>
 4    1  0.7509957E-002  0.6000000E+02  0.7546771E-02  0.1259629E+00
         11   -1    0    0    0    0  0.00000000000E+00  0.00000000000E+00  0.30000000000E+02  0.30000000000E+02  0.00000000000E+00 0. -1.
        -11   -1    0    0    0    0 -0.00000000000E+00 -0.00000000000E+00 -0.30000000000E+02  0.30000000000E+02  0.00000000000E+00 0.  1.
          5    1    1    2  501    0  0.30024802811E+01  0.87882567599E+01 -0.28136482639E+02  0.30000000000E+02  0.47000000000E+01 0.  1.
         -5    1    1    2    0  501 -0.30024802811E+01 -0.87882567599E+01  0.28136482639E+02  0.30000000000E+02  0.47000000000E+01 0. -1.
</event>
<event>
 4    1  0.7509957E-002  0.6000000E+02  0.7546771E-02  0.1259629E+00
         11   -1    0    0    0    0  0.00000000000E+00  0.00000000000E+00  0.30000000000E+02  0.30000000000E+02  0.00000000000E+00 0.  1.
        -11   -1    0    0    0    0 -0.00000000000E+00 -0.00000000000E+00 -0.30000000000E+02  0.30000000000E+02  0.00000000000E+00 0. -1.
          5    1    1    2  501    0  0.74530750006E+01  0.24080931190E+02 -0.15571461912E+02  0.30000000000E+02  0.47000000000E+01 0. -1.
         -5    1    1    2    0  501 -0.74530750006E+01 -0.24080931190E+02  0.15571461912E+02  0.30000000000E+02  0.47000000000E+01 0.  1.
</event>
<event>
 4    1  0.7509957E-002  0.6000000E+02  0.7546771E-02  0.1259629E+00
         11   -1    0    0    0    0  0.00000000000E+00  0.00000000000E+00  0.30000000000E+02  0.30000000000E+02  0.00000000000E+00 0.  1.
        -11   -1    0    0    0    0 -0.00000000000E+00 -0.00000000000E+00 -0.30000000000E+02  0.30000000000E+02  0.00000000000E+00 0. -1.
          5    1    1    2  501    0 -0.54790429000E+01 -0.28219373272E+02 -0.71803245776E+01  0.30000000000E+02  0.47000000000E+01 0. -1.
         -5    1    1    2    0  501  0.54790429000E+01  0.28219373272E+02  0.71803245776E+01  0.30000000000E+02  0.47000000000E+01 0.  1.
</event>
<event>
 4    1  0.7509957E-002  0.6000000E+02  0.7546771E-02  0.1259629E+00
         11   -1    0    0    0    0  0.00000000000E+00  0.00000000000E+00  0.30000000000E+02  0.30000000000E+02  0.00000000000E+00 0. -1.
        -11   -1    0    0    0    0 -0.00000000000E+00 -0.00000000000E+00 -0.30000000000E+02  0.30000000000E+02  0.00000000000E+00 0.  1.
          5    1    1    2  501    0 -0.62369237757E+01  0.18818888115E+02 -0.22019542046E+02  0.30000000000E+02  0.47000000000E+01 0.  1.
         -5    1    1    2    0  501  0.62369237757E+01 -0.18818888115E+02  0.22019542046E+02  0.30000000000E+02  0.47000000000E+01 0. -1.
</event>
<event>
 4    1  0.7509957E-002  0.6000000E+02  0.7546771E-02  0.1259629E+00
         11   -1    0    0    0    0  0.00000000000E+00  0.00000000000E+00  0.30000000000E+02  0.30000000000E+02  0.00000000000E+00 0.  1.
        -11   -1    0    0    0    0 -0.00000000000E+00 -0.00000000000E+00 -0.30000000000E+02  0.30000000000E+02  0.00000000000E+00 0. -1.
          5    1    1    2  501    0 -0.11780918707E+02  0.23833958892E+02 -0.13079080929E+02  0.30000000000E+02  0.47000000000E+01 0. -1.
         -5    1    1    2    0  501  0.11780918707E+02 -0.23833958892E+02  0.13079080929E+02  0.30000000000E+02  0.47000000000E+01 0.  1.
</event>
<event>
 4    1  0.7509957E-002  0.6000000E+02  0.7546771E-02  0.1259629E+00
         11   -1    0    0    0    0  0.00000000000E+00  0.00000000000E+00  0.30000000000E+02  0.30000000000E+02  0.00000000000E+00 0.  1.
        -11   -1    0    0    0    0 -0.00000000000E+00 -0.00000000000E+00 -0.30000000000E+02  0.30000000000E+02  0.00000000000E+00 0. -1.
          5    1    1    2  501    0  0.86947825632E+01 -0.17697416583E+02 -0.22115881227E+02  0.30000000000E+02  0.47000000000E+01 0. -1.
         -5    1    1    2    0  501 -0.86947825632E+01  0.17697416583E+02  0.22115881227E+02  0.30000000000E+02  0.47000000000E+01 0.  1.
</event>
<event>
 4    1  0.7509957E-002  0.6000000E+02  0.7546771E-02  0.1259629E+00
         11   -1    0    0    0    0  0.00000000000E+00  0.00000000000E+00  0.30000000000E+02  0.30000000000E+02  0.00000000000E+00 0.  1.
        -11   -1    0    0    0    0 -0.00000000000E+00 -0.00000000000E+00 -0.30000000000E+02  0.30000000000E+02  0.00000000000E+00 0. -1.
          5    1    1    2  501    0  0.21388797119E+02  0.16430173361E+02 -0.12266978485E+02  0.30000000000E+02  0.47000000000E+01 0. -1.
         -5    1    1    2    0  501 -0.21388797119E+02 -0.16430173361E+02  0.12266978485E+02  0.30000000000E+02  0.47000000000E+01 0.  1.
</event>
<event>
 4    1  0.7509957E-002  0.6000000E+02  0.7546771E-02  0.1259629E+00
         11   -1    0    0    0    0  0.00000000000E+00  0.00000000000E+00  0.30000000000E+02  0.30000000000E+02  0.00000000000E+00 0.  1.
        -11   -1    0    0    0    0 -0.00000000000E+00 -0.00000000000E+00 -0.30000000000E+02  0.30000000000E+02  0.00000000000E+00 0. -1.
          5    1    1    2  501    0  0.19776650073E+02  0.15871432829E+02 -0.15326177992E+02  0.30000000000E+02  0.47000000000E+01 0. -1.
         -5    1    1    2    0  501 -0.19776650073E+02 -0.15871432829E+02  0.15326177992E+02  0.30000000000E+02  0.47000000000E+01 0.  1.
</event>
<event>
 4    1  0.7509957E-002  0.6000000E+02  0.7546771E-02  0.1259629E+00
         11   -1    0    0    0    0  0.00000000000E+00  0.00000000000E+00  0.30000000000E+02  0.30000000000E+02  0.00000000000E+00 0.  1.
        -11   -1    0    0    0    0 -0.00000000000E+00 -0.00000000000E+00 -0.30000000000E+02  0.30000000000E+02  0.00000000000E+00 0. -1.
          5    1    1    2  501    0 -0.10518936417E+02  0.21028822011E+02  0.18029160310E+02  0.30000000000E+02  0.47000000000E+01 0. -1.
         -5    1    1    2    0  501  0.10518936417E+02 -0.21028822011E+02 -0.18029160310E+02  0.30000000000E+02  0.47000000000E+01 0.  1.
</event>
<event>
 4    1  0.7509957E-002  0.6000000E+02  0.7546771E-02  0.1259629E+00
         11   -1    0    0    0    0  0.00000000000E+00  0.00000000000E+00  0.30000000000E+02  0.30000000000E+02  0.00000000000E+00 0.  1.
        -11   -1    0    0    0    0 -0.00000000000E+00 -0.00000000000E+00 -0.30000000000E+02  0.30000000000E+02  0.00000000000E+00 0. -1.
          5    1    1    2  501    0 -0.18274990635E+02  0.20248807937E+02 -0.11572402276E+02  0.30000000000E+02  0.47000000000E+01 0. -1.
         -5    1    1    2    0  501  0.18274990635E+02 -0.20248807937E+02  0.11572402276E+02  0.30000000000E+02  0.47000000000E+01 0.  1.
</event>
<event>
 4    1  0.7509957E-002  0.6000000E+02  0.7546771E-02  0.1259629E+00
         11   -1    0    0    0    0  0.00000000000E+00  0.00000000000E+00  0.30000000000E+02  0.30000000000E+02  0.00000000000E+00 0. -1.
        -11   -1    0    0    0    0 -0.00000000000E+00 -0.00000000000E+00 -0.30000000000E+02  0.30000000000E+02  0.00000000000E+00 0.  1.
          5    1    1    2  501    0  0.67145473211E+01  0.25258970002E+02  0.13957409813E+02  0.30000000000E+02  0.47000000000E+01 0.  1.
         -5    1    1    2    0  501 -0.67145473211E+01 -0.25258970002E+02 -0.13957409813E+02  0.30000000000E+02  0.47000000000E+01 0. -1.
</event>
<event>
 4    1  0.7509957E-002  0.6000000E+02  0.7546771E-02  0.1259629E+00
         11   -1    0    0    0    0  0.00000000000E+00  0.00000000000E+00  0.30000000000E+02  0.30000000000E+02  0.00000000000E+00 0.  1.
        -11   -1    0    0    0    0 -0.00000000000E+00 -0.00000000000E+00 -0.30000000000E+02  0.30000000000E+02  0.00000000000E+00 0. -1.
          5    1    1    2  501    0 -0.11307537387E+02  0.27386736038E+02  0.12762225803E+00  0.30000000000E+02  0.47000000000E+01 0.  1.
         -5    1    1    2    0  501  0.11307537387E+02 -0.27386736038E+02 -0.12762225803E+00  0.30000000000E+02  0.47000000000E+01 0. -1.
</event>
<event>
 4    1  0.7509957E-002  0.6000000E+02  0.7546771E-02  0.1259629E+00
         11   -1    0    0    0    0  0.00000000000E+00  0.00000000000E+00  0.30000000000E+02  0.30000000000E+02  0.00000000000E+00 0. -1.
        -11   -1    0    0    0    0 -0.00000000000E+00 -0.00000000000E+00 -0.30000000000E+02  0.30000000000E+02  0.00000000000E+00 0.  1.
          5    1    1    2  501    0  0.19858170647E+02 -0.12959928029E+02 -0.17765227948E+02  0.30000000000E+02  0.47000000000E+01 0.  1.
         -5    1    1    2    0  501 -0.19858170647E+02  0.12959928029E+02  0.17765227948E+02  0.30000000000E+02  0.47000000000E+01 0. -1.
</event>
<event>
 4    1  0.7509957E-002  0.6000000E+02  0.7546771E-02  0.1259629E+00
         11   -1    0    0    0    0  0.00000000000E+00  0.00000000000E+00  0.30000000000E+02  0.30000000000E+02  0.00000000000E+00 0. -1.
        -11   -1    0    0    0    0 -0.00000000000E+00 -0.00000000000E+00 -0.30000000000E+02  0.30000000000E+02  0.00000000000E+00 0.  1.
          5    1    1    2  501    0 -0.10665032094E+01 -0.12846546581E+02 -0.26678433459E+02  0.30000000000E+02  0.47000000000E+01 0.  1.
         -5    1    1    2    0  501  0.10665032094E+01  0.12846546581E+02  0.26678433459E+02  0.30000000000E+02  0.47000000000E+01 0. -1.
</event>
<event>
 4    1  0.7509957E-002  0.6000000E+02  0.7546771E-02  0.1259629E+00
         11   -1    0    0    0    0  0.00000000000E+00  0.00000000000E+00  0.30000000000E+02  0.30000000000E+02  0.00000000000E+00 0.  1.
        -11   -1    0    0    0    0 -0.00000000000E+00 -0.00000000000E+00 -0.30000000000E+02  0.30000000000E+02  0.00000000000E+00 0. -1.
          5    1    1    2  501    0  0.26824795017E+02 -0.78863741649E+01  0.98053798925E+01  0.30000000000E+02  0.47000000000E+01 0.  1.
         -5    1    1    2    0  501 -0.26824795017E+02  0.78863741649E+01 -0.98053798925E+01  0.30000000000E+02  0.47000000000E+01 0. -1.
</event>
<event>
 4    1  0.7509957E-002  0.6000000E+02  0.7546771E-02  0.1259629E+00
         11   -1    0    0    0    0  0.00000000000E+00  0.00000000000E+00  0.30000000000E+02  0.30000000000E+02  0.00000000000E+00 0.  1.
        -11   -1    0    0    0    0 -0.00000000000E+00 -0.00000000000E+00 -0.30000000000E+02  0.30000000000E+02  0.00000000000E+00 0. -1.
          5    1    1    2  501    0 -0.14130913758E+02 -0.10067253953E+02 -0.24018277919E+02  0.30000000000E+02  0.47000000000E+01 0. -1.
         -5    1    1    2    0  501  0.14130913758E+02  0.10067253953E+02  0.24018277919E+02  0.30000000000E+02  0.47000000000E+01 0.  1.
</event>
<event>
 4    1  0.7509957E-002  0.6000000E+02  0.7546771E-02  0.1259629E+00
         11   -1    0    0    0    0  0.00000000000E+00  0.00000000000E+00  0.30000000000E+02  0.30000000000E+02  0.00000000000E+00 0.  1.
        -11   -1    0    0    0    0 -0.00000000000E+00 -0.00000000000E+00 -0.30000000000E+02  0.30000000000E+02  0.00000000000E+00 0. -1.
          5    1    1    2  501    0 -0.14382681821E+01  0.77554152610E+01 -0.28560373225E+02  0.30000000000E+02  0.47000000000E+01 0. -1.
         -5    1    1    2    0  501  0.14382681821E+01 -0.77554152610E+01  0.28560373225E+02  0.30000000000E+02  0.47000000000E+01 0.  1.
</event>
<event>
 4    1  0.7509957E-002  0.6000000E+02  0.7546771E-02  0.1259629E+00
         11   -1    0    0    0    0  0.00000000000E+00  0.00000000000E+00  0.30000000000E+02  0.30000000000E+02  0.00000000000E+00 0.  1.
        -11   -1    0    0    0    0 -0.00000000000E+00 -0.00000000000E+00 -0.30000000000E+02  0.30000000000E+02  0.00000000000E+00 0. -1.
          5    1    1    2  501    0 -0.74845800565E+01 -0.14113631776E+02 -0.24953886661E+02  0.30000000000E+02  0.47000000000E+01 0. -1.
         -5    1    1    2    0  501  0.74845800565E+01  0.14113631776E+02  0.24953886661E+02  0.30000000000E+02  0.47000000000E+01 0.  1.
</event>
<event>
 4    1  0.7509957E-002  0.6000000E+02  0.7546771E-02  0.1259629E+00
         11   -1    0    0    0    0  0.00000000000E+00  0.00000000000E+00  0.30000000000E+02  0.30000000000E+02  0.00000000000E+00 0.  1.
        -11   -1    0    0    0    0 -0.00000000000E+00 -0.00000000000E+00 -0.30000000000E+02  0.30000000000E+02  0.00000000000E+00 0. -1.
          5    1    1    2  501    0  0.93629615450E+01 -0.11921912979E+02 -0.25458062417E+02  0.30000000000E+02  0.47000000000E+01 0. -1.
         -5    1    1    2    0  501 -0.93629615450E+01  0.11921912979E+02  0.25458062417E+02  0.30000000000E+02  0.47000000000E+01 0.  1.
</event>
<event>
 4    1  0.7509957E-002  0.6000000E+02  0.7546771E-02  0.1259629E+00
         11   -1    0    0    0    0  0.00000000000E+00  0.00000000000E+00  0.30000000000E+02  0.30000000000E+02  0.00000000000E+00 0.  1.
        -11   -1    0    0    0    0 -0.00000000000E+00 -0.00000000000E+00 -0.30000000000E+02  0.30000000000E+02  0.00000000000E+00 0. -1.
          5    1    1    2  501    0 -0.25215601524E+02 -0.13792724455E+02 -0.72002910972E+01  0.30000000000E+02  0.47000000000E+01 0. -1.
         -5    1    1    2    0  501  0.25215601524E+02  0.13792724455E+02  0.72002910972E+01  0.30000000000E+02  0.47000000000E+01 0.  1.
</event>
<event>
 4    1  0.7509957E-002  0.6000000E+02  0.7546771E-02  0.1259629E+00
         11   -1    0    0    0    0  0.00000000000E+00  0.00000000000E+00  0.30000000000E+02  0.30000000000E+02  0.00000000000E+00 0.  1.
        -11   -1    0    0    0    0 -0.00000000000E+00 -0.00000000000E+00 -0.30000000000E+02  0.30000000000E+02  0.00000000000E+00 0. -1.
          5    1    1    2  501    0  0.21166316230E+02 -0.21659077173E+01 -0.20620521356E+02  0.30000000000E+02  0.47000000000E+01 0. -1.
         -5    1    1    2    0  501 -0.21166316230E+02  0.21659077173E+01  0.20620521356E+02  0.30000000000E+02  0.47000000000E+01 0.  1.
</event>
<event>
 4    1  0.7509957E-002  0.6000000E+02  0.7546771E-02  0.1259629E+00
         11   -1    0    0    0    0  0.00000000000E+00  0.00000000000E+00  0.30000000000E+02  0.30000000000E+02  0.00000000000E+00 0. -1.
        -11   -1    0    0    0    0 -0.00000000000E+00 -0.00000000000E+00 -0.30000000000E+02  0.30000000000E+02  0.00000000000E+00 0.  1.
          5    1    1    2  501    0 -0.22485732916E+02 -0.18927032755E+02 -0.37508994022E+01  0.30000000000E+02  0.47000000000E+01 0.  1.
         -5    1    1    2    0  501  0.22485732916E+02  0.18927032755E+02  0.37508994022E+01  0.30000000000E+02  0.47000000000E+01 0. -1.
</event>
<event>
 4    1  0.7509957E-002  0.6000000E+02  0.7546771E-02  0.1259629E+00
         11   -1    0    0    0    0  0.00000000000E+00  0.00000000000E+00  0.30000000000E+02  0.30000000000E+02  0.00000000000E+00 0.  1.
        -11   -1    0    0    0    0 -0.00000000000E+00 -0.00000000000E+00 -0.30000000000E+02  0.30000000000E+02  0.00000000000E+00 0. -1.
          5    1    1    2  501    0  0.15472972209E+02 -0.24506591623E+02  0.61582544621E+01  0.30000000000E+02  0.47000000000E+01 0. -1.
         -5    1    1    2    0  501 -0.15472972209E+02  0.24506591623E+02 -0.61582544621E+01  0.30000000000E+02  0.47000000000E+01 0.  1.
</event>
<event>
 4    1  0.7509957E-002  0.6000000E+02  0.7546771E-02  0.1259629E+00
         11   -1    0    0    0    0  0.00000000000E+00  0.00000000000E+00  0.30000000000E+02  0.30000000000E+02  0.00000000000E+00 0.  1.
        -11   -1    0    0    0    0 -0.00000000000E+00 -0.00000000000E+00 -0.30000000000E+02  0.30000000000E+02  0.00000000000E+00 0. -1.
          5    1    1    2  501    0 -0.32042874389E+00 -0.58177926877E+01 -0.29051000218E+02  0.30000000000E+02  0.47000000000E+01 0. -1.
         -5    1    1    2    0  501  0.32042874389E+00  0.58177926877E+01  0.29051000218E+02  0.30000000000E+02  0.47000000000E+01 0.  1.
</event>
<event>
 4    1  0.7509957E-002  0.6000000E+02  0.7546771E-02  0.1259629E+00
         11   -1    0    0    0    0  0.00000000000E+00  0.00000000000E+00  0.30000000000E+02  0.30000000000E+02  0.00000000000E+00 0.  1.
        -11   -1    0    0    0    0 -0.00000000000E+00 -0.00000000000E+00 -0.30000000000E+02  0.30000000000E+02  0.00000000000E+00 0. -1.
          5    1    1    2  501    0 -0.13791050473E+02  0.15137611351E+02 -0.21414239409E+02  0.30000000000E+02  0.47000000000E+01 0. -1.
         -5    1    1    2    0  501  0.13791050473E+02 -0.15137611351E+02  0.21414239409E+02  0.30000000000E+02  0.47000000000E+01 0.  1.
</event>
<event>
 4    1  0.7509957E-002  0.6000000E+02  0.7546771E-02  0.1259629E+00
         11   -1    0    0    0    0  0.00000000000E+00  0.00000000000E+00  0.30000000000E+02  0.30000000000E+02  0.00000000000E+00 0. -1.
        -11   -1    0    0    0    0 -0.00000000000E+00 -0.00000000000E+00 -0.30000000000E+02  0.30000000000E+02  0.00000000000E+00 0.  1.
          5    1    1    2  501    0  0.24722144018E+02 -0.90411634515E+01  0.13600844041E+02  0.30000000000E+02  0.47000000000E+01 0. -1.
         -5    1    1    2    0  501 -0.24722144018E+02  0.90411634515E+01 -0.13600844041E+02  0.30000000000E+02  0.47000000000E+01 0.  1.
</event>
<event>
 4    1  0.7509957E-002  0.6000000E+02  0.7546771E-02  0.1259629E+00
         11   -1    0    0    0    0  0.00000000000E+00  0.00000000000E+00  0.30000000000E+02  0.30000000000E+02  0.00000000000E+00 0.  1.
        -11   -1    0    0    0    0 -0.00000000000E+00 -0.00000000000E+00 -0.30000000000E+02  0.30000000000E+02  0.00000000000E+00 0. -1.
          5    1    1    2  501    0  0.16566751921E+02 -0.13292586517E+02 -0.20658167258E+02  0.30000000000E+02  0.47000000000E+01 0. -1.
         -5    1    1    2    0  501 -0.16566751921E+02  0.13292586517E+02  0.20658167258E+02  0.30000000000E+02  0.47000000000E+01 0.  1.
</event>
<event>
 4    1  0.7509957E-002  0.6000000E+02  0.7546771E-02  0.1259629E+00
         11   -1    0    0    0    0  0.00000000000E+00  0.00000000000E+00  0.30000000000E+02  0.30000000000E+02  0.00000000000E+00 0.  1.
        -11   -1    0    0    0    0 -0.00000000000E+00 -0.00000000000E+00 -0.30000000000E+02  0.30000000000E+02  0.00000000000E+00 0. -1.
          5    1    1    2  501    0  0.20453442818E+02  0.20648919470E+02 -0.57609722807E+01  0.30000000000E+02  0.47000000000E+01 0. -1.
         -5    1    1    2    0  501 -0.20453442818E+02 -0.20648919470E+02  0.57609722807E+01  0.30000000000E+02  0.47000000000E+01 0.  1.
</event>
<event>
 4    1  0.7509957E-002  0.6000000E+02  0.7546771E-02  0.1259629E+00
         11   -1    0    0    0    0  0.00000000000E+00  0.00000000000E+00  0.30000000000E+02  0.30000000000E+02  0.00000000000E+00 0.  1.
        -11   -1    0    0    0    0 -0.00000000000E+00 -0.00000000000E+00 -0.30000000000E+02  0.30000000000E+02  0.00000000000E+00 0. -1.
          5    1    1    2  501    0  0.24302761536E+02  0.13544745901E+02 -0.10189486749E+02  0.30000000000E+02  0.47000000000E+01 0. -1.
         -5    1    1    2    0  501 -0.24302761536E+02 -0.13544745901E+02  0.10189486749E+02  0.30000000000E+02  0.47000000000E+01 0.  1.
</event>
<event>
 4    1  0.7509957E-002  0.6000000E+02  0.7546771E-02  0.1259629E+00
         11   -1    0    0    0    0  0.00000000000E+00  0.00000000000E+00  0.30000000000E+02  0.30000000000E+02  0.00000000000E+00 0.  1.
        -11   -1    0    0    0    0 -0.00000000000E+00 -0.00000000000E+00 -0.30000000000E+02  0.30000000000E+02  0.00000000000E+00 0. -1.
          5    1    1    2  501    0  0.76855240689E+01  0.21178659816E+02 -0.19243364783E+02  0.30000000000E+02  0.47000000000E+01 0. -1.
         -5    1    1    2    0  501 -0.76855240689E+01 -0.21178659816E+02  0.19243364783E+02  0.30000000000E+02  0.47000000000E+01 0.  1.
</event>
<event>
 4    1  0.7509957E-002  0.6000000E+02  0.7546771E-02  0.1259629E+00
         11   -1    0    0    0    0  0.00000000000E+00  0.00000000000E+00  0.30000000000E+02  0.30000000000E+02  0.00000000000E+00 0.  1.
        -11   -1    0    0    0    0 -0.00000000000E+00 -0.00000000000E+00 -0.30000000000E+02  0.30000000000E+02  0.00000000000E+00 0. -1.
          5    1    1    2  501    0  0.45620038089E+01 -0.16574706903E+01 -0.29229281759E+02  0.30000000000E+02  0.47000000000E+01 0. -1.
         -5    1    1    2    0  501 -0.45620038089E+01  0.16574706903E+01  0.29229281759E+02  0.30000000000E+02  0.47000000000E+01 0.  1.
</event>
<event>
 4    1  0.7509957E-002  0.6000000E+02  0.7546771E-02  0.1259629E+00
         11   -1    0    0    0    0  0.00000000000E+00  0.00000000000E+00  0.30000000000E+02  0.30000000000E+02  0.00000000000E+00 0.  1.
        -11   -1    0    0    0    0 -0.00000000000E+00 -0.00000000000E+00 -0.30000000000E+02  0.30000000000E+02  0.00000000000E+00 0. -1.
          5    1    1    2  501    0 -0.19859252196E+02  0.56352612065E+00 -0.21981868450E+02  0.30000000000E+02  0.47000000000E+01 0. -1.
         -5    1    1    2    0  501  0.19859252196E+02 -0.56352612065E+00  0.21981868450E+02  0.30000000000E+02  0.47000000000E+01 0.  1.
</event>
<event>
 4    1  0.7509957E-002  0.6000000E+02  0.7546771E-02  0.1259629E+00
         11   -1    0    0    0    0  0.00000000000E+00  0.00000000000E+00  0.30000000000E+02  0.30000000000E+02  0.00000000000E+00 0.  1.
        -11   -1    0    0    0    0 -0.00000000000E+00 -0.00000000000E+00 -0.30000000000E+02  0.30000000000E+02  0.00000000000E+00 0. -1.
          5    1    1    2  501    0 -0.46034667365E+01  0.25231730084E+02  0.14835022446E+02  0.30000000000E+02  0.47000000000E+01 0. -1.
         -5    1    1    2    0  501  0.46034667365E+01 -0.25231730084E+02 -0.14835022446E+02  0.30000000000E+02  0.47000000000E+01 0.  1.
</event>
<event>
 4    1  0.7509957E-002  0.6000000E+02  0.7546771E-02  0.1259629E+00
         11   -1    0    0    0    0  0.00000000000E+00  0.00000000000E+00  0.30000000000E+02  0.30000000000E+02  0.00000000000E+00 0.  1.
        -11   -1    0    0    0    0 -0.00000000000E+00 -0.00000000000E+00 -0.30000000000E+02  0.30000000000E+02  0.00000000000E+00 0. -1.
          5    1    1    2  501    0  0.12666027960E+02 -0.23650360898E+02 -0.12575458843E+02  0.30000000000E+02  0.47000000000E+01 0. -1.
         -5    1    1    2    0  501 -0.12666027960E+02  0.23650360898E+02  0.12575458843E+02  0.30000000000E+02  0.47000000000E+01 0.  1.
</event>
<event>
 4    1  0.7509957E-002  0.6000000E+02  0.7546771E-02  0.1259629E+00
         11   -1    0    0    0    0  0.00000000000E+00  0.00000000000E+00  0.30000000000E+02  0.30000000000E+02  0.00000000000E+00 0.  1.
        -11   -1    0    0    0    0 -0.00000000000E+00 -0.00000000000E+00 -0.30000000000E+02  0.30000000000E+02  0.00000000000E+00 0. -1.
          5    1    1    2  501    0 -0.21595963844E+02 -0.19756316851E+02 -0.46056802066E+01  0.30000000000E+02  0.47000000000E+01 0. -1.
         -5    1    1    2    0  501  0.21595963844E+02  0.19756316851E+02  0.46056802066E+01  0.30000000000E+02  0.47000000000E+01 0.  1.
</event>
<event>
 4    1  0.7509957E-002  0.6000000E+02  0.7546771E-02  0.1259629E+00
         11   -1    0    0    0    0  0.00000000000E+00  0.00000000000E+00  0.30000000000E+02  0.30000000000E+02  0.00000000000E+00 0. -1.
        -11   -1    0    0    0    0 -0.00000000000E+00 -0.00000000000E+00 -0.30000000000E+02  0.30000000000E+02  0.00000000000E+00 0.  1.
          5    1    1    2  501    0 -0.14920229583E+02  0.11499576623E+02 -0.22870428214E+02  0.30000000000E+02  0.47000000000E+01 0.  1.
         -5    1    1    2    0  501  0.14920229583E+02 -0.11499576623E+02  0.22870428214E+02  0.30000000000E+02  0.47000000000E+01 0. -1.
</event>
<event>
 4    1  0.7509957E-002  0.6000000E+02  0.7546771E-02  0.1259629E+00
         11   -1    0    0    0    0  0.00000000000E+00  0.00000000000E+00  0.30000000000E+02  0.30000000000E+02  0.00000000000E+00 0. -1.
        -11   -1    0    0    0    0 -0.00000000000E+00 -0.00000000000E+00 -0.30000000000E+02  0.30000000000E+02  0.00000000000E+00 0.  1.
          5    1    1    2  501    0  0.10189028277E+02  0.26566211804E+02 -0.82662018565E+01  0.30000000000E+02  0.47000000000E+01 0.  1.
         -5    1    1    2    0  501 -0.10189028277E+02 -0.26566211804E+02  0.82662018565E+01  0.30000000000E+02  0.47000000000E+01 0. -1.
</event>
<event>
 4    1  0.7509957E-002  0.6000000E+02  0.7546771E-02  0.1259629E+00
         11   -1    0    0    0    0  0.00000000000E+00  0.00000000000E+00  0.30000000000E+02  0.30000000000E+02  0.00000000000E+00 0.  1.
        -11   -1    0    0    0    0 -0.00000000000E+00 -0.00000000000E+00 -0.30000000000E+02  0.30000000000E+02  0.00000000000E+00 0. -1.
          5    1    1    2  501    0 -0.18852454190E+01  0.84441863304E+01 -0.28338164495E+02  0.30000000000E+02  0.47000000000E+01 0. -1.
         -5    1    1    2    0  501  0.18852454190E+01 -0.84441863304E+01  0.28338164495E+02  0.30000000000E+02  0.47000000000E+01 0.  1.
</event>
<event>
 4    1  0.7509957E-002  0.6000000E+02  0.7546771E-02  0.1259629E+00
         11   -1    0    0    0    0  0.00000000000E+00  0.00000000000E+00  0.30000000000E+02  0.30000000000E+02  0.00000000000E+00 0.  1.
        -11   -1    0    0    0    0 -0.00000000000E+00 -0.00000000000E+00 -0.30000000000E+02  0.30000000000E+02  0.00000000000E+00 0. -1.
          5    1    1    2  501    0  0.17917667270E+01  0.29060148103E+02 -0.54961226556E+01  0.30000000000E+02  0.47000000000E+01 0.  1.
         -5    1    1    2    0  501 -0.17917667270E+01 -0.29060148103E+02  0.54961226556E+01  0.30000000000E+02  0.47000000000E+01 0. -1.
</event>
<event>
 4    1  0.7509957E-002  0.6000000E+02  0.7546771E-02  0.1259629E+00
         11   -1    0    0    0    0  0.00000000000E+00  0.00000000000E+00  0.30000000000E+02  0.30000000000E+02  0.00000000000E+00 0.  1.
        -11   -1    0    0    0    0 -0.00000000000E+00 -0.00000000000E+00 -0.30000000000E+02  0.30000000000E+02  0.00000000000E+00 0. -1.
          5    1    1    2  501    0 -0.12057318102E+02  0.12059069247E+02 -0.24230351402E+02  0.30000000000E+02  0.47000000000E+01 0. -1.
         -5    1    1    2    0  501  0.12057318102E+02 -0.12059069247E+02  0.24230351402E+02  0.30000000000E+02  0.47000000000E+01 0.  1.
</event>
<event>
 4    1  0.7509957E-002  0.6000000E+02  0.7546771E-02  0.1259629E+00
         11   -1    0    0    0    0  0.00000000000E+00  0.00000000000E+00  0.30000000000E+02  0.30000000000E+02  0.00000000000E+00 0.  1.
        -11   -1    0    0    0    0 -0.00000000000E+00 -0.00000000000E+00 -0.30000000000E+02  0.30000000000E+02  0.00000000000E+00 0. -1.
          5    1    1    2  501    0  0.10792192400E+02 -0.38229194685E+01 -0.27328078416E+02  0.30000000000E+02  0.47000000000E+01 0. -1.
         -5    1    1    2    0  501 -0.10792192400E+02  0.38229194685E+01  0.27328078416E+02  0.30000000000E+02  0.47000000000E+01 0.  1.
</event>
<event>
 4    1  0.7509957E-002  0.6000000E+02  0.7546771E-02  0.1259629E+00
         11   -1    0    0    0    0  0.00000000000E+00  0.00000000000E+00  0.30000000000E+02  0.30000000000E+02  0.00000000000E+00 0.  1.
        -11   -1    0    0    0    0 -0.00000000000E+00 -0.00000000000E+00 -0.30000000000E+02  0.30000000000E+02  0.00000000000E+00 0. -1.
          5    1    1    2  501    0  0.14341411319E+02  0.12696916784E+02 -0.22605800706E+02  0.30000000000E+02  0.47000000000E+01 0. -1.
         -5    1    1    2    0  501 -0.14341411319E+02 -0.12696916784E+02  0.22605800706E+02  0.30000000000E+02  0.47000000000E+01 0.  1.
</event>
<event>
 4    1  0.7509957E-002  0.6000000E+02  0.7546771E-02  0.1259629E+00
         11   -1    0    0    0    0  0.00000000000E+00  0.00000000000E+00  0.30000000000E+02  0.30000000000E+02  0.00000000000E+00 0.  1.
        -11   -1    0    0    0    0 -0.00000000000E+00 -0.00000000000E+00 -0.30000000000E+02  0.30000000000E+02  0.00000000000E+00 0. -1.
          5    1    1    2  501    0  0.99365406615E+01  0.24867623743E+02 -0.12679765338E+02  0.30000000000E+02  0.47000000000E+01 0. -1.
         -5    1    1    2    0  501 -0.99365406615E+01 -0.24867623743E+02  0.12679765338E+02  0.30000000000E+02  0.47000000000E+01 0.  1.
</event>
<event>
 4    1  0.7509957E-002  0.6000000E+02  0.7546771E-02  0.1259629E+00
         11   -1    0    0    0    0  0.00000000000E+00  0.00000000000E+00  0.30000000000E+02  0.30000000000E+02  0.00000000000E+00 0.  1.
        -11   -1    0    0    0    0 -0.00000000000E+00 -0.00000000000E+00 -0.30000000000E+02  0.30000000000E+02  0.00000000000E+00 0. -1.
          5    1    1    2  501    0 -0.16686836389E+01  0.28939938376E+02  0.61323292216E+01  0.30000000000E+02  0.47000000000E+01 0. -1.
         -5    1    1    2    0  501  0.16686836389E+01 -0.28939938376E+02 -0.61323292216E+01  0.30000000000E+02  0.47000000000E+01 0.  1.
</event>
<event>
 4    1  0.7509957E-002  0.6000000E+02  0.7546771E-02  0.1259629E+00
         11   -1    0    0    0    0  0.00000000000E+00  0.00000000000E+00  0.30000000000E+02  0.30000000000E+02  0.00000000000E+00 0.  1.
        -11   -1    0    0    0    0 -0.00000000000E+00 -0.00000000000E+00 -0.30000000000E+02  0.30000000000E+02  0.00000000000E+00 0. -1.
          5    1    1    2  501    0 -0.94931173386E+01 -0.10974987624E+02 -0.25832931887E+02  0.30000000000E+02  0.47000000000E+01 0. -1.
         -5    1    1    2    0  501  0.94931173386E+01  0.10974987624E+02  0.25832931887E+02  0.30000000000E+02  0.47000000000E+01 0.  1.
</event>
<event>
 4    1  0.7509957E-002  0.6000000E+02  0.7546771E-02  0.1259629E+00
         11   -1    0    0    0    0  0.00000000000E+00  0.00000000000E+00  0.30000000000E+02  0.30000000000E+02  0.00000000000E+00 0.  1.
        -11   -1    0    0    0    0 -0.00000000000E+00 -0.00000000000E+00 -0.30000000000E+02  0.30000000000E+02  0.00000000000E+00 0. -1.
          5    1    1    2  501    0  0.30525362166E+01 -0.29149770316E+02 -0.43454474092E+01  0.30000000000E+02  0.47000000000E+01 0. -1.
         -5    1    1    2    0  501 -0.30525362166E+01  0.29149770316E+02  0.43454474092E+01  0.30000000000E+02  0.47000000000E+01 0.  1.
</event>
<event>
 4    1  0.7509957E-002  0.6000000E+02  0.7546771E-02  0.1259629E+00
         11   -1    0    0    0    0  0.00000000000E+00  0.00000000000E+00  0.30000000000E+02  0.30000000000E+02  0.00000000000E+00 0.  1.
        -11   -1    0    0    0    0 -0.00000000000E+00 -0.00000000000E+00 -0.30000000000E+02  0.30000000000E+02  0.00000000000E+00 0. -1.
          5    1    1    2  501    0 -0.22405357928E+02  0.36855721251E+01 -0.19034875735E+02  0.30000000000E+02  0.47000000000E+01 0. -1.
         -5    1    1    2    0  501  0.22405357928E+02 -0.36855721251E+01  0.19034875735E+02  0.30000000000E+02  0.47000000000E+01 0.  1.
</event>
<event>
 4    1  0.7509957E-002  0.6000000E+02  0.7546771E-02  0.1259629E+00
         11   -1    0    0    0    0  0.00000000000E+00  0.00000000000E+00  0.30000000000E+02  0.30000000000E+02  0.00000000000E+00 0. -1.
        -11   -1    0    0    0    0 -0.00000000000E+00 -0.00000000000E+00 -0.30000000000E+02  0.30000000000E+02  0.00000000000E+00 0.  1.
          5    1    1    2  501    0 -0.25986100515E+02 -0.12854845419E+02  0.61143707155E+01  0.30000000000E+02  0.47000000000E+01 0.  1.
         -5    1    1    2    0  501  0.25986100515E+02  0.12854845419E+02 -0.61143707155E+01  0.30000000000E+02  0.47000000000E+01 0. -1.
</event>
<event>
 4    1  0.7509957E-002  0.6000000E+02  0.7546771E-02  0.1259629E+00
         11   -1    0    0    0    0  0.00000000000E+00  0.00000000000E+00  0.30000000000E+02  0.30000000000E+02  0.00000000000E+00 0.  1.
        -11   -1    0    0    0    0 -0.00000000000E+00 -0.00000000000E+00 -0.30000000000E+02  0.30000000000E+02  0.00000000000E+00 0. -1.
          5    1    1    2  501    0  0.26916586439E+02  0.76565779882E+01 -0.97357171269E+01  0.30000000000E+02  0.47000000000E+01 0. -1.
         -5    1    1    2    0  501 -0.26916586439E+02 -0.76565779882E+01  0.97357171269E+01  0.30000000000E+02  0.47000000000E+01 0.  1.
</event>
<event>
 4    1  0.7509957E-002  0.6000000E+02  0.7546771E-02  0.1259629E+00
         11   -1    0    0    0    0  0.00000000000E+00  0.00000000000E+00  0.30000000000E+02  0.30000000000E+02  0.00000000000E+00 0.  1.
        -11   -1    0    0    0    0 -0.00000000000E+00 -0.00000000000E+00 -0.30000000000E+02  0.30000000000E+02  0.00000000000E+00 0. -1.
          5    1    1    2  501    0  0.16431672281E+02 -0.23937253517E+02 -0.59091488472E+01  0.30000000000E+02  0.47000000000E+01 0. -1.
         -5    1    1    2    0  501 -0.16431672281E+02  0.23937253517E+02  0.59091488472E+01  0.30000000000E+02  0.47000000000E+01 0.  1.
</event>
<event>
 4    1  0.7509957E-002  0.6000000E+02  0.7546771E-02  0.1259629E+00
         11   -1    0    0    0    0  0.00000000000E+00  0.00000000000E+00  0.30000000000E+02  0.30000000000E+02  0.00000000000E+00 0.  1.
        -11   -1    0    0    0    0 -0.00000000000E+00 -0.00000000000E+00 -0.30000000000E+02  0.30000000000E+02  0.00000000000E+00 0. -1.
          5    1    1    2  501    0  0.16883401901E+02 -0.24330549296E+02  0.94080347718E+00  0.30000000000E+02  0.47000000000E+01 0. -1.
         -5    1    1    2    0  501 -0.16883401901E+02  0.24330549296E+02 -0.94080347718E+00  0.30000000000E+02  0.47000000000E+01 0.  1.
</event>
<event>
 4    1  0.7509957E-002  0.6000000E+02  0.7546771E-02  0.1259629E+00
         11   -1    0    0    0    0  0.00000000000E+00  0.00000000000E+00  0.30000000000E+02  0.30000000000E+02  0.00000000000E+00 0.  1.
        -11   -1    0    0    0    0 -0.00000000000E+00 -0.00000000000E+00 -0.30000000000E+02  0.30000000000E+02  0.00000000000E+00 0. -1.
          5    1    1    2  501    0 -0.61844819269E+01 -0.20616039378E+01 -0.28903494123E+02  0.30000000000E+02  0.47000000000E+01 0. -1.
         -5    1    1    2    0  501  0.61844819269E+01  0.20616039378E+01  0.28903494123E+02  0.30000000000E+02  0.47000000000E+01 0.  1.
</event>
<event>
 4    1  0.7509957E-002  0.6000000E+02  0.7546771E-02  0.1259629E+00
         11   -1    0    0    0    0  0.00000000000E+00  0.00000000000E+00  0.30000000000E+02  0.30000000000E+02  0.00000000000E+00 0.  1.
        -11   -1    0    0    0    0 -0.00000000000E+00 -0.00000000000E+00 -0.30000000000E+02  0.30000000000E+02  0.00000000000E+00 0. -1.
          5    1    1    2  501    0 -0.12300770865E+02  0.53611612313E+01  0.26417020770E+02  0.30000000000E+02  0.47000000000E+01 0.  1.
         -5    1    1    2    0  501  0.12300770865E+02 -0.53611612313E+01 -0.26417020770E+02  0.30000000000E+02  0.47000000000E+01 0. -1.
</event>
<event>
 4    1  0.7509957E-002  0.6000000E+02  0.7546771E-02  0.1259629E+00
         11   -1    0    0    0    0  0.00000000000E+00  0.00000000000E+00  0.30000000000E+02  0.30000000000E+02  0.00000000000E+00 0.  1.
        -11   -1    0    0    0    0 -0.00000000000E+00 -0.00000000000E+00 -0.30000000000E+02  0.30000000000E+02  0.00000000000E+00 0. -1.
          5    1    1    2  501    0 -0.65192366805E+01  0.14145659230E+01 -0.28868816331E+02  0.30000000000E+02  0.47000000000E+01 0. -1.
         -5    1    1    2    0  501  0.65192366805E+01 -0.14145659230E+01  0.28868816331E+02  0.30000000000E+02  0.47000000000E+01 0.  1.
</event>
<event>
 4    1  0.7509957E-002  0.6000000E+02  0.7546771E-02  0.1259629E+00
         11   -1    0    0    0    0  0.00000000000E+00  0.00000000000E+00  0.30000000000E+02  0.30000000000E+02  0.00000000000E+00 0.  1.
        -11   -1    0    0    0    0 -0.00000000000E+00 -0.00000000000E+00 -0.30000000000E+02  0.30000000000E+02  0.00000000000E+00 0. -1.
          5    1    1    2  501    0  0.24663032861E+02 -0.83696615239E+01 -0.14127759061E+02  0.30000000000E+02  0.47000000000E+01 0. -1.
         -5    1    1    2    0  501 -0.24663032861E+02  0.83696615239E+01  0.14127759061E+02  0.30000000000E+02  0.47000000000E+01 0.  1.
</event>
<event>
 4    1  0.7509957E-002  0.6000000E+02  0.7546771E-02  0.1259629E+00
         11   -1    0    0    0    0  0.00000000000E+00  0.00000000000E+00  0.30000000000E+02  0.30000000000E+02  0.00000000000E+00 0.  1.
        -11   -1    0    0    0    0 -0.00000000000E+00 -0.00000000000E+00 -0.30000000000E+02  0.30000000000E+02  0.00000000000E+00 0. -1.
          5    1    1    2  501    0 -0.46140928009E+01 -0.27619144963E+02 -0.96851938113E+01  0.30000000000E+02  0.47000000000E+01 0. -1.
         -5    1    1    2    0  501  0.46140928009E+01  0.27619144963E+02  0.96851938113E+01  0.30000000000E+02  0.47000000000E+01 0.  1.
</event>
<event>
 4    1  0.7509957E-002  0.6000000E+02  0.7546771E-02  0.1259629E+00
         11   -1    0    0    0    0  0.00000000000E+00  0.00000000000E+00  0.30000000000E+02  0.30000000000E+02  0.00000000000E+00 0.  1.
        -11   -1    0    0    0    0 -0.00000000000E+00 -0.00000000000E+00 -0.30000000000E+02  0.30000000000E+02  0.00000000000E+00 0. -1.
          5    1    1    2  501    0 -0.18498080741E+02  0.58112603949E+01 -0.22404469677E+02  0.30000000000E+02  0.47000000000E+01 0. -1.
         -5    1    1    2    0  501  0.18498080741E+02 -0.58112603949E+01  0.22404469677E+02  0.30000000000E+02  0.47000000000E+01 0.  1.
</event>
<event>
 4    1  0.7509957E-002  0.6000000E+02  0.7546771E-02  0.1259629E+00
         11   -1    0    0    0    0  0.00000000000E+00  0.00000000000E+00  0.30000000000E+02  0.30000000000E+02  0.00000000000E+00 0.  1.
        -11   -1    0    0    0    0 -0.00000000000E+00 -0.00000000000E+00 -0.30000000000E+02  0.30000000000E+02  0.00000000000E+00 0. -1.
          5    1    1    2  501    0  0.17846860749E+02 -0.22268521452E+02 -0.79694738675E+01  0.30000000000E+02  0.47000000000E+01 0. -1.
         -5    1    1    2    0  501 -0.17846860749E+02  0.22268521452E+02  0.79694738675E+01  0.30000000000E+02  0.47000000000E+01 0.  1.
</event>
<event>
 4    1  0.7509957E-002  0.6000000E+02  0.7546771E-02  0.1259629E+00
         11   -1    0    0    0    0  0.00000000000E+00  0.00000000000E+00  0.30000000000E+02  0.30000000000E+02  0.00000000000E+00 0.  1.
        -11   -1    0    0    0    0 -0.00000000000E+00 -0.00000000000E+00 -0.30000000000E+02  0.30000000000E+02  0.00000000000E+00 0. -1.
          5    1    1    2  501    0  0.69813033434E+00  0.20082386372E+02 -0.21774305308E+02  0.30000000000E+02  0.47000000000E+01 0. -1.
         -5    1    1    2    0  501 -0.69813033434E+00 -0.20082386372E+02  0.21774305308E+02  0.30000000000E+02  0.47000000000E+01 0.  1.
</event>
<event>
 4    1  0.7509957E-002  0.6000000E+02  0.7546771E-02  0.1259629E+00
         11   -1    0    0    0    0  0.00000000000E+00  0.00000000000E+00  0.30000000000E+02  0.30000000000E+02  0.00000000000E+00 0.  1.
        -11   -1    0    0    0    0 -0.00000000000E+00 -0.00000000000E+00 -0.30000000000E+02  0.30000000000E+02  0.00000000000E+00 0. -1.
          5    1    1    2  501    0  0.48694958669E+01  0.95546652496E+01 -0.27620759982E+02  0.30000000000E+02  0.47000000000E+01 0. -1.
         -5    1    1    2    0  501 -0.48694958669E+01 -0.95546652496E+01  0.27620759982E+02  0.30000000000E+02  0.47000000000E+01 0.  1.
</event>
<event>
 4    1  0.7509957E-002  0.6000000E+02  0.7546771E-02  0.1259629E+00
         11   -1    0    0    0    0  0.00000000000E+00  0.00000000000E+00  0.30000000000E+02  0.30000000000E+02  0.00000000000E+00 0.  1.
        -11   -1    0    0    0    0 -0.00000000000E+00 -0.00000000000E+00 -0.30000000000E+02  0.30000000000E+02  0.00000000000E+00 0. -1.
          5    1    1    2  501    0 -0.11595274848E+01 -0.24368667005E+02  0.16814683001E+02  0.30000000000E+02  0.47000000000E+01 0.  1.
         -5    1    1    2    0  501  0.11595274848E+01  0.24368667005E+02 -0.16814683001E+02  0.30000000000E+02  0.47000000000E+01 0. -1.
</event>
<event>
 4    1  0.7509957E-002  0.6000000E+02  0.7546771E-02  0.1259629E+00
         11   -1    0    0    0    0  0.00000000000E+00  0.00000000000E+00  0.30000000000E+02  0.30000000000E+02  0.00000000000E+00 0.  1.
        -11   -1    0    0    0    0 -0.00000000000E+00 -0.00000000000E+00 -0.30000000000E+02  0.30000000000E+02  0.00000000000E+00 0. -1.
          5    1    1    2  501    0 -0.24641382864E+02  0.46066808530E+01 -0.15795275941E+02  0.30000000000E+02  0.47000000000E+01 0. -1.
         -5    1    1    2    0  501  0.24641382864E+02 -0.46066808530E+01  0.15795275941E+02  0.30000000000E+02  0.47000000000E+01 0.  1.
</event>
<event>
 4    1  0.7509957E-002  0.6000000E+02  0.7546771E-02  0.1259629E+00
         11   -1    0    0    0    0  0.00000000000E+00  0.00000000000E+00  0.30000000000E+02  0.30000000000E+02  0.00000000000E+00 0. -1.
        -11   -1    0    0    0    0 -0.00000000000E+00 -0.00000000000E+00 -0.30000000000E+02  0.30000000000E+02  0.00000000000E+00 0.  1.
          5    1    1    2  501    0  0.27527081741E+01  0.25411793583E+00 -0.29500305452E+02  0.30000000000E+02  0.47000000000E+01 0.  1.
         -5    1    1    2    0  501 -0.27527081741E+01 -0.25411793583E+00  0.29500305452E+02  0.30000000000E+02  0.47000000000E+01 0. -1.
</event>
<event>
 4    1  0.7509957E-002  0.6000000E+02  0.7546771E-02  0.1259629E+00
         11   -1    0    0    0    0  0.00000000000E+00  0.00000000000E+00  0.30000000000E+02  0.30000000000E+02  0.00000000000E+00 0.  1.
        -11   -1    0    0    0    0 -0.00000000000E+00 -0.00000000000E+00 -0.30000000000E+02  0.30000000000E+02  0.00000000000E+00 0. -1.
          5    1    1    2  501    0 -0.11218324710E+02 -0.17221283626E+01 -0.27369571875E+02  0.30000000000E+02  0.47000000000E+01 0. -1.
         -5    1    1    2    0  501  0.11218324710E+02  0.17221283626E+01  0.27369571875E+02  0.30000000000E+02  0.47000000000E+01 0.  1.
</event>
<event>
 4    1  0.7509957E-002  0.6000000E+02  0.7546771E-02  0.1259629E+00
         11   -1    0    0    0    0  0.00000000000E+00  0.00000000000E+00  0.30000000000E+02  0.30000000000E+02  0.00000000000E+00 0.  1.
        -11   -1    0    0    0    0 -0.00000000000E+00 -0.00000000000E+00 -0.30000000000E+02  0.30000000000E+02  0.00000000000E+00 0. -1.
          5    1    1    2  501    0  0.22120129317E+02 -0.18506129523E+01 -0.19626133361E+02  0.30000000000E+02  0.47000000000E+01 0. -1.
         -5    1    1    2    0  501 -0.22120129317E+02  0.18506129523E+01  0.19626133361E+02  0.30000000000E+02  0.47000000000E+01 0.  1.
</event>
<event>
 4    1  0.7509957E-002  0.6000000E+02  0.7546771E-02  0.1259629E+00
         11   -1    0    0    0    0  0.00000000000E+00  0.00000000000E+00  0.30000000000E+02  0.30000000000E+02  0.00000000000E+00 0.  1.
        -11   -1    0    0    0    0 -0.00000000000E+00 -0.00000000000E+00 -0.30000000000E+02  0.30000000000E+02  0.00000000000E+00 0. -1.
          5    1    1    2  501    0  0.19650900091E+02  0.17891600190E+02 -0.13101250636E+02  0.30000000000E+02  0.47000000000E+01 0. -1.
         -5    1    1    2    0  501 -0.19650900091E+02 -0.17891600190E+02  0.13101250636E+02  0.30000000000E+02  0.47000000000E+01 0.  1.
</event>
<event>
 4    1  0.7509957E-002  0.6000000E+02  0.7546771E-02  0.1259629E+00
         11   -1    0    0    0    0  0.00000000000E+00  0.00000000000E+00  0.30000000000E+02  0.30000000000E+02  0.00000000000E+00 0.  1.
        -11   -1    0    0    0    0 -0.00000000000E+00 -0.00000000000E+00 -0.30000000000E+02  0.30000000000E+02  0.00000000000E+00 0. -1.
          5    1    1    2  501    0 -0.37833179873E+01  0.88420334015E+01  0.28025255580E+02  0.30000000000E+02  0.47000000000E+01 0.  1.
         -5    1    1    2    0  501  0.37833179873E+01 -0.88420334015E+01 -0.28025255580E+02  0.30000000000E+02  0.47000000000E+01 0. -1.
</event>
<event>
 4    1  0.7509957E-002  0.6000000E+02  0.7546771E-02  0.1259629E+00
         11   -1    0    0    0    0  0.00000000000E+00  0.00000000000E+00  0.30000000000E+02  0.30000000000E+02  0.00000000000E+00 0.  1.
        -11   -1    0    0    0    0 -0.00000000000E+00 -0.00000000000E+00 -0.30000000000E+02  0.30000000000E+02  0.00000000000E+00 0. -1.
          5    1    1    2  501    0 -0.46192236362E+01 -0.28620510261E+02 -0.61187552179E+01  0.30000000000E+02  0.47000000000E+01 0. -1.
         -5    1    1    2    0  501  0.46192236362E+01  0.28620510261E+02  0.61187552179E+01  0.30000000000E+02  0.47000000000E+01 0.  1.
</event>
<event>
 4    1  0.7509957E-002  0.6000000E+02  0.7546771E-02  0.1259629E+00
         11   -1    0    0    0    0  0.00000000000E+00  0.00000000000E+00  0.30000000000E+02  0.30000000000E+02  0.00000000000E+00 0.  1.
        -11   -1    0    0    0    0 -0.00000000000E+00 -0.00000000000E+00 -0.30000000000E+02  0.30000000000E+02  0.00000000000E+00 0. -1.
          5    1    1    2  501    0  0.32273135711E+01 -0.61244716015E+01 -0.28809465367E+02  0.30000000000E+02  0.47000000000E+01 0. -1.
         -5    1    1    2    0  501 -0.32273135711E+01  0.61244716015E+01  0.28809465367E+02  0.30000000000E+02  0.47000000000E+01 0.  1.
</event>
<event>
 4    1  0.7509957E-002  0.6000000E+02  0.7546771E-02  0.1259629E+00
         11   -1    0    0    0    0  0.00000000000E+00  0.00000000000E+00  0.30000000000E+02  0.30000000000E+02  0.00000000000E+00 0.  1.
        -11   -1    0    0    0    0 -0.00000000000E+00 -0.00000000000E+00 -0.30000000000E+02  0.30000000000E+02  0.00000000000E+00 0. -1.
          5    1    1    2  501    0 -0.22589897811E+02  0.17681300015E+02 -0.74147249893E+01  0.30000000000E+02  0.47000000000E+01 0. -1.
         -5    1    1    2    0  501  0.22589897811E+02 -0.17681300015E+02  0.74147249893E+01  0.30000000000E+02  0.47000000000E+01 0.  1.
</event>
<event>
 4    1  0.7509957E-002  0.6000000E+02  0.7546771E-02  0.1259629E+00
         11   -1    0    0    0    0  0.00000000000E+00  0.00000000000E+00  0.30000000000E+02  0.30000000000E+02  0.00000000000E+00 0.  1.
        -11   -1    0    0    0    0 -0.00000000000E+00 -0.00000000000E+00 -0.30000000000E+02  0.30000000000E+02  0.00000000000E+00 0. -1.
          5    1    1    2  501    0 -0.11728561808E+02 -0.12404168383E+02 -0.24217502857E+02  0.30000000000E+02  0.47000000000E+01 0. -1.
         -5    1    1    2    0  501  0.11728561808E+02  0.12404168383E+02  0.24217502857E+02  0.30000000000E+02  0.47000000000E+01 0.  1.
</event>
<event>
 4    1  0.7509957E-002  0.6000000E+02  0.7546771E-02  0.1259629E+00
         11   -1    0    0    0    0  0.00000000000E+00  0.00000000000E+00  0.30000000000E+02  0.30000000000E+02  0.00000000000E+00 0.  1.
        -11   -1    0    0    0    0 -0.00000000000E+00 -0.00000000000E+00 -0.30000000000E+02  0.30000000000E+02  0.00000000000E+00 0. -1.
          5    1    1    2  501    0 -0.88596441073E+01 -0.19455091918E+02 -0.20516240025E+02  0.30000000000E+02  0.47000000000E+01 0. -1.
         -5    1    1    2    0  501  0.88596441073E+01  0.19455091918E+02  0.20516240025E+02  0.30000000000E+02  0.47000000000E+01 0.  1.
</event>
<event>
 4    1  0.7509957E-002  0.6000000E+02  0.7546771E-02  0.1259629E+00
         11   -1    0    0    0    0  0.00000000000E+00  0.00000000000E+00  0.30000000000E+02  0.30000000000E+02  0.00000000000E+00 0.  1.
        -11   -1    0    0    0    0 -0.00000000000E+00 -0.00000000000E+00 -0.30000000000E+02  0.30000000000E+02  0.00000000000E+00 0. -1.
          5    1    1    2  501    0 -0.49648592371E+01 -0.59935591742E+01 -0.28589113683E+02  0.30000000000E+02  0.47000000000E+01 0. -1.
         -5    1    1    2    0  501  0.49648592371E+01  0.59935591742E+01  0.28589113683E+02  0.30000000000E+02  0.47000000000E+01 0.  1.
</event>
<event>
 4    1  0.7509957E-002  0.6000000E+02  0.7546771E-02  0.1259629E+00
         11   -1    0    0    0    0  0.00000000000E+00  0.00000000000E+00  0.30000000000E+02  0.30000000000E+02  0.00000000000E+00 0.  1.
        -11   -1    0    0    0    0 -0.00000000000E+00 -0.00000000000E+00 -0.30000000000E+02  0.30000000000E+02  0.00000000000E+00 0. -1.
          5    1    1    2  501    0  0.57893958191E+01 -0.28052649297E+02 -0.75790344673E+01  0.30000000000E+02  0.47000000000E+01 0. -1.
         -5    1    1    2    0  501 -0.57893958191E+01  0.28052649297E+02  0.75790344673E+01  0.30000000000E+02  0.47000000000E+01 0.  1.
</event>
<event>
 4    1  0.7509957E-002  0.6000000E+02  0.7546771E-02  0.1259629E+00
         11   -1    0    0    0    0  0.00000000000E+00  0.00000000000E+00  0.30000000000E+02  0.30000000000E+02  0.00000000000E+00 0.  1.
        -11   -1    0    0    0    0 -0.00000000000E+00 -0.00000000000E+00 -0.30000000000E+02  0.30000000000E+02  0.00000000000E+00 0. -1.
          5    1    1    2  501    0  0.78584587829E+01  0.24036586845E+02 -0.15440113937E+02  0.30000000000E+02  0.47000000000E+01 0. -1.
         -5    1    1    2    0  501 -0.78584587829E+01 -0.24036586845E+02  0.15440113937E+02  0.30000000000E+02  0.47000000000E+01 0.  1.
</event>
<event>
 4    1  0.7509957E-002  0.6000000E+02  0.7546771E-02  0.1259629E+00
         11   -1    0    0    0    0  0.00000000000E+00  0.00000000000E+00  0.30000000000E+02  0.30000000000E+02  0.00000000000E+00 0.  1.
        -11   -1    0    0    0    0 -0.00000000000E+00 -0.00000000000E+00 -0.30000000000E+02  0.30000000000E+02  0.00000000000E+00 0. -1.
          5    1    1    2  501    0 -0.94862044656E+01 -0.81092444997E+01 -0.26873073484E+02  0.30000000000E+02  0.47000000000E+01 0. -1.
         -5    1    1    2    0  501  0.94862044656E+01  0.81092444997E+01  0.26873073484E+02  0.30000000000E+02  0.47000000000E+01 0.  1.
</event>
<event>
 4    1  0.7509957E-002  0.6000000E+02  0.7546771E-02  0.1259629E+00
         11   -1    0    0    0    0  0.00000000000E+00  0.00000000000E+00  0.30000000000E+02  0.30000000000E+02  0.00000000000E+00 0.  1.
        -11   -1    0    0    0    0 -0.00000000000E+00 -0.00000000000E+00 -0.30000000000E+02  0.30000000000E+02  0.00000000000E+00 0. -1.
          5    1    1    2  501    0 -0.97722477372E+01 -0.27792585110E+02 -0.31599663098E+01  0.30000000000E+02  0.47000000000E+01 0. -1.
         -5    1    1    2    0  501  0.97722477372E+01  0.27792585110E+02  0.31599663098E+01  0.30000000000E+02  0.47000000000E+01 0.  1.
</event>
<event>
 4    1  0.7509957E-002  0.6000000E+02  0.7546771E-02  0.1259629E+00
         11   -1    0    0    0    0  0.00000000000E+00  0.00000000000E+00  0.30000000000E+02  0.30000000000E+02  0.00000000000E+00 0.  1.
        -11   -1    0    0    0    0 -0.00000000000E+00 -0.00000000000E+00 -0.30000000000E+02  0.30000000000E+02  0.00000000000E+00 0. -1.
          5    1    1    2  501    0 -0.20147057111E+02 -0.13917959602E+02 -0.16682220783E+02  0.30000000000E+02  0.47000000000E+01 0. -1.
         -5    1    1    2    0  501  0.20147057111E+02  0.13917959602E+02  0.16682220783E+02  0.30000000000E+02  0.47000000000E+01 0.  1.
</event>
<event>
 4    1  0.7509957E-002  0.6000000E+02  0.7546771E-02  0.1259629E+00
         11   -1    0    0    0    0  0.00000000000E+00  0.00000000000E+00  0.30000000000E+02  0.30000000000E+02  0.00000000000E+00 0.  1.
        -11   -1    0    0    0    0 -0.00000000000E+00 -0.00000000000E+00 -0.30000000000E+02  0.30000000000E+02  0.00000000000E+00 0. -1.
          5    1    1    2  501    0 -0.10587362102E+02  0.23389032124E+02 -0.14790907343E+02  0.30000000000E+02  0.47000000000E+01 0. -1.
         -5    1    1    2    0  501  0.10587362102E+02 -0.23389032124E+02  0.14790907343E+02  0.30000000000E+02  0.47000000000E+01 0.  1.
</event>
<event>
 4    1  0.7509957E-002  0.6000000E+02  0.7546771E-02  0.1259629E+00
         11   -1    0    0    0    0  0.00000000000E+00  0.00000000000E+00  0.30000000000E+02  0.30000000000E+02  0.00000000000E+00 0. -1.
        -11   -1    0    0    0    0 -0.00000000000E+00 -0.00000000000E+00 -0.30000000000E+02  0.30000000000E+02  0.00000000000E+00 0.  1.
          5    1    1    2  501    0  0.17033469842E+02 -0.24081291845E+02 -0.28039772107E+01  0.30000000000E+02  0.47000000000E+01 0.  1.
         -5    1    1    2    0  501 -0.17033469842E+02  0.24081291845E+02  0.28039772107E+01  0.30000000000E+02  0.47000000000E+01 0. -1.
</event>
<event>
 4    1  0.7509957E-002  0.6000000E+02  0.7546771E-02  0.1259629E+00
         11   -1    0    0    0    0  0.00000000000E+00  0.00000000000E+00  0.30000000000E+02  0.30000000000E+02  0.00000000000E+00 0.  1.
        -11   -1    0    0    0    0 -0.00000000000E+00 -0.00000000000E+00 -0.30000000000E+02  0.30000000000E+02  0.00000000000E+00 0. -1.
          5    1    1    2  501    0  0.63284206262E+01 -0.25760163445E+02 -0.13201328405E+02  0.30000000000E+02  0.47000000000E+01 0. -1.
         -5    1    1    2    0  501 -0.63284206262E+01  0.25760163445E+02  0.13201328405E+02  0.30000000000E+02  0.47000000000E+01 0.  1.
</event>
<event>
 4    1  0.7509957E-002  0.6000000E+02  0.7546771E-02  0.1259629E+00
         11   -1    0    0    0    0  0.00000000000E+00  0.00000000000E+00  0.30000000000E+02  0.30000000000E+02  0.00000000000E+00 0.  1.
        -11   -1    0    0    0    0 -0.00000000000E+00 -0.00000000000E+00 -0.30000000000E+02  0.30000000000E+02  0.00000000000E+00 0. -1.
          5    1    1    2  501    0 -0.11135092083E+02  0.27360490441E+02 -0.23072249874E+01  0.30000000000E+02  0.47000000000E+01 0. -1.
         -5    1    1    2    0  501  0.11135092083E+02 -0.27360490441E+02  0.23072249874E+01  0.30000000000E+02  0.47000000000E+01 0.  1.
</event>
<event>
 4    1  0.7509957E-002  0.6000000E+02  0.7546771E-02  0.1259629E+00
         11   -1    0    0    0    0  0.00000000000E+00  0.00000000000E+00  0.30000000000E+02  0.30000000000E+02  0.00000000000E+00 0.  1.
        -11   -1    0    0    0    0 -0.00000000000E+00 -0.00000000000E+00 -0.30000000000E+02  0.30000000000E+02  0.00000000000E+00 0. -1.
          5    1    1    2  501    0 -0.12162293649E+01 -0.49247799476E+01 -0.29192076469E+02  0.30000000000E+02  0.47000000000E+01 0. -1.
         -5    1    1    2    0  501  0.12162293649E+01  0.49247799476E+01  0.29192076469E+02  0.30000000000E+02  0.47000000000E+01 0.  1.
</event>
<event>
 4    1  0.7509957E-002  0.6000000E+02  0.7546771E-02  0.1259629E+00
         11   -1    0    0    0    0  0.00000000000E+00  0.00000000000E+00  0.30000000000E+02  0.30000000000E+02  0.00000000000E+00 0.  1.
        -11   -1    0    0    0    0 -0.00000000000E+00 -0.00000000000E+00 -0.30000000000E+02  0.30000000000E+02  0.00000000000E+00 0. -1.
          5    1    1    2  501    0  0.15682481595E+02  0.16476510933E+02 -0.18986688982E+02  0.30000000000E+02  0.47000000000E+01 0. -1.
         -5    1    1    2    0  501 -0.15682481595E+02 -0.16476510933E+02  0.18986688982E+02  0.30000000000E+02  0.47000000000E+01 0.  1.
</event>
<event>
 4    1  0.7509957E-002  0.6000000E+02  0.7546771E-02  0.1259629E+00
         11   -1    0    0    0    0  0.00000000000E+00  0.00000000000E+00  0.30000000000E+02  0.30000000000E+02  0.00000000000E+00 0. -1.
        -11   -1    0    0    0    0 -0.00000000000E+00 -0.00000000000E+00 -0.30000000000E+02  0.30000000000E+02  0.00000000000E+00 0.  1.
          5    1    1    2  501    0 -0.51769474581E+01 -0.78077026571E+01  0.28109589009E+02  0.30000000000E+02  0.47000000000E+01 0. -1.
         -5    1    1    2    0  501  0.51769474581E+01  0.78077026571E+01 -0.28109589009E+02  0.30000000000E+02  0.47000000000E+01 0.  1.
</event>
<event>
 4    1  0.7509957E-002  0.6000000E+02  0.7546771E-02  0.1259629E+00
         11   -1    0    0    0    0  0.00000000000E+00  0.00000000000E+00  0.30000000000E+02  0.30000000000E+02  0.00000000000E+00 0.  1.
        -11   -1    0    0    0    0 -0.00000000000E+00 -0.00000000000E+00 -0.30000000000E+02  0.30000000000E+02  0.00000000000E+00 0. -1.
          5    1    1    2  501    0  0.23584117746E+02  0.12470484287E+02 -0.12891330878E+02  0.30000000000E+02  0.47000000000E+01 0. -1.
         -5    1    1    2    0  501 -0.23584117746E+02 -0.12470484287E+02  0.12891330878E+02  0.30000000000E+02  0.47000000000E+01 0.  1.
</event>
<event>
 4    1  0.7509957E-002  0.6000000E+02  0.7546771E-02  0.1259629E+00
         11   -1    0    0    0    0  0.00000000000E+00  0.00000000000E+00  0.30000000000E+02  0.30000000000E+02  0.00000000000E+00 0.  1.
        -11   -1    0    0    0    0 -0.00000000000E+00 -0.00000000000E+00 -0.30000000000E+02  0.30000000000E+02  0.00000000000E+00 0. -1.
          5    1    1    2  501    0 -0.27076632803E+02 -0.91229524118E+01 -0.78445965700E+01  0.30000000000E+02  0.47000000000E+01 0. -1.
         -5    1    1    2    0  501  0.27076632803E+02  0.91229524118E+01  0.78445965700E+01  0.30000000000E+02  0.47000000000E+01 0.  1.
</event>
<event>
 4    1  0.7509957E-002  0.6000000E+02  0.7546771E-02  0.1259629E+00
         11   -1    0    0    0    0  0.00000000000E+00  0.00000000000E+00  0.30000000000E+02  0.30000000000E+02  0.00000000000E+00 0.  1.
        -11   -1    0    0    0    0 -0.00000000000E+00 -0.00000000000E+00 -0.30000000000E+02  0.30000000000E+02  0.00000000000E+00 0. -1.
          5    1    1    2  501    0  0.21045118456E+01 -0.29462654803E+02 -0.23308800626E+01  0.30000000000E+02  0.47000000000E+01 0. -1.
         -5    1    1    2    0  501 -0.21045118456E+01  0.29462654803E+02  0.23308800626E+01  0.30000000000E+02  0.47000000000E+01 0.  1.
</event>
<event>
 4    1  0.7509957E-002  0.6000000E+02  0.7546771E-02  0.1259629E+00
         11   -1    0    0    0    0  0.00000000000E+00  0.00000000000E+00  0.30000000000E+02  0.30000000000E+02  0.00000000000E+00 0.  1.
        -11   -1    0    0    0    0 -0.00000000000E+00 -0.00000000000E+00 -0.30000000000E+02  0.30000000000E+02  0.00000000000E+00 0. -1.
          5    1    1    2  501    0  0.86504300629E+01  0.19083032465E+02 -0.20950368294E+02  0.30000000000E+02  0.47000000000E+01 0. -1.
         -5    1    1    2    0  501 -0.86504300629E+01 -0.19083032465E+02  0.20950368294E+02  0.30000000000E+02  0.47000000000E+01 0.  1.
</event>
<event>
 4    1  0.7509957E-002  0.6000000E+02  0.7546771E-02  0.1259629E+00
         11   -1    0    0    0    0  0.00000000000E+00  0.00000000000E+00  0.30000000000E+02  0.30000000000E+02  0.00000000000E+00 0.  1.
        -11   -1    0    0    0    0 -0.00000000000E+00 -0.00000000000E+00 -0.30000000000E+02  0.30000000000E+02  0.00000000000E+00 0. -1.
          5    1    1    2  501    0 -0.28293627419E+02  0.81931150845E+01  0.32021106644E+01  0.30000000000E+02  0.47000000000E+01 0. -1.
         -5    1    1    2    0  501  0.28293627419E+02 -0.81931150845E+01 -0.32021106644E+01  0.30000000000E+02  0.47000000000E+01 0.  1.
</event>
<event>
 4    1  0.7509957E-002  0.6000000E+02  0.7546771E-02  0.1259629E+00
         11   -1    0    0    0    0  0.00000000000E+00  0.00000000000E+00  0.30000000000E+02  0.30000000000E+02  0.00000000000E+00 0. -1.
        -11   -1    0    0    0    0 -0.00000000000E+00 -0.00000000000E+00 -0.30000000000E+02  0.30000000000E+02  0.00000000000E+00 0.  1.
          5    1    1    2  501    0 -0.11428706861E+02  0.21788156774E+02 -0.16509720890E+02  0.30000000000E+02  0.47000000000E+01 0.  1.
         -5    1    1    2    0  501  0.11428706861E+02 -0.21788156774E+02  0.16509720890E+02  0.30000000000E+02  0.47000000000E+01 0. -1.
</event>
<event>
 4    1  0.7509957E-002  0.6000000E+02  0.7546771E-02  0.1259629E+00
         11   -1    0    0    0    0  0.00000000000E+00  0.00000000000E+00  0.30000000000E+02  0.30000000000E+02  0.00000000000E+00 0. -1.
        -11   -1    0    0    0    0 -0.00000000000E+00 -0.00000000000E+00 -0.30000000000E+02  0.30000000000E+02  0.00000000000E+00 0.  1.
          5    1    1    2  501    0  0.19118434055E+02  0.11585428800E+02 -0.19446678864E+02  0.30000000000E+02  0.47000000000E+01 0.  1.
         -5    1    1    2    0  501 -0.19118434055E+02 -0.11585428800E+02  0.19446678864E+02  0.30000000000E+02  0.47000000000E+01 0. -1.
</event>
<event>
 4    1  0.7509957E-002  0.6000000E+02  0.7546771E-02  0.1259629E+00
         11   -1    0    0    0    0  0.00000000000E+00  0.00000000000E+00  0.30000000000E+02  0.30000000000E+02  0.00000000000E+00 0.  1.
        -11   -1    0    0    0    0 -0.00000000000E+00 -0.00000000000E+00 -0.30000000000E+02  0.30000000000E+02  0.00000000000E+00 0. -1.
          5    1    1    2  501    0 -0.29346002030E+02 -0.36733341761E+01  0.17968808751E+01  0.30000000000E+02  0.47000000000E+01 0. -1.
         -5    1    1    2    0  501  0.29346002030E+02  0.36733341761E+01 -0.17968808751E+01  0.30000000000E+02  0.47000000000E+01 0.  1.
</event>
<event>
 4    1  0.7509957E-002  0.6000000E+02  0.7546771E-02  0.1259629E+00
         11   -1    0    0    0    0  0.00000000000E+00  0.00000000000E+00  0.30000000000E+02  0.30000000000E+02  0.00000000000E+00 0. -1.
        -11   -1    0    0    0    0 -0.00000000000E+00 -0.00000000000E+00 -0.30000000000E+02  0.30000000000E+02  0.00000000000E+00 0.  1.
          5    1    1    2  501    0 -0.71124254211E+01 -0.19554309502E+02 -0.21093894485E+02  0.30000000000E+02  0.47000000000E+01 0.  1.
         -5    1    1    2    0  501  0.71124254211E+01  0.19554309502E+02  0.21093894485E+02  0.30000000000E+02  0.47000000000E+01 0. -1.
</event>
<event>
 4    1  0.7509957E-002  0.6000000E+02  0.7546771E-02  0.1259629E+00
         11   -1    0    0    0    0  0.00000000000E+00  0.00000000000E+00  0.30000000000E+02  0.30000000000E+02  0.00000000000E+00 0. -1.
        -11   -1    0    0    0    0 -0.00000000000E+00 -0.00000000000E+00 -0.30000000000E+02  0.30000000000E+02  0.00000000000E+00 0.  1.
          5    1    1    2  501    0 -0.15926398757E+02  0.98042236066E+00 -0.24965948703E+02  0.30000000000E+02  0.47000000000E+01 0.  1.
         -5    1    1    2    0  501  0.15926398757E+02 -0.98042236066E+00  0.24965948703E+02  0.30000000000E+02  0.47000000000E+01 0. -1.
</event>
<event>
 4    1  0.7509957E-002  0.6000000E+02  0.7546771E-02  0.1259629E+00
         11   -1    0    0    0    0  0.00000000000E+00  0.00000000000E+00  0.30000000000E+02  0.30000000000E+02  0.00000000000E+00 0. -1.
        -11   -1    0    0    0    0 -0.00000000000E+00 -0.00000000000E+00 -0.30000000000E+02  0.30000000000E+02  0.00000000000E+00 0.  1.
          5    1    1    2  501    0  0.25542335952E+02 -0.66526576505E+01  0.13462585944E+02  0.30000000000E+02  0.47000000000E+01 0. -1.
         -5    1    1    2    0  501 -0.25542335952E+02  0.66526576505E+01 -0.13462585944E+02  0.30000000000E+02  0.47000000000E+01 0.  1.
</event>
<event>
 4    1  0.7509957E-002  0.6000000E+02  0.7546771E-02  0.1259629E+00
         11   -1    0    0    0    0  0.00000000000E+00  0.00000000000E+00  0.30000000000E+02  0.30000000000E+02  0.00000000000E+00 0.  1.
        -11   -1    0    0    0    0 -0.00000000000E+00 -0.00000000000E+00 -0.30000000000E+02  0.30000000000E+02  0.00000000000E+00 0. -1.
          5    1    1    2  501    0 -0.80806774929E+01 -0.22554710395E+02 -0.17432661594E+02  0.30000000000E+02  0.47000000000E+01 0. -1.
         -5    1    1    2    0  501  0.80806774929E+01  0.22554710395E+02  0.17432661594E+02  0.30000000000E+02  0.47000000000E+01 0.  1.
</event>
<event>
 4    1  0.7509957E-002  0.6000000E+02  0.7546771E-02  0.1259629E+00
         11   -1    0    0    0    0  0.00000000000E+00  0.00000000000E+00  0.30000000000E+02  0.30000000000E+02  0.00000000000E+00 0.  1.
        -11   -1    0    0    0    0 -0.00000000000E+00 -0.00000000000E+00 -0.30000000000E+02  0.30000000000E+02  0.00000000000E+00 0. -1.
          5    1    1    2  501    0  0.26431930979E+01  0.14238300185E+02 -0.25849455277E+02  0.30000000000E+02  0.47000000000E+01 0. -1.
         -5    1    1    2    0  501 -0.26431930979E+01 -0.14238300185E+02  0.25849455277E+02  0.30000000000E+02  0.47000000000E+01 0.  1.
</event>
<event>
 4    1  0.7509957E-002  0.6000000E+02  0.7546771E-02  0.1259629E+00
         11   -1    0    0    0    0  0.00000000000E+00  0.00000000000E+00  0.30000000000E+02  0.30000000000E+02  0.00000000000E+00 0.  1.
        -11   -1    0    0    0    0 -0.00000000000E+00 -0.00000000000E+00 -0.30000000000E+02  0.30000000000E+02  0.00000000000E+00 0. -1.
          5    1    1    2  501    0 -0.28810886858E+02 -0.68724813918E+01 -0.78217515021E+00  0.30000000000E+02  0.47000000000E+01 0. -1.
         -5    1    1    2    0  501  0.28810886858E+02  0.68724813918E+01  0.78217515021E+00  0.30000000000E+02  0.47000000000E+01 0.  1.
</event>
<event>
 4    1  0.7509957E-002  0.6000000E+02  0.7546771E-02  0.1259629E+00
         11   -1    0    0    0    0  0.00000000000E+00  0.00000000000E+00  0.30000000000E+02  0.30000000000E+02  0.00000000000E+00 0.  1.
        -11   -1    0    0    0    0 -0.00000000000E+00 -0.00000000000E+00 -0.30000000000E+02  0.30000000000E+02  0.00000000000E+00 0. -1.
          5    1    1    2  501    0 -0.17119399267E+02 -0.21729617224E+02  0.10614136990E+02  0.30000000000E+02  0.47000000000E+01 0.  1.
         -5    1    1    2    0  501  0.17119399267E+02  0.21729617224E+02 -0.10614136990E+02  0.30000000000E+02  0.47000000000E+01 0.  1.
</event>
<event>
 4    1  0.7509957E-002  0.6000000E+02  0.7546771E-02  0.1259629E+00
         11   -1    0    0    0    0  0.00000000000E+00  0.00000000000E+00  0.30000000000E+02  0.30000000000E+02  0.00000000000E+00 0.  1.
        -11   -1    0    0    0    0 -0.00000000000E+00 -0.00000000000E+00 -0.30000000000E+02  0.30000000000E+02  0.00000000000E+00 0. -1.
          5    1    1    2  501    0  0.92768176694E+01  0.15695772345E+02 -0.23355799803E+02  0.30000000000E+02  0.47000000000E+01 0. -1.
         -5    1    1    2    0  501 -0.92768176694E+01 -0.15695772345E+02  0.23355799803E+02  0.30000000000E+02  0.47000000000E+01 0.  1.
</event>
<event>
 4    1  0.7509957E-002  0.6000000E+02  0.7546771E-02  0.1259629E+00
         11   -1    0    0    0    0  0.00000000000E+00  0.00000000000E+00  0.30000000000E+02  0.30000000000E+02  0.00000000000E+00 0. -1.
        -11   -1    0    0    0    0 -0.00000000000E+00 -0.00000000000E+00 -0.30000000000E+02  0.30000000000E+02  0.00000000000E+00 0.  1.
          5    1    1    2  501    0 -0.87621977199E+01 -0.19144995762E+00 -0.28303661212E+02  0.30000000000E+02  0.47000000000E+01 0.  1.
         -5    1    1    2    0  501  0.87621977199E+01  0.19144995762E+00  0.28303661212E+02  0.30000000000E+02  0.47000000000E+01 0. -1.
</event>
<event>
 4    1  0.7509957E-002  0.6000000E+02  0.7546771E-02  0.1259629E+00
         11   -1    0    0    0    0  0.00000000000E+00  0.00000000000E+00  0.30000000000E+02  0.30000000000E+02  0.00000000000E+00 0.  1.
        -11   -1    0    0    0    0 -0.00000000000E+00 -0.00000000000E+00 -0.30000000000E+02  0.30000000000E+02  0.00000000000E+00 0. -1.
          5    1    1    2  501    0 -0.14852470882E+02  0.23446833023E+02  0.10371119992E+02  0.30000000000E+02  0.47000000000E+01 0. -1.
         -5    1    1    2    0  501  0.14852470882E+02 -0.23446833023E+02 -0.10371119992E+02  0.30000000000E+02  0.47000000000E+01 0.  1.
</event>
<event>
 4    1  0.7509957E-002  0.6000000E+02  0.7546771E-02  0.1259629E+00
         11   -1    0    0    0    0  0.00000000000E+00  0.00000000000E+00  0.30000000000E+02  0.30000000000E+02  0.00000000000E+00 0.  1.
        -11   -1    0    0    0    0 -0.00000000000E+00 -0.00000000000E+00 -0.30000000000E+02  0.30000000000E+02  0.00000000000E+00 0. -1.
          5    1    1    2  501    0  0.11642576557E+02 -0.10227247936E+02 -0.25253986037E+02  0.30000000000E+02  0.47000000000E+01 0. -1.
         -5    1    1    2    0  501 -0.11642576557E+02  0.10227247936E+02  0.25253986037E+02  0.30000000000E+02  0.47000000000E+01 0.  1.
</event>
<event>
 4    1  0.7509957E-002  0.6000000E+02  0.7546771E-02  0.1259629E+00
         11   -1    0    0    0    0  0.00000000000E+00  0.00000000000E+00  0.30000000000E+02  0.30000000000E+02  0.00000000000E+00 0. -1.
        -11   -1    0    0    0    0 -0.00000000000E+00 -0.00000000000E+00 -0.30000000000E+02  0.30000000000E+02  0.00000000000E+00 0.  1.
          5    1    1    2  501    0  0.51067006335E+01 -0.47236158766E+01 -0.28801372566E+02  0.30000000000E+02  0.47000000000E+01 0.  1.
         -5    1    1    2    0  501 -0.51067006335E+01  0.47236158766E+01  0.28801372566E+02  0.30000000000E+02  0.47000000000E+01 0. -1.
</event>
<event>
 4    1  0.7509957E-002  0.6000000E+02  0.7546771E-02  0.1259629E+00
         11   -1    0    0    0    0  0.00000000000E+00  0.00000000000E+00  0.30000000000E+02  0.30000000000E+02  0.00000000000E+00 0.  1.
        -11   -1    0    0    0    0 -0.00000000000E+00 -0.00000000000E+00 -0.30000000000E+02  0.30000000000E+02  0.00000000000E+00 0. -1.
          5    1    1    2  501    0  0.20020211827E+02 -0.10631975294E+02  0.19080414559E+02  0.30000000000E+02  0.47000000000E+01 0.  1.
         -5    1    1    2    0  501 -0.20020211827E+02  0.10631975294E+02 -0.19080414559E+02  0.30000000000E+02  0.47000000000E+01 0. -1.
</event>
<event>
 4    1  0.7509957E-002  0.6000000E+02  0.7546771E-02  0.1259629E+00
         11   -1    0    0    0    0  0.00000000000E+00  0.00000000000E+00  0.30000000000E+02  0.30000000000E+02  0.00000000000E+00 0.  1.
        -11   -1    0    0    0    0 -0.00000000000E+00 -0.00000000000E+00 -0.30000000000E+02  0.30000000000E+02  0.00000000000E+00 0. -1.
          5    1    1    2  501    0 -0.16475267477E+02  0.22601661061E+02  0.97795950243E+01  0.30000000000E+02  0.47000000000E+01 0. -1.
         -5    1    1    2    0  501  0.16475267477E+02 -0.22601661061E+02 -0.97795950243E+01  0.30000000000E+02  0.47000000000E+01 0.  1.
</event>
<event>
 4    1  0.7509957E-002  0.6000000E+02  0.7546771E-02  0.1259629E+00
         11   -1    0    0    0    0  0.00000000000E+00  0.00000000000E+00  0.30000000000E+02  0.30000000000E+02  0.00000000000E+00 0.  1.
        -11   -1    0    0    0    0 -0.00000000000E+00 -0.00000000000E+00 -0.30000000000E+02  0.30000000000E+02  0.00000000000E+00 0. -1.
          5    1    1    2  501    0 -0.44503219719E+01 -0.28964487812E+02 -0.43775655469E+01  0.30000000000E+02  0.47000000000E+01 0. -1.
         -5    1    1    2    0  501  0.44503219719E+01  0.28964487812E+02  0.43775655469E+01  0.30000000000E+02  0.47000000000E+01 0.  1.
</event>
<event>
 4    1  0.7509957E-002  0.6000000E+02  0.7546771E-02  0.1259629E+00
         11   -1    0    0    0    0  0.00000000000E+00  0.00000000000E+00  0.30000000000E+02  0.30000000000E+02  0.00000000000E+00 0.  1.
        -11   -1    0    0    0    0 -0.00000000000E+00 -0.00000000000E+00 -0.30000000000E+02  0.30000000000E+02  0.00000000000E+00 0. -1.
          5    1    1    2  501    0  0.16919006132E+02  0.28360288784E+01 -0.24158107784E+02  0.30000000000E+02  0.47000000000E+01 0. -1.
         -5    1    1    2    0  501 -0.16919006132E+02 -0.28360288784E+01  0.24158107784E+02  0.30000000000E+02  0.47000000000E+01 0.  1.
</event>
<event>
 4    1  0.7509957E-002  0.6000000E+02  0.7546771E-02  0.1259629E+00
         11   -1    0    0    0    0  0.00000000000E+00  0.00000000000E+00  0.30000000000E+02  0.30000000000E+02  0.00000000000E+00 0.  1.
        -11   -1    0    0    0    0 -0.00000000000E+00 -0.00000000000E+00 -0.30000000000E+02  0.30000000000E+02  0.00000000000E+00 0. -1.
          5    1    1    2  501    0 -0.60383668707E+00 -0.24681246962E+01 -0.29520395352E+02  0.30000000000E+02  0.47000000000E+01 0. -1.
         -5    1    1    2    0  501  0.60383668707E+00  0.24681246962E+01  0.29520395352E+02  0.30000000000E+02  0.47000000000E+01 0.  1.
</event>
<event>
 4    1  0.7509957E-002  0.6000000E+02  0.7546771E-02  0.1259629E+00
         11   -1    0    0    0    0  0.00000000000E+00  0.00000000000E+00  0.30000000000E+02  0.30000000000E+02  0.00000000000E+00 0. -1.
        -11   -1    0    0    0    0 -0.00000000000E+00 -0.00000000000E+00 -0.30000000000E+02  0.30000000000E+02  0.00000000000E+00 0.  1.
          5    1    1    2  501    0 -0.13091841621E+02  0.25653741159E+02 -0.69569567710E+01  0.30000000000E+02  0.47000000000E+01 0.  1.
         -5    1    1    2    0  501  0.13091841621E+02 -0.25653741159E+02  0.69569567710E+01  0.30000000000E+02  0.47000000000E+01 0. -1.
</event>
<event>
 4    1  0.7509957E-002  0.6000000E+02  0.7546771E-02  0.1259629E+00
         11   -1    0    0    0    0  0.00000000000E+00  0.00000000000E+00  0.30000000000E+02  0.30000000000E+02  0.00000000000E+00 0.  1.
        -11   -1    0    0    0    0 -0.00000000000E+00 -0.00000000000E+00 -0.30000000000E+02  0.30000000000E+02  0.00000000000E+00 0. -1.
          5    1    1    2  501    0  0.13754436260E+02  0.98429189016E+01 -0.24327811876E+02  0.30000000000E+02  0.47000000000E+01 0. -1.
         -5    1    1    2    0  501 -0.13754436260E+02 -0.98429189016E+01  0.24327811876E+02  0.30000000000E+02  0.47000000000E+01 0.  1.
</event>
<event>
 4    1  0.7509957E-002  0.6000000E+02  0.7546771E-02  0.1259629E+00
         11   -1    0    0    0    0  0.00000000000E+00  0.00000000000E+00  0.30000000000E+02  0.30000000000E+02  0.00000000000E+00 0.  1.
        -11   -1    0    0    0    0 -0.00000000000E+00 -0.00000000000E+00 -0.30000000000E+02  0.30000000000E+02  0.00000000000E+00 0. -1.
          5    1    1    2  501    0 -0.19199108727E+02  0.12604814668E+02  0.18719585232E+02  0.30000000000E+02  0.47000000000E+01 0.  1.
         -5    1    1    2    0  501  0.19199108727E+02 -0.12604814668E+02 -0.18719585232E+02  0.30000000000E+02  0.47000000000E+01 0. -1.
</event>
<event>
 4    1  0.7509957E-002  0.6000000E+02  0.7546771E-02  0.1259629E+00
         11   -1    0    0    0    0  0.00000000000E+00  0.00000000000E+00  0.30000000000E+02  0.30000000000E+02  0.00000000000E+00 0.  1.
        -11   -1    0    0    0    0 -0.00000000000E+00 -0.00000000000E+00 -0.30000000000E+02  0.30000000000E+02  0.00000000000E+00 0. -1.
          5    1    1    2  501    0  0.30296885268E+01 -0.21650182381E+02 -0.20000014757E+02  0.30000000000E+02  0.47000000000E+01 0. -1.
         -5    1    1    2    0  501 -0.30296885268E+01  0.21650182381E+02  0.20000014757E+02  0.30000000000E+02  0.47000000000E+01 0.  1.
</event>
<event>
 4    1  0.7509957E-002  0.6000000E+02  0.7546771E-02  0.1259629E+00
         11   -1    0    0    0    0  0.00000000000E+00  0.00000000000E+00  0.30000000000E+02  0.30000000000E+02  0.00000000000E+00 0. -1.
        -11   -1    0    0    0    0 -0.00000000000E+00 -0.00000000000E+00 -0.30000000000E+02  0.30000000000E+02  0.00000000000E+00 0.  1.
          5    1    1    2  501    0 -0.13897718330E+02  0.20187450697E+02 -0.16650233018E+02  0.30000000000E+02  0.47000000000E+01 0.  1.
         -5    1    1    2    0  501  0.13897718330E+02 -0.20187450697E+02  0.16650233018E+02  0.30000000000E+02  0.47000000000E+01 0. -1.
</event>
<event>
 4    1  0.7509957E-002  0.6000000E+02  0.7546771E-02  0.1259629E+00
         11   -1    0    0    0    0  0.00000000000E+00  0.00000000000E+00  0.30000000000E+02  0.30000000000E+02  0.00000000000E+00 0.  1.
        -11   -1    0    0    0    0 -0.00000000000E+00 -0.00000000000E+00 -0.30000000000E+02  0.30000000000E+02  0.00000000000E+00 0. -1.
          5    1    1    2  501    0 -0.29780311142E+01 -0.26839161628E+02 -0.12194291032E+02  0.30000000000E+02  0.47000000000E+01 0. -1.
         -5    1    1    2    0  501  0.29780311142E+01  0.26839161628E+02  0.12194291032E+02  0.30000000000E+02  0.47000000000E+01 0.  1.
</event>
<event>
 4    1  0.7509957E-002  0.6000000E+02  0.7546771E-02  0.1259629E+00
         11   -1    0    0    0    0  0.00000000000E+00  0.00000000000E+00  0.30000000000E+02  0.30000000000E+02  0.00000000000E+00 0.  1.
        -11   -1    0    0    0    0 -0.00000000000E+00 -0.00000000000E+00 -0.30000000000E+02  0.30000000000E+02  0.00000000000E+00 0. -1.
          5    1    1    2  501    0 -0.26049083577E+01  0.21678109846E+02 -0.20029578277E+02  0.30000000000E+02  0.47000000000E+01 0. -1.
         -5    1    1    2    0  501  0.26049083577E+01 -0.21678109846E+02  0.20029578277E+02  0.30000000000E+02  0.47000000000E+01 0.  1.
</event>
<event>
 4    1  0.7509957E-002  0.6000000E+02  0.7546771E-02  0.1259629E+00
         11   -1    0    0    0    0  0.00000000000E+00  0.00000000000E+00  0.30000000000E+02  0.30000000000E+02  0.00000000000E+00 0.  1.
        -11   -1    0    0    0    0 -0.00000000000E+00 -0.00000000000E+00 -0.30000000000E+02  0.30000000000E+02  0.00000000000E+00 0. -1.
          5    1    1    2  501    0  0.28391255219E+01  0.20541438583E+02 -0.21163616591E+02  0.30000000000E+02  0.47000000000E+01 0. -1.
         -5    1    1    2    0  501 -0.28391255219E+01 -0.20541438583E+02  0.21163616591E+02  0.30000000000E+02  0.47000000000E+01 0.  1.
</event>
<event>
 4    1  0.7509957E-002  0.6000000E+02  0.7546771E-02  0.1259629E+00
         11   -1    0    0    0    0  0.00000000000E+00  0.00000000000E+00  0.30000000000E+02  0.30000000000E+02  0.00000000000E+00 0.  1.
        -11   -1    0    0    0    0 -0.00000000000E+00 -0.00000000000E+00 -0.30000000000E+02  0.30000000000E+02  0.00000000000E+00 0. -1.
          5    1    1    2  501    0  0.52204323809E+00  0.24440857991E+02 -0.16741622727E+02  0.30000000000E+02  0.47000000000E+01 0. -1.
         -5    1    1    2    0  501 -0.52204323809E+00 -0.24440857991E+02  0.16741622727E+02  0.30000000000E+02  0.47000000000E+01 0.  1.
</event>
<event>
 4    1  0.7509957E-002  0.6000000E+02  0.7546771E-02  0.1259629E+00
         11   -1    0    0    0    0  0.00000000000E+00  0.00000000000E+00  0.30000000000E+02  0.30000000000E+02  0.00000000000E+00 0.  1.
        -11   -1    0    0    0    0 -0.00000000000E+00 -0.00000000000E+00 -0.30000000000E+02  0.30000000000E+02  0.00000000000E+00 0. -1.
          5    1    1    2  501    0 -0.26255808060E+02 -0.11534675136E+02 -0.74494169312E+01  0.30000000000E+02  0.47000000000E+01 0. -1.
         -5    1    1    2    0  501  0.26255808060E+02  0.11534675136E+02  0.74494169312E+01  0.30000000000E+02  0.47000000000E+01 0.  1.
</event>
<event>
 4    1  0.7509957E-002  0.6000000E+02  0.7546771E-02  0.1259629E+00
         11   -1    0    0    0    0  0.00000000000E+00  0.00000000000E+00  0.30000000000E+02  0.30000000000E+02  0.00000000000E+00 0.  1.
        -11   -1    0    0    0    0 -0.00000000000E+00 -0.00000000000E+00 -0.30000000000E+02  0.30000000000E+02  0.00000000000E+00 0. -1.
          5    1    1    2  501    0 -0.83973312378E+01 -0.18452019361E+02 -0.21608281042E+02  0.30000000000E+02  0.47000000000E+01 0. -1.
         -5    1    1    2    0  501  0.83973312378E+01  0.18452019361E+02  0.21608281042E+02  0.30000000000E+02  0.47000000000E+01 0.  1.
</event>
<event>
 4    1  0.7509957E-002  0.6000000E+02  0.7546771E-02  0.1259629E+00
         11   -1    0    0    0    0  0.00000000000E+00  0.00000000000E+00  0.30000000000E+02  0.30000000000E+02  0.00000000000E+00 0.  1.
        -11   -1    0    0    0    0 -0.00000000000E+00 -0.00000000000E+00 -0.30000000000E+02  0.30000000000E+02  0.00000000000E+00 0. -1.
          5    1    1    2  501    0  0.28010680122E+02 -0.70899967792E+01 -0.65607731851E+01  0.30000000000E+02  0.47000000000E+01 0. -1.
         -5    1    1    2    0  501 -0.28010680122E+02  0.70899967792E+01  0.65607731851E+01  0.30000000000E+02  0.47000000000E+01 0.  1.
</event>
<event>
 4    1  0.7509957E-002  0.6000000E+02  0.7546771E-02  0.1259629E+00
         11   -1    0    0    0    0  0.00000000000E+00  0.00000000000E+00  0.30000000000E+02  0.30000000000E+02  0.00000000000E+00 0.  1.
        -11   -1    0    0    0    0 -0.00000000000E+00 -0.00000000000E+00 -0.30000000000E+02  0.30000000000E+02  0.00000000000E+00 0. -1.
          5    1    1    2  501    0 -0.55554040923E+01 -0.25694659610E+02  0.13668648540E+02  0.30000000000E+02  0.47000000000E+01 0.  1.
         -5    1    1    2    0  501  0.55554040923E+01  0.25694659610E+02 -0.13668648540E+02  0.30000000000E+02  0.47000000000E+01 0. -1.
</event>
<event>
 4    1  0.7509957E-002  0.6000000E+02  0.7546771E-02  0.1259629E+00
         11   -1    0    0    0    0  0.00000000000E+00  0.00000000000E+00  0.30000000000E+02  0.30000000000E+02  0.00000000000E+00 0. -1.
        -11   -1    0    0    0    0 -0.00000000000E+00 -0.00000000000E+00 -0.30000000000E+02  0.30000000000E+02  0.00000000000E+00 0.  1.
          5    1    1    2  501    0  0.12920505553E+02 -0.12046685157E+02 -0.23787557945E+02  0.30000000000E+02  0.47000000000E+01 0.  1.
         -5    1    1    2    0  501 -0.12920505553E+02  0.12046685157E+02  0.23787557945E+02  0.30000000000E+02  0.47000000000E+01 0. -1.
</event>
<event>
 4    1  0.7509957E-002  0.6000000E+02  0.7546771E-02  0.1259629E+00
         11   -1    0    0    0    0  0.00000000000E+00  0.00000000000E+00  0.30000000000E+02  0.30000000000E+02  0.00000000000E+00 0. -1.
        -11   -1    0    0    0    0 -0.00000000000E+00 -0.00000000000E+00 -0.30000000000E+02  0.30000000000E+02  0.00000000000E+00 0.  1.
          5    1    1    2  501    0 -0.18016198119E+02 -0.21363794116E+02 -0.98445368759E+01  0.30000000000E+02  0.47000000000E+01 0. -1.
         -5    1    1    2    0  501  0.18016198119E+02  0.21363794116E+02  0.98445368759E+01  0.30000000000E+02  0.47000000000E+01 0.  1.
</event>
<event>
 4    1  0.7509957E-002  0.6000000E+02  0.7546771E-02  0.1259629E+00
         11   -1    0    0    0    0  0.00000000000E+00  0.00000000000E+00  0.30000000000E+02  0.30000000000E+02  0.00000000000E+00 0.  1.
        -11   -1    0    0    0    0 -0.00000000000E+00 -0.00000000000E+00 -0.30000000000E+02  0.30000000000E+02  0.00000000000E+00 0. -1.
          5    1    1    2  501    0 -0.13812334902E+02  0.25249660000E+02  0.70415960154E+01  0.30000000000E+02  0.47000000000E+01 0.  1.
         -5    1    1    2    0  501  0.13812334902E+02 -0.25249660000E+02 -0.70415960154E+01  0.30000000000E+02  0.47000000000E+01 0. -1.
</event>
<event>
 4    1  0.7509957E-002  0.6000000E+02  0.7546771E-02  0.1259629E+00
         11   -1    0    0    0    0  0.00000000000E+00  0.00000000000E+00  0.30000000000E+02  0.30000000000E+02  0.00000000000E+00 0.  1.
        -11   -1    0    0    0    0 -0.00000000000E+00 -0.00000000000E+00 -0.30000000000E+02  0.30000000000E+02  0.00000000000E+00 0. -1.
          5    1    1    2  501    0 -0.23263997131E+01 -0.28843480159E+02 -0.63680072799E+01  0.30000000000E+02  0.47000000000E+01 0. -1.
         -5    1    1    2    0  501  0.23263997131E+01  0.28843480159E+02  0.63680072799E+01  0.30000000000E+02  0.47000000000E+01 0.  1.
</event>
<event>
 4    1  0.7509957E-002  0.6000000E+02  0.7546771E-02  0.1259629E+00
         11   -1    0    0    0    0  0.00000000000E+00  0.00000000000E+00  0.30000000000E+02  0.30000000000E+02  0.00000000000E+00 0.  1.
        -11   -1    0    0    0    0 -0.00000000000E+00 -0.00000000000E+00 -0.30000000000E+02  0.30000000000E+02  0.00000000000E+00 0. -1.
          5    1    1    2  501    0 -0.10815029069E+02  0.27559486848E+02 -0.11915665743E+01  0.30000000000E+02  0.47000000000E+01 0. -1.
         -5    1    1    2    0  501  0.10815029069E+02 -0.27559486848E+02  0.11915665743E+01  0.30000000000E+02  0.47000000000E+01 0.  1.
</event>
<event>
 4    1  0.7509957E-002  0.6000000E+02  0.7546771E-02  0.1259629E+00
         11   -1    0    0    0    0  0.00000000000E+00  0.00000000000E+00  0.30000000000E+02  0.30000000000E+02  0.00000000000E+00 0. -1.
        -11   -1    0    0    0    0 -0.00000000000E+00 -0.00000000000E+00 -0.30000000000E+02  0.30000000000E+02  0.00000000000E+00 0.  1.
          5    1    1    2  501    0  0.92356878605E+00 -0.65302469020E+01 -0.28886205983E+02  0.30000000000E+02  0.47000000000E+01 0.  1.
         -5    1    1    2    0  501 -0.92356878605E+00  0.65302469020E+01  0.28886205983E+02  0.30000000000E+02  0.47000000000E+01 0. -1.
</event>
<event>
 4    1  0.7509957E-002  0.6000000E+02  0.7546771E-02  0.1259629E+00
         11   -1    0    0    0    0  0.00000000000E+00  0.00000000000E+00  0.30000000000E+02  0.30000000000E+02  0.00000000000E+00 0.  1.
        -11   -1    0    0    0    0 -0.00000000000E+00 -0.00000000000E+00 -0.30000000000E+02  0.30000000000E+02  0.00000000000E+00 0. -1.
          5    1    1    2  501    0  0.20238512453E+02  0.70435335457E+01 -0.20462190715E+02  0.30000000000E+02  0.47000000000E+01 0. -1.
         -5    1    1    2    0  501 -0.20238512453E+02 -0.70435335457E+01  0.20462190715E+02  0.30000000000E+02  0.47000000000E+01 0. -1.
</event>
<event>
 4    1  0.7509957E-002  0.6000000E+02  0.7546771E-02  0.1259629E+00
         11   -1    0    0    0    0  0.00000000000E+00  0.00000000000E+00  0.30000000000E+02  0.30000000000E+02  0.00000000000E+00 0.  1.
        -11   -1    0    0    0    0 -0.00000000000E+00 -0.00000000000E+00 -0.30000000000E+02  0.30000000000E+02  0.00000000000E+00 0. -1.
          5    1    1    2  501    0 -0.27496074282E+02  0.62752076448E+01 -0.90828226928E+01  0.30000000000E+02  0.47000000000E+01 0. -1.
         -5    1    1    2    0  501  0.27496074282E+02 -0.62752076448E+01  0.90828226928E+01  0.30000000000E+02  0.47000000000E+01 0.  1.
</event>
<event>
 4    1  0.7509957E-002  0.6000000E+02  0.7546771E-02  0.1259629E+00
         11   -1    0    0    0    0  0.00000000000E+00  0.00000000000E+00  0.30000000000E+02  0.30000000000E+02  0.00000000000E+00 0.  1.
        -11   -1    0    0    0    0 -0.00000000000E+00 -0.00000000000E+00 -0.30000000000E+02  0.30000000000E+02  0.00000000000E+00 0. -1.
          5    1    1    2  501    0  0.33064968227E+01  0.26639729965E+02 -0.12542004072E+02  0.30000000000E+02  0.47000000000E+01 0. -1.
         -5    1    1    2    0  501 -0.33064968227E+01 -0.26639729965E+02  0.12542004072E+02  0.30000000000E+02  0.47000000000E+01 0.  1.
</event>
<event>
 4    1  0.7509957E-002  0.6000000E+02  0.7546771E-02  0.1259629E+00
         11   -1    0    0    0    0  0.00000000000E+00  0.00000000000E+00  0.30000000000E+02  0.30000000000E+02  0.00000000000E+00 0.  1.
        -11   -1    0    0    0    0 -0.00000000000E+00 -0.00000000000E+00 -0.30000000000E+02  0.30000000000E+02  0.00000000000E+00 0. -1.
          5    1    1    2  501    0  0.40278908622E+01  0.97211544609E+01 -0.27698109162E+02  0.30000000000E+02  0.47000000000E+01 0. -1.
         -5    1    1    2    0  501 -0.40278908622E+01 -0.97211544609E+01  0.27698109162E+02  0.30000000000E+02  0.47000000000E+01 0.  1.
</event>
<event>
 4    1  0.7509957E-002  0.6000000E+02  0.7546771E-02  0.1259629E+00
         11   -1    0    0    0    0  0.00000000000E+00  0.00000000000E+00  0.30000000000E+02  0.30000000000E+02  0.00000000000E+00 0.  1.
        -11   -1    0    0    0    0 -0.00000000000E+00 -0.00000000000E+00 -0.30000000000E+02  0.30000000000E+02  0.00000000000E+00 0. -1.
          5    1    1    2  501    0  0.54731765381E+01  0.12487352780E+02 -0.26306279842E+02  0.30000000000E+02  0.47000000000E+01 0. -1.
         -5    1    1    2    0  501 -0.54731765381E+01 -0.12487352780E+02  0.26306279842E+02  0.30000000000E+02  0.47000000000E+01 0.  1.
</event>
<event>
 4    1  0.7509957E-002  0.6000000E+02  0.7546771E-02  0.1259629E+00
         11   -1    0    0    0    0  0.00000000000E+00  0.00000000000E+00  0.30000000000E+02  0.30000000000E+02  0.00000000000E+00 0. -1.
        -11   -1    0    0    0    0 -0.00000000000E+00 -0.00000000000E+00 -0.30000000000E+02  0.30000000000E+02  0.00000000000E+00 0.  1.
          5    1    1    2  501    0  0.18726301993E+02 -0.13029123773E+02 -0.18907076648E+02  0.30000000000E+02  0.47000000000E+01 0.  1.
         -5    1    1    2    0  501 -0.18726301993E+02  0.13029123773E+02  0.18907076648E+02  0.30000000000E+02  0.47000000000E+01 0. -1.
</event>
<event>
 4    1  0.7509957E-002  0.6000000E+02  0.7546771E-02  0.1259629E+00
         11   -1    0    0    0    0  0.00000000000E+00  0.00000000000E+00  0.30000000000E+02  0.30000000000E+02  0.00000000000E+00 0.  1.
        -11   -1    0    0    0    0 -0.00000000000E+00 -0.00000000000E+00 -0.30000000000E+02  0.30000000000E+02  0.00000000000E+00 0. -1.
          5    1    1    2  501    0 -0.11467275222E+02  0.16920473689E+02 -0.21450155457E+02  0.30000000000E+02  0.47000000000E+01 0. -1.
         -5    1    1    2    0  501  0.11467275222E+02 -0.16920473689E+02  0.21450155457E+02  0.30000000000E+02  0.47000000000E+01 0.  1.
</event>
<event>
 4    1  0.7509957E-002  0.6000000E+02  0.7546771E-02  0.1259629E+00
         11   -1    0    0    0    0  0.00000000000E+00  0.00000000000E+00  0.30000000000E+02  0.30000000000E+02  0.00000000000E+00 0. -1.
        -11   -1    0    0    0    0 -0.00000000000E+00 -0.00000000000E+00 -0.30000000000E+02  0.30000000000E+02  0.00000000000E+00 0.  1.
          5    1    1    2  501    0 -0.11448532371E+02 -0.10590411524E+02 -0.25192941279E+02  0.30000000000E+02  0.47000000000E+01 0.  1.
         -5    1    1    2    0  501  0.11448532371E+02  0.10590411524E+02  0.25192941279E+02  0.30000000000E+02  0.47000000000E+01 0. -1.
</event>
<event>
 4    1  0.7509957E-002  0.6000000E+02  0.7546771E-02  0.1259629E+00
         11   -1    0    0    0    0  0.00000000000E+00  0.00000000000E+00  0.30000000000E+02  0.30000000000E+02  0.00000000000E+00 0.  1.
        -11   -1    0    0    0    0 -0.00000000000E+00 -0.00000000000E+00 -0.30000000000E+02  0.30000000000E+02  0.00000000000E+00 0. -1.
          5    1    1    2  501    0  0.17641410937E+02  0.77684463411E+01 -0.22502041276E+02  0.30000000000E+02  0.47000000000E+01 0. -1.
         -5    1    1    2    0  501 -0.17641410937E+02 -0.77684463411E+01  0.22502041276E+02  0.30000000000E+02  0.47000000000E+01 0.  1.
</event>
<event>
 4    1  0.7509957E-002  0.6000000E+02  0.7546771E-02  0.1259629E+00
         11   -1    0    0    0    0  0.00000000000E+00  0.00000000000E+00  0.30000000000E+02  0.30000000000E+02  0.00000000000E+00 0.  1.
        -11   -1    0    0    0    0 -0.00000000000E+00 -0.00000000000E+00 -0.30000000000E+02  0.30000000000E+02  0.00000000000E+00 0. -1.
          5    1    1    2  501    0  0.92946579869E+01 -0.17772235793E+02  0.21809790641E+02  0.30000000000E+02  0.47000000000E+01 0.  1.
         -5    1    1    2    0  501 -0.92946579869E+01  0.17772235793E+02 -0.21809790641E+02  0.30000000000E+02  0.47000000000E+01 0. -1.
</event>
<event>
 4    1  0.7509957E-002  0.6000000E+02  0.7546771E-02  0.1259629E+00
         11   -1    0    0    0    0  0.00000000000E+00  0.00000000000E+00  0.30000000000E+02  0.30000000000E+02  0.00000000000E+00 0.  1.
        -11   -1    0    0    0    0 -0.00000000000E+00 -0.00000000000E+00 -0.30000000000E+02  0.30000000000E+02  0.00000000000E+00 0. -1.
          5    1    1    2  501    0  0.21933158606E+02  0.10661844775E+02 -0.16827703930E+02  0.30000000000E+02  0.47000000000E+01 0. -1.
         -5    1    1    2    0  501 -0.21933158606E+02 -0.10661844775E+02  0.16827703930E+02  0.30000000000E+02  0.47000000000E+01 0.  1.
</event>
<event>
 4    1  0.7509957E-002  0.6000000E+02  0.7546771E-02  0.1259629E+00
         11   -1    0    0    0    0  0.00000000000E+00  0.00000000000E+00  0.30000000000E+02  0.30000000000E+02  0.00000000000E+00 0. -1.
        -11   -1    0    0    0    0 -0.00000000000E+00 -0.00000000000E+00 -0.30000000000E+02  0.30000000000E+02  0.00000000000E+00 0.  1.
          5    1    1    2  501    0  0.67087792811E+01 -0.24027911024E+01 -0.28759848321E+02  0.30000000000E+02  0.47000000000E+01 0.  1.
         -5    1    1    2    0  501 -0.67087792811E+01  0.24027911024E+01  0.28759848321E+02  0.30000000000E+02  0.47000000000E+01 0. -1.
</event>
<event>
 4    1  0.7509957E-002  0.6000000E+02  0.7546771E-02  0.1259629E+00
         11   -1    0    0    0    0  0.00000000000E+00  0.00000000000E+00  0.30000000000E+02  0.30000000000E+02  0.00000000000E+00 0.  1.
        -11   -1    0    0    0    0 -0.00000000000E+00 -0.00000000000E+00 -0.30000000000E+02  0.30000000000E+02  0.00000000000E+00 0. -1.
          5    1    1    2  501    0  0.14723389144E+00 -0.29620944197E+02  0.69856070508E+00  0.30000000000E+02  0.47000000000E+01 0. -1.
         -5    1    1    2    0  501 -0.14723389144E+00  0.29620944197E+02 -0.69856070508E+00  0.30000000000E+02  0.47000000000E+01 0.  1.
</event>
<event>
 4    1  0.7509957E-002  0.6000000E+02  0.7546771E-02  0.1259629E+00
         11   -1    0    0    0    0  0.00000000000E+00  0.00000000000E+00  0.30000000000E+02  0.30000000000E+02  0.00000000000E+00 0.  1.
        -11   -1    0    0    0    0 -0.00000000000E+00 -0.00000000000E+00 -0.30000000000E+02  0.30000000000E+02  0.00000000000E+00 0. -1.
          5    1    1    2  501    0 -0.16926665612E+02  0.24208783842E+02 -0.23092804358E+01  0.30000000000E+02  0.47000000000E+01 0. -1.
         -5    1    1    2    0  501  0.16926665612E+02 -0.24208783842E+02  0.23092804358E+01  0.30000000000E+02  0.47000000000E+01 0.  1.
</event>
<event>
 4    1  0.7509957E-002  0.6000000E+02  0.7546771E-02  0.1259629E+00
         11   -1    0    0    0    0  0.00000000000E+00  0.00000000000E+00  0.30000000000E+02  0.30000000000E+02  0.00000000000E+00 0.  1.
        -11   -1    0    0    0    0 -0.00000000000E+00 -0.00000000000E+00 -0.30000000000E+02  0.30000000000E+02  0.00000000000E+00 0. -1.
          5    1    1    2  501    0  0.91558760248E+01  0.22156083267E+01 -0.28092187775E+02  0.30000000000E+02  0.47000000000E+01 0. -1.
         -5    1    1    2    0  501 -0.91558760248E+01 -0.22156083267E+01  0.28092187775E+02  0.30000000000E+02  0.47000000000E+01 0.  1.
</event>
<event>
 4    1  0.7509957E-002  0.6000000E+02  0.7546771E-02  0.1259629E+00
         11   -1    0    0    0    0  0.00000000000E+00  0.00000000000E+00  0.30000000000E+02  0.30000000000E+02  0.00000000000E+00 0.  1.
        -11   -1    0    0    0    0 -0.00000000000E+00 -0.00000000000E+00 -0.30000000000E+02  0.30000000000E+02  0.00000000000E+00 0. -1.
          5    1    1    2  501    0  0.14059132360E+02  0.10990123145E+02  0.23653075710E+02  0.30000000000E+02  0.47000000000E+01 0.  1.
         -5    1    1    2    0  501 -0.14059132360E+02 -0.10990123145E+02 -0.23653075710E+02  0.30000000000E+02  0.47000000000E+01 0. -1.
</event>
<event>
 4    1  0.7509957E-002  0.6000000E+02  0.7546771E-02  0.1259629E+00
         11   -1    0    0    0    0  0.00000000000E+00  0.00000000000E+00  0.30000000000E+02  0.30000000000E+02  0.00000000000E+00 0.  1.
        -11   -1    0    0    0    0 -0.00000000000E+00 -0.00000000000E+00 -0.30000000000E+02  0.30000000000E+02  0.00000000000E+00 0. -1.
          5    1    1    2  501    0 -0.28448561150E+02 -0.52266778741E+01 -0.64242670310E+01  0.30000000000E+02  0.47000000000E+01 0. -1.
         -5    1    1    2    0  501  0.28448561150E+02  0.52266778741E+01  0.64242670310E+01  0.30000000000E+02  0.47000000000E+01 0.  1.
</event>
<event>
 4    1  0.7509957E-002  0.6000000E+02  0.7546771E-02  0.1259629E+00
         11   -1    0    0    0    0  0.00000000000E+00  0.00000000000E+00  0.30000000000E+02  0.30000000000E+02  0.00000000000E+00 0. -1.
        -11   -1    0    0    0    0 -0.00000000000E+00 -0.00000000000E+00 -0.30000000000E+02  0.30000000000E+02  0.00000000000E+00 0.  1.
          5    1    1    2  501    0 -0.11788279157E+02 -0.28830863517E+01 -0.27030247642E+02  0.30000000000E+02  0.47000000000E+01 0.  1.
         -5    1    1    2    0  501  0.11788279157E+02  0.28830863517E+01  0.27030247642E+02  0.30000000000E+02  0.47000000000E+01 0. -1.
</event>
<event>
 4    1  0.7509957E-002  0.6000000E+02  0.7546771E-02  0.1259629E+00
         11   -1    0    0    0    0  0.00000000000E+00  0.00000000000E+00  0.30000000000E+02  0.30000000000E+02  0.00000000000E+00 0. -1.
        -11   -1    0    0    0    0 -0.00000000000E+00 -0.00000000000E+00 -0.30000000000E+02  0.30000000000E+02  0.00000000000E+00 0.  1.
          5    1    1    2  501    0 -0.16580209858E+01  0.74935926640E+01 -0.28618298961E+02  0.30000000000E+02  0.47000000000E+01 0.  1.
         -5    1    1    2    0  501  0.16580209858E+01 -0.74935926640E+01  0.28618298961E+02  0.30000000000E+02  0.47000000000E+01 0. -1.
</event>
<event>
 4    1  0.7509957E-002  0.6000000E+02  0.7546771E-02  0.1259629E+00
         11   -1    0    0    0    0  0.00000000000E+00  0.00000000000E+00  0.30000000000E+02  0.30000000000E+02  0.00000000000E+00 0.  1.
        -11   -1    0    0    0    0 -0.00000000000E+00 -0.00000000000E+00 -0.30000000000E+02  0.30000000000E+02  0.00000000000E+00 0. -1.
          5    1    1    2  501    0  0.27033055872E+02 -0.12061026961E+02 -0.12866696757E+01  0.30000000000E+02  0.47000000000E+01 0. -1.
         -5    1    1    2    0  501 -0.27033055872E+02  0.12061026961E+02  0.12866696757E+01  0.30000000000E+02  0.47000000000E+01 0.  1.
</event>
<event>
 4    1  0.7509957E-002  0.6000000E+02  0.7546771E-02  0.1259629E+00
         11   -1    0    0    0    0  0.00000000000E+00  0.00000000000E+00  0.30000000000E+02  0.30000000000E+02  0.00000000000E+00 0.  1.
        -11   -1    0    0    0    0 -0.00000000000E+00 -0.00000000000E+00 -0.30000000000E+02  0.30000000000E+02  0.00000000000E+00 0. -1.
          5    1    1    2  501    0  0.16636206319E+02  0.18105685513E+02 -0.16532718816E+02  0.30000000000E+02  0.47000000000E+01 0. -1.
         -5    1    1    2    0  501 -0.16636206319E+02 -0.18105685513E+02  0.16532718816E+02  0.30000000000E+02  0.47000000000E+01 0.  1.
</event>
<event>
 4    1  0.7509957E-002  0.6000000E+02  0.7546771E-02  0.1259629E+00
         11   -1    0    0    0    0  0.00000000000E+00  0.00000000000E+00  0.30000000000E+02  0.30000000000E+02  0.00000000000E+00 0.  1.
        -11   -1    0    0    0    0 -0.00000000000E+00 -0.00000000000E+00 -0.30000000000E+02  0.30000000000E+02  0.00000000000E+00 0. -1.
          5    1    1    2  501    0  0.62898032199E+01 -0.63909685455E+01 -0.28240111482E+02  0.30000000000E+02  0.47000000000E+01 0. -1.
         -5    1    1    2    0  501 -0.62898032199E+01  0.63909685455E+01  0.28240111482E+02  0.30000000000E+02  0.47000000000E+01 0.  1.
</event>
<event>
 4    1  0.7509957E-002  0.6000000E+02  0.7546771E-02  0.1259629E+00
         11   -1    0    0    0    0  0.00000000000E+00  0.00000000000E+00  0.30000000000E+02  0.30000000000E+02  0.00000000000E+00 0. -1.
        -11   -1    0    0    0    0 -0.00000000000E+00 -0.00000000000E+00 -0.30000000000E+02  0.30000000000E+02  0.00000000000E+00 0.  1.
          5    1    1    2  501    0 -0.18929055295E+01 -0.28202436007E+02 -0.88853537888E+01  0.30000000000E+02  0.47000000000E+01 0.  1.
         -5    1    1    2    0  501  0.18929055295E+01  0.28202436007E+02  0.88853537888E+01  0.30000000000E+02  0.47000000000E+01 0. -1.
</event>
<event>
 4    1  0.7509957E-002  0.6000000E+02  0.7546771E-02  0.1259629E+00
         11   -1    0    0    0    0  0.00000000000E+00  0.00000000000E+00  0.30000000000E+02  0.30000000000E+02  0.00000000000E+00 0.  1.
        -11   -1    0    0    0    0 -0.00000000000E+00 -0.00000000000E+00 -0.30000000000E+02  0.30000000000E+02  0.00000000000E+00 0. -1.
          5    1    1    2  501    0 -0.19659301815E+02  0.59911411908E+01 -0.21343103790E+02  0.30000000000E+02  0.47000000000E+01 0. -1.
         -5    1    1    2    0  501  0.19659301815E+02 -0.59911411908E+01  0.21343103790E+02  0.30000000000E+02  0.47000000000E+01 0.  1.
</event>
<event>
 4    1  0.7509957E-002  0.6000000E+02  0.7546771E-02  0.1259629E+00
         11   -1    0    0    0    0  0.00000000000E+00  0.00000000000E+00  0.30000000000E+02  0.30000000000E+02  0.00000000000E+00 0.  1.
        -11   -1    0    0    0    0 -0.00000000000E+00 -0.00000000000E+00 -0.30000000000E+02  0.30000000000E+02  0.00000000000E+00 0. -1.
          5    1    1    2  501    0 -0.94015971516E+01 -0.28029227846E+02  0.19703698471E+01  0.30000000000E+02  0.47000000000E+01 0. -1.
         -5    1    1    2    0  501  0.94015971516E+01  0.28029227846E+02 -0.19703698471E+01  0.30000000000E+02  0.47000000000E+01 0.  1.
</event>
<event>
 4    1  0.7509957E-002  0.6000000E+02  0.7546771E-02  0.1259629E+00
         11   -1    0    0    0    0  0.00000000000E+00  0.00000000000E+00  0.30000000000E+02  0.30000000000E+02  0.00000000000E+00 0. -1.
        -11   -1    0    0    0    0 -0.00000000000E+00 -0.00000000000E+00 -0.30000000000E+02  0.30000000000E+02  0.00000000000E+00 0.  1.
          5    1    1    2  501    0  0.10096179267E+02 -0.14069660550E+02 -0.24042084274E+02  0.30000000000E+02  0.47000000000E+01 0.  1.
         -5    1    1    2    0  501 -0.10096179267E+02  0.14069660550E+02  0.24042084274E+02  0.30000000000E+02  0.47000000000E+01 0. -1.
</event>
<event>
 4    1  0.7509957E-002  0.6000000E+02  0.7546771E-02  0.1259629E+00
         11   -1    0    0    0    0  0.00000000000E+00  0.00000000000E+00  0.30000000000E+02  0.30000000000E+02  0.00000000000E+00 0. -1.
        -11   -1    0    0    0    0 -0.00000000000E+00 -0.00000000000E+00 -0.30000000000E+02  0.30000000000E+02  0.00000000000E+00 0.  1.
          5    1    1    2  501    0 -0.10768794886E+02  0.27575532341E+02  0.12381731705E+01  0.30000000000E+02  0.47000000000E+01 0.  1.
         -5    1    1    2    0  501  0.10768794886E+02 -0.27575532341E+02 -0.12381731705E+01  0.30000000000E+02  0.47000000000E+01 0. -1.
</event>
<event>
 4    1  0.7509957E-002  0.6000000E+02  0.7546771E-02  0.1259629E+00
         11   -1    0    0    0    0  0.00000000000E+00  0.00000000000E+00  0.30000000000E+02  0.30000000000E+02  0.00000000000E+00 0.  1.
        -11   -1    0    0    0    0 -0.00000000000E+00 -0.00000000000E+00 -0.30000000000E+02  0.30000000000E+02  0.00000000000E+00 0. -1.
          5    1    1    2  501    0  0.80136310454E+01 -0.78382234207E+01 -0.27427248697E+02  0.30000000000E+02  0.47000000000E+01 0. -1.
         -5    1    1    2    0  501 -0.80136310454E+01  0.78382234207E+01  0.27427248697E+02  0.30000000000E+02  0.47000000000E+01 0.  1.
</event>
<event>
 4    1  0.7509957E-002  0.6000000E+02  0.7546771E-02  0.1259629E+00
         11   -1    0    0    0    0  0.00000000000E+00  0.00000000000E+00  0.30000000000E+02  0.30000000000E+02  0.00000000000E+00 0. -1.
        -11   -1    0    0    0    0 -0.00000000000E+00 -0.00000000000E+00 -0.30000000000E+02  0.30000000000E+02  0.00000000000E+00 0.  1.
          5    1    1    2  501    0 -0.29436309339E+02 -0.10008625651E+01 -0.32267579124E+01  0.30000000000E+02  0.47000000000E+01 0.  1.
         -5    1    1    2    0  501  0.29436309339E+02  0.10008625651E+01  0.32267579124E+01  0.30000000000E+02  0.47000000000E+01 0. -1.
</event>
<event>
 4    1  0.7509957E-002  0.6000000E+02  0.7546771E-02  0.1259629E+00
         11   -1    0    0    0    0  0.00000000000E+00  0.00000000000E+00  0.30000000000E+02  0.30000000000E+02  0.00000000000E+00 0.  1.
        -11   -1    0    0    0    0 -0.00000000000E+00 -0.00000000000E+00 -0.30000000000E+02  0.30000000000E+02  0.00000000000E+00 0. -1.
          5    1    1    2  501    0  0.11266919475E+02  0.19870393780E+02 -0.18871512303E+02  0.30000000000E+02  0.47000000000E+01 0. -1.
         -5    1    1    2    0  501 -0.11266919475E+02 -0.19870393780E+02  0.18871512303E+02  0.30000000000E+02  0.47000000000E+01 0.  1.
</event>
<event>
 4    1  0.7509957E-002  0.6000000E+02  0.7546771E-02  0.1259629E+00
         11   -1    0    0    0    0  0.00000000000E+00  0.00000000000E+00  0.30000000000E+02  0.30000000000E+02  0.00000000000E+00 0.  1.
        -11   -1    0    0    0    0 -0.00000000000E+00 -0.00000000000E+00 -0.30000000000E+02  0.30000000000E+02  0.00000000000E+00 0. -1.
          5    1    1    2  501    0 -0.25222465120E+02 -0.11982540955E+02 -0.99073692532E+01  0.30000000000E+02  0.47000000000E+01 0. -1.
         -5    1    1    2    0  501  0.25222465120E+02  0.11982540955E+02  0.99073692532E+01  0.30000000000E+02  0.47000000000E+01 0.  1.
</event>
<event>
 4    1  0.7509957E-002  0.6000000E+02  0.7546771E-02  0.1259629E+00
         11   -1    0    0    0    0  0.00000000000E+00  0.00000000000E+00  0.30000000000E+02  0.30000000000E+02  0.00000000000E+00 0.  1.
        -11   -1    0    0    0    0 -0.00000000000E+00 -0.00000000000E+00 -0.30000000000E+02  0.30000000000E+02  0.00000000000E+00 0. -1.
          5    1    1    2  501    0  0.19300948526E+01  0.19260111009E+02  0.22432852199E+02  0.30000000000E+02  0.47000000000E+01 0.  1.
         -5    1    1    2    0  501 -0.19300948526E+01 -0.19260111009E+02 -0.22432852199E+02  0.30000000000E+02  0.47000000000E+01 0. -1.
</event>
<event>
 4    1  0.7509957E-002  0.6000000E+02  0.7546771E-02  0.1259629E+00
         11   -1    0    0    0    0  0.00000000000E+00  0.00000000000E+00  0.30000000000E+02  0.30000000000E+02  0.00000000000E+00 0.  1.
        -11   -1    0    0    0    0 -0.00000000000E+00 -0.00000000000E+00 -0.30000000000E+02  0.30000000000E+02  0.00000000000E+00 0. -1.
          5    1    1    2  501    0  0.29337837933E+02  0.15041945704E+01  0.38650568025E+01  0.30000000000E+02  0.47000000000E+01 0. -1.
         -5    1    1    2    0  501 -0.29337837933E+02 -0.15041945704E+01 -0.38650568025E+01  0.30000000000E+02  0.47000000000E+01 0.  1.
</event>
<event>
 4    1  0.7509957E-002  0.6000000E+02  0.7546771E-02  0.1259629E+00
         11   -1    0    0    0    0  0.00000000000E+00  0.00000000000E+00  0.30000000000E+02  0.30000000000E+02  0.00000000000E+00 0.  1.
        -11   -1    0    0    0    0 -0.00000000000E+00 -0.00000000000E+00 -0.30000000000E+02  0.30000000000E+02  0.00000000000E+00 0. -1.
          5    1    1    2  501    0  0.97060847454E+01 -0.16883920829E+02 -0.22330139641E+02  0.30000000000E+02  0.47000000000E+01 0. -1.
         -5    1    1    2    0  501 -0.97060847454E+01  0.16883920829E+02  0.22330139641E+02  0.30000000000E+02  0.47000000000E+01 0.  1.
</event>
<event>
 4    1  0.7509957E-002  0.6000000E+02  0.7546771E-02  0.1259629E+00
         11   -1    0    0    0    0  0.00000000000E+00  0.00000000000E+00  0.30000000000E+02  0.30000000000E+02  0.00000000000E+00 0.  1.
        -11   -1    0    0    0    0 -0.00000000000E+00 -0.00000000000E+00 -0.30000000000E+02  0.30000000000E+02  0.00000000000E+00 0. -1.
          5    1    1    2  501    0  0.22557443567E+02 -0.80934829064E+01 -0.17423182091E+02  0.30000000000E+02  0.47000000000E+01 0. -1.
         -5    1    1    2    0  501 -0.22557443567E+02  0.80934829064E+01  0.17423182091E+02  0.30000000000E+02  0.47000000000E+01 0.  1.
</event>
<event>
 4    1  0.7509957E-002  0.6000000E+02  0.7546771E-02  0.1259629E+00
         11   -1    0    0    0    0  0.00000000000E+00  0.00000000000E+00  0.30000000000E+02  0.30000000000E+02  0.00000000000E+00 0.  1.
        -11   -1    0    0    0    0 -0.00000000000E+00 -0.00000000000E+00 -0.30000000000E+02  0.30000000000E+02  0.00000000000E+00 0. -1.
          5    1    1    2  501    0  0.20439975434E+02  0.13197521847E+02 -0.16909843918E+02  0.30000000000E+02  0.47000000000E+01 0. -1.
         -5    1    1    2    0  501 -0.20439975434E+02 -0.13197521847E+02  0.16909843918E+02  0.30000000000E+02  0.47000000000E+01 0.  1.
</event>
<event>
 4    1  0.7509957E-002  0.6000000E+02  0.7546771E-02  0.1259629E+00
         11   -1    0    0    0    0  0.00000000000E+00  0.00000000000E+00  0.30000000000E+02  0.30000000000E+02  0.00000000000E+00 0.  1.
        -11   -1    0    0    0    0 -0.00000000000E+00 -0.00000000000E+00 -0.30000000000E+02  0.30000000000E+02  0.00000000000E+00 0. -1.
          5    1    1    2  501    0 -0.18995594324E+02  0.26751386218E+01 -0.22581431080E+02  0.30000000000E+02  0.47000000000E+01 0. -1.
         -5    1    1    2    0  501  0.18995594324E+02 -0.26751386218E+01  0.22581431080E+02  0.30000000000E+02  0.47000000000E+01 0.  1.
</event>
<event>
 4    1  0.7509957E-002  0.6000000E+02  0.7546771E-02  0.1259629E+00
         11   -1    0    0    0    0  0.00000000000E+00  0.00000000000E+00  0.30000000000E+02  0.30000000000E+02  0.00000000000E+00 0. -1.
        -11   -1    0    0    0    0 -0.00000000000E+00 -0.00000000000E+00 -0.30000000000E+02  0.30000000000E+02  0.00000000000E+00 0.  1.
          5    1    1    2  501    0 -0.55219560581E+00 -0.73756924068E+01 -0.28691536061E+02  0.30000000000E+02  0.47000000000E+01 0.  1.
         -5    1    1    2    0  501  0.55219560581E+00  0.73756924068E+01  0.28691536061E+02  0.30000000000E+02  0.47000000000E+01 0. -1.
</event>
<event>
 4    1  0.7509957E-002  0.6000000E+02  0.7546771E-02  0.1259629E+00
         11   -1    0    0    0    0  0.00000000000E+00  0.00000000000E+00  0.30000000000E+02  0.30000000000E+02  0.00000000000E+00 0.  1.
        -11   -1    0    0    0    0 -0.00000000000E+00 -0.00000000000E+00 -0.30000000000E+02  0.30000000000E+02  0.00000000000E+00 0. -1.
          5    1    1    2  501    0  0.24926969539E+02 -0.16001512669E+02 -0.71258816555E+00  0.30000000000E+02  0.47000000000E+01 0. -1.
         -5    1    1    2    0  501 -0.24926969539E+02  0.16001512669E+02  0.71258816555E+00  0.30000000000E+02  0.47000000000E+01 0.  1.
</event>
<event>
 4    1  0.7509957E-002  0.6000000E+02  0.7546771E-02  0.1259629E+00
         11   -1    0    0    0    0  0.00000000000E+00  0.00000000000E+00  0.30000000000E+02  0.30000000000E+02  0.00000000000E+00 0.  1.
        -11   -1    0    0    0    0 -0.00000000000E+00 -0.00000000000E+00 -0.30000000000E+02  0.30000000000E+02  0.00000000000E+00 0. -1.
          5    1    1    2  501    0 -0.21891151622E+02  0.44491110933E+01 -0.19465171233E+02  0.30000000000E+02  0.47000000000E+01 0. -1.
         -5    1    1    2    0  501  0.21891151622E+02 -0.44491110933E+01  0.19465171233E+02  0.30000000000E+02  0.47000000000E+01 0.  1.
</event>
<event>
 4    1  0.7509957E-002  0.6000000E+02  0.7546771E-02  0.1259629E+00
         11   -1    0    0    0    0  0.00000000000E+00  0.00000000000E+00  0.30000000000E+02  0.30000000000E+02  0.00000000000E+00 0.  1.
        -11   -1    0    0    0    0 -0.00000000000E+00 -0.00000000000E+00 -0.30000000000E+02  0.30000000000E+02  0.00000000000E+00 0. -1.
          5    1    1    2  501    0 -0.48916463200E+00  0.21598243246E+02 -0.20277736724E+02  0.30000000000E+02  0.47000000000E+01 0. -1.
         -5    1    1    2    0  501  0.48916463200E+00 -0.21598243246E+02  0.20277736724E+02  0.30000000000E+02  0.47000000000E+01 0.  1.
</event>
<event>
 4    1  0.7509957E-002  0.6000000E+02  0.7546771E-02  0.1259629E+00
         11   -1    0    0    0    0  0.00000000000E+00  0.00000000000E+00  0.30000000000E+02  0.30000000000E+02  0.00000000000E+00 0.  1.
        -11   -1    0    0    0    0 -0.00000000000E+00 -0.00000000000E+00 -0.30000000000E+02  0.30000000000E+02  0.00000000000E+00 0. -1.
          5    1    1    2  501    0  0.24784002284E+02 -0.15678005263E+02  0.42265094070E+01  0.30000000000E+02  0.47000000000E+01 0. -1.
         -5    1    1    2    0  501 -0.24784002284E+02  0.15678005263E+02 -0.42265094070E+01  0.30000000000E+02  0.47000000000E+01 0.  1.
</event>
<event>
 4    1  0.7509957E-002  0.6000000E+02  0.7546771E-02  0.1259629E+00
         11   -1    0    0    0    0  0.00000000000E+00  0.00000000000E+00  0.30000000000E+02  0.30000000000E+02  0.00000000000E+00 0.  1.
        -11   -1    0    0    0    0 -0.00000000000E+00 -0.00000000000E+00 -0.30000000000E+02  0.30000000000E+02  0.00000000000E+00 0. -1.
          5    1    1    2  501    0  0.28120947252E+02 -0.90160728752E+01  0.24151098383E+01  0.30000000000E+02  0.47000000000E+01 0. -1.
         -5    1    1    2    0  501 -0.28120947252E+02  0.90160728752E+01 -0.24151098383E+01  0.30000000000E+02  0.47000000000E+01 0.  1.
</event>
<event>
 4    1  0.7509957E-002  0.6000000E+02  0.7546771E-02  0.1259629E+00
         11   -1    0    0    0    0  0.00000000000E+00  0.00000000000E+00  0.30000000000E+02  0.30000000000E+02  0.00000000000E+00 0.  1.
        -11   -1    0    0    0    0 -0.00000000000E+00 -0.00000000000E+00 -0.30000000000E+02  0.30000000000E+02  0.00000000000E+00 0. -1.
          5    1    1    2  501    0 -0.22592565894E+02 -0.45852511700E+01  0.18613474636E+02  0.30000000000E+02  0.47000000000E+01 0.  1.
         -5    1    1    2    0  501  0.22592565894E+02  0.45852511700E+01 -0.18613474636E+02  0.30000000000E+02  0.47000000000E+01 0. -1.
</event>
<event>
 4    1  0.7509957E-002  0.6000000E+02  0.7546771E-02  0.1259629E+00
         11   -1    0    0    0    0  0.00000000000E+00  0.00000000000E+00  0.30000000000E+02  0.30000000000E+02  0.00000000000E+00 0. -1.
        -11   -1    0    0    0    0 -0.00000000000E+00 -0.00000000000E+00 -0.30000000000E+02  0.30000000000E+02  0.00000000000E+00 0.  1.
          5    1    1    2  501    0 -0.10102290950E+02  0.27356959879E+02  0.52393190148E+01  0.30000000000E+02  0.47000000000E+01 0.  1.
         -5    1    1    2    0  501  0.10102290950E+02 -0.27356959879E+02 -0.52393190148E+01  0.30000000000E+02  0.47000000000E+01 0. -1.
</event>
<event>
 4    1  0.7509957E-002  0.6000000E+02  0.7546771E-02  0.1259629E+00
         11   -1    0    0    0    0  0.00000000000E+00  0.00000000000E+00  0.30000000000E+02  0.30000000000E+02  0.00000000000E+00 0.  1.
        -11   -1    0    0    0    0 -0.00000000000E+00 -0.00000000000E+00 -0.30000000000E+02  0.30000000000E+02  0.00000000000E+00 0. -1.
          5    1    1    2  501    0  0.52265331153E+01  0.64606700763E+01 -0.28440342715E+02  0.30000000000E+02  0.47000000000E+01 0. -1.
         -5    1    1    2    0  501 -0.52265331153E+01 -0.64606700763E+01  0.28440342715E+02  0.30000000000E+02  0.47000000000E+01 0.  1.
</event>
<event>
 4    1  0.7509957E-002  0.6000000E+02  0.7546771E-02  0.1259629E+00
         11   -1    0    0    0    0  0.00000000000E+00  0.00000000000E+00  0.30000000000E+02  0.30000000000E+02  0.00000000000E+00 0.  1.
        -11   -1    0    0    0    0 -0.00000000000E+00 -0.00000000000E+00 -0.30000000000E+02  0.30000000000E+02  0.00000000000E+00 0. -1.
          5    1    1    2  501    0  0.34406632369E+01  0.24166093954E+02 -0.16794991501E+02  0.30000000000E+02  0.47000000000E+01 0. -1.
         -5    1    1    2    0  501 -0.34406632369E+01 -0.24166093954E+02  0.16794991501E+02  0.30000000000E+02  0.47000000000E+01 0.  1.
</event>
<event>
 4    1  0.7509957E-002  0.6000000E+02  0.7546771E-02  0.1259629E+00
         11   -1    0    0    0    0  0.00000000000E+00  0.00000000000E+00  0.30000000000E+02  0.30000000000E+02  0.00000000000E+00 0.  1.
        -11   -1    0    0    0    0 -0.00000000000E+00 -0.00000000000E+00 -0.30000000000E+02  0.30000000000E+02  0.00000000000E+00 0. -1.
          5    1    1    2  501    0  0.78545916581E+01  0.27118498188E+02 -0.89890180727E+01  0.30000000000E+02  0.47000000000E+01 0. -1.
         -5    1    1    2    0  501 -0.78545916581E+01 -0.27118498188E+02  0.89890180727E+01  0.30000000000E+02  0.47000000000E+01 0.  1.
</event>
<event>
 4    1  0.7509957E-002  0.6000000E+02  0.7546771E-02  0.1259629E+00
         11   -1    0    0    0    0  0.00000000000E+00  0.00000000000E+00  0.30000000000E+02  0.30000000000E+02  0.00000000000E+00 0. -1.
        -11   -1    0    0    0    0 -0.00000000000E+00 -0.00000000000E+00 -0.30000000000E+02  0.30000000000E+02  0.00000000000E+00 0.  1.
          5    1    1    2  501    0  0.73220582433E+01  0.13967624915E+02 -0.25083917504E+02  0.30000000000E+02  0.47000000000E+01 0.  1.
         -5    1    1    2    0  501 -0.73220582433E+01 -0.13967624915E+02  0.25083917504E+02  0.30000000000E+02  0.47000000000E+01 0. -1.
</event>
<event>
 4    1  0.7509957E-002  0.6000000E+02  0.7546771E-02  0.1259629E+00
         11   -1    0    0    0    0  0.00000000000E+00  0.00000000000E+00  0.30000000000E+02  0.30000000000E+02  0.00000000000E+00 0.  1.
        -11   -1    0    0    0    0 -0.00000000000E+00 -0.00000000000E+00 -0.30000000000E+02  0.30000000000E+02  0.00000000000E+00 0. -1.
          5    1    1    2  501    0 -0.62356743140E+01  0.26981972971E+02  0.10535630046E+02  0.30000000000E+02  0.47000000000E+01 0.  1.
         -5    1    1    2    0  501  0.62356743140E+01 -0.26981972971E+02 -0.10535630046E+02  0.30000000000E+02  0.47000000000E+01 0. -1.
</event>
<event>
 4    1  0.7509957E-002  0.6000000E+02  0.7546771E-02  0.1259629E+00
         11   -1    0    0    0    0  0.00000000000E+00  0.00000000000E+00  0.30000000000E+02  0.30000000000E+02  0.00000000000E+00 0.  1.
        -11   -1    0    0    0    0 -0.00000000000E+00 -0.00000000000E+00 -0.30000000000E+02  0.30000000000E+02  0.00000000000E+00 0. -1.
          5    1    1    2  501    0  0.28667759324E+02 -0.72788262709E+01  0.17573455746E+01  0.30000000000E+02  0.47000000000E+01 0. -1.
         -5    1    1    2    0  501 -0.28667759324E+02  0.72788262709E+01 -0.17573455746E+01  0.30000000000E+02  0.47000000000E+01 0.  1.
</event>
<event>
 4    1  0.7509957E-002  0.6000000E+02  0.7546771E-02  0.1259629E+00
         11   -1    0    0    0    0  0.00000000000E+00  0.00000000000E+00  0.30000000000E+02  0.30000000000E+02  0.00000000000E+00 0.  1.
        -11   -1    0    0    0    0 -0.00000000000E+00 -0.00000000000E+00 -0.30000000000E+02  0.30000000000E+02  0.00000000000E+00 0. -1.
          5    1    1    2  501    0 -0.13593157810E+01  0.28983993881E+02 -0.59991965575E+01  0.30000000000E+02  0.47000000000E+01 0. -1.
         -5    1    1    2    0  501  0.13593157810E+01 -0.28983993881E+02  0.59991965575E+01  0.30000000000E+02  0.47000000000E+01 0.  1.
</event>
<event>
 4    1  0.7509957E-002  0.6000000E+02  0.7546771E-02  0.1259629E+00
         11   -1    0    0    0    0  0.00000000000E+00  0.00000000000E+00  0.30000000000E+02  0.30000000000E+02  0.00000000000E+00 0. -1.
        -11   -1    0    0    0    0 -0.00000000000E+00 -0.00000000000E+00 -0.30000000000E+02  0.30000000000E+02  0.00000000000E+00 0.  1.
          5    1    1    2  501    0 -0.29423051750E+02 -0.32199462061E+01  0.13512853787E+01  0.30000000000E+02  0.47000000000E+01 0.  1.
         -5    1    1    2    0  501  0.29423051750E+02  0.32199462061E+01 -0.13512853787E+01  0.30000000000E+02  0.47000000000E+01 0. -1.
</event>
<event>
 4    1  0.7509957E-002  0.6000000E+02  0.7546771E-02  0.1259629E+00
         11   -1    0    0    0    0  0.00000000000E+00  0.00000000000E+00  0.30000000000E+02  0.30000000000E+02  0.00000000000E+00 0.  1.
        -11   -1    0    0    0    0 -0.00000000000E+00 -0.00000000000E+00 -0.30000000000E+02  0.30000000000E+02  0.00000000000E+00 0. -1.
          5    1    1    2  501    0  0.10885278210E+00 -0.71268949270E+01 -0.28759442272E+02  0.30000000000E+02  0.47000000000E+01 0. -1.
         -5    1    1    2    0  501 -0.10885278210E+00  0.71268949270E+01  0.28759442272E+02  0.30000000000E+02  0.47000000000E+01 0.  1.
</event>
<event>
 4    1  0.7509957E-002  0.6000000E+02  0.7546771E-02  0.1259629E+00
         11   -1    0    0    0    0  0.00000000000E+00  0.00000000000E+00  0.30000000000E+02  0.30000000000E+02  0.00000000000E+00 0.  1.
        -11   -1    0    0    0    0 -0.00000000000E+00 -0.00000000000E+00 -0.30000000000E+02  0.30000000000E+02  0.00000000000E+00 0. -1.
          5    1    1    2  501    0  0.78711045753E+01 -0.38820104742E+01 -0.28299924160E+02  0.30000000000E+02  0.47000000000E+01 0. -1.
         -5    1    1    2    0  501 -0.78711045753E+01  0.38820104742E+01  0.28299924160E+02  0.30000000000E+02  0.47000000000E+01 0.  1.
</event>
<event>
 4    1  0.7509957E-002  0.6000000E+02  0.7546771E-02  0.1259629E+00
         11   -1    0    0    0    0  0.00000000000E+00  0.00000000000E+00  0.30000000000E+02  0.30000000000E+02  0.00000000000E+00 0.  1.
        -11   -1    0    0    0    0 -0.00000000000E+00 -0.00000000000E+00 -0.30000000000E+02  0.30000000000E+02  0.00000000000E+00 0. -1.
          5    1    1    2  501    0  0.10800956886E+02 -0.25449088706E+02  0.10658011746E+02  0.30000000000E+02  0.47000000000E+01 0. -1.
         -5    1    1    2    0  501 -0.10800956886E+02  0.25449088706E+02 -0.10658011746E+02  0.30000000000E+02  0.47000000000E+01 0.  1.
</event>
<event>
 4    1  0.7509957E-002  0.6000000E+02  0.7546771E-02  0.1259629E+00
         11   -1    0    0    0    0  0.00000000000E+00  0.00000000000E+00  0.30000000000E+02  0.30000000000E+02  0.00000000000E+00 0. -1.
        -11   -1    0    0    0    0 -0.00000000000E+00 -0.00000000000E+00 -0.30000000000E+02  0.30000000000E+02  0.00000000000E+00 0.  1.
          5    1    1    2  501    0  0.59287306028E+01  0.20166200951E+02 -0.20882636152E+02  0.30000000000E+02  0.47000000000E+01 0.  1.
         -5    1    1    2    0  501 -0.59287306028E+01 -0.20166200951E+02  0.20882636152E+02  0.30000000000E+02  0.47000000000E+01 0. -1.
</event>
<event>
 4    1  0.7509957E-002  0.6000000E+02  0.7546771E-02  0.1259629E+00
         11   -1    0    0    0    0  0.00000000000E+00  0.00000000000E+00  0.30000000000E+02  0.30000000000E+02  0.00000000000E+00 0.  1.
        -11   -1    0    0    0    0 -0.00000000000E+00 -0.00000000000E+00 -0.30000000000E+02  0.30000000000E+02  0.00000000000E+00 0. -1.
          5    1    1    2  501    0 -0.23624899264E+02 -0.17842140506E+02 -0.11967275868E+01  0.30000000000E+02  0.47000000000E+01 0. -1.
         -5    1    1    2    0  501  0.23624899264E+02  0.17842140506E+02  0.11967275868E+01  0.30000000000E+02  0.47000000000E+01 0.  1.
</event>
<event>
 4    1  0.7509957E-002  0.6000000E+02  0.7546771E-02  0.1259629E+00
         11   -1    0    0    0    0  0.00000000000E+00  0.00000000000E+00  0.30000000000E+02  0.30000000000E+02  0.00000000000E+00 0.  1.
        -11   -1    0    0    0    0 -0.00000000000E+00 -0.00000000000E+00 -0.30000000000E+02  0.30000000000E+02  0.00000000000E+00 0. -1.
          5    1    1    2  501    0 -0.13853519451E+02 -0.11548677247E+02 -0.23507829604E+02  0.30000000000E+02  0.47000000000E+01 0. -1.
         -5    1    1    2    0  501  0.13853519451E+02  0.11548677247E+02  0.23507829604E+02  0.30000000000E+02  0.47000000000E+01 0.  1.
</event>
<event>
 4    1  0.7509957E-002  0.6000000E+02  0.7546771E-02  0.1259629E+00
         11   -1    0    0    0    0  0.00000000000E+00  0.00000000000E+00  0.30000000000E+02  0.30000000000E+02  0.00000000000E+00 0. -1.
        -11   -1    0    0    0    0 -0.00000000000E+00 -0.00000000000E+00 -0.30000000000E+02  0.30000000000E+02  0.00000000000E+00 0.  1.
          5    1    1    2  501    0 -0.23055783005E+01 -0.13984297649E+02 -0.26019871790E+02  0.30000000000E+02  0.47000000000E+01 0.  1.
         -5    1    1    2    0  501  0.23055783005E+01  0.13984297649E+02  0.26019871790E+02  0.30000000000E+02  0.47000000000E+01 0. -1.
</event>
<event>
 4    1  0.7509957E-002  0.6000000E+02  0.7546771E-02  0.1259629E+00
         11   -1    0    0    0    0  0.00000000000E+00  0.00000000000E+00  0.30000000000E+02  0.30000000000E+02  0.00000000000E+00 0. -1.
        -11   -1    0    0    0    0 -0.00000000000E+00 -0.00000000000E+00 -0.30000000000E+02  0.30000000000E+02  0.00000000000E+00 0.  1.
          5    1    1    2  501    0  0.13000563296E+02 -0.65122425734E-01 -0.26625009165E+02  0.30000000000E+02  0.47000000000E+01 0.  1.
         -5    1    1    2    0  501 -0.13000563296E+02  0.65122425734E-01  0.26625009165E+02  0.30000000000E+02  0.47000000000E+01 0. -1.
</event>
<event>
 4    1  0.7509957E-002  0.6000000E+02  0.7546771E-02  0.1259629E+00
         11   -1    0    0    0    0  0.00000000000E+00  0.00000000000E+00  0.30000000000E+02  0.30000000000E+02  0.00000000000E+00 0.  1.
        -11   -1    0    0    0    0 -0.00000000000E+00 -0.00000000000E+00 -0.30000000000E+02  0.30000000000E+02  0.00000000000E+00 0. -1.
          5    1    1    2  501    0 -0.65797254258E+01  0.19195655319E+02 -0.21590368922E+02  0.30000000000E+02  0.47000000000E+01 0. -1.
         -5    1    1    2    0  501  0.65797254258E+01 -0.19195655319E+02  0.21590368922E+02  0.30000000000E+02  0.47000000000E+01 0.  1.
</event>
<event>
 4    1  0.7509957E-002  0.6000000E+02  0.7546771E-02  0.1259629E+00
         11   -1    0    0    0    0  0.00000000000E+00  0.00000000000E+00  0.30000000000E+02  0.30000000000E+02  0.00000000000E+00 0.  1.
        -11   -1    0    0    0    0 -0.00000000000E+00 -0.00000000000E+00 -0.30000000000E+02  0.30000000000E+02  0.00000000000E+00 0. -1.
          5    1    1    2  501    0 -0.10760426432E+02 -0.84586660371E+01 -0.26278778356E+02  0.30000000000E+02  0.47000000000E+01 0. -1.
         -5    1    1    2    0  501  0.10760426432E+02  0.84586660371E+01  0.26278778356E+02  0.30000000000E+02  0.47000000000E+01 0.  1.
</event>
<event>
 4    1  0.7509957E-002  0.6000000E+02  0.7546771E-02  0.1259629E+00
         11   -1    0    0    0    0  0.00000000000E+00  0.00000000000E+00  0.30000000000E+02  0.30000000000E+02  0.00000000000E+00 0.  1.
        -11   -1    0    0    0    0 -0.00000000000E+00 -0.00000000000E+00 -0.30000000000E+02  0.30000000000E+02  0.00000000000E+00 0. -1.
          5    1    1    2  501    0 -0.16315748138E+01 -0.29537103743E+02 -0.16755494845E+01  0.30000000000E+02  0.47000000000E+01 0. -1.
         -5    1    1    2    0  501  0.16315748138E+01  0.29537103743E+02  0.16755494845E+01  0.30000000000E+02  0.47000000000E+01 0.  1.
</event>
<event>
 4    1  0.7509957E-002  0.6000000E+02  0.7546771E-02  0.1259629E+00
         11   -1    0    0    0    0  0.00000000000E+00  0.00000000000E+00  0.30000000000E+02  0.30000000000E+02  0.00000000000E+00 0.  1.
        -11   -1    0    0    0    0 -0.00000000000E+00 -0.00000000000E+00 -0.30000000000E+02  0.30000000000E+02  0.00000000000E+00 0. -1.
          5    1    1    2  501    0  0.35030403123E+01 -0.27492039433E+02 -0.10479812804E+02  0.30000000000E+02  0.47000000000E+01 0. -1.
         -5    1    1    2    0  501 -0.35030403123E+01  0.27492039433E+02  0.10479812804E+02  0.30000000000E+02  0.47000000000E+01 0.  1.
</event>
<event>
 4    1  0.7509957E-002  0.6000000E+02  0.7546771E-02  0.1259629E+00
         11   -1    0    0    0    0  0.00000000000E+00  0.00000000000E+00  0.30000000000E+02  0.30000000000E+02  0.00000000000E+00 0.  1.
        -11   -1    0    0    0    0 -0.00000000000E+00 -0.00000000000E+00 -0.30000000000E+02  0.30000000000E+02  0.00000000000E+00 0. -1.
          5    1    1    2  501    0  0.24825618372E+02  0.15334363529E+02 -0.51435364899E+01  0.30000000000E+02  0.47000000000E+01 0. -1.
         -5    1    1    2    0  501 -0.24825618372E+02 -0.15334363529E+02  0.51435364899E+01  0.30000000000E+02  0.47000000000E+01 0.  1.
</event>
<event>
 4    1  0.7509957E-002  0.6000000E+02  0.7546771E-02  0.1259629E+00
         11   -1    0    0    0    0  0.00000000000E+00  0.00000000000E+00  0.30000000000E+02  0.30000000000E+02  0.00000000000E+00 0.  1.
        -11   -1    0    0    0    0 -0.00000000000E+00 -0.00000000000E+00 -0.30000000000E+02  0.30000000000E+02  0.00000000000E+00 0. -1.
          5    1    1    2  501    0  0.83714390789E+01  0.28029835407E+02 -0.47071578265E+01  0.30000000000E+02  0.47000000000E+01 0. -1.
         -5    1    1    2    0  501 -0.83714390789E+01 -0.28029835407E+02  0.47071578265E+01  0.30000000000E+02  0.47000000000E+01 0.  1.
</event>
<event>
 4    1  0.7509957E-002  0.6000000E+02  0.7546771E-02  0.1259629E+00
         11   -1    0    0    0    0  0.00000000000E+00  0.00000000000E+00  0.30000000000E+02  0.30000000000E+02  0.00000000000E+00 0.  1.
        -11   -1    0    0    0    0 -0.00000000000E+00 -0.00000000000E+00 -0.30000000000E+02  0.30000000000E+02  0.00000000000E+00 0. -1.
          5    1    1    2  501    0 -0.17867840325E+01  0.29531385518E+02 -0.16169948002E+01  0.30000000000E+02  0.47000000000E+01 0. -1.
         -5    1    1    2    0  501  0.17867840325E+01 -0.29531385518E+02  0.16169948002E+01  0.30000000000E+02  0.47000000000E+01 0.  1.
</event>
<event>
 4    1  0.7509957E-002  0.6000000E+02  0.7546771E-02  0.1259629E+00
         11   -1    0    0    0    0  0.00000000000E+00  0.00000000000E+00  0.30000000000E+02  0.30000000000E+02  0.00000000000E+00 0.  1.
        -11   -1    0    0    0    0 -0.00000000000E+00 -0.00000000000E+00 -0.30000000000E+02  0.30000000000E+02  0.00000000000E+00 0. -1.
          5    1    1    2  501    0  0.13922426524E+02 -0.11818280082E+02 -0.23332472985E+02  0.30000000000E+02  0.47000000000E+01 0. -1.
         -5    1    1    2    0  501 -0.13922426524E+02  0.11818280082E+02  0.23332472985E+02  0.30000000000E+02  0.47000000000E+01 0.  1.
</event>
<event>
 4    1  0.7509957E-002  0.6000000E+02  0.7546771E-02  0.1259629E+00
         11   -1    0    0    0    0  0.00000000000E+00  0.00000000000E+00  0.30000000000E+02  0.30000000000E+02  0.00000000000E+00 0.  1.
        -11   -1    0    0    0    0 -0.00000000000E+00 -0.00000000000E+00 -0.30000000000E+02  0.30000000000E+02  0.00000000000E+00 0. -1.
          5    1    1    2  501    0 -0.11397720402E+02  0.23829406803E+02 -0.13422419345E+02  0.30000000000E+02  0.47000000000E+01 0. -1.
         -5    1    1    2    0  501  0.11397720402E+02 -0.23829406803E+02  0.13422419345E+02  0.30000000000E+02  0.47000000000E+01 0.  1.
</event>
<event>
 4    1  0.7509957E-002  0.6000000E+02  0.7546771E-02  0.1259629E+00
         11   -1    0    0    0    0  0.00000000000E+00  0.00000000000E+00  0.30000000000E+02  0.30000000000E+02  0.00000000000E+00 0.  1.
        -11   -1    0    0    0    0 -0.00000000000E+00 -0.00000000000E+00 -0.30000000000E+02  0.30000000000E+02  0.00000000000E+00 0. -1.
          5    1    1    2  501    0  0.20548970205E+02 -0.21345622778E+02 -0.11921285219E+00  0.30000000000E+02  0.47000000000E+01 0. -1.
         -5    1    1    2    0  501 -0.20548970205E+02  0.21345622778E+02  0.11921285219E+00  0.30000000000E+02  0.47000000000E+01 0.  1.
</event>
<event>
 4    1  0.7509957E-002  0.6000000E+02  0.7546771E-02  0.1259629E+00
         11   -1    0    0    0    0  0.00000000000E+00  0.00000000000E+00  0.30000000000E+02  0.30000000000E+02  0.00000000000E+00 0.  1.
        -11   -1    0    0    0    0 -0.00000000000E+00 -0.00000000000E+00 -0.30000000000E+02  0.30000000000E+02  0.00000000000E+00 0. -1.
          5    1    1    2  501    0 -0.47958235700E+01 -0.28370975088E+02 -0.70709157017E+01  0.30000000000E+02  0.47000000000E+01 0. -1.
         -5    1    1    2    0  501  0.47958235700E+01  0.28370975088E+02  0.70709157017E+01  0.30000000000E+02  0.47000000000E+01 0.  1.
</event>
<event>
 4    1  0.7509957E-002  0.6000000E+02  0.7546771E-02  0.1259629E+00
         11   -1    0    0    0    0  0.00000000000E+00  0.00000000000E+00  0.30000000000E+02  0.30000000000E+02  0.00000000000E+00 0.  1.
        -11   -1    0    0    0    0 -0.00000000000E+00 -0.00000000000E+00 -0.30000000000E+02  0.30000000000E+02  0.00000000000E+00 0. -1.
          5    1    1    2  501    0  0.75718214608E+01 -0.14485178810E+02 -0.24713500655E+02  0.30000000000E+02  0.47000000000E+01 0. -1.
         -5    1    1    2    0  501 -0.75718214608E+01  0.14485178810E+02  0.24713500655E+02  0.30000000000E+02  0.47000000000E+01 0.  1.
</event>
<event>
 4    1  0.7509957E-002  0.6000000E+02  0.7546771E-02  0.1259629E+00
         11   -1    0    0    0    0  0.00000000000E+00  0.00000000000E+00  0.30000000000E+02  0.30000000000E+02  0.00000000000E+00 0.  1.
        -11   -1    0    0    0    0 -0.00000000000E+00 -0.00000000000E+00 -0.30000000000E+02  0.30000000000E+02  0.00000000000E+00 0. -1.
          5    1    1    2  501    0 -0.67915778328E+01 -0.11291959717E+02 -0.26538201075E+02  0.30000000000E+02  0.47000000000E+01 0. -1.
         -5    1    1    2    0  501  0.67915778328E+01  0.11291959717E+02  0.26538201075E+02  0.30000000000E+02  0.47000000000E+01 0.  1.
</event>
<event>
 4    1  0.7509957E-002  0.6000000E+02  0.7546771E-02  0.1259629E+00
         11   -1    0    0    0    0  0.00000000000E+00  0.00000000000E+00  0.30000000000E+02  0.30000000000E+02  0.00000000000E+00 0. -1.
        -11   -1    0    0    0    0 -0.00000000000E+00 -0.00000000000E+00 -0.30000000000E+02  0.30000000000E+02  0.00000000000E+00 0.  1.
          5    1    1    2  501    0  0.10670995091E+01  0.23823640566E+02 -0.17584238648E+02  0.30000000000E+02  0.47000000000E+01 0.  1.
         -5    1    1    2    0  501 -0.10670995091E+01 -0.23823640566E+02  0.17584238648E+02  0.30000000000E+02  0.47000000000E+01 0. -1.
</event>
<event>
 4    1  0.7509957E-002  0.6000000E+02  0.7546771E-02  0.1259629E+00
         11   -1    0    0    0    0  0.00000000000E+00  0.00000000000E+00  0.30000000000E+02  0.30000000000E+02  0.00000000000E+00 0.  1.
        -11   -1    0    0    0    0 -0.00000000000E+00 -0.00000000000E+00 -0.30000000000E+02  0.30000000000E+02  0.00000000000E+00 0. -1.
          5    1    1    2  501    0 -0.76529668830E+01  0.28510243109E+02 -0.25511048058E+01  0.30000000000E+02  0.47000000000E+01 0. -1.
         -5    1    1    2    0  501  0.76529668830E+01 -0.28510243109E+02  0.25511048058E+01  0.30000000000E+02  0.47000000000E+01 0.  1.
</event>
<event>
 4    1  0.7509957E-002  0.6000000E+02  0.7546771E-02  0.1259629E+00
         11   -1    0    0    0    0  0.00000000000E+00  0.00000000000E+00  0.30000000000E+02  0.30000000000E+02  0.00000000000E+00 0.  1.
        -11   -1    0    0    0    0 -0.00000000000E+00 -0.00000000000E+00 -0.30000000000E+02  0.30000000000E+02  0.00000000000E+00 0. -1.
          5    1    1    2  501    0 -0.70464236101E+01 -0.80740581769E+01 -0.27623676418E+02  0.30000000000E+02  0.47000000000E+01 0. -1.
         -5    1    1    2    0  501  0.70464236101E+01  0.80740581769E+01  0.27623676418E+02  0.30000000000E+02  0.47000000000E+01 0.  1.
</event>
<event>
 4    1  0.7509957E-002  0.6000000E+02  0.7546771E-02  0.1259629E+00
         11   -1    0    0    0    0  0.00000000000E+00  0.00000000000E+00  0.30000000000E+02  0.30000000000E+02  0.00000000000E+00 0.  1.
        -11   -1    0    0    0    0 -0.00000000000E+00 -0.00000000000E+00 -0.30000000000E+02  0.30000000000E+02  0.00000000000E+00 0. -1.
          5    1    1    2  501    0 -0.12183668633E+02 -0.89120151036E+01 -0.25495964493E+02  0.30000000000E+02  0.47000000000E+01 0. -1.
         -5    1    1    2    0  501  0.12183668633E+02  0.89120151036E+01  0.25495964493E+02  0.30000000000E+02  0.47000000000E+01 0.  1.
</event>
<event>
 4    1  0.7509957E-002  0.6000000E+02  0.7546771E-02  0.1259629E+00
         11   -1    0    0    0    0  0.00000000000E+00  0.00000000000E+00  0.30000000000E+02  0.30000000000E+02  0.00000000000E+00 0.  1.
        -11   -1    0    0    0    0 -0.00000000000E+00 -0.00000000000E+00 -0.30000000000E+02  0.30000000000E+02  0.00000000000E+00 0. -1.
          5    1    1    2  501    0 -0.39615402111E+01 -0.87763250877E+01  0.28021283288E+02  0.30000000000E+02  0.47000000000E+01 0.  1.
         -5    1    1    2    0  501  0.39615402111E+01  0.87763250877E+01 -0.28021283288E+02  0.30000000000E+02  0.47000000000E+01 0. -1.
</event>
<event>
 4    1  0.7509957E-002  0.6000000E+02  0.7546771E-02  0.1259629E+00
         11   -1    0    0    0    0  0.00000000000E+00  0.00000000000E+00  0.30000000000E+02  0.30000000000E+02  0.00000000000E+00 0.  1.
        -11   -1    0    0    0    0 -0.00000000000E+00 -0.00000000000E+00 -0.30000000000E+02  0.30000000000E+02  0.00000000000E+00 0. -1.
          5    1    1    2  501    0 -0.26490557027E+02  0.95396373950E+01 -0.92279849783E+01  0.30000000000E+02  0.47000000000E+01 0. -1.
         -5    1    1    2    0  501  0.26490557027E+02 -0.95396373950E+01  0.92279849783E+01  0.30000000000E+02  0.47000000000E+01 0.  1.
</event>
<event>
 4    1  0.7509957E-002  0.6000000E+02  0.7546771E-02  0.1259629E+00
         11   -1    0    0    0    0  0.00000000000E+00  0.00000000000E+00  0.30000000000E+02  0.30000000000E+02  0.00000000000E+00 0.  1.
        -11   -1    0    0    0    0 -0.00000000000E+00 -0.00000000000E+00 -0.30000000000E+02  0.30000000000E+02  0.00000000000E+00 0. -1.
          5    1    1    2  501    0  0.12605803133E+02  0.23278474313E+02 -0.13308507092E+02  0.30000000000E+02  0.47000000000E+01 0. -1.
         -5    1    1    2    0  501 -0.12605803133E+02 -0.23278474313E+02  0.13308507092E+02  0.30000000000E+02  0.47000000000E+01 0.  1.
</event>
<event>
 4    1  0.7509957E-002  0.6000000E+02  0.7546771E-02  0.1259629E+00
         11   -1    0    0    0    0  0.00000000000E+00  0.00000000000E+00  0.30000000000E+02  0.30000000000E+02  0.00000000000E+00 0. -1.
        -11   -1    0    0    0    0 -0.00000000000E+00 -0.00000000000E+00 -0.30000000000E+02  0.30000000000E+02  0.00000000000E+00 0.  1.
          5    1    1    2  501    0 -0.20075533990E+02  0.37465557664E+01 -0.21467329944E+02  0.30000000000E+02  0.47000000000E+01 0.  1.
         -5    1    1    2    0  501  0.20075533990E+02 -0.37465557664E+01  0.21467329944E+02  0.30000000000E+02  0.47000000000E+01 0. -1.
</event>
<event>
 4    1  0.7509957E-002  0.6000000E+02  0.7546771E-02  0.1259629E+00
         11   -1    0    0    0    0  0.00000000000E+00  0.00000000000E+00  0.30000000000E+02  0.30000000000E+02  0.00000000000E+00 0.  1.
        -11   -1    0    0    0    0 -0.00000000000E+00 -0.00000000000E+00 -0.30000000000E+02  0.30000000000E+02  0.00000000000E+00 0. -1.
          5    1    1    2  501    0  0.23721867789E+02 -0.46592567430E+01 -0.17131092061E+02  0.30000000000E+02  0.47000000000E+01 0. -1.
         -5    1    1    2    0  501 -0.23721867789E+02  0.46592567430E+01  0.17131092061E+02  0.30000000000E+02  0.47000000000E+01 0.  1.
</event>
<event>
 4    1  0.7509957E-002  0.6000000E+02  0.7546771E-02  0.1259629E+00
         11   -1    0    0    0    0  0.00000000000E+00  0.00000000000E+00  0.30000000000E+02  0.30000000000E+02  0.00000000000E+00 0.  1.
        -11   -1    0    0    0    0 -0.00000000000E+00 -0.00000000000E+00 -0.30000000000E+02  0.30000000000E+02  0.00000000000E+00 0. -1.
          5    1    1    2  501    0  0.45394312399E+01 -0.21298266744E+02 -0.20091973465E+02  0.30000000000E+02  0.47000000000E+01 0. -1.
         -5    1    1    2    0  501 -0.45394312399E+01  0.21298266744E+02  0.20091973465E+02  0.30000000000E+02  0.47000000000E+01 0.  1.
</event>
<event>
 4    1  0.7509957E-002  0.6000000E+02  0.7546771E-02  0.1259629E+00
         11   -1    0    0    0    0  0.00000000000E+00  0.00000000000E+00  0.30000000000E+02  0.30000000000E+02  0.00000000000E+00 0.  1.
        -11   -1    0    0    0    0 -0.00000000000E+00 -0.00000000000E+00 -0.30000000000E+02  0.30000000000E+02  0.00000000000E+00 0. -1.
          5    1    1    2  501    0  0.69271910053E+01  0.65671733402E+01 -0.28049888754E+02  0.30000000000E+02  0.47000000000E+01 0. -1.
         -5    1    1    2    0  501 -0.69271910053E+01 -0.65671733402E+01  0.28049888754E+02  0.30000000000E+02  0.47000000000E+01 0.  1.
</event>
<event>
 4    1  0.7509957E-002  0.6000000E+02  0.7546771E-02  0.1259629E+00
         11   -1    0    0    0    0  0.00000000000E+00  0.00000000000E+00  0.30000000000E+02  0.30000000000E+02  0.00000000000E+00 0.  1.
        -11   -1    0    0    0    0 -0.00000000000E+00 -0.00000000000E+00 -0.30000000000E+02  0.30000000000E+02  0.00000000000E+00 0. -1.
          5    1    1    2  501    0 -0.18927170644E+02  0.81295945227E+01 -0.21297462391E+02  0.30000000000E+02  0.47000000000E+01 0. -1.
         -5    1    1    2    0  501  0.18927170644E+02 -0.81295945227E+01  0.21297462391E+02  0.30000000000E+02  0.47000000000E+01 0.  1.
</event>
<event>
 4    1  0.7509957E-002  0.6000000E+02  0.7546771E-02  0.1259629E+00
         11   -1    0    0    0    0  0.00000000000E+00  0.00000000000E+00  0.30000000000E+02  0.30000000000E+02  0.00000000000E+00 0. -1.
        -11   -1    0    0    0    0 -0.00000000000E+00 -0.00000000000E+00 -0.30000000000E+02  0.30000000000E+02  0.00000000000E+00 0.  1.
          5    1    1    2  501    0  0.97953481168E+01 -0.24090326816E+01 -0.27859607262E+02  0.30000000000E+02  0.47000000000E+01 0.  1.
         -5    1    1    2    0  501 -0.97953481168E+01  0.24090326816E+01  0.27859607262E+02  0.30000000000E+02  0.47000000000E+01 0. -1.
</event>
<event>
 4    1  0.7509957E-002  0.6000000E+02  0.7546771E-02  0.1259629E+00
         11   -1    0    0    0    0  0.00000000000E+00  0.00000000000E+00  0.30000000000E+02  0.30000000000E+02  0.00000000000E+00 0.  1.
        -11   -1    0    0    0    0 -0.00000000000E+00 -0.00000000000E+00 -0.30000000000E+02  0.30000000000E+02  0.00000000000E+00 0. -1.
          5    1    1    2  501    0 -0.10184369085E+02 -0.24652764699E+02 -0.12900768156E+02  0.30000000000E+02  0.47000000000E+01 0. -1.
         -5    1    1    2    0  501  0.10184369085E+02  0.24652764699E+02  0.12900768156E+02  0.30000000000E+02  0.47000000000E+01 0.  1.
</event>
<event>
 4    1  0.7509957E-002  0.6000000E+02  0.7546771E-02  0.1259629E+00
         11   -1    0    0    0    0  0.00000000000E+00  0.00000000000E+00  0.30000000000E+02  0.30000000000E+02  0.00000000000E+00 0. -1.
        -11   -1    0    0    0    0 -0.00000000000E+00 -0.00000000000E+00 -0.30000000000E+02  0.30000000000E+02  0.00000000000E+00 0.  1.
          5    1    1    2  501    0  0.61006678831E+00  0.12455245912E+02 -0.26877586718E+02  0.30000000000E+02  0.47000000000E+01 0.  1.
         -5    1    1    2    0  501 -0.61006678831E+00 -0.12455245912E+02  0.26877586718E+02  0.30000000000E+02  0.47000000000E+01 0. -1.
</event>
<event>
 4    1  0.7509957E-002  0.6000000E+02  0.7546771E-02  0.1259629E+00
         11   -1    0    0    0    0  0.00000000000E+00  0.00000000000E+00  0.30000000000E+02  0.30000000000E+02  0.00000000000E+00 0.  1.
        -11   -1    0    0    0    0 -0.00000000000E+00 -0.00000000000E+00 -0.30000000000E+02  0.30000000000E+02  0.00000000000E+00 0. -1.
          5    1    1    2  501    0 -0.17508134959E+02  0.18717052818E+02 -0.14867654290E+02  0.30000000000E+02  0.47000000000E+01 0. -1.
         -5    1    1    2    0  501  0.17508134959E+02 -0.18717052818E+02  0.14867654290E+02  0.30000000000E+02  0.47000000000E+01 0.  1.
</event>
<event>
 4    1  0.7509957E-002  0.6000000E+02  0.7546771E-02  0.1259629E+00
         11   -1    0    0    0    0  0.00000000000E+00  0.00000000000E+00  0.30000000000E+02  0.30000000000E+02  0.00000000000E+00 0.  1.
        -11   -1    0    0    0    0 -0.00000000000E+00 -0.00000000000E+00 -0.30000000000E+02  0.30000000000E+02  0.00000000000E+00 0. -1.
          5    1    1    2  501    0  0.20187587078E+02 -0.13660334735E+02 -0.16845372744E+02  0.30000000000E+02  0.47000000000E+01 0. -1.
         -5    1    1    2    0  501 -0.20187587078E+02  0.13660334735E+02  0.16845372744E+02  0.30000000000E+02  0.47000000000E+01 0.  1.
</event>
<event>
 4    1  0.7509957E-002  0.6000000E+02  0.7546771E-02  0.1259629E+00
         11   -1    0    0    0    0  0.00000000000E+00  0.00000000000E+00  0.30000000000E+02  0.30000000000E+02  0.00000000000E+00 0.  1.
        -11   -1    0    0    0    0 -0.00000000000E+00 -0.00000000000E+00 -0.30000000000E+02  0.30000000000E+02  0.00000000000E+00 0. -1.
          5    1    1    2  501    0  0.20986747887E+02  0.10746270280E+02 -0.17943915074E+02  0.30000000000E+02  0.47000000000E+01 0. -1.
         -5    1    1    2    0  501 -0.20986747887E+02 -0.10746270280E+02  0.17943915074E+02  0.30000000000E+02  0.47000000000E+01 0.  1.
</event>
<event>
 4    1  0.7509957E-002  0.6000000E+02  0.7546771E-02  0.1259629E+00
         11   -1    0    0    0    0  0.00000000000E+00  0.00000000000E+00  0.30000000000E+02  0.30000000000E+02  0.00000000000E+00 0.  1.
        -11   -1    0    0    0    0 -0.00000000000E+00 -0.00000000000E+00 -0.30000000000E+02  0.30000000000E+02  0.00000000000E+00 0. -1.
          5    1    1    2  501    0 -0.29161547995E+02 -0.10672835075E+01 -0.51356620258E+01  0.30000000000E+02  0.47000000000E+01 0. -1.
         -5    1    1    2    0  501  0.29161547995E+02  0.10672835075E+01  0.51356620258E+01  0.30000000000E+02  0.47000000000E+01 0.  1.
</event>
<event>
 4    1  0.7509957E-002  0.6000000E+02  0.7546771E-02  0.1259629E+00
         11   -1    0    0    0    0  0.00000000000E+00  0.00000000000E+00  0.30000000000E+02  0.30000000000E+02  0.00000000000E+00 0.  1.
        -11   -1    0    0    0    0 -0.00000000000E+00 -0.00000000000E+00 -0.30000000000E+02  0.30000000000E+02  0.00000000000E+00 0. -1.
          5    1    1    2  501    0 -0.10639004840E+02  0.17555810107E+02 -0.21366214160E+02  0.30000000000E+02  0.47000000000E+01 0. -1.
         -5    1    1    2    0  501  0.10639004840E+02 -0.17555810107E+02  0.21366214160E+02  0.30000000000E+02  0.47000000000E+01 0.  1.
</event>
<event>
 4    1  0.7509957E-002  0.6000000E+02  0.7546771E-02  0.1259629E+00
         11   -1    0    0    0    0  0.00000000000E+00  0.00000000000E+00  0.30000000000E+02  0.30000000000E+02  0.00000000000E+00 0.  1.
        -11   -1    0    0    0    0 -0.00000000000E+00 -0.00000000000E+00 -0.30000000000E+02  0.30000000000E+02  0.00000000000E+00 0. -1.
          5    1    1    2  501    0  0.24327170220E+02 -0.16880809219E+02  0.10663344817E+01  0.30000000000E+02  0.47000000000E+01 0. -1.
         -5    1    1    2    0  501 -0.24327170220E+02  0.16880809219E+02 -0.10663344817E+01  0.30000000000E+02  0.47000000000E+01 0.  1.
</event>
<event>
 4    1  0.7509957E-002  0.6000000E+02  0.7546771E-02  0.1259629E+00
         11   -1    0    0    0    0  0.00000000000E+00  0.00000000000E+00  0.30000000000E+02  0.30000000000E+02  0.00000000000E+00 0.  1.
        -11   -1    0    0    0    0 -0.00000000000E+00 -0.00000000000E+00 -0.30000000000E+02  0.30000000000E+02  0.00000000000E+00 0. -1.
          5    1    1    2  501    0  0.68360399701E+01 -0.23608028578E+02 -0.16548097902E+02  0.30000000000E+02  0.47000000000E+01 0. -1.
         -5    1    1    2    0  501 -0.68360399701E+01  0.23608028578E+02  0.16548097902E+02  0.30000000000E+02  0.47000000000E+01 0.  1.
</event>
<event>
 4    1  0.7509957E-002  0.6000000E+02  0.7546771E-02  0.1259629E+00
         11   -1    0    0    0    0  0.00000000000E+00  0.00000000000E+00  0.30000000000E+02  0.30000000000E+02  0.00000000000E+00 0.  1.
        -11   -1    0    0    0    0 -0.00000000000E+00 -0.00000000000E+00 -0.30000000000E+02  0.30000000000E+02  0.00000000000E+00 0. -1.
          5    1    1    2  501    0  0.47986589398E+01 -0.27903202346E+02  0.87346534695E+01  0.30000000000E+02  0.47000000000E+01 0. -1.
         -5    1    1    2    0  501 -0.47986589398E+01  0.27903202346E+02 -0.87346534695E+01  0.30000000000E+02  0.47000000000E+01 0.  1.
</event>
<event>
 4    1  0.7509957E-002  0.6000000E+02  0.7546771E-02  0.1259629E+00
         11   -1    0    0    0    0  0.00000000000E+00  0.00000000000E+00  0.30000000000E+02  0.30000000000E+02  0.00000000000E+00 0.  1.
        -11   -1    0    0    0    0 -0.00000000000E+00 -0.00000000000E+00 -0.30000000000E+02  0.30000000000E+02  0.00000000000E+00 0. -1.
          5    1    1    2  501    0  0.11350693463E+02  0.25798193588E+02  0.91391993904E+01  0.30000000000E+02  0.47000000000E+01 0. -1.
         -5    1    1    2    0  501 -0.11350693463E+02 -0.25798193588E+02 -0.91391993904E+01  0.30000000000E+02  0.47000000000E+01 0.  1.
</event>
<event>
 4    1  0.7509957E-002  0.6000000E+02  0.7546771E-02  0.1259629E+00
         11   -1    0    0    0    0  0.00000000000E+00  0.00000000000E+00  0.30000000000E+02  0.30000000000E+02  0.00000000000E+00 0.  1.
        -11   -1    0    0    0    0 -0.00000000000E+00 -0.00000000000E+00 -0.30000000000E+02  0.30000000000E+02  0.00000000000E+00 0. -1.
          5    1    1    2  501    0 -0.21301974639E+02 -0.19075058644E+02 -0.77638916916E+01  0.30000000000E+02  0.47000000000E+01 0. -1.
         -5    1    1    2    0  501  0.21301974639E+02  0.19075058644E+02  0.77638916916E+01  0.30000000000E+02  0.47000000000E+01 0.  1.
</event>
<event>
 4    1  0.7509957E-002  0.6000000E+02  0.7546771E-02  0.1259629E+00
         11   -1    0    0    0    0  0.00000000000E+00  0.00000000000E+00  0.30000000000E+02  0.30000000000E+02  0.00000000000E+00 0. -1.
        -11   -1    0    0    0    0 -0.00000000000E+00 -0.00000000000E+00 -0.30000000000E+02  0.30000000000E+02  0.00000000000E+00 0.  1.
          5    1    1    2  501    0  0.14247476530E+02 -0.23799075708E+02  0.10417456887E+02  0.30000000000E+02  0.47000000000E+01 0. -1.
         -5    1    1    2    0  501 -0.14247476530E+02  0.23799075708E+02 -0.10417456887E+02  0.30000000000E+02  0.47000000000E+01 0.  1.
</event>
<event>
 4    1  0.7509957E-002  0.6000000E+02  0.7546771E-02  0.1259629E+00
         11   -1    0    0    0    0  0.00000000000E+00  0.00000000000E+00  0.30000000000E+02  0.30000000000E+02  0.00000000000E+00 0.  1.
        -11   -1    0    0    0    0 -0.00000000000E+00 -0.00000000000E+00 -0.30000000000E+02  0.30000000000E+02  0.00000000000E+00 0. -1.
          5    1    1    2  501    0  0.33230103928E+01  0.29144212827E+02  0.41812032477E+01  0.30000000000E+02  0.47000000000E+01 0. -1.
         -5    1    1    2    0  501 -0.33230103928E+01 -0.29144212827E+02 -0.41812032477E+01  0.30000000000E+02  0.47000000000E+01 0.  1.
</event>
<event>
 4    1  0.7509957E-002  0.6000000E+02  0.7546771E-02  0.1259629E+00
         11   -1    0    0    0    0  0.00000000000E+00  0.00000000000E+00  0.30000000000E+02  0.30000000000E+02  0.00000000000E+00 0.  1.
        -11   -1    0    0    0    0 -0.00000000000E+00 -0.00000000000E+00 -0.30000000000E+02  0.30000000000E+02  0.00000000000E+00 0. -1.
          5    1    1    2  501    0 -0.16332141793E+01 -0.20016775704E+02 -0.21784657488E+02  0.30000000000E+02  0.47000000000E+01 0. -1.
         -5    1    1    2    0  501  0.16332141793E+01  0.20016775704E+02  0.21784657488E+02  0.30000000000E+02  0.47000000000E+01 0.  1.
</event>
<event>
 4    1  0.7509957E-002  0.6000000E+02  0.7546771E-02  0.1259629E+00
         11   -1    0    0    0    0  0.00000000000E+00  0.00000000000E+00  0.30000000000E+02  0.30000000000E+02  0.00000000000E+00 0. -1.
        -11   -1    0    0    0    0 -0.00000000000E+00 -0.00000000000E+00 -0.30000000000E+02  0.30000000000E+02  0.00000000000E+00 0.  1.
          5    1    1    2  501    0  0.19296832312E+02 -0.21819099892E+02 -0.54285488493E+01  0.30000000000E+02  0.47000000000E+01 0. -1.
         -5    1    1    2    0  501 -0.19296832312E+02  0.21819099892E+02  0.54285488493E+01  0.30000000000E+02  0.47000000000E+01 0.  1.
</event>
<event>
 4    1  0.7509957E-002  0.6000000E+02  0.7546771E-02  0.1259629E+00
         11   -1    0    0    0    0  0.00000000000E+00  0.00000000000E+00  0.30000000000E+02  0.30000000000E+02  0.00000000000E+00 0.  1.
        -11   -1    0    0    0    0 -0.00000000000E+00 -0.00000000000E+00 -0.30000000000E+02  0.30000000000E+02  0.00000000000E+00 0. -1.
          5    1    1    2  501    0 -0.12866864577E+02 -0.25382722066E+01 -0.26568985117E+02  0.30000000000E+02  0.47000000000E+01 0. -1.
         -5    1    1    2    0  501  0.12866864577E+02  0.25382722066E+01  0.26568985117E+02  0.30000000000E+02  0.47000000000E+01 0.  1.
</event>
<event>
 4    1  0.7509957E-002  0.6000000E+02  0.7546771E-02  0.1259629E+00
         11   -1    0    0    0    0  0.00000000000E+00  0.00000000000E+00  0.30000000000E+02  0.30000000000E+02  0.00000000000E+00 0. -1.
        -11   -1    0    0    0    0 -0.00000000000E+00 -0.00000000000E+00 -0.30000000000E+02  0.30000000000E+02  0.00000000000E+00 0.  1.
          5    1    1    2  501    0  0.27113262971E+02  0.19134494911E+01 -0.11794900682E+02  0.30000000000E+02  0.47000000000E+01 0.  1.
         -5    1    1    2    0  501 -0.27113262971E+02 -0.19134494911E+01  0.11794900682E+02  0.30000000000E+02  0.47000000000E+01 0. -1.
</event>
<event>
 4    1  0.7509957E-002  0.6000000E+02  0.7546771E-02  0.1259629E+00
         11   -1    0    0    0    0  0.00000000000E+00  0.00000000000E+00  0.30000000000E+02  0.30000000000E+02  0.00000000000E+00 0.  1.
        -11   -1    0    0    0    0 -0.00000000000E+00 -0.00000000000E+00 -0.30000000000E+02  0.30000000000E+02  0.00000000000E+00 0. -1.
          5    1    1    2  501    0  0.47906471638E+01  0.26781462554E+02 -0.11735116668E+02  0.30000000000E+02  0.47000000000E+01 0. -1.
         -5    1    1    2    0  501 -0.47906471638E+01 -0.26781462554E+02  0.11735116668E+02  0.30000000000E+02  0.47000000000E+01 0.  1.
</event>
<event>
 4    1  0.7509957E-002  0.6000000E+02  0.7546771E-02  0.1259629E+00
         11   -1    0    0    0    0  0.00000000000E+00  0.00000000000E+00  0.30000000000E+02  0.30000000000E+02  0.00000000000E+00 0.  1.
        -11   -1    0    0    0    0 -0.00000000000E+00 -0.00000000000E+00 -0.30000000000E+02  0.30000000000E+02  0.00000000000E+00 0. -1.
          5    1    1    2  501    0 -0.17163357475E+02 -0.14104000576E+02 -0.19606282870E+02  0.30000000000E+02  0.47000000000E+01 0. -1.
         -5    1    1    2    0  501  0.17163357475E+02  0.14104000576E+02  0.19606282870E+02  0.30000000000E+02  0.47000000000E+01 0.  1.
</event>
<event>
 4    1  0.7509957E-002  0.6000000E+02  0.7546771E-02  0.1259629E+00
         11   -1    0    0    0    0  0.00000000000E+00  0.00000000000E+00  0.30000000000E+02  0.30000000000E+02  0.00000000000E+00 0. -1.
        -11   -1    0    0    0    0 -0.00000000000E+00 -0.00000000000E+00 -0.30000000000E+02  0.30000000000E+02  0.00000000000E+00 0.  1.
          5    1    1    2  501    0  0.26934060016E+02  0.55871633332E+01 -0.11011358542E+02  0.30000000000E+02  0.47000000000E+01 0.  1.
         -5    1    1    2    0  501 -0.26934060016E+02 -0.55871633332E+01  0.11011358542E+02  0.30000000000E+02  0.47000000000E+01 0. -1.
</event>
<event>
 4    1  0.7509957E-002  0.6000000E+02  0.7546771E-02  0.1259629E+00
         11   -1    0    0    0    0  0.00000000000E+00  0.00000000000E+00  0.30000000000E+02  0.30000000000E+02  0.00000000000E+00 0.  1.
        -11   -1    0    0    0    0 -0.00000000000E+00 -0.00000000000E+00 -0.30000000000E+02  0.30000000000E+02  0.00000000000E+00 0. -1.
          5    1    1    2  501    0  0.59760694190E+01 -0.12974396935E+02 -0.25958844706E+02  0.30000000000E+02  0.47000000000E+01 0. -1.
         -5    1    1    2    0  501 -0.59760694190E+01  0.12974396935E+02  0.25958844706E+02  0.30000000000E+02  0.47000000000E+01 0.  1.
</event>
<event>
 4    1  0.7509957E-002  0.6000000E+02  0.7546771E-02  0.1259629E+00
         11   -1    0    0    0    0  0.00000000000E+00  0.00000000000E+00  0.30000000000E+02  0.30000000000E+02  0.00000000000E+00 0.  1.
        -11   -1    0    0    0    0 -0.00000000000E+00 -0.00000000000E+00 -0.30000000000E+02  0.30000000000E+02  0.00000000000E+00 0. -1.
          5    1    1    2  501    0 -0.10398121261E+02  0.15241743325E+02 -0.23183578987E+02  0.30000000000E+02  0.47000000000E+01 0. -1.
         -5    1    1    2    0  501  0.10398121261E+02 -0.15241743325E+02  0.23183578987E+02  0.30000000000E+02  0.47000000000E+01 0.  1.
</event>
<event>
 4    1  0.7509957E-002  0.6000000E+02  0.7546771E-02  0.1259629E+00
         11   -1    0    0    0    0  0.00000000000E+00  0.00000000000E+00  0.30000000000E+02  0.30000000000E+02  0.00000000000E+00 0.  1.
        -11   -1    0    0    0    0 -0.00000000000E+00 -0.00000000000E+00 -0.30000000000E+02  0.30000000000E+02  0.00000000000E+00 0. -1.
          5    1    1    2  501    0  0.16821583142E+02 -0.10233567511E+02 -0.22140877051E+02  0.30000000000E+02  0.47000000000E+01 0. -1.
         -5    1    1    2    0  501 -0.16821583142E+02  0.10233567511E+02  0.22140877051E+02  0.30000000000E+02  0.47000000000E+01 0.  1.
</event>
<event>
 4    1  0.7509957E-002  0.6000000E+02  0.7546771E-02  0.1259629E+00
         11   -1    0    0    0    0  0.00000000000E+00  0.00000000000E+00  0.30000000000E+02  0.30000000000E+02  0.00000000000E+00 0.  1.
        -11   -1    0    0    0    0 -0.00000000000E+00 -0.00000000000E+00 -0.30000000000E+02  0.30000000000E+02  0.00000000000E+00 0. -1.
          5    1    1    2  501    0  0.22371040874E+02  0.11866887357E+02 -0.15382571783E+02  0.30000000000E+02  0.47000000000E+01 0. -1.
         -5    1    1    2    0  501 -0.22371040874E+02 -0.11866887357E+02  0.15382571783E+02  0.30000000000E+02  0.47000000000E+01 0.  1.
</event>
<event>
 4    1  0.7509957E-002  0.6000000E+02  0.7546771E-02  0.1259629E+00
         11   -1    0    0    0    0  0.00000000000E+00  0.00000000000E+00  0.30000000000E+02  0.30000000000E+02  0.00000000000E+00 0.  1.
        -11   -1    0    0    0    0 -0.00000000000E+00 -0.00000000000E+00 -0.30000000000E+02  0.30000000000E+02  0.00000000000E+00 0. -1.
          5    1    1    2  501    0 -0.23642659558E+02  0.14944929853E+02 -0.97766927293E+01  0.30000000000E+02  0.47000000000E+01 0. -1.
         -5    1    1    2    0  501  0.23642659558E+02 -0.14944929853E+02  0.97766927293E+01  0.30000000000E+02  0.47000000000E+01 0.  1.
</event>
<event>
 4    1  0.7509957E-002  0.6000000E+02  0.7546771E-02  0.1259629E+00
         11   -1    0    0    0    0  0.00000000000E+00  0.00000000000E+00  0.30000000000E+02  0.30000000000E+02  0.00000000000E+00 0. -1.
        -11   -1    0    0    0    0 -0.00000000000E+00 -0.00000000000E+00 -0.30000000000E+02  0.30000000000E+02  0.00000000000E+00 0.  1.
          5    1    1    2  501    0 -0.22527646705E+02  0.80064468926E+01 -0.17501769684E+02  0.30000000000E+02  0.47000000000E+01 0.  1.
         -5    1    1    2    0  501  0.22527646705E+02 -0.80064468926E+01  0.17501769684E+02  0.30000000000E+02  0.47000000000E+01 0. -1.
</event>
<event>
 4    1  0.7509957E-002  0.6000000E+02  0.7546771E-02  0.1259629E+00
         11   -1    0    0    0    0  0.00000000000E+00  0.00000000000E+00  0.30000000000E+02  0.30000000000E+02  0.00000000000E+00 0.  1.
        -11   -1    0    0    0    0 -0.00000000000E+00 -0.00000000000E+00 -0.30000000000E+02  0.30000000000E+02  0.00000000000E+00 0. -1.
          5    1    1    2  501    0  0.23131321402E+02 -0.10501049963E+02 -0.15250571132E+02  0.30000000000E+02  0.47000000000E+01 0. -1.
         -5    1    1    2    0  501 -0.23131321402E+02  0.10501049963E+02  0.15250571132E+02  0.30000000000E+02  0.47000000000E+01 0.  1.
</event>
<event>
 4    1  0.7509957E-002  0.6000000E+02  0.7546771E-02  0.1259629E+00
         11   -1    0    0    0    0  0.00000000000E+00  0.00000000000E+00  0.30000000000E+02  0.30000000000E+02  0.00000000000E+00 0.  1.
        -11   -1    0    0    0    0 -0.00000000000E+00 -0.00000000000E+00 -0.30000000000E+02  0.30000000000E+02  0.00000000000E+00 0. -1.
          5    1    1    2  501    0 -0.27931931240E+02  0.24753221059E+01 -0.95702663340E+01  0.30000000000E+02  0.47000000000E+01 0. -1.
         -5    1    1    2    0  501  0.27931931240E+02 -0.24753221059E+01  0.95702663340E+01  0.30000000000E+02  0.47000000000E+01 0.  1.
</event>
<event>
 4    1  0.7509957E-002  0.6000000E+02  0.7546771E-02  0.1259629E+00
         11   -1    0    0    0    0  0.00000000000E+00  0.00000000000E+00  0.30000000000E+02  0.30000000000E+02  0.00000000000E+00 0.  1.
        -11   -1    0    0    0    0 -0.00000000000E+00 -0.00000000000E+00 -0.30000000000E+02  0.30000000000E+02  0.00000000000E+00 0. -1.
          5    1    1    2  501    0 -0.28451395947E+01  0.81895045231E+00 -0.29481256772E+02  0.30000000000E+02  0.47000000000E+01 0. -1.
         -5    1    1    2    0  501  0.28451395947E+01 -0.81895045231E+00  0.29481256772E+02  0.30000000000E+02  0.47000000000E+01 0.  1.
</event>
<event>
 4    1  0.7509957E-002  0.6000000E+02  0.7546771E-02  0.1259629E+00
         11   -1    0    0    0    0  0.00000000000E+00  0.00000000000E+00  0.30000000000E+02  0.30000000000E+02  0.00000000000E+00 0. -1.
        -11   -1    0    0    0    0 -0.00000000000E+00 -0.00000000000E+00 -0.30000000000E+02  0.30000000000E+02  0.00000000000E+00 0.  1.
          5    1    1    2  501    0 -0.80770135840E+01 -0.25950950020E+01 -0.28389035445E+02  0.30000000000E+02  0.47000000000E+01 0.  1.
         -5    1    1    2    0  501  0.80770135840E+01  0.25950950020E+01  0.28389035445E+02  0.30000000000E+02  0.47000000000E+01 0. -1.
</event>
<event>
 4    1  0.7509957E-002  0.6000000E+02  0.7546771E-02  0.1259629E+00
         11   -1    0    0    0    0  0.00000000000E+00  0.00000000000E+00  0.30000000000E+02  0.30000000000E+02  0.00000000000E+00 0.  1.
        -11   -1    0    0    0    0 -0.00000000000E+00 -0.00000000000E+00 -0.30000000000E+02  0.30000000000E+02  0.00000000000E+00 0. -1.
          5    1    1    2  501    0 -0.16395364183E+01 -0.18759541821E+02 -0.22875784380E+02  0.30000000000E+02  0.47000000000E+01 0. -1.
         -5    1    1    2    0  501  0.16395364183E+01  0.18759541821E+02  0.22875784380E+02  0.30000000000E+02  0.47000000000E+01 0.  1.
</event>
<event>
 4    1  0.7509957E-002  0.6000000E+02  0.7546771E-02  0.1259629E+00
         11   -1    0    0    0    0  0.00000000000E+00  0.00000000000E+00  0.30000000000E+02  0.30000000000E+02  0.00000000000E+00 0.  1.
        -11   -1    0    0    0    0 -0.00000000000E+00 -0.00000000000E+00 -0.30000000000E+02  0.30000000000E+02  0.00000000000E+00 0. -1.
          5    1    1    2  501    0 -0.16289018284E+02  0.24187366610E+02  0.52487312582E+01  0.30000000000E+02  0.47000000000E+01 0.  1.
         -5    1    1    2    0  501  0.16289018284E+02 -0.24187366610E+02 -0.52487312582E+01  0.30000000000E+02  0.47000000000E+01 0. -1.
</event>
<event>
 4    1  0.7509957E-002  0.6000000E+02  0.7546771E-02  0.1259629E+00
         11   -1    0    0    0    0  0.00000000000E+00  0.00000000000E+00  0.30000000000E+02  0.30000000000E+02  0.00000000000E+00 0.  1.
        -11   -1    0    0    0    0 -0.00000000000E+00 -0.00000000000E+00 -0.30000000000E+02  0.30000000000E+02  0.00000000000E+00 0. -1.
          5    1    1    2  501    0 -0.10803099591E+02 -0.99925244420E+01 -0.25716774574E+02  0.30000000000E+02  0.47000000000E+01 0. -1.
         -5    1    1    2    0  501  0.10803099591E+02  0.99925244420E+01  0.25716774574E+02  0.30000000000E+02  0.47000000000E+01 0.  1.
</event>
<event>
 4    1  0.7509957E-002  0.6000000E+02  0.7546771E-02  0.1259629E+00
         11   -1    0    0    0    0  0.00000000000E+00  0.00000000000E+00  0.30000000000E+02  0.30000000000E+02  0.00000000000E+00 0. -1.
        -11   -1    0    0    0    0 -0.00000000000E+00 -0.00000000000E+00 -0.30000000000E+02  0.30000000000E+02  0.00000000000E+00 0.  1.
          5    1    1    2  501    0  0.28491304242E+02 -0.54480678102E+01  0.60393823982E+01  0.30000000000E+02  0.47000000000E+01 0.  1.
         -5    1    1    2    0  501 -0.28491304242E+02  0.54480678102E+01 -0.60393823982E+01  0.30000000000E+02  0.47000000000E+01 0. -1.
</event>
<event>
 4    1  0.7509957E-002  0.6000000E+02  0.7546771E-02  0.1259629E+00
         11   -1    0    0    0    0  0.00000000000E+00  0.00000000000E+00  0.30000000000E+02  0.30000000000E+02  0.00000000000E+00 0.  1.
        -11   -1    0    0    0    0 -0.00000000000E+00 -0.00000000000E+00 -0.30000000000E+02  0.30000000000E+02  0.00000000000E+00 0. -1.
          5    1    1    2  501    0  0.11340183148E+02 -0.12992008087E+02 -0.24093940567E+02  0.30000000000E+02  0.47000000000E+01 0. -1.
         -5    1    1    2    0  501 -0.11340183148E+02  0.12992008087E+02  0.24093940567E+02  0.30000000000E+02  0.47000000000E+01 0.  1.
</event>
<event>
 4    1  0.7509957E-002  0.6000000E+02  0.7546771E-02  0.1259629E+00
         11   -1    0    0    0    0  0.00000000000E+00  0.00000000000E+00  0.30000000000E+02  0.30000000000E+02  0.00000000000E+00 0. -1.
        -11   -1    0    0    0    0 -0.00000000000E+00 -0.00000000000E+00 -0.30000000000E+02  0.30000000000E+02  0.00000000000E+00 0.  1.
          5    1    1    2  501    0 -0.60601977220E+01  0.26491134668E+02 -0.11806938111E+02  0.30000000000E+02  0.47000000000E+01 0.  1.
         -5    1    1    2    0  501  0.60601977220E+01 -0.26491134668E+02  0.11806938111E+02  0.30000000000E+02  0.47000000000E+01 0. -1.
</event>
<event>
 4    1  0.7509957E-002  0.6000000E+02  0.7546771E-02  0.1259629E+00
         11   -1    0    0    0    0  0.00000000000E+00  0.00000000000E+00  0.30000000000E+02  0.30000000000E+02  0.00000000000E+00 0. -1.
        -11   -1    0    0    0    0 -0.00000000000E+00 -0.00000000000E+00 -0.30000000000E+02  0.30000000000E+02  0.00000000000E+00 0.  1.
          5    1    1    2  501    0 -0.53138891287E+01 -0.14656879109E+02 -0.25196199656E+02  0.30000000000E+02  0.47000000000E+01 0.  1.
         -5    1    1    2    0  501  0.53138891287E+01  0.14656879109E+02  0.25196199656E+02  0.30000000000E+02  0.47000000000E+01 0. -1.
</event>
<event>
 4    1  0.7509957E-002  0.6000000E+02  0.7546771E-02  0.1259629E+00
         11   -1    0    0    0    0  0.00000000000E+00  0.00000000000E+00  0.30000000000E+02  0.30000000000E+02  0.00000000000E+00 0.  1.
        -11   -1    0    0    0    0 -0.00000000000E+00 -0.00000000000E+00 -0.30000000000E+02  0.30000000000E+02  0.00000000000E+00 0. -1.
          5    1    1    2  501    0 -0.25863305670E+02  0.52919710708E+01  0.13453418228E+02  0.30000000000E+02  0.47000000000E+01 0.  1.
         -5    1    1    2    0  501  0.25863305670E+02 -0.52919710708E+01 -0.13453418228E+02  0.30000000000E+02  0.47000000000E+01 0. -1.
</event>
<event>
 4    1  0.7509957E-002  0.6000000E+02  0.7546771E-02  0.1259629E+00
         11   -1    0    0    0    0  0.00000000000E+00  0.00000000000E+00  0.30000000000E+02  0.30000000000E+02  0.00000000000E+00 0.  1.
        -11   -1    0    0    0    0 -0.00000000000E+00 -0.00000000000E+00 -0.30000000000E+02  0.30000000000E+02  0.00000000000E+00 0. -1.
          5    1    1    2  501    0  0.74442358756E+01 -0.28213511282E+02 -0.51469537961E+01  0.30000000000E+02  0.47000000000E+01 0. -1.
         -5    1    1    2    0  501 -0.74442358756E+01  0.28213511282E+02  0.51469537961E+01  0.30000000000E+02  0.47000000000E+01 0.  1.
</event>
<event>
 4    1  0.7509957E-002  0.6000000E+02  0.7546771E-02  0.1259629E+00
         11   -1    0    0    0    0  0.00000000000E+00  0.00000000000E+00  0.30000000000E+02  0.30000000000E+02  0.00000000000E+00 0.  1.
        -11   -1    0    0    0    0 -0.00000000000E+00 -0.00000000000E+00 -0.30000000000E+02  0.30000000000E+02  0.00000000000E+00 0. -1.
          5    1    1    2  501    0 -0.60499423729E+00  0.27149582591E+02 -0.11850913344E+02  0.30000000000E+02  0.47000000000E+01 0. -1.
         -5    1    1    2    0  501  0.60499423729E+00 -0.27149582591E+02  0.11850913344E+02  0.30000000000E+02  0.47000000000E+01 0.  1.
</event>
<event>
 4    1  0.7509957E-002  0.6000000E+02  0.7546771E-02  0.1259629E+00
         11   -1    0    0    0    0  0.00000000000E+00  0.00000000000E+00  0.30000000000E+02  0.30000000000E+02  0.00000000000E+00 0. -1.
        -11   -1    0    0    0    0 -0.00000000000E+00 -0.00000000000E+00 -0.30000000000E+02  0.30000000000E+02  0.00000000000E+00 0.  1.
          5    1    1    2  501    0  0.85454438928E+01  0.27970184060E+02 -0.47491254287E+01  0.30000000000E+02  0.47000000000E+01 0.  1.
         -5    1    1    2    0  501 -0.85454438928E+01 -0.27970184060E+02  0.47491254287E+01  0.30000000000E+02  0.47000000000E+01 0. -1.
</event>
<event>
 4    1  0.7509957E-002  0.6000000E+02  0.7546771E-02  0.1259629E+00
         11   -1    0    0    0    0  0.00000000000E+00  0.00000000000E+00  0.30000000000E+02  0.30000000000E+02  0.00000000000E+00 0.  1.
        -11   -1    0    0    0    0 -0.00000000000E+00 -0.00000000000E+00 -0.30000000000E+02  0.30000000000E+02  0.00000000000E+00 0. -1.
          5    1    1    2  501    0 -0.10299086192E+02  0.10696040746E+02 -0.25640466766E+02  0.30000000000E+02  0.47000000000E+01 0. -1.
         -5    1    1    2    0  501  0.10299086192E+02 -0.10696040746E+02  0.25640466766E+02  0.30000000000E+02  0.47000000000E+01 0.  1.
</event>
<event>
 4    1  0.7509957E-002  0.6000000E+02  0.7546771E-02  0.1259629E+00
         11   -1    0    0    0    0  0.00000000000E+00  0.00000000000E+00  0.30000000000E+02  0.30000000000E+02  0.00000000000E+00 0.  1.
        -11   -1    0    0    0    0 -0.00000000000E+00 -0.00000000000E+00 -0.30000000000E+02  0.30000000000E+02  0.00000000000E+00 0. -1.
          5    1    1    2  501    0  0.23746987208E+02  0.15870729481E+02 -0.78810243171E+01  0.30000000000E+02  0.47000000000E+01 0. -1.
         -5    1    1    2    0  501 -0.23746987208E+02 -0.15870729481E+02  0.78810243171E+01  0.30000000000E+02  0.47000000000E+01 0.  1.
</event>
<event>
 4    1  0.7509957E-002  0.6000000E+02  0.7546771E-02  0.1259629E+00
         11   -1    0    0    0    0  0.00000000000E+00  0.00000000000E+00  0.30000000000E+02  0.30000000000E+02  0.00000000000E+00 0. -1.
        -11   -1    0    0    0    0 -0.00000000000E+00 -0.00000000000E+00 -0.30000000000E+02  0.30000000000E+02  0.00000000000E+00 0.  1.
          5    1    1    2  501    0  0.16486847504E+02  0.18650593585E+02  0.16070134359E+02  0.30000000000E+02  0.47000000000E+01 0. -1.
         -5    1    1    2    0  501 -0.16486847504E+02 -0.18650593585E+02 -0.16070134359E+02  0.30000000000E+02  0.47000000000E+01 0.  1.
</event>
<event>
 4    1  0.7509957E-002  0.6000000E+02  0.7546771E-02  0.1259629E+00
         11   -1    0    0    0    0  0.00000000000E+00  0.00000000000E+00  0.30000000000E+02  0.30000000000E+02  0.00000000000E+00 0.  1.
        -11   -1    0    0    0    0 -0.00000000000E+00 -0.00000000000E+00 -0.30000000000E+02  0.30000000000E+02  0.00000000000E+00 0. -1.
          5    1    1    2  501    0 -0.22728040948E+02  0.16149674546E+02 -0.10026672766E+02  0.30000000000E+02  0.47000000000E+01 0. -1.
         -5    1    1    2    0  501  0.22728040948E+02 -0.16149674546E+02  0.10026672766E+02  0.30000000000E+02  0.47000000000E+01 0.  1.
</event>
<event>
 4    1  0.7509957E-002  0.6000000E+02  0.7546771E-02  0.1259629E+00
         11   -1    0    0    0    0  0.00000000000E+00  0.00000000000E+00  0.30000000000E+02  0.30000000000E+02  0.00000000000E+00 0.  1.
        -11   -1    0    0    0    0 -0.00000000000E+00 -0.00000000000E+00 -0.30000000000E+02  0.30000000000E+02  0.00000000000E+00 0. -1.
          5    1    1    2  501    0 -0.14045840454E+02 -0.21249446128E+02 -0.15135567554E+02  0.30000000000E+02  0.47000000000E+01 0. -1.
         -5    1    1    2    0  501  0.14045840454E+02  0.21249446128E+02  0.15135567554E+02  0.30000000000E+02  0.47000000000E+01 0.  1.
</event>
<event>
 4    1  0.7509957E-002  0.6000000E+02  0.7546771E-02  0.1259629E+00
         11   -1    0    0    0    0  0.00000000000E+00  0.00000000000E+00  0.30000000000E+02  0.30000000000E+02  0.00000000000E+00 0.  1.
        -11   -1    0    0    0    0 -0.00000000000E+00 -0.00000000000E+00 -0.30000000000E+02  0.30000000000E+02  0.00000000000E+00 0. -1.
          5    1    1    2  501    0  0.23977126491E+02 -0.53879026809E+01 -0.16552278089E+02  0.30000000000E+02  0.47000000000E+01 0. -1.
         -5    1    1    2    0  501 -0.23977126491E+02  0.53879026809E+01  0.16552278089E+02  0.30000000000E+02  0.47000000000E+01 0.  1.
</event>
<event>
 4    1  0.7509957E-002  0.6000000E+02  0.7546771E-02  0.1259629E+00
         11   -1    0    0    0    0  0.00000000000E+00  0.00000000000E+00  0.30000000000E+02  0.30000000000E+02  0.00000000000E+00 0.  1.
        -11   -1    0    0    0    0 -0.00000000000E+00 -0.00000000000E+00 -0.30000000000E+02  0.30000000000E+02  0.00000000000E+00 0. -1.
          5    1    1    2  501    0 -0.91568839845E+01  0.15437177319E+02  0.23574457197E+02  0.30000000000E+02  0.47000000000E+01 0.  1.
         -5    1    1    2    0  501  0.91568839845E+01 -0.15437177319E+02 -0.23574457197E+02  0.30000000000E+02  0.47000000000E+01 0. -1.
</event>
<event>
 4    1  0.7509957E-002  0.6000000E+02  0.7546771E-02  0.1259629E+00
         11   -1    0    0    0    0  0.00000000000E+00  0.00000000000E+00  0.30000000000E+02  0.30000000000E+02  0.00000000000E+00 0.  1.
        -11   -1    0    0    0    0 -0.00000000000E+00 -0.00000000000E+00 -0.30000000000E+02  0.30000000000E+02  0.00000000000E+00 0. -1.
          5    1    1    2  501    0  0.17485677857E+02  0.26430159006E+01 -0.23773420806E+02  0.30000000000E+02  0.47000000000E+01 0. -1.
         -5    1    1    2    0  501 -0.17485677857E+02 -0.26430159006E+01  0.23773420806E+02  0.30000000000E+02  0.47000000000E+01 0.  1.
</event>
<event>
 4    1  0.7509957E-002  0.6000000E+02  0.7546771E-02  0.1259629E+00
         11   -1    0    0    0    0  0.00000000000E+00  0.00000000000E+00  0.30000000000E+02  0.30000000000E+02  0.00000000000E+00 0.  1.
        -11   -1    0    0    0    0 -0.00000000000E+00 -0.00000000000E+00 -0.30000000000E+02  0.30000000000E+02  0.00000000000E+00 0. -1.
          5    1    1    2  501    0 -0.69756575670E+01  0.23516986868E+02  0.16619311964E+02  0.30000000000E+02  0.47000000000E+01 0. -1.
         -5    1    1    2    0  501  0.69756575670E+01 -0.23516986868E+02 -0.16619311964E+02  0.30000000000E+02  0.47000000000E+01 0.  1.
</event>
<event>
 4    1  0.7509957E-002  0.6000000E+02  0.7546771E-02  0.1259629E+00
         11   -1    0    0    0    0  0.00000000000E+00  0.00000000000E+00  0.30000000000E+02  0.30000000000E+02  0.00000000000E+00 0. -1.
        -11   -1    0    0    0    0 -0.00000000000E+00 -0.00000000000E+00 -0.30000000000E+02  0.30000000000E+02  0.00000000000E+00 0.  1.
          5    1    1    2  501    0  0.97265071205E+01 -0.11779249641E+02 -0.25388074703E+02  0.30000000000E+02  0.47000000000E+01 0.  1.
         -5    1    1    2    0  501 -0.97265071205E+01  0.11779249641E+02  0.25388074703E+02  0.30000000000E+02  0.47000000000E+01 0. -1.
</event>
<event>
 4    1  0.7509957E-002  0.6000000E+02  0.7546771E-02  0.1259629E+00
         11   -1    0    0    0    0  0.00000000000E+00  0.00000000000E+00  0.30000000000E+02  0.30000000000E+02  0.00000000000E+00 0.  1.
        -11   -1    0    0    0    0 -0.00000000000E+00 -0.00000000000E+00 -0.30000000000E+02  0.30000000000E+02  0.00000000000E+00 0. -1.
          5    1    1    2  501    0 -0.14902727715E+02 -0.90028592900E+01 -0.23974303561E+02  0.30000000000E+02  0.47000000000E+01 0. -1.
         -5    1    1    2    0  501  0.14902727715E+02  0.90028592900E+01  0.23974303561E+02  0.30000000000E+02  0.47000000000E+01 0.  1.
</event>
<event>
 4    1  0.7509957E-002  0.6000000E+02  0.7546771E-02  0.1259629E+00
         11   -1    0    0    0    0  0.00000000000E+00  0.00000000000E+00  0.30000000000E+02  0.30000000000E+02  0.00000000000E+00 0. -1.
        -11   -1    0    0    0    0 -0.00000000000E+00 -0.00000000000E+00 -0.30000000000E+02  0.30000000000E+02  0.00000000000E+00 0.  1.
          5    1    1    2  501    0  0.20103321063E+02  0.45727933932E+01 -0.21280414536E+02  0.30000000000E+02  0.47000000000E+01 0.  1.
         -5    1    1    2    0  501 -0.20103321063E+02 -0.45727933932E+01  0.21280414536E+02  0.30000000000E+02  0.47000000000E+01 0. -1.
</event>
<event>
 4    1  0.7509957E-002  0.6000000E+02  0.7546771E-02  0.1259629E+00
         11   -1    0    0    0    0  0.00000000000E+00  0.00000000000E+00  0.30000000000E+02  0.30000000000E+02  0.00000000000E+00 0.  1.
        -11   -1    0    0    0    0 -0.00000000000E+00 -0.00000000000E+00 -0.30000000000E+02  0.30000000000E+02  0.00000000000E+00 0. -1.
          5    1    1    2  501    0 -0.27924720802E+02  0.97865649033E+01 -0.15307238503E+01  0.30000000000E+02  0.47000000000E+01 0. -1.
         -5    1    1    2    0  501  0.27924720802E+02 -0.97865649033E+01  0.15307238503E+01  0.30000000000E+02  0.47000000000E+01 0.  1.
</event>
<event>
 4    1  0.7509957E-002  0.6000000E+02  0.7546771E-02  0.1259629E+00
         11   -1    0    0    0    0  0.00000000000E+00  0.00000000000E+00  0.30000000000E+02  0.30000000000E+02  0.00000000000E+00 0. -1.
        -11   -1    0    0    0    0 -0.00000000000E+00 -0.00000000000E+00 -0.30000000000E+02  0.30000000000E+02  0.00000000000E+00 0.  1.
          5    1    1    2  501    0 -0.15891023325E+02  0.52510126833E+01 -0.24450199252E+02  0.30000000000E+02  0.47000000000E+01 0.  1.
         -5    1    1    2    0  501  0.15891023325E+02 -0.52510126833E+01  0.24450199252E+02  0.30000000000E+02  0.47000000000E+01 0. -1.
</event>
<event>
 4    1  0.7509957E-002  0.6000000E+02  0.7546771E-02  0.1259629E+00
         11   -1    0    0    0    0  0.00000000000E+00  0.00000000000E+00  0.30000000000E+02  0.30000000000E+02  0.00000000000E+00 0. -1.
        -11   -1    0    0    0    0 -0.00000000000E+00 -0.00000000000E+00 -0.30000000000E+02  0.30000000000E+02  0.00000000000E+00 0.  1.
          5    1    1    2  501    0  0.99101989879E+01 -0.15859374331E+02 -0.22982127879E+02  0.30000000000E+02  0.47000000000E+01 0.  1.
         -5    1    1    2    0  501 -0.99101989879E+01  0.15859374331E+02  0.22982127879E+02  0.30000000000E+02  0.47000000000E+01 0. -1.
</event>
<event>
 4    1  0.7509957E-002  0.6000000E+02  0.7546771E-02  0.1259629E+00
         11   -1    0    0    0    0  0.00000000000E+00  0.00000000000E+00  0.30000000000E+02  0.30000000000E+02  0.00000000000E+00 0. -1.
        -11   -1    0    0    0    0 -0.00000000000E+00 -0.00000000000E+00 -0.30000000000E+02  0.30000000000E+02  0.00000000000E+00 0.  1.
          5    1    1    2  501    0  0.19942438631E+02  0.11065252640E+01 -0.21885720077E+02  0.30000000000E+02  0.47000000000E+01 0.  1.
         -5    1    1    2    0  501 -0.19942438631E+02 -0.11065252640E+01  0.21885720077E+02  0.30000000000E+02  0.47000000000E+01 0. -1.
</event>
<event>
 4    1  0.7509957E-002  0.6000000E+02  0.7546771E-02  0.1259629E+00
         11   -1    0    0    0    0  0.00000000000E+00  0.00000000000E+00  0.30000000000E+02  0.30000000000E+02  0.00000000000E+00 0.  1.
        -11   -1    0    0    0    0 -0.00000000000E+00 -0.00000000000E+00 -0.30000000000E+02  0.30000000000E+02  0.00000000000E+00 0. -1.
          5    1    1    2  501    0 -0.26666501030E+02  0.10834957099E+02 -0.70293262473E+01  0.30000000000E+02  0.47000000000E+01 0. -1.
         -5    1    1    2    0  501  0.26666501030E+02 -0.10834957099E+02  0.70293262473E+01  0.30000000000E+02  0.47000000000E+01 0.  1.
</event>
<event>
 4    1  0.7509957E-002  0.6000000E+02  0.7546771E-02  0.1259629E+00
         11   -1    0    0    0    0  0.00000000000E+00  0.00000000000E+00  0.30000000000E+02  0.30000000000E+02  0.00000000000E+00 0.  1.
        -11   -1    0    0    0    0 -0.00000000000E+00 -0.00000000000E+00 -0.30000000000E+02  0.30000000000E+02  0.00000000000E+00 0. -1.
          5    1    1    2  501    0  0.46286540578E+01  0.17611104971E+02 -0.23373800361E+02  0.30000000000E+02  0.47000000000E+01 0. -1.
         -5    1    1    2    0  501 -0.46286540578E+01 -0.17611104971E+02  0.23373800361E+02  0.30000000000E+02  0.47000000000E+01 0.  1.
</event>
<event>
 4    1  0.7509957E-002  0.6000000E+02  0.7546771E-02  0.1259629E+00
         11   -1    0    0    0    0  0.00000000000E+00  0.00000000000E+00  0.30000000000E+02  0.30000000000E+02  0.00000000000E+00 0.  1.
        -11   -1    0    0    0    0 -0.00000000000E+00 -0.00000000000E+00 -0.30000000000E+02  0.30000000000E+02  0.00000000000E+00 0. -1.
          5    1    1    2  501    0 -0.21963761334E+02 -0.19151807750E+02 -0.53583064489E+01  0.30000000000E+02  0.47000000000E+01 0. -1.
         -5    1    1    2    0  501  0.21963761334E+02  0.19151807750E+02  0.53583064489E+01  0.30000000000E+02  0.47000000000E+01 0.  1.
</event>
<event>
 4    1  0.7509957E-002  0.6000000E+02  0.7546771E-02  0.1259629E+00
         11   -1    0    0    0    0  0.00000000000E+00  0.00000000000E+00  0.30000000000E+02  0.30000000000E+02  0.00000000000E+00 0.  1.
        -11   -1    0    0    0    0 -0.00000000000E+00 -0.00000000000E+00 -0.30000000000E+02  0.30000000000E+02  0.00000000000E+00 0. -1.
          5    1    1    2  501    0 -0.59362042062E+01 -0.41671307801E+01 -0.28728148229E+02  0.30000000000E+02  0.47000000000E+01 0. -1.
         -5    1    1    2    0  501  0.59362042062E+01  0.41671307801E+01  0.28728148229E+02  0.30000000000E+02  0.47000000000E+01 0.  1.
</event>
<event>
 4    1  0.7509957E-002  0.6000000E+02  0.7546771E-02  0.1259629E+00
         11   -1    0    0    0    0  0.00000000000E+00  0.00000000000E+00  0.30000000000E+02  0.30000000000E+02  0.00000000000E+00 0.  1.
        -11   -1    0    0    0    0 -0.00000000000E+00 -0.00000000000E+00 -0.30000000000E+02  0.30000000000E+02  0.00000000000E+00 0. -1.
          5    1    1    2  501    0  0.96233580672E+00 -0.71725101298E+01 -0.28732194630E+02  0.30000000000E+02  0.47000000000E+01 0. -1.
         -5    1    1    2    0  501 -0.96233580672E+00  0.71725101298E+01  0.28732194630E+02  0.30000000000E+02  0.47000000000E+01 0.  1.
</event>
<event>
 4    1  0.7509957E-002  0.6000000E+02  0.7546771E-02  0.1259629E+00
         11   -1    0    0    0    0  0.00000000000E+00  0.00000000000E+00  0.30000000000E+02  0.30000000000E+02  0.00000000000E+00 0.  1.
        -11   -1    0    0    0    0 -0.00000000000E+00 -0.00000000000E+00 -0.30000000000E+02  0.30000000000E+02  0.00000000000E+00 0. -1.
          5    1    1    2  501    0  0.24353074451E+02 -0.16614523293E+02  0.29657006769E+01  0.30000000000E+02  0.47000000000E+01 0.  1.
         -5    1    1    2    0  501 -0.24353074451E+02  0.16614523293E+02 -0.29657006769E+01  0.30000000000E+02  0.47000000000E+01 0. -1.
</event>
<event>
 4    1  0.7509957E-002  0.6000000E+02  0.7546771E-02  0.1259629E+00
         11   -1    0    0    0    0  0.00000000000E+00  0.00000000000E+00  0.30000000000E+02  0.30000000000E+02  0.00000000000E+00 0.  1.
        -11   -1    0    0    0    0 -0.00000000000E+00 -0.00000000000E+00 -0.30000000000E+02  0.30000000000E+02  0.00000000000E+00 0. -1.
          5    1    1    2  501    0  0.27393640227E+02  0.73925464404E+01 -0.85351468801E+01  0.30000000000E+02  0.47000000000E+01 0. -1.
         -5    1    1    2    0  501 -0.27393640227E+02 -0.73925464404E+01  0.85351468801E+01  0.30000000000E+02  0.47000000000E+01 0.  1.
</event>
<event>
 4    1  0.7509957E-002  0.6000000E+02  0.7546771E-02  0.1259629E+00
         11   -1    0    0    0    0  0.00000000000E+00  0.00000000000E+00  0.30000000000E+02  0.30000000000E+02  0.00000000000E+00 0.  1.
        -11   -1    0    0    0    0 -0.00000000000E+00 -0.00000000000E+00 -0.30000000000E+02  0.30000000000E+02  0.00000000000E+00 0. -1.
          5    1    1    2  501    0  0.86449597713E+01  0.34563552577E+01 -0.28128780259E+02  0.30000000000E+02  0.47000000000E+01 0. -1.
         -5    1    1    2    0  501 -0.86449597713E+01 -0.34563552577E+01  0.28128780259E+02  0.30000000000E+02  0.47000000000E+01 0.  1.
</event>
<event>
 4    1  0.7509957E-002  0.6000000E+02  0.7546771E-02  0.1259629E+00
         11   -1    0    0    0    0  0.00000000000E+00  0.00000000000E+00  0.30000000000E+02  0.30000000000E+02  0.00000000000E+00 0.  1.
        -11   -1    0    0    0    0 -0.00000000000E+00 -0.00000000000E+00 -0.30000000000E+02  0.30000000000E+02  0.00000000000E+00 0. -1.
          5    1    1    2  501    0  0.39898901195E+01 -0.10414120821E+02 -0.27450625937E+02  0.30000000000E+02  0.47000000000E+01 0. -1.
         -5    1    1    2    0  501 -0.39898901195E+01  0.10414120821E+02  0.27450625937E+02  0.30000000000E+02  0.47000000000E+01 0.  1.
</event>
<event>
 4    1  0.7509957E-002  0.6000000E+02  0.7546771E-02  0.1259629E+00
         11   -1    0    0    0    0  0.00000000000E+00  0.00000000000E+00  0.30000000000E+02  0.30000000000E+02  0.00000000000E+00 0.  1.
        -11   -1    0    0    0    0 -0.00000000000E+00 -0.00000000000E+00 -0.30000000000E+02  0.30000000000E+02  0.00000000000E+00 0. -1.
          5    1    1    2  501    0  0.96282161971E+01  0.23599502701E+02 -0.15108637435E+02  0.30000000000E+02  0.47000000000E+01 0. -1.
         -5    1    1    2    0  501 -0.96282161971E+01 -0.23599502701E+02  0.15108637435E+02  0.30000000000E+02  0.47000000000E+01 0.  1.
</event>
<event>
 4    1  0.7509957E-002  0.6000000E+02  0.7546771E-02  0.1259629E+00
         11   -1    0    0    0    0  0.00000000000E+00  0.00000000000E+00  0.30000000000E+02  0.30000000000E+02  0.00000000000E+00 0.  1.
        -11   -1    0    0    0    0 -0.00000000000E+00 -0.00000000000E+00 -0.30000000000E+02  0.30000000000E+02  0.00000000000E+00 0. -1.
          5    1    1    2  501    0 -0.69290469997E+01 -0.82565657546E+01 -0.27599409950E+02  0.30000000000E+02  0.47000000000E+01 0. -1.
         -5    1    1    2    0  501  0.69290469997E+01  0.82565657546E+01  0.27599409950E+02  0.30000000000E+02  0.47000000000E+01 0.  1.
</event>
<event>
 4    1  0.7509957E-002  0.6000000E+02  0.7546771E-02  0.1259629E+00
         11   -1    0    0    0    0  0.00000000000E+00  0.00000000000E+00  0.30000000000E+02  0.30000000000E+02  0.00000000000E+00 0.  1.
        -11   -1    0    0    0    0 -0.00000000000E+00 -0.00000000000E+00 -0.30000000000E+02  0.30000000000E+02  0.00000000000E+00 0. -1.
          5    1    1    2  501    0 -0.25681630377E+02 -0.89122539435E+01 -0.11787094249E+02  0.30000000000E+02  0.47000000000E+01 0. -1.
         -5    1    1    2    0  501  0.25681630377E+02  0.89122539435E+01  0.11787094249E+02  0.30000000000E+02  0.47000000000E+01 0.  1.
</event>
<event>
 4    1  0.7509957E-002  0.6000000E+02  0.7546771E-02  0.1259629E+00
         11   -1    0    0    0    0  0.00000000000E+00  0.00000000000E+00  0.30000000000E+02  0.30000000000E+02  0.00000000000E+00 0. -1.
        -11   -1    0    0    0    0 -0.00000000000E+00 -0.00000000000E+00 -0.30000000000E+02  0.30000000000E+02  0.00000000000E+00 0.  1.
          5    1    1    2  501    0 -0.43699569686E+01 -0.11111956626E+02  0.27117114449E+02  0.30000000000E+02  0.47000000000E+01 0. -1.
         -5    1    1    2    0  501  0.43699569686E+01  0.11111956626E+02 -0.27117114449E+02  0.30000000000E+02  0.47000000000E+01 0.  1.
</event>
<event>
 4    1  0.7509957E-002  0.6000000E+02  0.7546771E-02  0.1259629E+00
         11   -1    0    0    0    0  0.00000000000E+00  0.00000000000E+00  0.30000000000E+02  0.30000000000E+02  0.00000000000E+00 0.  1.
        -11   -1    0    0    0    0 -0.00000000000E+00 -0.00000000000E+00 -0.30000000000E+02  0.30000000000E+02  0.00000000000E+00 0. -1.
          5    1    1    2  501    0  0.64743237159E+01 -0.69914945115E+01  0.28055518832E+02  0.30000000000E+02  0.47000000000E+01 0.  1.
         -5    1    1    2    0  501 -0.64743237159E+01  0.69914945115E+01 -0.28055518832E+02  0.30000000000E+02  0.47000000000E+01 0. -1.
</event>
<event>
 4    1  0.7509957E-002  0.6000000E+02  0.7546771E-02  0.1259629E+00
         11   -1    0    0    0    0  0.00000000000E+00  0.00000000000E+00  0.30000000000E+02  0.30000000000E+02  0.00000000000E+00 0.  1.
        -11   -1    0    0    0    0 -0.00000000000E+00 -0.00000000000E+00 -0.30000000000E+02  0.30000000000E+02  0.00000000000E+00 0. -1.
          5    1    1    2  501    0 -0.14769411592E+02 -0.25589057263E+02  0.22303877701E+01  0.30000000000E+02  0.47000000000E+01 0. -1.
         -5    1    1    2    0  501  0.14769411592E+02  0.25589057263E+02 -0.22303877701E+01  0.30000000000E+02  0.47000000000E+01 0.  1.
</event>
<event>
 4    1  0.7509957E-002  0.6000000E+02  0.7546771E-02  0.1259629E+00
         11   -1    0    0    0    0  0.00000000000E+00  0.00000000000E+00  0.30000000000E+02  0.30000000000E+02  0.00000000000E+00 0.  1.
        -11   -1    0    0    0    0 -0.00000000000E+00 -0.00000000000E+00 -0.30000000000E+02  0.30000000000E+02  0.00000000000E+00 0. -1.
          5    1    1    2  501    0  0.15036560415E+02  0.12109007683E+02 -0.22476293819E+02  0.30000000000E+02  0.47000000000E+01 0. -1.
         -5    1    1    2    0  501 -0.15036560415E+02 -0.12109007683E+02  0.22476293819E+02  0.30000000000E+02  0.47000000000E+01 0.  1.
</event>
<event>
 4    1  0.7509957E-002  0.6000000E+02  0.7546771E-02  0.1259629E+00
         11   -1    0    0    0    0  0.00000000000E+00  0.00000000000E+00  0.30000000000E+02  0.30000000000E+02  0.00000000000E+00 0. -1.
        -11   -1    0    0    0    0 -0.00000000000E+00 -0.00000000000E+00 -0.30000000000E+02  0.30000000000E+02  0.00000000000E+00 0.  1.
          5    1    1    2  501    0 -0.23584472271E+02  0.13960231518E+02 -0.11260310994E+02  0.30000000000E+02  0.47000000000E+01 0. -1.
         -5    1    1    2    0  501  0.23584472271E+02 -0.13960231518E+02  0.11260310994E+02  0.30000000000E+02  0.47000000000E+01 0.  1.
</event>
<event>
 4    1  0.7509957E-002  0.6000000E+02  0.7546771E-02  0.1259629E+00
         11   -1    0    0    0    0  0.00000000000E+00  0.00000000000E+00  0.30000000000E+02  0.30000000000E+02  0.00000000000E+00 0.  1.
        -11   -1    0    0    0    0 -0.00000000000E+00 -0.00000000000E+00 -0.30000000000E+02  0.30000000000E+02  0.00000000000E+00 0. -1.
          5    1    1    2  501    0  0.46396100095E+01 -0.29158680878E+02 -0.24809974687E+01  0.30000000000E+02  0.47000000000E+01 0. -1.
         -5    1    1    2    0  501 -0.46396100095E+01  0.29158680878E+02  0.24809974687E+01  0.30000000000E+02  0.47000000000E+01 0.  1.
</event>
<event>
 4    1  0.7509957E-002  0.6000000E+02  0.7546771E-02  0.1259629E+00
         11   -1    0    0    0    0  0.00000000000E+00  0.00000000000E+00  0.30000000000E+02  0.30000000000E+02  0.00000000000E+00 0.  1.
        -11   -1    0    0    0    0 -0.00000000000E+00 -0.00000000000E+00 -0.30000000000E+02  0.30000000000E+02  0.00000000000E+00 0. -1.
          5    1    1    2  501    0 -0.59017205051E+01 -0.16070690778E+02 -0.24182898771E+02  0.30000000000E+02  0.47000000000E+01 0. -1.
         -5    1    1    2    0  501  0.59017205051E+01  0.16070690778E+02  0.24182898771E+02  0.30000000000E+02  0.47000000000E+01 0.  1.
</event>
<event>
 4    1  0.7509957E-002  0.6000000E+02  0.7546771E-02  0.1259629E+00
         11   -1    0    0    0    0  0.00000000000E+00  0.00000000000E+00  0.30000000000E+02  0.30000000000E+02  0.00000000000E+00 0.  1.
        -11   -1    0    0    0    0 -0.00000000000E+00 -0.00000000000E+00 -0.30000000000E+02  0.30000000000E+02  0.00000000000E+00 0. -1.
          5    1    1    2  501    0  0.18645340527E+02 -0.12824420441E+02 -0.19125781474E+02  0.30000000000E+02  0.47000000000E+01 0. -1.
         -5    1    1    2    0  501 -0.18645340527E+02  0.12824420441E+02  0.19125781474E+02  0.30000000000E+02  0.47000000000E+01 0.  1.
</event>
<event>
 4    1  0.7509957E-002  0.6000000E+02  0.7546771E-02  0.1259629E+00
         11   -1    0    0    0    0  0.00000000000E+00  0.00000000000E+00  0.30000000000E+02  0.30000000000E+02  0.00000000000E+00 0.  1.
        -11   -1    0    0    0    0 -0.00000000000E+00 -0.00000000000E+00 -0.30000000000E+02  0.30000000000E+02  0.00000000000E+00 0. -1.
          5    1    1    2  501    0 -0.12447405925E+02 -0.38382429599E+01 -0.26612778448E+02  0.30000000000E+02  0.47000000000E+01 0. -1.
         -5    1    1    2    0  501  0.12447405925E+02  0.38382429599E+01  0.26612778448E+02  0.30000000000E+02  0.47000000000E+01 0.  1.
</event>
<event>
 4    1  0.7509957E-002  0.6000000E+02  0.7546771E-02  0.1259629E+00
         11   -1    0    0    0    0  0.00000000000E+00  0.00000000000E+00  0.30000000000E+02  0.30000000000E+02  0.00000000000E+00 0.  1.
        -11   -1    0    0    0    0 -0.00000000000E+00 -0.00000000000E+00 -0.30000000000E+02  0.30000000000E+02  0.00000000000E+00 0. -1.
          5    1    1    2  501    0 -0.87102123542E+00  0.62688812719E+01 -0.28945681018E+02  0.30000000000E+02  0.47000000000E+01 0. -1.
         -5    1    1    2    0  501  0.87102123542E+00 -0.62688812719E+01  0.28945681018E+02  0.30000000000E+02  0.47000000000E+01 0.  1.
</event>
<event>
 4    1  0.7509957E-002  0.6000000E+02  0.7546771E-02  0.1259629E+00
         11   -1    0    0    0    0  0.00000000000E+00  0.00000000000E+00  0.30000000000E+02  0.30000000000E+02  0.00000000000E+00 0.  1.
        -11   -1    0    0    0    0 -0.00000000000E+00 -0.00000000000E+00 -0.30000000000E+02  0.30000000000E+02  0.00000000000E+00 0. -1.
          5    1    1    2  501    0  0.21321320772E+02 -0.78345996614E+01 -0.19024466580E+02  0.30000000000E+02  0.47000000000E+01 0. -1.
         -5    1    1    2    0  501 -0.21321320772E+02  0.78345996614E+01  0.19024466580E+02  0.30000000000E+02  0.47000000000E+01 0.  1.
</event>
<event>
 4    1  0.7509957E-002  0.6000000E+02  0.7546771E-02  0.1259629E+00
         11   -1    0    0    0    0  0.00000000000E+00  0.00000000000E+00  0.30000000000E+02  0.30000000000E+02  0.00000000000E+00 0.  1.
        -11   -1    0    0    0    0 -0.00000000000E+00 -0.00000000000E+00 -0.30000000000E+02  0.30000000000E+02  0.00000000000E+00 0. -1.
          5    1    1    2  501    0 -0.68811711905E+01  0.13017981731E+02 -0.25711702291E+02  0.30000000000E+02  0.47000000000E+01 0. -1.
         -5    1    1    2    0  501  0.68811711905E+01 -0.13017981731E+02  0.25711702291E+02  0.30000000000E+02  0.47000000000E+01 0.  1.
</event>
<event>
 4    1  0.7509957E-002  0.6000000E+02  0.7546771E-02  0.1259629E+00
         11   -1    0    0    0    0  0.00000000000E+00  0.00000000000E+00  0.30000000000E+02  0.30000000000E+02  0.00000000000E+00 0.  1.
        -11   -1    0    0    0    0 -0.00000000000E+00 -0.00000000000E+00 -0.30000000000E+02  0.30000000000E+02  0.00000000000E+00 0. -1.
          5    1    1    2  501    0 -0.13984282414E+02  0.50177271713E+01 -0.25635371255E+02  0.30000000000E+02  0.47000000000E+01 0. -1.
         -5    1    1    2    0  501  0.13984282414E+02 -0.50177271713E+01  0.25635371255E+02  0.30000000000E+02  0.47000000000E+01 0.  1.
</event>
<event>
 4    1  0.7509957E-002  0.6000000E+02  0.7546771E-02  0.1259629E+00
         11   -1    0    0    0    0  0.00000000000E+00  0.00000000000E+00  0.30000000000E+02  0.30000000000E+02  0.00000000000E+00 0.  1.
        -11   -1    0    0    0    0 -0.00000000000E+00 -0.00000000000E+00 -0.30000000000E+02  0.30000000000E+02  0.00000000000E+00 0. -1.
          5    1    1    2  501    0  0.25151580945E+02  0.13960471315E+02 -0.71002265199E+01  0.30000000000E+02  0.47000000000E+01 0. -1.
         -5    1    1    2    0  501 -0.25151580945E+02 -0.13960471315E+02  0.71002265199E+01  0.30000000000E+02  0.47000000000E+01 0. -1.
</event>
<event>
 4    1  0.7509957E-002  0.6000000E+02  0.7546771E-02  0.1259629E+00
         11   -1    0    0    0    0  0.00000000000E+00  0.00000000000E+00  0.30000000000E+02  0.30000000000E+02  0.00000000000E+00 0.  1.
        -11   -1    0    0    0    0 -0.00000000000E+00 -0.00000000000E+00 -0.30000000000E+02  0.30000000000E+02  0.00000000000E+00 0. -1.
          5    1    1    2  501    0 -0.56669195319E+00 -0.29254584198E+02  0.46645646801E+01  0.30000000000E+02  0.47000000000E+01 0. -1.
         -5    1    1    2    0  501  0.56669195319E+00  0.29254584198E+02 -0.46645646801E+01  0.30000000000E+02  0.47000000000E+01 0.  1.
</event>
<event>
 4    1  0.7509957E-002  0.6000000E+02  0.7546771E-02  0.1259629E+00
         11   -1    0    0    0    0  0.00000000000E+00  0.00000000000E+00  0.30000000000E+02  0.30000000000E+02  0.00000000000E+00 0.  1.
        -11   -1    0    0    0    0 -0.00000000000E+00 -0.00000000000E+00 -0.30000000000E+02  0.30000000000E+02  0.00000000000E+00 0. -1.
          5    1    1    2  501    0 -0.23577039001E+02 -0.36060719449E+01 -0.17579234258E+02  0.30000000000E+02  0.47000000000E+01 0. -1.
         -5    1    1    2    0  501  0.23577039001E+02  0.36060719449E+01  0.17579234258E+02  0.30000000000E+02  0.47000000000E+01 0.  1.
</event>
<event>
 4    1  0.7509957E-002  0.6000000E+02  0.7546771E-02  0.1259629E+00
         11   -1    0    0    0    0  0.00000000000E+00  0.00000000000E+00  0.30000000000E+02  0.30000000000E+02  0.00000000000E+00 0.  1.
        -11   -1    0    0    0    0 -0.00000000000E+00 -0.00000000000E+00 -0.30000000000E+02  0.30000000000E+02  0.00000000000E+00 0. -1.
          5    1    1    2  501    0  0.11932196681E+02 -0.78049444348E+01 -0.25973361830E+02  0.30000000000E+02  0.47000000000E+01 0. -1.
         -5    1    1    2    0  501 -0.11932196681E+02  0.78049444348E+01  0.25973361830E+02  0.30000000000E+02  0.47000000000E+01 0.  1.
</event>
<event>
 4    1  0.7509957E-002  0.6000000E+02  0.7546771E-02  0.1259629E+00
         11   -1    0    0    0    0  0.00000000000E+00  0.00000000000E+00  0.30000000000E+02  0.30000000000E+02  0.00000000000E+00 0.  1.
        -11   -1    0    0    0    0 -0.00000000000E+00 -0.00000000000E+00 -0.30000000000E+02  0.30000000000E+02  0.00000000000E+00 0. -1.
          5    1    1    2  501    0  0.59932496901E+01 -0.14656934372E+02 -0.25043267218E+02  0.30000000000E+02  0.47000000000E+01 0. -1.
         -5    1    1    2    0  501 -0.59932496901E+01  0.14656934372E+02  0.25043267218E+02  0.30000000000E+02  0.47000000000E+01 0.  1.
</event>
<event>
 4    1  0.7509957E-002  0.6000000E+02  0.7546771E-02  0.1259629E+00
         11   -1    0    0    0    0  0.00000000000E+00  0.00000000000E+00  0.30000000000E+02  0.30000000000E+02  0.00000000000E+00 0.  1.
        -11   -1    0    0    0    0 -0.00000000000E+00 -0.00000000000E+00 -0.30000000000E+02  0.30000000000E+02  0.00000000000E+00 0. -1.
          5    1    1    2  501    0 -0.15420411985E+00  0.53822321160E+01 -0.29136193961E+02  0.30000000000E+02  0.47000000000E+01 0. -1.
         -5    1    1    2    0  501  0.15420411985E+00 -0.53822321160E+01  0.29136193961E+02  0.30000000000E+02  0.47000000000E+01 0.  1.
</event>
<event>
 4    1  0.7509957E-002  0.6000000E+02  0.7546771E-02  0.1259629E+00
         11   -1    0    0    0    0  0.00000000000E+00  0.00000000000E+00  0.30000000000E+02  0.30000000000E+02  0.00000000000E+00 0. -1.
        -11   -1    0    0    0    0 -0.00000000000E+00 -0.00000000000E+00 -0.30000000000E+02  0.30000000000E+02  0.00000000000E+00 0.  1.
          5    1    1    2  501    0  0.16747816278E+02  0.15628710733E+02  0.18792659491E+02  0.30000000000E+02  0.47000000000E+01 0. -1.
         -5    1    1    2    0  501 -0.16747816278E+02 -0.15628710733E+02 -0.18792659491E+02  0.30000000000E+02  0.47000000000E+01 0.  1.
</event>
<event>
 4    1  0.7509957E-002  0.6000000E+02  0.7546771E-02  0.1259629E+00
         11   -1    0    0    0    0  0.00000000000E+00  0.00000000000E+00  0.30000000000E+02  0.30000000000E+02  0.00000000000E+00 0.  1.
        -11   -1    0    0    0    0 -0.00000000000E+00 -0.00000000000E+00 -0.30000000000E+02  0.30000000000E+02  0.00000000000E+00 0. -1.
          5    1    1    2  501    0 -0.12697571084E+01 -0.25487260335E+02 -0.15056469622E+02  0.30000000000E+02  0.47000000000E+01 0. -1.
         -5    1    1    2    0  501  0.12697571084E+01  0.25487260335E+02  0.15056469622E+02  0.30000000000E+02  0.47000000000E+01 0.  1.
</event>
<event>
 4    1  0.7509957E-002  0.6000000E+02  0.7546771E-02  0.1259629E+00
         11   -1    0    0    0    0  0.00000000000E+00  0.00000000000E+00  0.30000000000E+02  0.30000000000E+02  0.00000000000E+00 0.  1.
        -11   -1    0    0    0    0 -0.00000000000E+00 -0.00000000000E+00 -0.30000000000E+02  0.30000000000E+02  0.00000000000E+00 0. -1.
          5    1    1    2  501    0  0.13428731309E+02  0.21022557353E+02  0.15988472653E+02  0.30000000000E+02  0.47000000000E+01 0. -1.
         -5    1    1    2    0  501 -0.13428731309E+02 -0.21022557353E+02 -0.15988472653E+02  0.30000000000E+02  0.47000000000E+01 0.  1.
</event>
<event>
 4    1  0.7509957E-002  0.6000000E+02  0.7546771E-02  0.1259629E+00
         11   -1    0    0    0    0  0.00000000000E+00  0.00000000000E+00  0.30000000000E+02  0.30000000000E+02  0.00000000000E+00 0.  1.
        -11   -1    0    0    0    0 -0.00000000000E+00 -0.00000000000E+00 -0.30000000000E+02  0.30000000000E+02  0.00000000000E+00 0. -1.
          5    1    1    2  501    0 -0.19306940353E+02 -0.21249173919E+02 -0.73228861785E+01  0.30000000000E+02  0.47000000000E+01 0. -1.
         -5    1    1    2    0  501  0.19306940353E+02  0.21249173919E+02  0.73228861785E+01  0.30000000000E+02  0.47000000000E+01 0.  1.
</event>
<event>
 4    1  0.7509957E-002  0.6000000E+02  0.7546771E-02  0.1259629E+00
         11   -1    0    0    0    0  0.00000000000E+00  0.00000000000E+00  0.30000000000E+02  0.30000000000E+02  0.00000000000E+00 0.  1.
        -11   -1    0    0    0    0 -0.00000000000E+00 -0.00000000000E+00 -0.30000000000E+02  0.30000000000E+02  0.00000000000E+00 0. -1.
          5    1    1    2  501    0  0.27579295694E+01 -0.10488334768E+02 -0.27573513709E+02  0.30000000000E+02  0.47000000000E+01 0. -1.
         -5    1    1    2    0  501 -0.27579295694E+01  0.10488334768E+02  0.27573513709E+02  0.30000000000E+02  0.47000000000E+01 0.  1.
</event>
<event>
 4    1  0.7509957E-002  0.6000000E+02  0.7546771E-02  0.1259629E+00
         11   -1    0    0    0    0  0.00000000000E+00  0.00000000000E+00  0.30000000000E+02  0.30000000000E+02  0.00000000000E+00 0.  1.
        -11   -1    0    0    0    0 -0.00000000000E+00 -0.00000000000E+00 -0.30000000000E+02  0.30000000000E+02  0.00000000000E+00 0. -1.
          5    1    1    2  501    0  0.15190856667E+02 -0.12142901375E+02 -0.22353921802E+02  0.30000000000E+02  0.47000000000E+01 0. -1.
         -5    1    1    2    0  501 -0.15190856667E+02  0.12142901375E+02  0.22353921802E+02  0.30000000000E+02  0.47000000000E+01 0.  1.
</event>
<event>
 4    1  0.7509957E-002  0.6000000E+02  0.7546771E-02  0.1259629E+00
         11   -1    0    0    0    0  0.00000000000E+00  0.00000000000E+00  0.30000000000E+02  0.30000000000E+02  0.00000000000E+00 0. -1.
        -11   -1    0    0    0    0 -0.00000000000E+00 -0.00000000000E+00 -0.30000000000E+02  0.30000000000E+02  0.00000000000E+00 0.  1.
          5    1    1    2  501    0  0.76821621680E+01 -0.22450210155E+02  0.17744927400E+02  0.30000000000E+02  0.47000000000E+01 0. -1.
         -5    1    1    2    0  501 -0.76821621680E+01  0.22450210155E+02 -0.17744927400E+02  0.30000000000E+02  0.47000000000E+01 0.  1.
</event>
<event>
 4    1  0.7509957E-002  0.6000000E+02  0.7546771E-02  0.1259629E+00
         11   -1    0    0    0    0  0.00000000000E+00  0.00000000000E+00  0.30000000000E+02  0.30000000000E+02  0.00000000000E+00 0.  1.
        -11   -1    0    0    0    0 -0.00000000000E+00 -0.00000000000E+00 -0.30000000000E+02  0.30000000000E+02  0.00000000000E+00 0. -1.
          5    1    1    2  501    0 -0.19650417165E+02 -0.84461870943E+01 -0.20504463631E+02  0.30000000000E+02  0.47000000000E+01 0. -1.
         -5    1    1    2    0  501  0.19650417165E+02  0.84461870943E+01  0.20504463631E+02  0.30000000000E+02  0.47000000000E+01 0.  1.
</event>
<event>
 4    1  0.7509957E-002  0.6000000E+02  0.7546771E-02  0.1259629E+00
         11   -1    0    0    0    0  0.00000000000E+00  0.00000000000E+00  0.30000000000E+02  0.30000000000E+02  0.00000000000E+00 0. -1.
        -11   -1    0    0    0    0 -0.00000000000E+00 -0.00000000000E+00 -0.30000000000E+02  0.30000000000E+02  0.00000000000E+00 0.  1.
          5    1    1    2  501    0 -0.75554766906E+01  0.86024558433E+01  0.27328053817E+02  0.30000000000E+02  0.47000000000E+01 0. -1.
         -5    1    1    2    0  501  0.75554766906E+01 -0.86024558433E+01 -0.27328053817E+02  0.30000000000E+02  0.47000000000E+01 0.  1.
</event>
<event>
 4    1  0.7509957E-002  0.6000000E+02  0.7546771E-02  0.1259629E+00
         11   -1    0    0    0    0  0.00000000000E+00  0.00000000000E+00  0.30000000000E+02  0.30000000000E+02  0.00000000000E+00 0. -1.
        -11   -1    0    0    0    0 -0.00000000000E+00 -0.00000000000E+00 -0.30000000000E+02  0.30000000000E+02  0.00000000000E+00 0.  1.
          5    1    1    2  501    0  0.11975983906E+01 -0.21886676055E+02  0.19936127240E+02  0.30000000000E+02  0.47000000000E+01 0.  1.
         -5    1    1    2    0  501 -0.11975983906E+01  0.21886676055E+02 -0.19936127240E+02  0.30000000000E+02  0.47000000000E+01 0. -1.
</event>
<event>
 4    1  0.7509957E-002  0.6000000E+02  0.7546771E-02  0.1259629E+00
         11   -1    0    0    0    0  0.00000000000E+00  0.00000000000E+00  0.30000000000E+02  0.30000000000E+02  0.00000000000E+00 0.  1.
        -11   -1    0    0    0    0 -0.00000000000E+00 -0.00000000000E+00 -0.30000000000E+02  0.30000000000E+02  0.00000000000E+00 0. -1.
          5    1    1    2  501    0  0.28796883868E+02  0.12429842901E+01 -0.68632695960E+01  0.30000000000E+02  0.47000000000E+01 0. -1.
         -5    1    1    2    0  501 -0.28796883868E+02 -0.12429842901E+01  0.68632695960E+01  0.30000000000E+02  0.47000000000E+01 0.  1.
</event>
<event>
 4    1  0.7509957E-002  0.6000000E+02  0.7546771E-02  0.1259629E+00
         11   -1    0    0    0    0  0.00000000000E+00  0.00000000000E+00  0.30000000000E+02  0.30000000000E+02  0.00000000000E+00 0. -1.
        -11   -1    0    0    0    0 -0.00000000000E+00 -0.00000000000E+00 -0.30000000000E+02  0.30000000000E+02  0.00000000000E+00 0.  1.
          5    1    1    2  501    0 -0.80203202372E+01 -0.25655945972E+02 -0.12464224789E+02  0.30000000000E+02  0.47000000000E+01 0.  1.
         -5    1    1    2    0  501  0.80203202372E+01  0.25655945972E+02  0.12464224789E+02  0.30000000000E+02  0.47000000000E+01 0. -1.
</event>
<event>
 4    1  0.7509957E-002  0.6000000E+02  0.7546771E-02  0.1259629E+00
         11   -1    0    0    0    0  0.00000000000E+00  0.00000000000E+00  0.30000000000E+02  0.30000000000E+02  0.00000000000E+00 0.  1.
        -11   -1    0    0    0    0 -0.00000000000E+00 -0.00000000000E+00 -0.30000000000E+02  0.30000000000E+02  0.00000000000E+00 0. -1.
          5    1    1    2  501    0  0.28750816580E+02 -0.33456673274E+01 -0.63330131960E+01  0.30000000000E+02  0.47000000000E+01 0. -1.
         -5    1    1    2    0  501 -0.28750816580E+02  0.33456673274E+01  0.63330131960E+01  0.30000000000E+02  0.47000000000E+01 0.  1.
</event>
<event>
 4    1  0.7509957E-002  0.6000000E+02  0.7546771E-02  0.1259629E+00
         11   -1    0    0    0    0  0.00000000000E+00  0.00000000000E+00  0.30000000000E+02  0.30000000000E+02  0.00000000000E+00 0.  1.
        -11   -1    0    0    0    0 -0.00000000000E+00 -0.00000000000E+00 -0.30000000000E+02  0.30000000000E+02  0.00000000000E+00 0. -1.
          5    1    1    2  501    0 -0.18966084671E+02  0.21281310263E+02  0.80810559787E+01  0.30000000000E+02  0.47000000000E+01 0. -1.
         -5    1    1    2    0  501  0.18966084671E+02 -0.21281310263E+02 -0.80810559787E+01  0.30000000000E+02  0.47000000000E+01 0.  1.
</event>
<event>
 4    1  0.7509957E-002  0.6000000E+02  0.7546771E-02  0.1259629E+00
         11   -1    0    0    0    0  0.00000000000E+00  0.00000000000E+00  0.30000000000E+02  0.30000000000E+02  0.00000000000E+00 0. -1.
        -11   -1    0    0    0    0 -0.00000000000E+00 -0.00000000000E+00 -0.30000000000E+02  0.30000000000E+02  0.00000000000E+00 0.  1.
          5    1    1    2  501    0  0.21078389520E+02  0.12730624878E+02 -0.16478552286E+02  0.30000000000E+02  0.47000000000E+01 0.  1.
         -5    1    1    2    0  501 -0.21078389520E+02 -0.12730624878E+02  0.16478552286E+02  0.30000000000E+02  0.47000000000E+01 0. -1.
</event>
<event>
 4    1  0.7509957E-002  0.6000000E+02  0.7546771E-02  0.1259629E+00
         11   -1    0    0    0    0  0.00000000000E+00  0.00000000000E+00  0.30000000000E+02  0.30000000000E+02  0.00000000000E+00 0.  1.
        -11   -1    0    0    0    0 -0.00000000000E+00 -0.00000000000E+00 -0.30000000000E+02  0.30000000000E+02  0.00000000000E+00 0. -1.
          5    1    1    2  501    0  0.38467774076E+01 -0.28539827453E+02 -0.69706924015E+01  0.30000000000E+02  0.47000000000E+01 0. -1.
         -5    1    1    2    0  501 -0.38467774076E+01  0.28539827453E+02  0.69706924015E+01  0.30000000000E+02  0.47000000000E+01 0.  1.
</event>
<event>
 4    1  0.7509957E-002  0.6000000E+02  0.7546771E-02  0.1259629E+00
         11   -1    0    0    0    0  0.00000000000E+00  0.00000000000E+00  0.30000000000E+02  0.30000000000E+02  0.00000000000E+00 0. -1.
        -11   -1    0    0    0    0 -0.00000000000E+00 -0.00000000000E+00 -0.30000000000E+02  0.30000000000E+02  0.00000000000E+00 0.  1.
          5    1    1    2  501    0 -0.50103379812E+01 -0.87085129736E+01 -0.27874151379E+02  0.30000000000E+02  0.47000000000E+01 0.  1.
         -5    1    1    2    0  501  0.50103379812E+01  0.87085129736E+01  0.27874151379E+02  0.30000000000E+02  0.47000000000E+01 0. -1.
</event>
<event>
 4    1  0.7509957E-002  0.6000000E+02  0.7546771E-02  0.1259629E+00
         11   -1    0    0    0    0  0.00000000000E+00  0.00000000000E+00  0.30000000000E+02  0.30000000000E+02  0.00000000000E+00 0.  1.
        -11   -1    0    0    0    0 -0.00000000000E+00 -0.00000000000E+00 -0.30000000000E+02  0.30000000000E+02  0.00000000000E+00 0. -1.
          5    1    1    2  501    0  0.17673335434E+02 -0.72726953355E+01 -0.22642241876E+02  0.30000000000E+02  0.47000000000E+01 0. -1.
         -5    1    1    2    0  501 -0.17673335434E+02  0.72726953355E+01  0.22642241876E+02  0.30000000000E+02  0.47000000000E+01 0.  1.
</event>
<event>
 4    1  0.7509957E-002  0.6000000E+02  0.7546771E-02  0.1259629E+00
         11   -1    0    0    0    0  0.00000000000E+00  0.00000000000E+00  0.30000000000E+02  0.30000000000E+02  0.00000000000E+00 0.  1.
        -11   -1    0    0    0    0 -0.00000000000E+00 -0.00000000000E+00 -0.30000000000E+02  0.30000000000E+02  0.00000000000E+00 0. -1.
          5    1    1    2  501    0  0.24265321472E+02  0.16956986260E+02 -0.12509159950E+01  0.30000000000E+02  0.47000000000E+01 0.  1.
         -5    1    1    2    0  501 -0.24265321472E+02 -0.16956986260E+02  0.12509159950E+01  0.30000000000E+02  0.47000000000E+01 0. -1.
</event>
<event>
 4    1  0.7509957E-002  0.6000000E+02  0.7546771E-02  0.1259629E+00
         11   -1    0    0    0    0  0.00000000000E+00  0.00000000000E+00  0.30000000000E+02  0.30000000000E+02  0.00000000000E+00 0.  1.
        -11   -1    0    0    0    0 -0.00000000000E+00 -0.00000000000E+00 -0.30000000000E+02  0.30000000000E+02  0.00000000000E+00 0. -1.
          5    1    1    2  501    0 -0.28900200711E+02 -0.55123378196E+01 -0.35074963491E+01  0.30000000000E+02  0.47000000000E+01 0. -1.
         -5    1    1    2    0  501  0.28900200711E+02  0.55123378196E+01  0.35074963491E+01  0.30000000000E+02  0.47000000000E+01 0.  1.
</event>
<event>
 4    1  0.7509957E-002  0.6000000E+02  0.7546771E-02  0.1259629E+00
         11   -1    0    0    0    0  0.00000000000E+00  0.00000000000E+00  0.30000000000E+02  0.30000000000E+02  0.00000000000E+00 0.  1.
        -11   -1    0    0    0    0 -0.00000000000E+00 -0.00000000000E+00 -0.30000000000E+02  0.30000000000E+02  0.00000000000E+00 0. -1.
          5    1    1    2  501    0 -0.14623503905E+02  0.20088700215E+02  0.16140237211E+02  0.30000000000E+02  0.47000000000E+01 0.  1.
         -5    1    1    2    0  501  0.14623503905E+02 -0.20088700215E+02 -0.16140237211E+02  0.30000000000E+02  0.47000000000E+01 0. -1.
</event>
<event>
 4    1  0.7509957E-002  0.6000000E+02  0.7546771E-02  0.1259629E+00
         11   -1    0    0    0    0  0.00000000000E+00  0.00000000000E+00  0.30000000000E+02  0.30000000000E+02  0.00000000000E+00 0.  1.
        -11   -1    0    0    0    0 -0.00000000000E+00 -0.00000000000E+00 -0.30000000000E+02  0.30000000000E+02  0.00000000000E+00 0. -1.
          5    1    1    2  501    0  0.20278372981E+02  0.21019859221E+02 -0.49862919657E+01  0.30000000000E+02  0.47000000000E+01 0. -1.
         -5    1    1    2    0  501 -0.20278372981E+02 -0.21019859221E+02  0.49862919657E+01  0.30000000000E+02  0.47000000000E+01 0.  1.
</event>
<event>
 4    1  0.7509957E-002  0.6000000E+02  0.7546771E-02  0.1259629E+00
         11   -1    0    0    0    0  0.00000000000E+00  0.00000000000E+00  0.30000000000E+02  0.30000000000E+02  0.00000000000E+00 0. -1.
        -11   -1    0    0    0    0 -0.00000000000E+00 -0.00000000000E+00 -0.30000000000E+02  0.30000000000E+02  0.00000000000E+00 0.  1.
          5    1    1    2  501    0  0.49585435450E+01 -0.27160385450E+02 -0.10753432387E+02  0.30000000000E+02  0.47000000000E+01 0.  1.
         -5    1    1    2    0  501 -0.49585435450E+01  0.27160385450E+02  0.10753432387E+02  0.30000000000E+02  0.47000000000E+01 0. -1.
</event>
<event>
 4    1  0.7509957E-002  0.6000000E+02  0.7546771E-02  0.1259629E+00
         11   -1    0    0    0    0  0.00000000000E+00  0.00000000000E+00  0.30000000000E+02  0.30000000000E+02  0.00000000000E+00 0.  1.
        -11   -1    0    0    0    0 -0.00000000000E+00 -0.00000000000E+00 -0.30000000000E+02  0.30000000000E+02  0.00000000000E+00 0. -1.
          5    1    1    2  501    0  0.74465181868E+01  0.27057938889E+02 -0.95040680759E+01  0.30000000000E+02  0.47000000000E+01 0. -1.
         -5    1    1    2    0  501 -0.74465181868E+01 -0.27057938889E+02  0.95040680759E+01  0.30000000000E+02  0.47000000000E+01 0.  1.
</event>
<event>
 4    1  0.7509957E-002  0.6000000E+02  0.7546771E-02  0.1259629E+00
         11   -1    0    0    0    0  0.00000000000E+00  0.00000000000E+00  0.30000000000E+02  0.30000000000E+02  0.00000000000E+00 0.  1.
        -11   -1    0    0    0    0 -0.00000000000E+00 -0.00000000000E+00 -0.30000000000E+02  0.30000000000E+02  0.00000000000E+00 0. -1.
          5    1    1    2  501    0 -0.17341320845E+01  0.15060444359E+01 -0.29540389572E+02  0.30000000000E+02  0.47000000000E+01 0. -1.
         -5    1    1    2    0  501  0.17341320845E+01 -0.15060444359E+01  0.29540389572E+02  0.30000000000E+02  0.47000000000E+01 0.  1.
</event>
<event>
 4    1  0.7509957E-002  0.6000000E+02  0.7546771E-02  0.1259629E+00
         11   -1    0    0    0    0  0.00000000000E+00  0.00000000000E+00  0.30000000000E+02  0.30000000000E+02  0.00000000000E+00 0.  1.
        -11   -1    0    0    0    0 -0.00000000000E+00 -0.00000000000E+00 -0.30000000000E+02  0.30000000000E+02  0.00000000000E+00 0. -1.
          5    1    1    2  501    0  0.49313444670E+00 -0.28668618190E+02 -0.74684101048E+01  0.30000000000E+02  0.47000000000E+01 0. -1.
         -5    1    1    2    0  501 -0.49313444670E+00  0.28668618190E+02  0.74684101048E+01  0.30000000000E+02  0.47000000000E+01 0.  1.
</event>
<event>
 4    1  0.7509957E-002  0.6000000E+02  0.7546771E-02  0.1259629E+00
         11   -1    0    0    0    0  0.00000000000E+00  0.00000000000E+00  0.30000000000E+02  0.30000000000E+02  0.00000000000E+00 0.  1.
        -11   -1    0    0    0    0 -0.00000000000E+00 -0.00000000000E+00 -0.30000000000E+02  0.30000000000E+02  0.00000000000E+00 0. -1.
          5    1    1    2  501    0  0.90203336550E+01 -0.28222982104E+02 -0.82836488112E-01  0.30000000000E+02  0.47000000000E+01 0. -1.
         -5    1    1    2    0  501 -0.90203336550E+01  0.28222982104E+02  0.82836488112E-01  0.30000000000E+02  0.47000000000E+01 0.  1.
</event>
<event>
 4    1  0.7509957E-002  0.6000000E+02  0.7546771E-02  0.1259629E+00
         11   -1    0    0    0    0  0.00000000000E+00  0.00000000000E+00  0.30000000000E+02  0.30000000000E+02  0.00000000000E+00 0. -1.
        -11   -1    0    0    0    0 -0.00000000000E+00 -0.00000000000E+00 -0.30000000000E+02  0.30000000000E+02  0.00000000000E+00 0.  1.
          5    1    1    2  501    0 -0.98119385389E+01  0.28633693703E+00 -0.27956285041E+02  0.30000000000E+02  0.47000000000E+01 0.  1.
         -5    1    1    2    0  501  0.98119385389E+01 -0.28633693703E+00  0.27956285041E+02  0.30000000000E+02  0.47000000000E+01 0. -1.
</event>
<event>
 4    1  0.7509957E-002  0.6000000E+02  0.7546771E-02  0.1259629E+00
         11   -1    0    0    0    0  0.00000000000E+00  0.00000000000E+00  0.30000000000E+02  0.30000000000E+02  0.00000000000E+00 0.  1.
        -11   -1    0    0    0    0 -0.00000000000E+00 -0.00000000000E+00 -0.30000000000E+02  0.30000000000E+02  0.00000000000E+00 0. -1.
          5    1    1    2  501    0  0.19489603768E+02 -0.19039747025E+02 -0.11642739290E+02  0.30000000000E+02  0.47000000000E+01 0. -1.
         -5    1    1    2    0  501 -0.19489603768E+02  0.19039747025E+02  0.11642739290E+02  0.30000000000E+02  0.47000000000E+01 0.  1.
</event>
<event>
 4    1  0.7509957E-002  0.6000000E+02  0.7546771E-02  0.1259629E+00
         11   -1    0    0    0    0  0.00000000000E+00  0.00000000000E+00  0.30000000000E+02  0.30000000000E+02  0.00000000000E+00 0. -1.
        -11   -1    0    0    0    0 -0.00000000000E+00 -0.00000000000E+00 -0.30000000000E+02  0.30000000000E+02  0.00000000000E+00 0.  1.
          5    1    1    2  501    0 -0.23578138030E+02  0.11157322376E+01  0.17909119147E+02  0.30000000000E+02  0.47000000000E+01 0. -1.
         -5    1    1    2    0  501  0.23578138030E+02 -0.11157322376E+01 -0.17909119147E+02  0.30000000000E+02  0.47000000000E+01 0.  1.
</event>
<event>
 4    1  0.7509957E-002  0.6000000E+02  0.7546771E-02  0.1259629E+00
         11   -1    0    0    0    0  0.00000000000E+00  0.00000000000E+00  0.30000000000E+02  0.30000000000E+02  0.00000000000E+00 0.  1.
        -11   -1    0    0    0    0 -0.00000000000E+00 -0.00000000000E+00 -0.30000000000E+02  0.30000000000E+02  0.00000000000E+00 0. -1.
          5    1    1    2  501    0  0.99368246853E+01 -0.11889060512E+02 -0.25255093651E+02  0.30000000000E+02  0.47000000000E+01 0. -1.
         -5    1    1    2    0  501 -0.99368246853E+01  0.11889060512E+02  0.25255093651E+02  0.30000000000E+02  0.47000000000E+01 0.  1.
</event>
<event>
 4    1  0.7509957E-002  0.6000000E+02  0.7546771E-02  0.1259629E+00
         11   -1    0    0    0    0  0.00000000000E+00  0.00000000000E+00  0.30000000000E+02  0.30000000000E+02  0.00000000000E+00 0.  1.
        -11   -1    0    0    0    0 -0.00000000000E+00 -0.00000000000E+00 -0.30000000000E+02  0.30000000000E+02  0.00000000000E+00 0. -1.
          5    1    1    2  501    0  0.22804879366E+02 -0.12243872331E+02 -0.14419953796E+02  0.30000000000E+02  0.47000000000E+01 0. -1.
         -5    1    1    2    0  501 -0.22804879366E+02  0.12243872331E+02  0.14419953796E+02  0.30000000000E+02  0.47000000000E+01 0.  1.
</event>
<event>
 4    1  0.7509957E-002  0.6000000E+02  0.7546771E-02  0.1259629E+00
         11   -1    0    0    0    0  0.00000000000E+00  0.00000000000E+00  0.30000000000E+02  0.30000000000E+02  0.00000000000E+00 0.  1.
        -11   -1    0    0    0    0 -0.00000000000E+00 -0.00000000000E+00 -0.30000000000E+02  0.30000000000E+02  0.00000000000E+00 0. -1.
          5    1    1    2  501    0  0.23594651239E+02  0.14589125898E+02 -0.10409603185E+02  0.30000000000E+02  0.47000000000E+01 0. -1.
         -5    1    1    2    0  501 -0.23594651239E+02 -0.14589125898E+02  0.10409603185E+02  0.30000000000E+02  0.47000000000E+01 0.  1.
</event>
<event>
 4    1  0.7509957E-002  0.6000000E+02  0.7546771E-02  0.1259629E+00
         11   -1    0    0    0    0  0.00000000000E+00  0.00000000000E+00  0.30000000000E+02  0.30000000000E+02  0.00000000000E+00 0.  1.
        -11   -1    0    0    0    0 -0.00000000000E+00 -0.00000000000E+00 -0.30000000000E+02  0.30000000000E+02  0.00000000000E+00 0. -1.
          5    1    1    2  501    0 -0.24852606290E+02 -0.53368047150E+01  0.15224206910E+02  0.30000000000E+02  0.47000000000E+01 0. -1.
         -5    1    1    2    0  501  0.24852606290E+02  0.53368047150E+01 -0.15224206910E+02  0.30000000000E+02  0.47000000000E+01 0.  1.
</event>
<event>
 4    1  0.7509957E-002  0.6000000E+02  0.7546771E-02  0.1259629E+00
         11   -1    0    0    0    0  0.00000000000E+00  0.00000000000E+00  0.30000000000E+02  0.30000000000E+02  0.00000000000E+00 0.  1.
        -11   -1    0    0    0    0 -0.00000000000E+00 -0.00000000000E+00 -0.30000000000E+02  0.30000000000E+02  0.00000000000E+00 0. -1.
          5    1    1    2  501    0  0.10382788882E+02  0.93646579988E+01 -0.26122995150E+02  0.30000000000E+02  0.47000000000E+01 0. -1.
         -5    1    1    2    0  501 -0.10382788882E+02 -0.93646579988E+01  0.26122995150E+02  0.30000000000E+02  0.47000000000E+01 0.  1.
</event>
<event>
 4    1  0.7509957E-002  0.6000000E+02  0.7546771E-02  0.1259629E+00
         11   -1    0    0    0    0  0.00000000000E+00  0.00000000000E+00  0.30000000000E+02  0.30000000000E+02  0.00000000000E+00 0.  1.
        -11   -1    0    0    0    0 -0.00000000000E+00 -0.00000000000E+00 -0.30000000000E+02  0.30000000000E+02  0.00000000000E+00 0. -1.
          5    1    1    2  501    0  0.12564573341E+02  0.24673626667E+02 -0.10547684289E+02  0.30000000000E+02  0.47000000000E+01 0. -1.
         -5    1    1    2    0  501 -0.12564573341E+02 -0.24673626667E+02  0.10547684289E+02  0.30000000000E+02  0.47000000000E+01 0.  1.
</event>
<event>
 4    1  0.7509957E-002  0.6000000E+02  0.7546771E-02  0.1259629E+00
         11   -1    0    0    0    0  0.00000000000E+00  0.00000000000E+00  0.30000000000E+02  0.30000000000E+02  0.00000000000E+00 0.  1.
        -11   -1    0    0    0    0 -0.00000000000E+00 -0.00000000000E+00 -0.30000000000E+02  0.30000000000E+02  0.00000000000E+00 0. -1.
          5    1    1    2  501    0 -0.20543668011E+02 -0.16969614449E+02  0.12957618999E+02  0.30000000000E+02  0.47000000000E+01 0. -1.
         -5    1    1    2    0  501  0.20543668011E+02  0.16969614449E+02 -0.12957618999E+02  0.30000000000E+02  0.47000000000E+01 0.  1.
</event>
<event>
 4    1  0.7509957E-002  0.6000000E+02  0.7546771E-02  0.1259629E+00
         11   -1    0    0    0    0  0.00000000000E+00  0.00000000000E+00  0.30000000000E+02  0.30000000000E+02  0.00000000000E+00 0.  1.
        -11   -1    0    0    0    0 -0.00000000000E+00 -0.00000000000E+00 -0.30000000000E+02  0.30000000000E+02  0.00000000000E+00 0. -1.
          5    1    1    2  501    0  0.15216903807E+02  0.19298164295E+02 -0.16551033000E+02  0.30000000000E+02  0.47000000000E+01 0. -1.
         -5    1    1    2    0  501 -0.15216903807E+02 -0.19298164295E+02  0.16551033000E+02  0.30000000000E+02  0.47000000000E+01 0.  1.
</event>
<event>
 4    1  0.7509957E-002  0.6000000E+02  0.7546771E-02  0.1259629E+00
         11   -1    0    0    0    0  0.00000000000E+00  0.00000000000E+00  0.30000000000E+02  0.30000000000E+02  0.00000000000E+00 0.  1.
        -11   -1    0    0    0    0 -0.00000000000E+00 -0.00000000000E+00 -0.30000000000E+02  0.30000000000E+02  0.00000000000E+00 0. -1.
          5    1    1    2  501    0  0.98466398883E+01 -0.29776700913E+01 -0.27786456480E+02  0.30000000000E+02  0.47000000000E+01 0. -1.
         -5    1    1    2    0  501 -0.98466398883E+01  0.29776700913E+01  0.27786456480E+02  0.30000000000E+02  0.47000000000E+01 0.  1.
</event>
<event>
 4    1  0.7509957E-002  0.6000000E+02  0.7546771E-02  0.1259629E+00
         11   -1    0    0    0    0  0.00000000000E+00  0.00000000000E+00  0.30000000000E+02  0.30000000000E+02  0.00000000000E+00 0.  1.
        -11   -1    0    0    0    0 -0.00000000000E+00 -0.00000000000E+00 -0.30000000000E+02  0.30000000000E+02  0.00000000000E+00 0. -1.
          5    1    1    2  501    0 -0.86793142783E+01 -0.12996293312E+02 -0.25172919255E+02  0.30000000000E+02  0.47000000000E+01 0. -1.
         -5    1    1    2    0  501  0.86793142783E+01  0.12996293312E+02  0.25172919255E+02  0.30000000000E+02  0.47000000000E+01 0.  1.
</event>
<event>
 4    1  0.7509957E-002  0.6000000E+02  0.7546771E-02  0.1259629E+00
         11   -1    0    0    0    0  0.00000000000E+00  0.00000000000E+00  0.30000000000E+02  0.30000000000E+02  0.00000000000E+00 0.  1.
        -11   -1    0    0    0    0 -0.00000000000E+00 -0.00000000000E+00 -0.30000000000E+02  0.30000000000E+02  0.00000000000E+00 0. -1.
          5    1    1    2  501    0 -0.28007793001E+02 -0.78839497112E+01  0.55961476197E+01  0.30000000000E+02  0.47000000000E+01 0. -1.
         -5    1    1    2    0  501  0.28007793001E+02  0.78839497112E+01 -0.55961476197E+01  0.30000000000E+02  0.47000000000E+01 0.  1.
</event>
<event>
 4    1  0.7509957E-002  0.6000000E+02  0.7546771E-02  0.1259629E+00
         11   -1    0    0    0    0  0.00000000000E+00  0.00000000000E+00  0.30000000000E+02  0.30000000000E+02  0.00000000000E+00 0.  1.
        -11   -1    0    0    0    0 -0.00000000000E+00 -0.00000000000E+00 -0.30000000000E+02  0.30000000000E+02  0.00000000000E+00 0. -1.
          5    1    1    2  501    0 -0.14149388829E+01 -0.84068438172E+01  0.28376626385E+02  0.30000000000E+02  0.47000000000E+01 0.  1.
         -5    1    1    2    0  501  0.14149388829E+01  0.84068438172E+01 -0.28376626385E+02  0.30000000000E+02  0.47000000000E+01 0. -1.
</event>
<event>
 4    1  0.7509957E-002  0.6000000E+02  0.7546771E-02  0.1259629E+00
         11   -1    0    0    0    0  0.00000000000E+00  0.00000000000E+00  0.30000000000E+02  0.30000000000E+02  0.00000000000E+00 0. -1.
        -11   -1    0    0    0    0 -0.00000000000E+00 -0.00000000000E+00 -0.30000000000E+02  0.30000000000E+02  0.00000000000E+00 0.  1.
          5    1    1    2  501    0 -0.33452807463E+01  0.19934959083E+02  0.21663713973E+02  0.30000000000E+02  0.47000000000E+01 0. -1.
         -5    1    1    2    0  501  0.33452807463E+01 -0.19934959083E+02 -0.21663713973E+02  0.30000000000E+02  0.47000000000E+01 0.  1.
</event>
<event>
 4    1  0.7509957E-002  0.6000000E+02  0.7546771E-02  0.1259629E+00
         11   -1    0    0    0    0  0.00000000000E+00  0.00000000000E+00  0.30000000000E+02  0.30000000000E+02  0.00000000000E+00 0.  1.
        -11   -1    0    0    0    0 -0.00000000000E+00 -0.00000000000E+00 -0.30000000000E+02  0.30000000000E+02  0.00000000000E+00 0. -1.
          5    1    1    2  501    0  0.60568635994E+01  0.19048384376E+02 -0.21871978786E+02  0.30000000000E+02  0.47000000000E+01 0. -1.
         -5    1    1    2    0  501 -0.60568635994E+01 -0.19048384376E+02  0.21871978786E+02  0.30000000000E+02  0.47000000000E+01 0.  1.
</event>
<event>
 4    1  0.7509957E-002  0.6000000E+02  0.7546771E-02  0.1259629E+00
         11   -1    0    0    0    0  0.00000000000E+00  0.00000000000E+00  0.30000000000E+02  0.30000000000E+02  0.00000000000E+00 0. -1.
        -11   -1    0    0    0    0 -0.00000000000E+00 -0.00000000000E+00 -0.30000000000E+02  0.30000000000E+02  0.00000000000E+00 0.  1.
          5    1    1    2  501    0  0.85331949039E+01 -0.30715893478E+00 -0.28372526115E+02  0.30000000000E+02  0.47000000000E+01 0.  1.
         -5    1    1    2    0  501 -0.85331949039E+01  0.30715893478E+00  0.28372526115E+02  0.30000000000E+02  0.47000000000E+01 0. -1.
</event>
<event>
 4    1  0.7509957E-002  0.6000000E+02  0.7546771E-02  0.1259629E+00
         11   -1    0    0    0    0  0.00000000000E+00  0.00000000000E+00  0.30000000000E+02  0.30000000000E+02  0.00000000000E+00 0.  1.
        -11   -1    0    0    0    0 -0.00000000000E+00 -0.00000000000E+00 -0.30000000000E+02  0.30000000000E+02  0.00000000000E+00 0. -1.
          5    1    1    2  501    0  0.15346752641E+02 -0.41775940316E+01 -0.24998697796E+02  0.30000000000E+02  0.47000000000E+01 0. -1.
         -5    1    1    2    0  501 -0.15346752641E+02  0.41775940316E+01  0.24998697796E+02  0.30000000000E+02  0.47000000000E+01 0.  1.
</event>
<event>
 4    1  0.7509957E-002  0.6000000E+02  0.7546771E-02  0.1259629E+00
         11   -1    0    0    0    0  0.00000000000E+00  0.00000000000E+00  0.30000000000E+02  0.30000000000E+02  0.00000000000E+00 0.  1.
        -11   -1    0    0    0    0 -0.00000000000E+00 -0.00000000000E+00 -0.30000000000E+02  0.30000000000E+02  0.00000000000E+00 0. -1.
          5    1    1    2  501    0 -0.73011923748E+00  0.18608647017E+02 -0.23045502427E+02  0.30000000000E+02  0.47000000000E+01 0. -1.
         -5    1    1    2    0  501  0.73011923748E+00 -0.18608647017E+02  0.23045502427E+02  0.30000000000E+02  0.47000000000E+01 0.  1.
</event>
<event>
 4    1  0.7509957E-002  0.6000000E+02  0.7546771E-02  0.1259629E+00
         11   -1    0    0    0    0  0.00000000000E+00  0.00000000000E+00  0.30000000000E+02  0.30000000000E+02  0.00000000000E+00 0.  1.
        -11   -1    0    0    0    0 -0.00000000000E+00 -0.00000000000E+00 -0.30000000000E+02  0.30000000000E+02  0.00000000000E+00 0. -1.
          5    1    1    2  501    0 -0.14826735532E+02  0.76166627423E+01 -0.24496211179E+02  0.30000000000E+02  0.47000000000E+01 0. -1.
         -5    1    1    2    0  501  0.14826735532E+02 -0.76166627423E+01  0.24496211179E+02  0.30000000000E+02  0.47000000000E+01 0.  1.
</event>
<event>
 4    1  0.7509957E-002  0.6000000E+02  0.7546771E-02  0.1259629E+00
         11   -1    0    0    0    0  0.00000000000E+00  0.00000000000E+00  0.30000000000E+02  0.30000000000E+02  0.00000000000E+00 0.  1.
        -11   -1    0    0    0    0 -0.00000000000E+00 -0.00000000000E+00 -0.30000000000E+02  0.30000000000E+02  0.00000000000E+00 0. -1.
          5    1    1    2  501    0 -0.79017901432E+01 -0.37456770033E+01 -0.28309744194E+02  0.30000000000E+02  0.47000000000E+01 0. -1.
         -5    1    1    2    0  501  0.79017901432E+01  0.37456770033E+01  0.28309744194E+02  0.30000000000E+02  0.47000000000E+01 0.  1.
</event>
<event>
 4    1  0.7509957E-002  0.6000000E+02  0.7546771E-02  0.1259629E+00
         11   -1    0    0    0    0  0.00000000000E+00  0.00000000000E+00  0.30000000000E+02  0.30000000000E+02  0.00000000000E+00 0.  1.
        -11   -1    0    0    0    0 -0.00000000000E+00 -0.00000000000E+00 -0.30000000000E+02  0.30000000000E+02  0.00000000000E+00 0. -1.
          5    1    1    2  501    0 -0.58187177639E+01 -0.22047242502E+02 -0.18920137992E+02  0.30000000000E+02  0.47000000000E+01 0. -1.
         -5    1    1    2    0  501  0.58187177639E+01  0.22047242502E+02  0.18920137992E+02  0.30000000000E+02  0.47000000000E+01 0.  1.
</event>
<event>
 4    1  0.7509957E-002  0.6000000E+02  0.7546771E-02  0.1259629E+00
         11   -1    0    0    0    0  0.00000000000E+00  0.00000000000E+00  0.30000000000E+02  0.30000000000E+02  0.00000000000E+00 0.  1.
        -11   -1    0    0    0    0 -0.00000000000E+00 -0.00000000000E+00 -0.30000000000E+02  0.30000000000E+02  0.00000000000E+00 0. -1.
          5    1    1    2  501    0  0.14685745453E+01  0.26820989138E+02 -0.12505512004E+02  0.30000000000E+02  0.47000000000E+01 0. -1.
         -5    1    1    2    0  501 -0.14685745453E+01 -0.26820989138E+02  0.12505512004E+02  0.30000000000E+02  0.47000000000E+01 0.  1.
</event>
<event>
 4    1  0.7509957E-002  0.6000000E+02  0.7546771E-02  0.1259629E+00
         11   -1    0    0    0    0  0.00000000000E+00  0.00000000000E+00  0.30000000000E+02  0.30000000000E+02  0.00000000000E+00 0.  1.
        -11   -1    0    0    0    0 -0.00000000000E+00 -0.00000000000E+00 -0.30000000000E+02  0.30000000000E+02  0.00000000000E+00 0. -1.
          5    1    1    2  501    0 -0.97899193264E+01 -0.26094064609E+02 -0.10058194260E+02  0.30000000000E+02  0.47000000000E+01 0. -1.
         -5    1    1    2    0  501  0.97899193264E+01  0.26094064609E+02  0.10058194260E+02  0.30000000000E+02  0.47000000000E+01 0.  1.
</event>
<event>
 4    1  0.7509957E-002  0.6000000E+02  0.7546771E-02  0.1259629E+00
         11   -1    0    0    0    0  0.00000000000E+00  0.00000000000E+00  0.30000000000E+02  0.30000000000E+02  0.00000000000E+00 0.  1.
        -11   -1    0    0    0    0 -0.00000000000E+00 -0.00000000000E+00 -0.30000000000E+02  0.30000000000E+02  0.00000000000E+00 0. -1.
          5    1    1    2  501    0  0.26258417507E+02 -0.13415920096E+02  0.29014820393E+01  0.30000000000E+02  0.47000000000E+01 0. -1.
         -5    1    1    2    0  501 -0.26258417507E+02  0.13415920096E+02 -0.29014820393E+01  0.30000000000E+02  0.47000000000E+01 0.  1.
</event>
<event>
 4    1  0.7509957E-002  0.6000000E+02  0.7546771E-02  0.1259629E+00
         11   -1    0    0    0    0  0.00000000000E+00  0.00000000000E+00  0.30000000000E+02  0.30000000000E+02  0.00000000000E+00 0. -1.
        -11   -1    0    0    0    0 -0.00000000000E+00 -0.00000000000E+00 -0.30000000000E+02  0.30000000000E+02  0.00000000000E+00 0.  1.
          5    1    1    2  501    0  0.95692929547E+01 -0.25201771463E+02 -0.12296721004E+02  0.30000000000E+02  0.47000000000E+01 0.  1.
         -5    1    1    2    0  501 -0.95692929547E+01  0.25201771463E+02  0.12296721004E+02  0.30000000000E+02  0.47000000000E+01 0. -1.
</event>
<event>
 4    1  0.7509957E-002  0.6000000E+02  0.7546771E-02  0.1259629E+00
         11   -1    0    0    0    0  0.00000000000E+00  0.00000000000E+00  0.30000000000E+02  0.30000000000E+02  0.00000000000E+00 0.  1.
        -11   -1    0    0    0    0 -0.00000000000E+00 -0.00000000000E+00 -0.30000000000E+02  0.30000000000E+02  0.00000000000E+00 0. -1.
          5    1    1    2  501    0 -0.27795352772E+02  0.71056547809E+00 -0.10238332921E+02  0.30000000000E+02  0.47000000000E+01 0. -1.
         -5    1    1    2    0  501  0.27795352772E+02 -0.71056547809E+00  0.10238332921E+02  0.30000000000E+02  0.47000000000E+01 0.  1.
</event>
<event>
 4    1  0.7509957E-002  0.6000000E+02  0.7546771E-02  0.1259629E+00
         11   -1    0    0    0    0  0.00000000000E+00  0.00000000000E+00  0.30000000000E+02  0.30000000000E+02  0.00000000000E+00 0.  1.
        -11   -1    0    0    0    0 -0.00000000000E+00 -0.00000000000E+00 -0.30000000000E+02  0.30000000000E+02  0.00000000000E+00 0. -1.
          5    1    1    2  501    0  0.26153310140E+02 -0.13787471390E+02 -0.19544823879E+01  0.30000000000E+02  0.47000000000E+01 0. -1.
         -5    1    1    2    0  501 -0.26153310140E+02  0.13787471390E+02  0.19544823879E+01  0.30000000000E+02  0.47000000000E+01 0.  1.
</event>
<event>
 4    1  0.7509957E-002  0.6000000E+02  0.7546771E-02  0.1259629E+00
         11   -1    0    0    0    0  0.00000000000E+00  0.00000000000E+00  0.30000000000E+02  0.30000000000E+02  0.00000000000E+00 0.  1.
        -11   -1    0    0    0    0 -0.00000000000E+00 -0.00000000000E+00 -0.30000000000E+02  0.30000000000E+02  0.00000000000E+00 0. -1.
          5    1    1    2  501    0  0.19503101338E+02  0.17907764951E+02 -0.13298533479E+02  0.30000000000E+02  0.47000000000E+01 0. -1.
         -5    1    1    2    0  501 -0.19503101338E+02 -0.17907764951E+02  0.13298533479E+02  0.30000000000E+02  0.47000000000E+01 0.  1.
</event>
<event>
 4    1  0.7509957E-002  0.6000000E+02  0.7546771E-02  0.1259629E+00
         11   -1    0    0    0    0  0.00000000000E+00  0.00000000000E+00  0.30000000000E+02  0.30000000000E+02  0.00000000000E+00 0.  1.
        -11   -1    0    0    0    0 -0.00000000000E+00 -0.00000000000E+00 -0.30000000000E+02  0.30000000000E+02  0.00000000000E+00 0. -1.
          5    1    1    2  501    0  0.20409631041E+02  0.16229696871E+02 -0.14069609100E+02  0.30000000000E+02  0.47000000000E+01 0. -1.
         -5    1    1    2    0  501 -0.20409631041E+02 -0.16229696871E+02  0.14069609100E+02  0.30000000000E+02  0.47000000000E+01 0.  1.
</event>
<event>
 4    1  0.7509957E-002  0.6000000E+02  0.7546771E-02  0.1259629E+00
         11   -1    0    0    0    0  0.00000000000E+00  0.00000000000E+00  0.30000000000E+02  0.30000000000E+02  0.00000000000E+00 0.  1.
        -11   -1    0    0    0    0 -0.00000000000E+00 -0.00000000000E+00 -0.30000000000E+02  0.30000000000E+02  0.00000000000E+00 0. -1.
          5    1    1    2  501    0 -0.15786635008E+02 -0.58262926095E+01 -0.24387424414E+02  0.30000000000E+02  0.47000000000E+01 0. -1.
         -5    1    1    2    0  501  0.15786635008E+02  0.58262926095E+01  0.24387424414E+02  0.30000000000E+02  0.47000000000E+01 0.  1.
</event>
<event>
 4    1  0.7509957E-002  0.6000000E+02  0.7546771E-02  0.1259629E+00
         11   -1    0    0    0    0  0.00000000000E+00  0.00000000000E+00  0.30000000000E+02  0.30000000000E+02  0.00000000000E+00 0. -1.
        -11   -1    0    0    0    0 -0.00000000000E+00 -0.00000000000E+00 -0.30000000000E+02  0.30000000000E+02  0.00000000000E+00 0.  1.
          5    1    1    2  501    0  0.20586533967E+02  0.28154609033E+01 -0.21122921179E+02  0.30000000000E+02  0.47000000000E+01 0.  1.
         -5    1    1    2    0  501 -0.20586533967E+02 -0.28154609033E+01  0.21122921179E+02  0.30000000000E+02  0.47000000000E+01 0. -1.
</event>
<event>
 4    1  0.7509957E-002  0.6000000E+02  0.7546771E-02  0.1259629E+00
         11   -1    0    0    0    0  0.00000000000E+00  0.00000000000E+00  0.30000000000E+02  0.30000000000E+02  0.00000000000E+00 0.  1.
        -11   -1    0    0    0    0 -0.00000000000E+00 -0.00000000000E+00 -0.30000000000E+02  0.30000000000E+02  0.00000000000E+00 0. -1.
          5    1    1    2  501    0  0.24505502742E+02 -0.16557274461E+02  0.18019427900E+01  0.30000000000E+02  0.47000000000E+01 0. -1.
         -5    1    1    2    0  501 -0.24505502742E+02  0.16557274461E+02 -0.18019427900E+01  0.30000000000E+02  0.47000000000E+01 0.  1.
</event>
<event>
 4    1  0.7509957E-002  0.6000000E+02  0.7546771E-02  0.1259629E+00
         11   -1    0    0    0    0  0.00000000000E+00  0.00000000000E+00  0.30000000000E+02  0.30000000000E+02  0.00000000000E+00 0. -1.
        -11   -1    0    0    0    0 -0.00000000000E+00 -0.00000000000E+00 -0.30000000000E+02  0.30000000000E+02  0.00000000000E+00 0.  1.
          5    1    1    2  501    0 -0.64553251216E+01  0.11251077599E+02 -0.26639294856E+02  0.30000000000E+02  0.47000000000E+01 0.  1.
         -5    1    1    2    0  501  0.64553251216E+01 -0.11251077599E+02  0.26639294856E+02  0.30000000000E+02  0.47000000000E+01 0. -1.
</event>
<event>
 4    1  0.7509957E-002  0.6000000E+02  0.7546771E-02  0.1259629E+00
         11   -1    0    0    0    0  0.00000000000E+00  0.00000000000E+00  0.30000000000E+02  0.30000000000E+02  0.00000000000E+00 0. -1.
        -11   -1    0    0    0    0 -0.00000000000E+00 -0.00000000000E+00 -0.30000000000E+02  0.30000000000E+02  0.00000000000E+00 0.  1.
          5    1    1    2  501    0  0.19015811114E+02 -0.12948972686E+02  0.18671717492E+02  0.30000000000E+02  0.47000000000E+01 0. -1.
         -5    1    1    2    0  501 -0.19015811114E+02  0.12948972686E+02 -0.18671717492E+02  0.30000000000E+02  0.47000000000E+01 0.  1.
</event>
<event>
 4    1  0.7509957E-002  0.6000000E+02  0.7546771E-02  0.1259629E+00
         11   -1    0    0    0    0  0.00000000000E+00  0.00000000000E+00  0.30000000000E+02  0.30000000000E+02  0.00000000000E+00 0. -1.
        -11   -1    0    0    0    0 -0.00000000000E+00 -0.00000000000E+00 -0.30000000000E+02  0.30000000000E+02  0.00000000000E+00 0.  1.
          5    1    1    2  501    0  0.56061470079E+00 -0.19217382944E+02 -0.22545241271E+02  0.30000000000E+02  0.47000000000E+01 0.  1.
         -5    1    1    2    0  501 -0.56061470079E+00  0.19217382944E+02  0.22545241271E+02  0.30000000000E+02  0.47000000000E+01 0. -1.
</event>
<event>
 4    1  0.7509957E-002  0.6000000E+02  0.7546771E-02  0.1259629E+00
         11   -1    0    0    0    0  0.00000000000E+00  0.00000000000E+00  0.30000000000E+02  0.30000000000E+02  0.00000000000E+00 0.  1.
        -11   -1    0    0    0    0 -0.00000000000E+00 -0.00000000000E+00 -0.30000000000E+02  0.30000000000E+02  0.00000000000E+00 0. -1.
          5    1    1    2  501    0  0.22402275175E+02  0.11891014737E+02 -0.15318349634E+02  0.30000000000E+02  0.47000000000E+01 0. -1.
         -5    1    1    2    0  501 -0.22402275175E+02 -0.11891014737E+02  0.15318349634E+02  0.30000000000E+02  0.47000000000E+01 0.  1.
</event>
<event>
 4    1  0.7509957E-002  0.6000000E+02  0.7546771E-02  0.1259629E+00
         11   -1    0    0    0    0  0.00000000000E+00  0.00000000000E+00  0.30000000000E+02  0.30000000000E+02  0.00000000000E+00 0.  1.
        -11   -1    0    0    0    0 -0.00000000000E+00 -0.00000000000E+00 -0.30000000000E+02  0.30000000000E+02  0.00000000000E+00 0. -1.
          5    1    1    2  501    0 -0.22879823308E+02  0.17552269682E+02 -0.68074602029E+01  0.30000000000E+02  0.47000000000E+01 0. -1.
         -5    1    1    2    0  501  0.22879823308E+02 -0.17552269682E+02  0.68074602029E+01  0.30000000000E+02  0.47000000000E+01 0.  1.
</event>
<event>
 4    1  0.7509957E-002  0.6000000E+02  0.7546771E-02  0.1259629E+00
         11   -1    0    0    0    0  0.00000000000E+00  0.00000000000E+00  0.30000000000E+02  0.30000000000E+02  0.00000000000E+00 0.  1.
        -11   -1    0    0    0    0 -0.00000000000E+00 -0.00000000000E+00 -0.30000000000E+02  0.30000000000E+02  0.00000000000E+00 0. -1.
          5    1    1    2  501    0  0.28285080206E+02  0.86651510417E+01 -0.16671518172E+01  0.30000000000E+02  0.47000000000E+01 0. -1.
         -5    1    1    2    0  501 -0.28285080206E+02 -0.86651510417E+01  0.16671518172E+01  0.30000000000E+02  0.47000000000E+01 0.  1.
</event>
<event>
 4    1  0.7509957E-002  0.6000000E+02  0.7546771E-02  0.1259629E+00
         11   -1    0    0    0    0  0.00000000000E+00  0.00000000000E+00  0.30000000000E+02  0.30000000000E+02  0.00000000000E+00 0. -1.
        -11   -1    0    0    0    0 -0.00000000000E+00 -0.00000000000E+00 -0.30000000000E+02  0.30000000000E+02  0.00000000000E+00 0.  1.
          5    1    1    2  501    0  0.40244476137E+01 -0.25059450911E+02  0.15288483948E+02  0.30000000000E+02  0.47000000000E+01 0.  1.
         -5    1    1    2    0  501 -0.40244476137E+01  0.25059450911E+02 -0.15288483948E+02  0.30000000000E+02  0.47000000000E+01 0. -1.
</event>
<event>
 4    1  0.7509957E-002  0.6000000E+02  0.7546771E-02  0.1259629E+00
         11   -1    0    0    0    0  0.00000000000E+00  0.00000000000E+00  0.30000000000E+02  0.30000000000E+02  0.00000000000E+00 0.  1.
        -11   -1    0    0    0    0 -0.00000000000E+00 -0.00000000000E+00 -0.30000000000E+02  0.30000000000E+02  0.00000000000E+00 0. -1.
          5    1    1    2  501    0 -0.13116754108E+02 -0.98652820872E+01 -0.24668542134E+02  0.30000000000E+02  0.47000000000E+01 0. -1.
         -5    1    1    2    0  501  0.13116754108E+02  0.98652820872E+01  0.24668542134E+02  0.30000000000E+02  0.47000000000E+01 0.  1.
</event>
<event>
 4    1  0.7509957E-002  0.6000000E+02  0.7546771E-02  0.1259629E+00
         11   -1    0    0    0    0  0.00000000000E+00  0.00000000000E+00  0.30000000000E+02  0.30000000000E+02  0.00000000000E+00 0.  1.
        -11   -1    0    0    0    0 -0.00000000000E+00 -0.00000000000E+00 -0.30000000000E+02  0.30000000000E+02  0.00000000000E+00 0. -1.
          5    1    1    2  501    0 -0.23419245654E+02 -0.47983866721E+01 -0.17504982672E+02  0.30000000000E+02  0.47000000000E+01 0. -1.
         -5    1    1    2    0  501  0.23419245654E+02  0.47983866721E+01  0.17504982672E+02  0.30000000000E+02  0.47000000000E+01 0.  1.
</event>
<event>
 4    1  0.7509957E-002  0.6000000E+02  0.7546771E-02  0.1259629E+00
         11   -1    0    0    0    0  0.00000000000E+00  0.00000000000E+00  0.30000000000E+02  0.30000000000E+02  0.00000000000E+00 0.  1.
        -11   -1    0    0    0    0 -0.00000000000E+00 -0.00000000000E+00 -0.30000000000E+02  0.30000000000E+02  0.00000000000E+00 0. -1.
          5    1    1    2  501    0 -0.11593952693E+02  0.26835582853E+02 -0.48313304453E+01  0.30000000000E+02  0.47000000000E+01 0. -1.
         -5    1    1    2    0  501  0.11593952693E+02 -0.26835582853E+02  0.48313304453E+01  0.30000000000E+02  0.47000000000E+01 0.  1.
</event>
<event>
 4    1  0.7509957E-002  0.6000000E+02  0.7546771E-02  0.1259629E+00
         11   -1    0    0    0    0  0.00000000000E+00  0.00000000000E+00  0.30000000000E+02  0.30000000000E+02  0.00000000000E+00 0. -1.
        -11   -1    0    0    0    0 -0.00000000000E+00 -0.00000000000E+00 -0.30000000000E+02  0.30000000000E+02  0.00000000000E+00 0.  1.
          5    1    1    2  501    0 -0.11248212176E+02  0.14348024469E+02 -0.23356410612E+02  0.30000000000E+02  0.47000000000E+01 0.  1.
         -5    1    1    2    0  501  0.11248212176E+02 -0.14348024469E+02  0.23356410612E+02  0.30000000000E+02  0.47000000000E+01 0. -1.
</event>
<event>
 4    1  0.7509957E-002  0.6000000E+02  0.7546771E-02  0.1259629E+00
         11   -1    0    0    0    0  0.00000000000E+00  0.00000000000E+00  0.30000000000E+02  0.30000000000E+02  0.00000000000E+00 0. -1.
        -11   -1    0    0    0    0 -0.00000000000E+00 -0.00000000000E+00 -0.30000000000E+02  0.30000000000E+02  0.00000000000E+00 0.  1.
          5    1    1    2  501    0  0.37662284579E+00 -0.37654708675E+01 -0.29386891370E+02  0.30000000000E+02  0.47000000000E+01 0.  1.
         -5    1    1    2    0  501 -0.37662284579E+00  0.37654708675E+01  0.29386891370E+02  0.30000000000E+02  0.47000000000E+01 0. -1.
</event>
<event>
 4    1  0.7509957E-002  0.6000000E+02  0.7546771E-02  0.1259629E+00
         11   -1    0    0    0    0  0.00000000000E+00  0.00000000000E+00  0.30000000000E+02  0.30000000000E+02  0.00000000000E+00 0.  1.
        -11   -1    0    0    0    0 -0.00000000000E+00 -0.00000000000E+00 -0.30000000000E+02  0.30000000000E+02  0.00000000000E+00 0. -1.
          5    1    1    2  501    0  0.17243294943E+02 -0.10613930554E+02 -0.21631533873E+02  0.30000000000E+02  0.47000000000E+01 0. -1.
         -5    1    1    2    0  501 -0.17243294943E+02  0.10613930554E+02  0.21631533873E+02  0.30000000000E+02  0.47000000000E+01 0.  1.
</event>
<event>
 4    1  0.7509957E-002  0.6000000E+02  0.7546771E-02  0.1259629E+00
         11   -1    0    0    0    0  0.00000000000E+00  0.00000000000E+00  0.30000000000E+02  0.30000000000E+02  0.00000000000E+00 0.  1.
        -11   -1    0    0    0    0 -0.00000000000E+00 -0.00000000000E+00 -0.30000000000E+02  0.30000000000E+02  0.00000000000E+00 0. -1.
          5    1    1    2  501    0  0.33791426813E+01  0.70035102749E+01 -0.28590946794E+02  0.30000000000E+02  0.47000000000E+01 0. -1.
         -5    1    1    2    0  501 -0.33791426813E+01 -0.70035102749E+01  0.28590946794E+02  0.30000000000E+02  0.47000000000E+01 0.  1.
</event>
<event>
 4    1  0.7509957E-002  0.6000000E+02  0.7546771E-02  0.1259629E+00
         11   -1    0    0    0    0  0.00000000000E+00  0.00000000000E+00  0.30000000000E+02  0.30000000000E+02  0.00000000000E+00 0.  1.
        -11   -1    0    0    0    0 -0.00000000000E+00 -0.00000000000E+00 -0.30000000000E+02  0.30000000000E+02  0.00000000000E+00 0. -1.
          5    1    1    2  501    0  0.14984366860E+01 -0.54905911291E+01 -0.29077793874E+02  0.30000000000E+02  0.47000000000E+01 0. -1.
         -5    1    1    2    0  501 -0.14984366860E+01  0.54905911291E+01  0.29077793874E+02  0.30000000000E+02  0.47000000000E+01 0.  1.
</event>
<event>
 4    1  0.7509957E-002  0.6000000E+02  0.7546771E-02  0.1259629E+00
         11   -1    0    0    0    0  0.00000000000E+00  0.00000000000E+00  0.30000000000E+02  0.30000000000E+02  0.00000000000E+00 0. -1.
        -11   -1    0    0    0    0 -0.00000000000E+00 -0.00000000000E+00 -0.30000000000E+02  0.30000000000E+02  0.00000000000E+00 0.  1.
          5    1    1    2  501    0 -0.33955925495E+01  0.29421764435E+02 -0.86007487675E+00  0.30000000000E+02  0.47000000000E+01 0.  1.
         -5    1    1    2    0  501  0.33955925495E+01 -0.29421764435E+02  0.86007487675E+00  0.30000000000E+02  0.47000000000E+01 0. -1.
</event>
<event>
 4    1  0.7509957E-002  0.6000000E+02  0.7546771E-02  0.1259629E+00
         11   -1    0    0    0    0  0.00000000000E+00  0.00000000000E+00  0.30000000000E+02  0.30000000000E+02  0.00000000000E+00 0.  1.
        -11   -1    0    0    0    0 -0.00000000000E+00 -0.00000000000E+00 -0.30000000000E+02  0.30000000000E+02  0.00000000000E+00 0. -1.
          5    1    1    2  501    0 -0.31662335206E+01  0.21136429437E+02 -0.20521606076E+02  0.30000000000E+02  0.47000000000E+01 0. -1.
         -5    1    1    2    0  501  0.31662335206E+01 -0.21136429437E+02  0.20521606076E+02  0.30000000000E+02  0.47000000000E+01 0.  1.
</event>
<event>
 4    1  0.7509957E-002  0.6000000E+02  0.7546771E-02  0.1259629E+00
         11   -1    0    0    0    0  0.00000000000E+00  0.00000000000E+00  0.30000000000E+02  0.30000000000E+02  0.00000000000E+00 0. -1.
        -11   -1    0    0    0    0 -0.00000000000E+00 -0.00000000000E+00 -0.30000000000E+02  0.30000000000E+02  0.00000000000E+00 0.  1.
          5    1    1    2  501    0  0.26411709276E+02  0.10114558798E+02 -0.88333070495E+01  0.30000000000E+02  0.47000000000E+01 0.  1.
         -5    1    1    2    0  501 -0.26411709276E+02 -0.10114558798E+02  0.88333070495E+01  0.30000000000E+02  0.47000000000E+01 0. -1.
</event>
<event>
 4    1  0.7509957E-002  0.6000000E+02  0.7546771E-02  0.1259629E+00
         11   -1    0    0    0    0  0.00000000000E+00  0.00000000000E+00  0.30000000000E+02  0.30000000000E+02  0.00000000000E+00 0. -1.
        -11   -1    0    0    0    0 -0.00000000000E+00 -0.00000000000E+00 -0.30000000000E+02  0.30000000000E+02  0.00000000000E+00 0.  1.
          5    1    1    2  501    0  0.28257846442E+02 -0.17531965033E+01 -0.87367280193E+01  0.30000000000E+02  0.47000000000E+01 0.  1.
         -5    1    1    2    0  501 -0.28257846442E+02  0.17531965033E+01  0.87367280193E+01  0.30000000000E+02  0.47000000000E+01 0. -1.
</event>
<event>
 4    1  0.7509957E-002  0.6000000E+02  0.7546771E-02  0.1259629E+00
         11   -1    0    0    0    0  0.00000000000E+00  0.00000000000E+00  0.30000000000E+02  0.30000000000E+02  0.00000000000E+00 0.  1.
        -11   -1    0    0    0    0 -0.00000000000E+00 -0.00000000000E+00 -0.30000000000E+02  0.30000000000E+02  0.00000000000E+00 0. -1.
          5    1    1    2  501    0  0.21393586681E+02 -0.98701470663E+01 -0.17966765034E+02  0.30000000000E+02  0.47000000000E+01 0. -1.
         -5    1    1    2    0  501 -0.21393586681E+02  0.98701470663E+01  0.17966765034E+02  0.30000000000E+02  0.47000000000E+01 0.  1.
</event>
<event>
 4    1  0.7509957E-002  0.6000000E+02  0.7546771E-02  0.1259629E+00
         11   -1    0    0    0    0  0.00000000000E+00  0.00000000000E+00  0.30000000000E+02  0.30000000000E+02  0.00000000000E+00 0.  1.
        -11   -1    0    0    0    0 -0.00000000000E+00 -0.00000000000E+00 -0.30000000000E+02  0.30000000000E+02  0.00000000000E+00 0. -1.
          5    1    1    2  501    0  0.16579924150E+02  0.24530680640E+02 -0.11233087393E+01  0.30000000000E+02  0.47000000000E+01 0. -1.
         -5    1    1    2    0  501 -0.16579924150E+02 -0.24530680640E+02  0.11233087393E+01  0.30000000000E+02  0.47000000000E+01 0.  1.
</event>
<event>
 4    1  0.7509957E-002  0.6000000E+02  0.7546771E-02  0.1259629E+00
         11   -1    0    0    0    0  0.00000000000E+00  0.00000000000E+00  0.30000000000E+02  0.30000000000E+02  0.00000000000E+00 0.  1.
        -11   -1    0    0    0    0 -0.00000000000E+00 -0.00000000000E+00 -0.30000000000E+02  0.30000000000E+02  0.00000000000E+00 0. -1.
          5    1    1    2  501    0  0.21397531103E+02  0.20307145875E+02 -0.27704673058E+01  0.30000000000E+02  0.47000000000E+01 0. -1.
         -5    1    1    2    0  501 -0.21397531103E+02 -0.20307145875E+02  0.27704673058E+01  0.30000000000E+02  0.47000000000E+01 0.  1.
</event>
<event>
 4    1  0.7509957E-002  0.6000000E+02  0.7546771E-02  0.1259629E+00
         11   -1    0    0    0    0  0.00000000000E+00  0.00000000000E+00  0.30000000000E+02  0.30000000000E+02  0.00000000000E+00 0.  1.
        -11   -1    0    0    0    0 -0.00000000000E+00 -0.00000000000E+00 -0.30000000000E+02  0.30000000000E+02  0.00000000000E+00 0. -1.
          5    1    1    2  501    0 -0.23651646405E+02  0.10682567602E+02 -0.14296586018E+02  0.30000000000E+02  0.47000000000E+01 0. -1.
         -5    1    1    2    0  501  0.23651646405E+02 -0.10682567602E+02  0.14296586018E+02  0.30000000000E+02  0.47000000000E+01 0.  1.
</event>
<event>
 4    1  0.7509957E-002  0.6000000E+02  0.7546771E-02  0.1259629E+00
         11   -1    0    0    0    0  0.00000000000E+00  0.00000000000E+00  0.30000000000E+02  0.30000000000E+02  0.00000000000E+00 0. -1.
        -11   -1    0    0    0    0 -0.00000000000E+00 -0.00000000000E+00 -0.30000000000E+02  0.30000000000E+02  0.00000000000E+00 0.  1.
          5    1    1    2  501    0  0.18623043148E+02 -0.21451924898E+02 -0.84206402419E+01  0.30000000000E+02  0.47000000000E+01 0.  1.
         -5    1    1    2    0  501 -0.18623043148E+02  0.21451924898E+02  0.84206402419E+01  0.30000000000E+02  0.47000000000E+01 0. -1.
</event>
<event>
 4    1  0.7509957E-002  0.6000000E+02  0.7546771E-02  0.1259629E+00
         11   -1    0    0    0    0  0.00000000000E+00  0.00000000000E+00  0.30000000000E+02  0.30000000000E+02  0.00000000000E+00 0.  1.
        -11   -1    0    0    0    0 -0.00000000000E+00 -0.00000000000E+00 -0.30000000000E+02  0.30000000000E+02  0.00000000000E+00 0. -1.
          5    1    1    2  501    0  0.97074947597E+01 -0.27802336228E+02 -0.32717954961E+01  0.30000000000E+02  0.47000000000E+01 0. -1.
         -5    1    1    2    0  501 -0.97074947597E+01  0.27802336228E+02  0.32717954961E+01  0.30000000000E+02  0.47000000000E+01 0.  1.
</event>
<event>
 4    1  0.7509957E-002  0.6000000E+02  0.7546771E-02  0.1259629E+00
         11   -1    0    0    0    0  0.00000000000E+00  0.00000000000E+00  0.30000000000E+02  0.30000000000E+02  0.00000000000E+00 0.  1.
        -11   -1    0    0    0    0 -0.00000000000E+00 -0.00000000000E+00 -0.30000000000E+02  0.30000000000E+02  0.00000000000E+00 0. -1.
          5    1    1    2  501    0 -0.11956172456E+02  0.12451108703E+02 -0.24081732335E+02  0.30000000000E+02  0.47000000000E+01 0. -1.
         -5    1    1    2    0  501  0.11956172456E+02 -0.12451108703E+02  0.24081732335E+02  0.30000000000E+02  0.47000000000E+01 0.  1.
</event>
<event>
 4    1  0.7509957E-002  0.6000000E+02  0.7546771E-02  0.1259629E+00
         11   -1    0    0    0    0  0.00000000000E+00  0.00000000000E+00  0.30000000000E+02  0.30000000000E+02  0.00000000000E+00 0.  1.
        -11   -1    0    0    0    0 -0.00000000000E+00 -0.00000000000E+00 -0.30000000000E+02  0.30000000000E+02  0.00000000000E+00 0. -1.
          5    1    1    2  501    0  0.18217774878E+02 -0.14576395628E+02 -0.18263388760E+02  0.30000000000E+02  0.47000000000E+01 0. -1.
         -5    1    1    2    0  501 -0.18217774878E+02  0.14576395628E+02  0.18263388760E+02  0.30000000000E+02  0.47000000000E+01 0.  1.
</event>
<event>
 4    1  0.7509957E-002  0.6000000E+02  0.7546771E-02  0.1259629E+00
         11   -1    0    0    0    0  0.00000000000E+00  0.00000000000E+00  0.30000000000E+02  0.30000000000E+02  0.00000000000E+00 0. -1.
        -11   -1    0    0    0    0 -0.00000000000E+00 -0.00000000000E+00 -0.30000000000E+02  0.30000000000E+02  0.00000000000E+00 0.  1.
          5    1    1    2  501    0 -0.28742638499E+02 -0.25837495930E+01 -0.67152788600E+01  0.30000000000E+02  0.47000000000E+01 0.  1.
         -5    1    1    2    0  501  0.28742638499E+02  0.25837495930E+01  0.67152788600E+01  0.30000000000E+02  0.47000000000E+01 0. -1.
</event>
<event>
 4    1  0.7509957E-002  0.6000000E+02  0.7546771E-02  0.1259629E+00
         11   -1    0    0    0    0  0.00000000000E+00  0.00000000000E+00  0.30000000000E+02  0.30000000000E+02  0.00000000000E+00 0.  1.
        -11   -1    0    0    0    0 -0.00000000000E+00 -0.00000000000E+00 -0.30000000000E+02  0.30000000000E+02  0.00000000000E+00 0. -1.
          5    1    1    2  501    0 -0.23811189076E+02  0.13016678988E+02 -0.11895517764E+02  0.30000000000E+02  0.47000000000E+01 0. -1.
         -5    1    1    2    0  501  0.23811189076E+02 -0.13016678988E+02  0.11895517764E+02  0.30000000000E+02  0.47000000000E+01 0.  1.
</event>
<event>
 4    1  0.7509957E-002  0.6000000E+02  0.7546771E-02  0.1259629E+00
         11   -1    0    0    0    0  0.00000000000E+00  0.00000000000E+00  0.30000000000E+02  0.30000000000E+02  0.00000000000E+00 0.  1.
        -11   -1    0    0    0    0 -0.00000000000E+00 -0.00000000000E+00 -0.30000000000E+02  0.30000000000E+02  0.00000000000E+00 0. -1.
          5    1    1    2  501    0  0.17410508033E+02 -0.21182182934E+02  0.11229396074E+02  0.30000000000E+02  0.47000000000E+01 0. -1.
         -5    1    1    2    0  501 -0.17410508033E+02  0.21182182934E+02 -0.11229396074E+02  0.30000000000E+02  0.47000000000E+01 0.  1.
</event>
<event>
 4    1  0.7509957E-002  0.6000000E+02  0.7546771E-02  0.1259629E+00
         11   -1    0    0    0    0  0.00000000000E+00  0.00000000000E+00  0.30000000000E+02  0.30000000000E+02  0.00000000000E+00 0.  1.
        -11   -1    0    0    0    0 -0.00000000000E+00 -0.00000000000E+00 -0.30000000000E+02  0.30000000000E+02  0.00000000000E+00 0. -1.
          5    1    1    2  501    0  0.17685694685E+02 -0.19232205899E+02 -0.13973133499E+02  0.30000000000E+02  0.47000000000E+01 0. -1.
         -5    1    1    2    0  501 -0.17685694685E+02  0.19232205899E+02  0.13973133499E+02  0.30000000000E+02  0.47000000000E+01 0.  1.
</event>
<event>
 4    1  0.7509957E-002  0.6000000E+02  0.7546771E-02  0.1259629E+00
         11   -1    0    0    0    0  0.00000000000E+00  0.00000000000E+00  0.30000000000E+02  0.30000000000E+02  0.00000000000E+00 0. -1.
        -11   -1    0    0    0    0 -0.00000000000E+00 -0.00000000000E+00 -0.30000000000E+02  0.30000000000E+02  0.00000000000E+00 0.  1.
          5    1    1    2  501    0  0.33822109520E+01 -0.64531909586E+00 -0.29428799030E+02  0.30000000000E+02  0.47000000000E+01 0.  1.
         -5    1    1    2    0  501 -0.33822109520E+01  0.64531909586E+00  0.29428799030E+02  0.30000000000E+02  0.47000000000E+01 0. -1.
</event>
<event>
 4    1  0.7509957E-002  0.6000000E+02  0.7546771E-02  0.1259629E+00
         11   -1    0    0    0    0  0.00000000000E+00  0.00000000000E+00  0.30000000000E+02  0.30000000000E+02  0.00000000000E+00 0.  1.
        -11   -1    0    0    0    0 -0.00000000000E+00 -0.00000000000E+00 -0.30000000000E+02  0.30000000000E+02  0.00000000000E+00 0. -1.
          5    1    1    2  501    0 -0.86095856976E+01  0.10736135632E+02 -0.26239672746E+02  0.30000000000E+02  0.47000000000E+01 0. -1.
         -5    1    1    2    0  501  0.86095856976E+01 -0.10736135632E+02  0.26239672746E+02  0.30000000000E+02  0.47000000000E+01 0.  1.
</event>
<event>
 4    1  0.7509957E-002  0.6000000E+02  0.7546771E-02  0.1259629E+00
         11   -1    0    0    0    0  0.00000000000E+00  0.00000000000E+00  0.30000000000E+02  0.30000000000E+02  0.00000000000E+00 0. -1.
        -11   -1    0    0    0    0 -0.00000000000E+00 -0.00000000000E+00 -0.30000000000E+02  0.30000000000E+02  0.00000000000E+00 0.  1.
          5    1    1    2  501    0 -0.36773450171E+01  0.27225173913E+02 -0.11098515172E+02  0.30000000000E+02  0.47000000000E+01 0.  1.
         -5    1    1    2    0  501  0.36773450171E+01 -0.27225173913E+02  0.11098515172E+02  0.30000000000E+02  0.47000000000E+01 0. -1.
</event>
<event>
 4    1  0.7509957E-002  0.6000000E+02  0.7546771E-02  0.1259629E+00
         11   -1    0    0    0    0  0.00000000000E+00  0.00000000000E+00  0.30000000000E+02  0.30000000000E+02  0.00000000000E+00 0.  1.
        -11   -1    0    0    0    0 -0.00000000000E+00 -0.00000000000E+00 -0.30000000000E+02  0.30000000000E+02  0.00000000000E+00 0. -1.
          5    1    1    2  501    0  0.45161017924E+01 -0.25997897815E+02 -0.13476799835E+02  0.30000000000E+02  0.47000000000E+01 0. -1.
         -5    1    1    2    0  501 -0.45161017924E+01  0.25997897815E+02  0.13476799835E+02  0.30000000000E+02  0.47000000000E+01 0.  1.
</event>
<event>
 4    1  0.7509957E-002  0.6000000E+02  0.7546771E-02  0.1259629E+00
         11   -1    0    0    0    0  0.00000000000E+00  0.00000000000E+00  0.30000000000E+02  0.30000000000E+02  0.00000000000E+00 0.  1.
        -11   -1    0    0    0    0 -0.00000000000E+00 -0.00000000000E+00 -0.30000000000E+02  0.30000000000E+02  0.00000000000E+00 0. -1.
          5    1    1    2  501    0 -0.16255291088E+02  0.22654013480E+02  0.10023531559E+02  0.30000000000E+02  0.47000000000E+01 0. -1.
         -5    1    1    2    0  501  0.16255291088E+02 -0.22654013480E+02 -0.10023531559E+02  0.30000000000E+02  0.47000000000E+01 0.  1.
</event>
<event>
 4    1  0.7509957E-002  0.6000000E+02  0.7546771E-02  0.1259629E+00
         11   -1    0    0    0    0  0.00000000000E+00  0.00000000000E+00  0.30000000000E+02  0.30000000000E+02  0.00000000000E+00 0.  1.
        -11   -1    0    0    0    0 -0.00000000000E+00 -0.00000000000E+00 -0.30000000000E+02  0.30000000000E+02  0.00000000000E+00 0. -1.
          5    1    1    2  501    0  0.15579548197E+02 -0.24978040229E+02  0.33593428383E+01  0.30000000000E+02  0.47000000000E+01 0.  1.
         -5    1    1    2    0  501 -0.15579548197E+02  0.24978040229E+02 -0.33593428383E+01  0.30000000000E+02  0.47000000000E+01 0. -1.
</event>
<event>
 4    1  0.7509957E-002  0.6000000E+02  0.7546771E-02  0.1259629E+00
         11   -1    0    0    0    0  0.00000000000E+00  0.00000000000E+00  0.30000000000E+02  0.30000000000E+02  0.00000000000E+00 0.  1.
        -11   -1    0    0    0    0 -0.00000000000E+00 -0.00000000000E+00 -0.30000000000E+02  0.30000000000E+02  0.00000000000E+00 0. -1.
          5    1    1    2  501    0 -0.28172586792E+02  0.11687138438E+01 -0.91021679516E+01  0.30000000000E+02  0.47000000000E+01 0. -1.
         -5    1    1    2    0  501  0.28172586792E+02 -0.11687138438E+01  0.91021679516E+01  0.30000000000E+02  0.47000000000E+01 0.  1.
</event>
<event>
 4    1  0.7509957E-002  0.6000000E+02  0.7546771E-02  0.1259629E+00
         11   -1    0    0    0    0  0.00000000000E+00  0.00000000000E+00  0.30000000000E+02  0.30000000000E+02  0.00000000000E+00 0.  1.
        -11   -1    0    0    0    0 -0.00000000000E+00 -0.00000000000E+00 -0.30000000000E+02  0.30000000000E+02  0.00000000000E+00 0. -1.
          5    1    1    2  501    0 -0.29527731091E+01  0.24485001705E+02 -0.16421809355E+02  0.30000000000E+02  0.47000000000E+01 0. -1.
         -5    1    1    2    0  501  0.29527731091E+01 -0.24485001705E+02  0.16421809355E+02  0.30000000000E+02  0.47000000000E+01 0.  1.
</event>
<event>
 4    1  0.7509957E-002  0.6000000E+02  0.7546771E-02  0.1259629E+00
         11   -1    0    0    0    0  0.00000000000E+00  0.00000000000E+00  0.30000000000E+02  0.30000000000E+02  0.00000000000E+00 0.  1.
        -11   -1    0    0    0    0 -0.00000000000E+00 -0.00000000000E+00 -0.30000000000E+02  0.30000000000E+02  0.00000000000E+00 0. -1.
          5    1    1    2  501    0  0.82031274763E+01  0.13673187761E+02 -0.24973238397E+02  0.30000000000E+02  0.47000000000E+01 0. -1.
         -5    1    1    2    0  501 -0.82031274763E+01 -0.13673187761E+02  0.24973238397E+02  0.30000000000E+02  0.47000000000E+01 0.  1.
</event>
<event>
 4    1  0.7509957E-002  0.6000000E+02  0.7546771E-02  0.1259629E+00
         11   -1    0    0    0    0  0.00000000000E+00  0.00000000000E+00  0.30000000000E+02  0.30000000000E+02  0.00000000000E+00 0.  1.
        -11   -1    0    0    0    0 -0.00000000000E+00 -0.00000000000E+00 -0.30000000000E+02  0.30000000000E+02  0.00000000000E+00 0. -1.
          5    1    1    2  501    0  0.29328691268E+02 -0.35159585105E+01 -0.23185996296E+01  0.30000000000E+02  0.47000000000E+01 0. -1.
         -5    1    1    2    0  501 -0.29328691268E+02  0.35159585105E+01  0.23185996296E+01  0.30000000000E+02  0.47000000000E+01 0.  1.
</event>
<event>
 4    1  0.7509957E-002  0.6000000E+02  0.7546771E-02  0.1259629E+00
         11   -1    0    0    0    0  0.00000000000E+00  0.00000000000E+00  0.30000000000E+02  0.30000000000E+02  0.00000000000E+00 0.  1.
        -11   -1    0    0    0    0 -0.00000000000E+00 -0.00000000000E+00 -0.30000000000E+02  0.30000000000E+02  0.00000000000E+00 0. -1.
          5    1    1    2  501    0  0.22081205026E+02 -0.14013137053E+02 -0.13927037535E+02  0.30000000000E+02  0.47000000000E+01 0. -1.
         -5    1    1    2    0  501 -0.22081205026E+02  0.14013137053E+02  0.13927037535E+02  0.30000000000E+02  0.47000000000E+01 0.  1.
</event>
<event>
 4    1  0.7509957E-002  0.6000000E+02  0.7546771E-02  0.1259629E+00
         11   -1    0    0    0    0  0.00000000000E+00  0.00000000000E+00  0.30000000000E+02  0.30000000000E+02  0.00000000000E+00 0.  1.
        -11   -1    0    0    0    0 -0.00000000000E+00 -0.00000000000E+00 -0.30000000000E+02  0.30000000000E+02  0.00000000000E+00 0. -1.
          5    1    1    2  501    0 -0.16655647638E+02 -0.19239040318E+02  0.15177573238E+02  0.30000000000E+02  0.47000000000E+01 0. -1.
         -5    1    1    2    0  501  0.16655647638E+02  0.19239040318E+02 -0.15177573238E+02  0.30000000000E+02  0.47000000000E+01 0.  1.
</event>
<event>
 4    1  0.7509957E-002  0.6000000E+02  0.7546771E-02  0.1259629E+00
         11   -1    0    0    0    0  0.00000000000E+00  0.00000000000E+00  0.30000000000E+02  0.30000000000E+02  0.00000000000E+00 0.  1.
        -11   -1    0    0    0    0 -0.00000000000E+00 -0.00000000000E+00 -0.30000000000E+02  0.30000000000E+02  0.00000000000E+00 0. -1.
          5    1    1    2  501    0 -0.29307141561E+02  0.42707507143E+00  0.43380941004E+01  0.30000000000E+02  0.47000000000E+01 0.  1.
         -5    1    1    2    0  501  0.29307141561E+02 -0.42707507143E+00 -0.43380941004E+01  0.30000000000E+02  0.47000000000E+01 0.  1.
</event>
<event>
 4    1  0.7509957E-002  0.6000000E+02  0.7546771E-02  0.1259629E+00
         11   -1    0    0    0    0  0.00000000000E+00  0.00000000000E+00  0.30000000000E+02  0.30000000000E+02  0.00000000000E+00 0.  1.
        -11   -1    0    0    0    0 -0.00000000000E+00 -0.00000000000E+00 -0.30000000000E+02  0.30000000000E+02  0.00000000000E+00 0. -1.
          5    1    1    2  501    0  0.29107886853E+01  0.63979496289E+01 -0.28783737592E+02  0.30000000000E+02  0.47000000000E+01 0. -1.
         -5    1    1    2    0  501 -0.29107886853E+01 -0.63979496289E+01  0.28783737592E+02  0.30000000000E+02  0.47000000000E+01 0.  1.
</event>
<event>
 4    1  0.7509957E-002  0.6000000E+02  0.7546771E-02  0.1259629E+00
         11   -1    0    0    0    0  0.00000000000E+00  0.00000000000E+00  0.30000000000E+02  0.30000000000E+02  0.00000000000E+00 0.  1.
        -11   -1    0    0    0    0 -0.00000000000E+00 -0.00000000000E+00 -0.30000000000E+02  0.30000000000E+02  0.00000000000E+00 0. -1.
          5    1    1    2  501    0  0.16119624596E+02 -0.11167443139E+02 -0.22211616705E+02  0.30000000000E+02  0.47000000000E+01 0. -1.
         -5    1    1    2    0  501 -0.16119624596E+02  0.11167443139E+02  0.22211616705E+02  0.30000000000E+02  0.47000000000E+01 0.  1.
</event>
<event>
 4    1  0.7509957E-002  0.6000000E+02  0.7546771E-02  0.1259629E+00
         11   -1    0    0    0    0  0.00000000000E+00  0.00000000000E+00  0.30000000000E+02  0.30000000000E+02  0.00000000000E+00 0.  1.
        -11   -1    0    0    0    0 -0.00000000000E+00 -0.00000000000E+00 -0.30000000000E+02  0.30000000000E+02  0.00000000000E+00 0. -1.
          5    1    1    2  501    0 -0.17572005668E+02  0.59359873696E+01 -0.23106247440E+02  0.30000000000E+02  0.47000000000E+01 0. -1.
         -5    1    1    2    0  501  0.17572005668E+02 -0.59359873696E+01  0.23106247440E+02  0.30000000000E+02  0.47000000000E+01 0.  1.
</event>
<event>
 4    1  0.7509957E-002  0.6000000E+02  0.7546771E-02  0.1259629E+00
         11   -1    0    0    0    0  0.00000000000E+00  0.00000000000E+00  0.30000000000E+02  0.30000000000E+02  0.00000000000E+00 0. -1.
        -11   -1    0    0    0    0 -0.00000000000E+00 -0.00000000000E+00 -0.30000000000E+02  0.30000000000E+02  0.00000000000E+00 0.  1.
          5    1    1    2  501    0 -0.17393002908E+02  0.22339984100E+02  0.87360494645E+01  0.30000000000E+02  0.47000000000E+01 0.  1.
         -5    1    1    2    0  501  0.17393002908E+02 -0.22339984100E+02 -0.87360494645E+01  0.30000000000E+02  0.47000000000E+01 0. -1.
</event>
<event>
 4    1  0.7509957E-002  0.6000000E+02  0.7546771E-02  0.1259629E+00
         11   -1    0    0    0    0  0.00000000000E+00  0.00000000000E+00  0.30000000000E+02  0.30000000000E+02  0.00000000000E+00 0.  1.
        -11   -1    0    0    0    0 -0.00000000000E+00 -0.00000000000E+00 -0.30000000000E+02  0.30000000000E+02  0.00000000000E+00 0. -1.
          5    1    1    2  501    0 -0.75309154666E+01 -0.28649770301E+02 -0.62126802846E+00  0.30000000000E+02  0.47000000000E+01 0. -1.
         -5    1    1    2    0  501  0.75309154666E+01  0.28649770301E+02  0.62126802846E+00  0.30000000000E+02  0.47000000000E+01 0.  1.
</event>
<event>
 4    1  0.7509957E-002  0.6000000E+02  0.7546771E-02  0.1259629E+00
         11   -1    0    0    0    0  0.00000000000E+00  0.00000000000E+00  0.30000000000E+02  0.30000000000E+02  0.00000000000E+00 0.  1.
        -11   -1    0    0    0    0 -0.00000000000E+00 -0.00000000000E+00 -0.30000000000E+02  0.30000000000E+02  0.00000000000E+00 0. -1.
          5    1    1    2  501    0 -0.88839102667E+01  0.35718964696E+01 -0.28039752031E+02  0.30000000000E+02  0.47000000000E+01 0. -1.
         -5    1    1    2    0  501  0.88839102667E+01 -0.35718964696E+01  0.28039752031E+02  0.30000000000E+02  0.47000000000E+01 0.  1.
</event>
<event>
 4    1  0.7509957E-002  0.6000000E+02  0.7546771E-02  0.1259629E+00
         11   -1    0    0    0    0  0.00000000000E+00  0.00000000000E+00  0.30000000000E+02  0.30000000000E+02  0.00000000000E+00 0. -1.
        -11   -1    0    0    0    0 -0.00000000000E+00 -0.00000000000E+00 -0.30000000000E+02  0.30000000000E+02  0.00000000000E+00 0.  1.
          5    1    1    2  501    0 -0.18838385221E+02  0.85101210606E+01 -0.21227413451E+02  0.30000000000E+02  0.47000000000E+01 0.  1.
         -5    1    1    2    0  501  0.18838385221E+02 -0.85101210606E+01  0.21227413451E+02  0.30000000000E+02  0.47000000000E+01 0. -1.
</event>
<event>
 4    1  0.7509957E-002  0.6000000E+02  0.7546771E-02  0.1259629E+00
         11   -1    0    0    0    0  0.00000000000E+00  0.00000000000E+00  0.30000000000E+02  0.30000000000E+02  0.00000000000E+00 0.  1.
        -11   -1    0    0    0    0 -0.00000000000E+00 -0.00000000000E+00 -0.30000000000E+02  0.30000000000E+02  0.00000000000E+00 0. -1.
          5    1    1    2  501    0 -0.11417503611E+02 -0.26588010542E+02 -0.63740337872E+01  0.30000000000E+02  0.47000000000E+01 0. -1.
         -5    1    1    2    0  501  0.11417503611E+02  0.26588010542E+02  0.63740337872E+01  0.30000000000E+02  0.47000000000E+01 0.  1.
</event>
<event>
 4    1  0.7509957E-002  0.6000000E+02  0.7546771E-02  0.1259629E+00
         11   -1    0    0    0    0  0.00000000000E+00  0.00000000000E+00  0.30000000000E+02  0.30000000000E+02  0.00000000000E+00 0.  1.
        -11   -1    0    0    0    0 -0.00000000000E+00 -0.00000000000E+00 -0.30000000000E+02  0.30000000000E+02  0.00000000000E+00 0. -1.
          5    1    1    2  501    0  0.15725885739E+02 -0.54931484531E+01 -0.24503710694E+02  0.30000000000E+02  0.47000000000E+01 0. -1.
         -5    1    1    2    0  501 -0.15725885739E+02  0.54931484531E+01  0.24503710694E+02  0.30000000000E+02  0.47000000000E+01 0.  1.
</event>
<event>
 4    1  0.7509957E-002  0.6000000E+02  0.7546771E-02  0.1259629E+00
         11   -1    0    0    0    0  0.00000000000E+00  0.00000000000E+00  0.30000000000E+02  0.30000000000E+02  0.00000000000E+00 0.  1.
        -11   -1    0    0    0    0 -0.00000000000E+00 -0.00000000000E+00 -0.30000000000E+02  0.30000000000E+02  0.00000000000E+00 0. -1.
          5    1    1    2  501    0 -0.67527405030E+01 -0.24975036395E+02 -0.14441539141E+02  0.30000000000E+02  0.47000000000E+01 0. -1.
         -5    1    1    2    0  501  0.67527405030E+01  0.24975036395E+02  0.14441539141E+02  0.30000000000E+02  0.47000000000E+01 0.  1.
</event>
<event>
 4    1  0.7509957E-002  0.6000000E+02  0.7546771E-02  0.1259629E+00
         11   -1    0    0    0    0  0.00000000000E+00  0.00000000000E+00  0.30000000000E+02  0.30000000000E+02  0.00000000000E+00 0. -1.
        -11   -1    0    0    0    0 -0.00000000000E+00 -0.00000000000E+00 -0.30000000000E+02  0.30000000000E+02  0.00000000000E+00 0.  1.
          5    1    1    2  501    0  0.20671888626E+02 -0.20277575397E+02 -0.62771774410E+01  0.30000000000E+02  0.47000000000E+01 0.  1.
         -5    1    1    2    0  501 -0.20671888626E+02  0.20277575397E+02  0.62771774410E+01  0.30000000000E+02  0.47000000000E+01 0. -1.
</event>
<event>
 4    1  0.7509957E-002  0.6000000E+02  0.7546771E-02  0.1259629E+00
         11   -1    0    0    0    0  0.00000000000E+00  0.00000000000E+00  0.30000000000E+02  0.30000000000E+02  0.00000000000E+00 0. -1.
        -11   -1    0    0    0    0 -0.00000000000E+00 -0.00000000000E+00 -0.30000000000E+02  0.30000000000E+02  0.00000000000E+00 0.  1.
          5    1    1    2  501    0  0.19069638450E+02  0.21156344754E+02  0.81650453801E+01  0.30000000000E+02  0.47000000000E+01 0.  1.
         -5    1    1    2    0  501 -0.19069638450E+02 -0.21156344754E+02 -0.81650453801E+01  0.30000000000E+02  0.47000000000E+01 0. -1.
</event>
<event>
 4    1  0.7509957E-002  0.6000000E+02  0.7546771E-02  0.1259629E+00
         11   -1    0    0    0    0  0.00000000000E+00  0.00000000000E+00  0.30000000000E+02  0.30000000000E+02  0.00000000000E+00 0.  1.
        -11   -1    0    0    0    0 -0.00000000000E+00 -0.00000000000E+00 -0.30000000000E+02  0.30000000000E+02  0.00000000000E+00 0. -1.
          5    1    1    2  501    0  0.23345136676E+02  0.66244616148E+00 -0.18233917809E+02  0.30000000000E+02  0.47000000000E+01 0. -1.
         -5    1    1    2    0  501 -0.23345136676E+02 -0.66244616148E+00  0.18233917809E+02  0.30000000000E+02  0.47000000000E+01 0.  1.
</event>
<event>
 4    1  0.7509957E-002  0.6000000E+02  0.7546771E-02  0.1259629E+00
         11   -1    0    0    0    0  0.00000000000E+00  0.00000000000E+00  0.30000000000E+02  0.30000000000E+02  0.00000000000E+00 0.  1.
        -11   -1    0    0    0    0 -0.00000000000E+00 -0.00000000000E+00 -0.30000000000E+02  0.30000000000E+02  0.00000000000E+00 0. -1.
          5    1    1    2  501    0  0.27573025880E+01 -0.28873769050E+02  0.60508464910E+01  0.30000000000E+02  0.47000000000E+01 0. -1.
         -5    1    1    2    0  501 -0.27573025880E+01  0.28873769050E+02 -0.60508464910E+01  0.30000000000E+02  0.47000000000E+01 0.  1.
</event>
<event>
 4    1  0.7509957E-002  0.6000000E+02  0.7546771E-02  0.1259629E+00
         11   -1    0    0    0    0  0.00000000000E+00  0.00000000000E+00  0.30000000000E+02  0.30000000000E+02  0.00000000000E+00 0.  1.
        -11   -1    0    0    0    0 -0.00000000000E+00 -0.00000000000E+00 -0.30000000000E+02  0.30000000000E+02  0.00000000000E+00 0. -1.
          5    1    1    2  501    0  0.41993440031E+01 -0.29024373424E+02 -0.42262580747E+01  0.30000000000E+02  0.47000000000E+01 0. -1.
         -5    1    1    2    0  501 -0.41993440031E+01  0.29024373424E+02  0.42262580747E+01  0.30000000000E+02  0.47000000000E+01 0.  1.
</event>
<event>
 4    1  0.7509957E-002  0.6000000E+02  0.7546771E-02  0.1259629E+00
         11   -1    0    0    0    0  0.00000000000E+00  0.00000000000E+00  0.30000000000E+02  0.30000000000E+02  0.00000000000E+00 0. -1.
        -11   -1    0    0    0    0 -0.00000000000E+00 -0.00000000000E+00 -0.30000000000E+02  0.30000000000E+02  0.00000000000E+00 0.  1.
          5    1    1    2  501    0  0.13453684127E+02  0.97337538623E+01  0.24538997925E+02  0.30000000000E+02  0.47000000000E+01 0. -1.
         -5    1    1    2    0  501 -0.13453684127E+02 -0.97337538623E+01 -0.24538997925E+02  0.30000000000E+02  0.47000000000E+01 0.  1.
</event>
<event>
 4    1  0.7509957E-002  0.6000000E+02  0.7546771E-02  0.1259629E+00
         11   -1    0    0    0    0  0.00000000000E+00  0.00000000000E+00  0.30000000000E+02  0.30000000000E+02  0.00000000000E+00 0. -1.
        -11   -1    0    0    0    0 -0.00000000000E+00 -0.00000000000E+00 -0.30000000000E+02  0.30000000000E+02  0.00000000000E+00 0.  1.
          5    1    1    2  501    0 -0.12259073929E+02  0.64194786351E+01 -0.26199530539E+02  0.30000000000E+02  0.47000000000E+01 0.  1.
         -5    1    1    2    0  501  0.12259073929E+02 -0.64194786351E+01  0.26199530539E+02  0.30000000000E+02  0.47000000000E+01 0. -1.
</event>
<event>
 4    1  0.7509957E-002  0.6000000E+02  0.7546771E-02  0.1259629E+00
         11   -1    0    0    0    0  0.00000000000E+00  0.00000000000E+00  0.30000000000E+02  0.30000000000E+02  0.00000000000E+00 0. -1.
        -11   -1    0    0    0    0 -0.00000000000E+00 -0.00000000000E+00 -0.30000000000E+02  0.30000000000E+02  0.00000000000E+00 0.  1.
          5    1    1    2  501    0 -0.17998749357E+02 -0.20995512512E+02 -0.10636892213E+02  0.30000000000E+02  0.47000000000E+01 0.  1.
         -5    1    1    2    0  501  0.17998749357E+02  0.20995512512E+02  0.10636892213E+02  0.30000000000E+02  0.47000000000E+01 0. -1.
</event>
<event>
 4    1  0.7509957E-002  0.6000000E+02  0.7546771E-02  0.1259629E+00
         11   -1    0    0    0    0  0.00000000000E+00  0.00000000000E+00  0.30000000000E+02  0.30000000000E+02  0.00000000000E+00 0.  1.
        -11   -1    0    0    0    0 -0.00000000000E+00 -0.00000000000E+00 -0.30000000000E+02  0.30000000000E+02  0.00000000000E+00 0. -1.
          5    1    1    2  501    0  0.28324945157E+02 -0.38200691568E+01 -0.78111813109E+01  0.30000000000E+02  0.47000000000E+01 0. -1.
         -5    1    1    2    0  501 -0.28324945157E+02  0.38200691568E+01  0.78111813109E+01  0.30000000000E+02  0.47000000000E+01 0.  1.
</event>
<event>
 4    1  0.7509957E-002  0.6000000E+02  0.7546771E-02  0.1259629E+00
         11   -1    0    0    0    0  0.00000000000E+00  0.00000000000E+00  0.30000000000E+02  0.30000000000E+02  0.00000000000E+00 0.  1.
        -11   -1    0    0    0    0 -0.00000000000E+00 -0.00000000000E+00 -0.30000000000E+02  0.30000000000E+02  0.00000000000E+00 0. -1.
          5    1    1    2  501    0  0.27606658178E+02  0.10712162090E+02  0.10158777574E+01  0.30000000000E+02  0.47000000000E+01 0. -1.
         -5    1    1    2    0  501 -0.27606658178E+02 -0.10712162090E+02 -0.10158777574E+01  0.30000000000E+02  0.47000000000E+01 0.  1.
</event>
<event>
 4    1  0.7509957E-002  0.6000000E+02  0.7546771E-02  0.1259629E+00
         11   -1    0    0    0    0  0.00000000000E+00  0.00000000000E+00  0.30000000000E+02  0.30000000000E+02  0.00000000000E+00 0.  1.
        -11   -1    0    0    0    0 -0.00000000000E+00 -0.00000000000E+00 -0.30000000000E+02  0.30000000000E+02  0.00000000000E+00 0. -1.
          5    1    1    2  501    0  0.16662851059E+01 -0.97868231771E+01 -0.27916869202E+02  0.30000000000E+02  0.47000000000E+01 0. -1.
         -5    1    1    2    0  501 -0.16662851059E+01  0.97868231771E+01  0.27916869202E+02  0.30000000000E+02  0.47000000000E+01 0.  1.
</event>
<event>
 4    1  0.7509957E-002  0.6000000E+02  0.7546771E-02  0.1259629E+00
         11   -1    0    0    0    0  0.00000000000E+00  0.00000000000E+00  0.30000000000E+02  0.30000000000E+02  0.00000000000E+00 0. -1.
        -11   -1    0    0    0    0 -0.00000000000E+00 -0.00000000000E+00 -0.30000000000E+02  0.30000000000E+02  0.00000000000E+00 0.  1.
          5    1    1    2  501    0 -0.78175675549E+01  0.26879251033E+02  0.97108960160E+01  0.30000000000E+02  0.47000000000E+01 0.  1.
         -5    1    1    2    0  501  0.78175675549E+01 -0.26879251033E+02 -0.97108960160E+01  0.30000000000E+02  0.47000000000E+01 0. -1.
</event>
<event>
 4    1  0.7509957E-002  0.6000000E+02  0.7546771E-02  0.1259629E+00
         11   -1    0    0    0    0  0.00000000000E+00  0.00000000000E+00  0.30000000000E+02  0.30000000000E+02  0.00000000000E+00 0.  1.
        -11   -1    0    0    0    0 -0.00000000000E+00 -0.00000000000E+00 -0.30000000000E+02  0.30000000000E+02  0.00000000000E+00 0. -1.
          5    1    1    2  501    0 -0.24488541113E+02  0.16488422758E+02 -0.25205692043E+01  0.30000000000E+02  0.47000000000E+01 0. -1.
         -5    1    1    2    0  501  0.24488541113E+02 -0.16488422758E+02  0.25205692043E+01  0.30000000000E+02  0.47000000000E+01 0.  1.
</event>
<event>
 4    1  0.7509957E-002  0.6000000E+02  0.7546771E-02  0.1259629E+00
         11   -1    0    0    0    0  0.00000000000E+00  0.00000000000E+00  0.30000000000E+02  0.30000000000E+02  0.00000000000E+00 0.  1.
        -11   -1    0    0    0    0 -0.00000000000E+00 -0.00000000000E+00 -0.30000000000E+02  0.30000000000E+02  0.00000000000E+00 0. -1.
          5    1    1    2  501    0  0.70846783392E+01  0.17495402414E+02 -0.22839181842E+02  0.30000000000E+02  0.47000000000E+01 0. -1.
         -5    1    1    2    0  501 -0.70846783392E+01 -0.17495402414E+02  0.22839181842E+02  0.30000000000E+02  0.47000000000E+01 0.  1.
</event>
<event>
 4    1  0.7509957E-002  0.6000000E+02  0.7546771E-02  0.1259629E+00
         11   -1    0    0    0    0  0.00000000000E+00  0.00000000000E+00  0.30000000000E+02  0.30000000000E+02  0.00000000000E+00 0.  1.
        -11   -1    0    0    0    0 -0.00000000000E+00 -0.00000000000E+00 -0.30000000000E+02  0.30000000000E+02  0.00000000000E+00 0. -1.
          5    1    1    2  501    0  0.17539055164E+02  0.22545460258E+02  0.78736119877E+01  0.30000000000E+02  0.47000000000E+01 0. -1.
         -5    1    1    2    0  501 -0.17539055164E+02 -0.22545460258E+02 -0.78736119877E+01  0.30000000000E+02  0.47000000000E+01 0.  1.
</event>
<event>
 4    1  0.7509957E-002  0.6000000E+02  0.7546771E-02  0.1259629E+00
         11   -1    0    0    0    0  0.00000000000E+00  0.00000000000E+00  0.30000000000E+02  0.30000000000E+02  0.00000000000E+00 0.  1.
        -11   -1    0    0    0    0 -0.00000000000E+00 -0.00000000000E+00 -0.30000000000E+02  0.30000000000E+02  0.00000000000E+00 0. -1.
          5    1    1    2  501    0 -0.14599566886E+02 -0.15207145297E+00 -0.25782542951E+02  0.30000000000E+02  0.47000000000E+01 0. -1.
         -5    1    1    2    0  501  0.14599566886E+02  0.15207145297E+00  0.25782542951E+02  0.30000000000E+02  0.47000000000E+01 0.  1.
</event>
<event>
 4    1  0.7509957E-002  0.6000000E+02  0.7546771E-02  0.1259629E+00
         11   -1    0    0    0    0  0.00000000000E+00  0.00000000000E+00  0.30000000000E+02  0.30000000000E+02  0.00000000000E+00 0.  1.
        -11   -1    0    0    0    0 -0.00000000000E+00 -0.00000000000E+00 -0.30000000000E+02  0.30000000000E+02  0.00000000000E+00 0. -1.
          5    1    1    2  501    0  0.22106968351E+02  0.99853745309E+01 -0.17014236562E+02  0.30000000000E+02  0.47000000000E+01 0. -1.
         -5    1    1    2    0  501 -0.22106968351E+02 -0.99853745309E+01  0.17014236562E+02  0.30000000000E+02  0.47000000000E+01 0.  1.
</event>
<event>
 4    1  0.7509957E-002  0.6000000E+02  0.7546771E-02  0.1259629E+00
         11   -1    0    0    0    0  0.00000000000E+00  0.00000000000E+00  0.30000000000E+02  0.30000000000E+02  0.00000000000E+00 0. -1.
        -11   -1    0    0    0    0 -0.00000000000E+00 -0.00000000000E+00 -0.30000000000E+02  0.30000000000E+02  0.00000000000E+00 0.  1.
          5    1    1    2  501    0 -0.12016372245E+02 -0.26740188059E+02 -0.42987370958E+01  0.30000000000E+02  0.47000000000E+01 0.  1.
         -5    1    1    2    0  501  0.12016372245E+02  0.26740188059E+02  0.42987370958E+01  0.30000000000E+02  0.47000000000E+01 0. -1.
</event>
<event>
 4    1  0.7509957E-002  0.6000000E+02  0.7546771E-02  0.1259629E+00
         11   -1    0    0    0    0  0.00000000000E+00  0.00000000000E+00  0.30000000000E+02  0.30000000000E+02  0.00000000000E+00 0. -1.
        -11   -1    0    0    0    0 -0.00000000000E+00 -0.00000000000E+00 -0.30000000000E+02  0.30000000000E+02  0.00000000000E+00 0.  1.
          5    1    1    2  501    0  0.16506409035E+02 -0.23196644587E+01 -0.24496277627E+02  0.30000000000E+02  0.47000000000E+01 0.  1.
         -5    1    1    2    0  501 -0.16506409035E+02  0.23196644587E+01  0.24496277627E+02  0.30000000000E+02  0.47000000000E+01 0. -1.
</event>
<event>
 4    1  0.7509957E-002  0.6000000E+02  0.7546771E-02  0.1259629E+00
         11   -1    0    0    0    0  0.00000000000E+00  0.00000000000E+00  0.30000000000E+02  0.30000000000E+02  0.00000000000E+00 0. -1.
        -11   -1    0    0    0    0 -0.00000000000E+00 -0.00000000000E+00 -0.30000000000E+02  0.30000000000E+02  0.00000000000E+00 0.  1.
          5    1    1    2  501    0  0.19701905638E+02 -0.22885681473E+01 -0.22011528118E+02  0.30000000000E+02  0.47000000000E+01 0.  1.
         -5    1    1    2    0  501 -0.19701905638E+02  0.22885681473E+01  0.22011528118E+02  0.30000000000E+02  0.47000000000E+01 0. -1.
</event>
<event>
 4    1  0.7509957E-002  0.6000000E+02  0.7546771E-02  0.1259629E+00
         11   -1    0    0    0    0  0.00000000000E+00  0.00000000000E+00  0.30000000000E+02  0.30000000000E+02  0.00000000000E+00 0. -1.
        -11   -1    0    0    0    0 -0.00000000000E+00 -0.00000000000E+00 -0.30000000000E+02  0.30000000000E+02  0.00000000000E+00 0.  1.
          5    1    1    2  501    0 -0.15795122291E+02 -0.55981027924E+01 -0.24435330097E+02  0.30000000000E+02  0.47000000000E+01 0.  1.
         -5    1    1    2    0  501  0.15795122291E+02  0.55981027924E+01  0.24435330097E+02  0.30000000000E+02  0.47000000000E+01 0. -1.
</event>
<event>
 4    1  0.7509957E-002  0.6000000E+02  0.7546771E-02  0.1259629E+00
         11   -1    0    0    0    0  0.00000000000E+00  0.00000000000E+00  0.30000000000E+02  0.30000000000E+02  0.00000000000E+00 0.  1.
        -11   -1    0    0    0    0 -0.00000000000E+00 -0.00000000000E+00 -0.30000000000E+02  0.30000000000E+02  0.00000000000E+00 0. -1.
          5    1    1    2  501    0  0.22623700417E+02 -0.54747128107E+01 -0.18333185732E+02  0.30000000000E+02  0.47000000000E+01 0. -1.
         -5    1    1    2    0  501 -0.22623700417E+02  0.54747128107E+01  0.18333185732E+02  0.30000000000E+02  0.47000000000E+01 0.  1.
</event>
<event>
 4    1  0.7509957E-002  0.6000000E+02  0.7546771E-02  0.1259629E+00
         11   -1    0    0    0    0  0.00000000000E+00  0.00000000000E+00  0.30000000000E+02  0.30000000000E+02  0.00000000000E+00 0.  1.
        -11   -1    0    0    0    0 -0.00000000000E+00 -0.00000000000E+00 -0.30000000000E+02  0.30000000000E+02  0.00000000000E+00 0. -1.
          5    1    1    2  501    0 -0.16129659005E+01  0.24806980657E+02 -0.16122098241E+02  0.30000000000E+02  0.47000000000E+01 0. -1.
         -5    1    1    2    0  501  0.16129659005E+01 -0.24806980657E+02  0.16122098241E+02  0.30000000000E+02  0.47000000000E+01 0.  1.
</event>
<event>
 4    1  0.7509957E-002  0.6000000E+02  0.7546771E-02  0.1259629E+00
         11   -1    0    0    0    0  0.00000000000E+00  0.00000000000E+00  0.30000000000E+02  0.30000000000E+02  0.00000000000E+00 0.  1.
        -11   -1    0    0    0    0 -0.00000000000E+00 -0.00000000000E+00 -0.30000000000E+02  0.30000000000E+02  0.00000000000E+00 0. -1.
          5    1    1    2  501    0 -0.21646357113E+01  0.28823365402E+02 -0.65144423518E+01  0.30000000000E+02  0.47000000000E+01 0. -1.
         -5    1    1    2    0  501  0.21646357113E+01 -0.28823365402E+02  0.65144423518E+01  0.30000000000E+02  0.47000000000E+01 0.  1.
</event>
<event>
 4    1  0.7509957E-002  0.6000000E+02  0.7546771E-02  0.1259629E+00
         11   -1    0    0    0    0  0.00000000000E+00  0.00000000000E+00  0.30000000000E+02  0.30000000000E+02  0.00000000000E+00 0.  1.
        -11   -1    0    0    0    0 -0.00000000000E+00 -0.00000000000E+00 -0.30000000000E+02  0.30000000000E+02  0.00000000000E+00 0. -1.
          5    1    1    2  501    0  0.19659634303E+02 -0.84143568025E+01 -0.20508714700E+02  0.30000000000E+02  0.47000000000E+01 0. -1.
         -5    1    1    2    0  501 -0.19659634303E+02  0.84143568025E+01  0.20508714700E+02  0.30000000000E+02  0.47000000000E+01 0.  1.
</event>
<event>
 4    1  0.7509957E-002  0.6000000E+02  0.7546771E-02  0.1259629E+00
         11   -1    0    0    0    0  0.00000000000E+00  0.00000000000E+00  0.30000000000E+02  0.30000000000E+02  0.00000000000E+00 0.  1.
        -11   -1    0    0    0    0 -0.00000000000E+00 -0.00000000000E+00 -0.30000000000E+02  0.30000000000E+02  0.00000000000E+00 0. -1.
          5    1    1    2  501    0  0.21556270327E+02  0.14797270025E+02 -0.13938364660E+02  0.30000000000E+02  0.47000000000E+01 0. -1.
         -5    1    1    2    0  501 -0.21556270327E+02 -0.14797270025E+02  0.13938364660E+02  0.30000000000E+02  0.47000000000E+01 0.  1.
</event>
<event>
 4    1  0.7509957E-002  0.6000000E+02  0.7546771E-02  0.1259629E+00
         11   -1    0    0    0    0  0.00000000000E+00  0.00000000000E+00  0.30000000000E+02  0.30000000000E+02  0.00000000000E+00 0.  1.
        -11   -1    0    0    0    0 -0.00000000000E+00 -0.00000000000E+00 -0.30000000000E+02  0.30000000000E+02  0.00000000000E+00 0. -1.
          5    1    1    2  501    0  0.11844569927E+02 -0.18469524826E+02 -0.19912127359E+02  0.30000000000E+02  0.47000000000E+01 0. -1.
         -5    1    1    2    0  501 -0.11844569927E+02  0.18469524826E+02  0.19912127359E+02  0.30000000000E+02  0.47000000000E+01 0.  1.
</event>
<event>
 4    1  0.7509957E-002  0.6000000E+02  0.7546771E-02  0.1259629E+00
         11   -1    0    0    0    0  0.00000000000E+00  0.00000000000E+00  0.30000000000E+02  0.30000000000E+02  0.00000000000E+00 0. -1.
        -11   -1    0    0    0    0 -0.00000000000E+00 -0.00000000000E+00 -0.30000000000E+02  0.30000000000E+02  0.00000000000E+00 0.  1.
          5    1    1    2  501    0 -0.13527200995E+02 -0.54586668396E+01 -0.25790071531E+02  0.30000000000E+02  0.47000000000E+01 0.  1.
         -5    1    1    2    0  501  0.13527200995E+02  0.54586668396E+01  0.25790071531E+02  0.30000000000E+02  0.47000000000E+01 0. -1.
</event>
<event>
 4    1  0.7509957E-002  0.6000000E+02  0.7546771E-02  0.1259629E+00
         11   -1    0    0    0    0  0.00000000000E+00  0.00000000000E+00  0.30000000000E+02  0.30000000000E+02  0.00000000000E+00 0.  1.
        -11   -1    0    0    0    0 -0.00000000000E+00 -0.00000000000E+00 -0.30000000000E+02  0.30000000000E+02  0.00000000000E+00 0. -1.
          5    1    1    2  501    0  0.33894381731E+01  0.17691393410E+02 -0.23525227057E+02  0.30000000000E+02  0.47000000000E+01 0. -1.
         -5    1    1    2    0  501 -0.33894381731E+01 -0.17691393410E+02  0.23525227057E+02  0.30000000000E+02  0.47000000000E+01 0.  1.
</event>
<event>
 4    1  0.7509957E-002  0.6000000E+02  0.7546771E-02  0.1259629E+00
         11   -1    0    0    0    0  0.00000000000E+00  0.00000000000E+00  0.30000000000E+02  0.30000000000E+02  0.00000000000E+00 0.  1.
        -11   -1    0    0    0    0 -0.00000000000E+00 -0.00000000000E+00 -0.30000000000E+02  0.30000000000E+02  0.00000000000E+00 0. -1.
          5    1    1    2  501    0  0.26967309071E+02  0.93292185253E+01  0.79774634559E+01  0.30000000000E+02  0.47000000000E+01 0.  1.
         -5    1    1    2    0  501 -0.26967309071E+02 -0.93292185253E+01 -0.79774634559E+01  0.30000000000E+02  0.47000000000E+01 0. -1.
</event>
<event>
 4    1  0.7509957E-002  0.6000000E+02  0.7546771E-02  0.1259629E+00
         11   -1    0    0    0    0  0.00000000000E+00  0.00000000000E+00  0.30000000000E+02  0.30000000000E+02  0.00000000000E+00 0.  1.
        -11   -1    0    0    0    0 -0.00000000000E+00 -0.00000000000E+00 -0.30000000000E+02  0.30000000000E+02  0.00000000000E+00 0. -1.
          5    1    1    2  501    0 -0.65224933349E+01  0.15527116365E+02 -0.24377771393E+02  0.30000000000E+02  0.47000000000E+01 0. -1.
         -5    1    1    2    0  501  0.65224933349E+01 -0.15527116365E+02  0.24377771393E+02  0.30000000000E+02  0.47000000000E+01 0.  1.
</event>
<event>
 4    1  0.7509957E-002  0.6000000E+02  0.7546771E-02  0.1259629E+00
         11   -1    0    0    0    0  0.00000000000E+00  0.00000000000E+00  0.30000000000E+02  0.30000000000E+02  0.00000000000E+00 0. -1.
        -11   -1    0    0    0    0 -0.00000000000E+00 -0.00000000000E+00 -0.30000000000E+02  0.30000000000E+02  0.00000000000E+00 0.  1.
          5    1    1    2  501    0 -0.27558764512E+02 -0.74022584715E+01 -0.79769084303E+01  0.30000000000E+02  0.47000000000E+01 0.  1.
         -5    1    1    2    0  501  0.27558764512E+02  0.74022584715E+01  0.79769084303E+01  0.30000000000E+02  0.47000000000E+01 0. -1.
</event>
<event>
 4    1  0.7509957E-002  0.6000000E+02  0.7546771E-02  0.1259629E+00
         11   -1    0    0    0    0  0.00000000000E+00  0.00000000000E+00  0.30000000000E+02  0.30000000000E+02  0.00000000000E+00 0.  1.
        -11   -1    0    0    0    0 -0.00000000000E+00 -0.00000000000E+00 -0.30000000000E+02  0.30000000000E+02  0.00000000000E+00 0. -1.
          5    1    1    2  501    0  0.24248653030E+02  0.14195088183E+02 -0.94027813809E+01  0.30000000000E+02  0.47000000000E+01 0. -1.
         -5    1    1    2    0  501 -0.24248653030E+02 -0.14195088183E+02  0.94027813809E+01  0.30000000000E+02  0.47000000000E+01 0.  1.
</event>
<event>
 4    1  0.7509957E-002  0.6000000E+02  0.7546771E-02  0.1259629E+00
         11   -1    0    0    0    0  0.00000000000E+00  0.00000000000E+00  0.30000000000E+02  0.30000000000E+02  0.00000000000E+00 0.  1.
        -11   -1    0    0    0    0 -0.00000000000E+00 -0.00000000000E+00 -0.30000000000E+02  0.30000000000E+02  0.00000000000E+00 0. -1.
          5    1    1    2  501    0  0.46576837948E+01 -0.21278296042E+02 -0.20086067291E+02  0.30000000000E+02  0.47000000000E+01 0. -1.
         -5    1    1    2    0  501 -0.46576837948E+01  0.21278296042E+02  0.20086067291E+02  0.30000000000E+02  0.47000000000E+01 0.  1.
</event>
<event>
 4    1  0.7509957E-002  0.6000000E+02  0.7546771E-02  0.1259629E+00
         11   -1    0    0    0    0  0.00000000000E+00  0.00000000000E+00  0.30000000000E+02  0.30000000000E+02  0.00000000000E+00 0.  1.
        -11   -1    0    0    0    0 -0.00000000000E+00 -0.00000000000E+00 -0.30000000000E+02  0.30000000000E+02  0.00000000000E+00 0. -1.
          5    1    1    2  501    0 -0.93363856931E+01  0.13861941129E+02 -0.24466068142E+02  0.30000000000E+02  0.47000000000E+01 0. -1.
         -5    1    1    2    0  501  0.93363856931E+01 -0.13861941129E+02  0.24466068142E+02  0.30000000000E+02  0.47000000000E+01 0.  1.
</event>
<event>
 4    1  0.7509957E-002  0.6000000E+02  0.7546771E-02  0.1259629E+00
         11   -1    0    0    0    0  0.00000000000E+00  0.00000000000E+00  0.30000000000E+02  0.30000000000E+02  0.00000000000E+00 0.  1.
        -11   -1    0    0    0    0 -0.00000000000E+00 -0.00000000000E+00 -0.30000000000E+02  0.30000000000E+02  0.00000000000E+00 0. -1.
          5    1    1    2  501    0 -0.21511737949E+02  0.15722860658E+01 -0.20314601816E+02  0.30000000000E+02  0.47000000000E+01 0. -1.
         -5    1    1    2    0  501  0.21511737949E+02 -0.15722860658E+01  0.20314601816E+02  0.30000000000E+02  0.47000000000E+01 0.  1.
</event>
<event>
 4    1  0.7509957E-002  0.6000000E+02  0.7546771E-02  0.1259629E+00
         11   -1    0    0    0    0  0.00000000000E+00  0.00000000000E+00  0.30000000000E+02  0.30000000000E+02  0.00000000000E+00 0.  1.
        -11   -1    0    0    0    0 -0.00000000000E+00 -0.00000000000E+00 -0.30000000000E+02  0.30000000000E+02  0.00000000000E+00 0. -1.
          5    1    1    2  501    0  0.11202115734E+02  0.82346696642E+01 -0.26165106891E+02  0.30000000000E+02  0.47000000000E+01 0. -1.
         -5    1    1    2    0  501 -0.11202115734E+02 -0.82346696642E+01  0.26165106891E+02  0.30000000000E+02  0.47000000000E+01 0.  1.
</event>
<event>
 4    1  0.7509957E-002  0.6000000E+02  0.7546771E-02  0.1259629E+00
         11   -1    0    0    0    0  0.00000000000E+00  0.00000000000E+00  0.30000000000E+02  0.30000000000E+02  0.00000000000E+00 0.  1.
        -11   -1    0    0    0    0 -0.00000000000E+00 -0.00000000000E+00 -0.30000000000E+02  0.30000000000E+02  0.00000000000E+00 0. -1.
          5    1    1    2  501    0 -0.12989569749E+02 -0.16166591259E+02 -0.21161814781E+02  0.30000000000E+02  0.47000000000E+01 0. -1.
         -5    1    1    2    0  501  0.12989569749E+02  0.16166591259E+02  0.21161814781E+02  0.30000000000E+02  0.47000000000E+01 0.  1.
</event>
<event>
 4    1  0.7509957E-002  0.6000000E+02  0.7546771E-02  0.1259629E+00
         11   -1    0    0    0    0  0.00000000000E+00  0.00000000000E+00  0.30000000000E+02  0.30000000000E+02  0.00000000000E+00 0. -1.
        -11   -1    0    0    0    0 -0.00000000000E+00 -0.00000000000E+00 -0.30000000000E+02  0.30000000000E+02  0.00000000000E+00 0.  1.
          5    1    1    2  501    0 -0.13500317885E+02  0.19149966106E+02 -0.18136433363E+02  0.30000000000E+02  0.47000000000E+01 0.  1.
         -5    1    1    2    0  501  0.13500317885E+02 -0.19149966106E+02  0.18136433363E+02  0.30000000000E+02  0.47000000000E+01 0. -1.
</event>
<event>
 4    1  0.7509957E-002  0.6000000E+02  0.7546771E-02  0.1259629E+00
         11   -1    0    0    0    0  0.00000000000E+00  0.00000000000E+00  0.30000000000E+02  0.30000000000E+02  0.00000000000E+00 0.  1.
        -11   -1    0    0    0    0 -0.00000000000E+00 -0.00000000000E+00 -0.30000000000E+02  0.30000000000E+02  0.00000000000E+00 0. -1.
          5    1    1    2  501    0 -0.25960644927E+02  0.13519106931E+02 -0.46031144648E+01  0.30000000000E+02  0.47000000000E+01 0. -1.
         -5    1    1    2    0  501  0.25960644927E+02 -0.13519106931E+02  0.46031144648E+01  0.30000000000E+02  0.47000000000E+01 0.  1.
</event>
<event>
 4    1  0.7509957E-002  0.6000000E+02  0.7546771E-02  0.1259629E+00
         11   -1    0    0    0    0  0.00000000000E+00  0.00000000000E+00  0.30000000000E+02  0.30000000000E+02  0.00000000000E+00 0.  1.
        -11   -1    0    0    0    0 -0.00000000000E+00 -0.00000000000E+00 -0.30000000000E+02  0.30000000000E+02  0.00000000000E+00 0. -1.
          5    1    1    2  501    0 -0.32724757978E+01  0.22043051126E+02 -0.19527027404E+02  0.30000000000E+02  0.47000000000E+01 0. -1.
         -5    1    1    2    0  501  0.32724757978E+01 -0.22043051126E+02  0.19527027404E+02  0.30000000000E+02  0.47000000000E+01 0.  1.
</event>
<event>
 4    1  0.7509957E-002  0.6000000E+02  0.7546771E-02  0.1259629E+00
         11   -1    0    0    0    0  0.00000000000E+00  0.00000000000E+00  0.30000000000E+02  0.30000000000E+02  0.00000000000E+00 0.  1.
        -11   -1    0    0    0    0 -0.00000000000E+00 -0.00000000000E+00 -0.30000000000E+02  0.30000000000E+02  0.00000000000E+00 0. -1.
          5    1    1    2  501    0 -0.15723852807E+02  0.12698277649E+02 -0.21666199428E+02  0.30000000000E+02  0.47000000000E+01 0. -1.
         -5    1    1    2    0  501  0.15723852807E+02 -0.12698277649E+02  0.21666199428E+02  0.30000000000E+02  0.47000000000E+01 0.  1.
</event>
<event>
 4    1  0.7509957E-002  0.6000000E+02  0.7546771E-02  0.1259629E+00
         11   -1    0    0    0    0  0.00000000000E+00  0.00000000000E+00  0.30000000000E+02  0.30000000000E+02  0.00000000000E+00 0.  1.
        -11   -1    0    0    0    0 -0.00000000000E+00 -0.00000000000E+00 -0.30000000000E+02  0.30000000000E+02  0.00000000000E+00 0. -1.
          5    1    1    2  501    0 -0.12339577213E+02  0.18600252156E+02 -0.19485262481E+02  0.30000000000E+02  0.47000000000E+01 0. -1.
         -5    1    1    2    0  501  0.12339577213E+02 -0.18600252156E+02  0.19485262481E+02  0.30000000000E+02  0.47000000000E+01 0.  1.
</event>
<event>
 4    1  0.7509957E-002  0.6000000E+02  0.7546771E-02  0.1259629E+00
         11   -1    0    0    0    0  0.00000000000E+00  0.00000000000E+00  0.30000000000E+02  0.30000000000E+02  0.00000000000E+00 0.  1.
        -11   -1    0    0    0    0 -0.00000000000E+00 -0.00000000000E+00 -0.30000000000E+02  0.30000000000E+02  0.00000000000E+00 0. -1.
          5    1    1    2  501    0  0.24456634230E+02  0.12538384721E+02 -0.11071221737E+02  0.30000000000E+02  0.47000000000E+01 0. -1.
         -5    1    1    2    0  501 -0.24456634230E+02 -0.12538384721E+02  0.11071221737E+02  0.30000000000E+02  0.47000000000E+01 0.  1.
</event>
<event>
 4    1  0.7509957E-002  0.6000000E+02  0.7546771E-02  0.1259629E+00
         11   -1    0    0    0    0  0.00000000000E+00  0.00000000000E+00  0.30000000000E+02  0.30000000000E+02  0.00000000000E+00 0.  1.
        -11   -1    0    0    0    0 -0.00000000000E+00 -0.00000000000E+00 -0.30000000000E+02  0.30000000000E+02  0.00000000000E+00 0. -1.
          5    1    1    2  501    0  0.26552568974E+02 -0.11274113635E+02 -0.67650160870E+01  0.30000000000E+02  0.47000000000E+01 0. -1.
         -5    1    1    2    0  501 -0.26552568974E+02  0.11274113635E+02  0.67650160870E+01  0.30000000000E+02  0.47000000000E+01 0.  1.
</event>
<event>
 4    1  0.7509957E-002  0.6000000E+02  0.7546771E-02  0.1259629E+00
         11   -1    0    0    0    0  0.00000000000E+00  0.00000000000E+00  0.30000000000E+02  0.30000000000E+02  0.00000000000E+00 0.  1.
        -11   -1    0    0    0    0 -0.00000000000E+00 -0.00000000000E+00 -0.30000000000E+02  0.30000000000E+02  0.00000000000E+00 0. -1.
          5    1    1    2  501    0  0.73336074938E+01 -0.13599875862E+01 -0.28675401216E+02  0.30000000000E+02  0.47000000000E+01 0. -1.
         -5    1    1    2    0  501 -0.73336074938E+01  0.13599875862E+01  0.28675401216E+02  0.30000000000E+02  0.47000000000E+01 0.  1.
</event>
<event>
 4    1  0.7509957E-002  0.6000000E+02  0.7546771E-02  0.1259629E+00
         11   -1    0    0    0    0  0.00000000000E+00  0.00000000000E+00  0.30000000000E+02  0.30000000000E+02  0.00000000000E+00 0.  1.
        -11   -1    0    0    0    0 -0.00000000000E+00 -0.00000000000E+00 -0.30000000000E+02  0.30000000000E+02  0.00000000000E+00 0. -1.
          5    1    1    2  501    0  0.24567311295E+02 -0.13850144340E+02 -0.90846418480E+01  0.30000000000E+02  0.47000000000E+01 0. -1.
         -5    1    1    2    0  501 -0.24567311295E+02  0.13850144340E+02  0.90846418480E+01  0.30000000000E+02  0.47000000000E+01 0.  1.
</event>
<event>
 4    1  0.7509957E-002  0.6000000E+02  0.7546771E-02  0.1259629E+00
         11   -1    0    0    0    0  0.00000000000E+00  0.00000000000E+00  0.30000000000E+02  0.30000000000E+02  0.00000000000E+00 0.  1.
        -11   -1    0    0    0    0 -0.00000000000E+00 -0.00000000000E+00 -0.30000000000E+02  0.30000000000E+02  0.00000000000E+00 0. -1.
          5    1    1    2  501    0 -0.11718255415E+01 -0.29373482293E+02 -0.37061250467E+01  0.30000000000E+02  0.47000000000E+01 0. -1.
         -5    1    1    2    0  501  0.11718255415E+01  0.29373482293E+02  0.37061250467E+01  0.30000000000E+02  0.47000000000E+01 0.  1.
</event>
<event>
 4    1  0.7509957E-002  0.6000000E+02  0.7546771E-02  0.1259629E+00
         11   -1    0    0    0    0  0.00000000000E+00  0.00000000000E+00  0.30000000000E+02  0.30000000000E+02  0.00000000000E+00 0. -1.
        -11   -1    0    0    0    0 -0.00000000000E+00 -0.00000000000E+00 -0.30000000000E+02  0.30000000000E+02  0.00000000000E+00 0.  1.
          5    1    1    2  501    0  0.18550179495E+02 -0.22010445403E+02 -0.70243244428E+01  0.30000000000E+02  0.47000000000E+01 0.  1.
         -5    1    1    2    0  501 -0.18550179495E+02  0.22010445403E+02  0.70243244428E+01  0.30000000000E+02  0.47000000000E+01 0. -1.
</event>
<event>
 4    1  0.7509957E-002  0.6000000E+02  0.7546771E-02  0.1259629E+00
         11   -1    0    0    0    0  0.00000000000E+00  0.00000000000E+00  0.30000000000E+02  0.30000000000E+02  0.00000000000E+00 0.  1.
        -11   -1    0    0    0    0 -0.00000000000E+00 -0.00000000000E+00 -0.30000000000E+02  0.30000000000E+02  0.00000000000E+00 0. -1.
          5    1    1    2  501    0  0.14101609057E+01  0.19411788372E+02  0.22340633796E+02  0.30000000000E+02  0.47000000000E+01 0.  1.
         -5    1    1    2    0  501 -0.14101609057E+01 -0.19411788372E+02 -0.22340633796E+02  0.30000000000E+02  0.47000000000E+01 0. -1.
</event>
<event>
 4    1  0.7509957E-002  0.6000000E+02  0.7546771E-02  0.1259629E+00
         11   -1    0    0    0    0  0.00000000000E+00  0.00000000000E+00  0.30000000000E+02  0.30000000000E+02  0.00000000000E+00 0.  1.
        -11   -1    0    0    0    0 -0.00000000000E+00 -0.00000000000E+00 -0.30000000000E+02  0.30000000000E+02  0.00000000000E+00 0. -1.
          5    1    1    2  501    0 -0.24348532686E+02 -0.14008212525E+02 -0.94249104984E+01  0.30000000000E+02  0.47000000000E+01 0. -1.
         -5    1    1    2    0  501  0.24348532686E+02  0.14008212525E+02  0.94249104984E+01  0.30000000000E+02  0.47000000000E+01 0.  1.
</event>
<event>
 4    1  0.7509957E-002  0.6000000E+02  0.7546771E-02  0.1259629E+00
         11   -1    0    0    0    0  0.00000000000E+00  0.00000000000E+00  0.30000000000E+02  0.30000000000E+02  0.00000000000E+00 0.  1.
        -11   -1    0    0    0    0 -0.00000000000E+00 -0.00000000000E+00 -0.30000000000E+02  0.30000000000E+02  0.00000000000E+00 0. -1.
          5    1    1    2  501    0 -0.11560864492E+02  0.16291243232E+02 -0.21882682792E+02  0.30000000000E+02  0.47000000000E+01 0. -1.
         -5    1    1    2    0  501  0.11560864492E+02 -0.16291243232E+02  0.21882682792E+02  0.30000000000E+02  0.47000000000E+01 0.  1.
</event>
<event>
 4    1  0.7509957E-002  0.6000000E+02  0.7546771E-02  0.1259629E+00
         11   -1    0    0    0    0  0.00000000000E+00  0.00000000000E+00  0.30000000000E+02  0.30000000000E+02  0.00000000000E+00 0.  1.
        -11   -1    0    0    0    0 -0.00000000000E+00 -0.00000000000E+00 -0.30000000000E+02  0.30000000000E+02  0.00000000000E+00 0. -1.
          5    1    1    2  501    0 -0.11091766378E+02  0.57205244776E+01  0.26873003523E+02  0.30000000000E+02  0.47000000000E+01 0.  1.
         -5    1    1    2    0  501  0.11091766378E+02 -0.57205244776E+01 -0.26873003523E+02  0.30000000000E+02  0.47000000000E+01 0. -1.
</event>
<event>
 4    1  0.7509957E-002  0.6000000E+02  0.7546771E-02  0.1259629E+00
         11   -1    0    0    0    0  0.00000000000E+00  0.00000000000E+00  0.30000000000E+02  0.30000000000E+02  0.00000000000E+00 0. -1.
        -11   -1    0    0    0    0 -0.00000000000E+00 -0.00000000000E+00 -0.30000000000E+02  0.30000000000E+02  0.00000000000E+00 0.  1.
          5    1    1    2  501    0 -0.15566730367E+02  0.77342703195E+01  0.23995165519E+02  0.30000000000E+02  0.47000000000E+01 0. -1.
         -5    1    1    2    0  501  0.15566730367E+02 -0.77342703195E+01 -0.23995165519E+02  0.30000000000E+02  0.47000000000E+01 0.  1.
</event>
<event>
 4    1  0.7509957E-002  0.6000000E+02  0.7546771E-02  0.1259629E+00
         11   -1    0    0    0    0  0.00000000000E+00  0.00000000000E+00  0.30000000000E+02  0.30000000000E+02  0.00000000000E+00 0.  1.
        -11   -1    0    0    0    0 -0.00000000000E+00 -0.00000000000E+00 -0.30000000000E+02  0.30000000000E+02  0.00000000000E+00 0. -1.
          5    1    1    2  501    0  0.25199803986E+02  0.24614793023E+01 -0.15388989528E+02  0.30000000000E+02  0.47000000000E+01 0. -1.
         -5    1    1    2    0  501 -0.25199803986E+02 -0.24614793023E+01  0.15388989528E+02  0.30000000000E+02  0.47000000000E+01 0.  1.
</event>
<event>
 4    1  0.7509957E-002  0.6000000E+02  0.7546771E-02  0.1259629E+00
         11   -1    0    0    0    0  0.00000000000E+00  0.00000000000E+00  0.30000000000E+02  0.30000000000E+02  0.00000000000E+00 0.  1.
        -11   -1    0    0    0    0 -0.00000000000E+00 -0.00000000000E+00 -0.30000000000E+02  0.30000000000E+02  0.00000000000E+00 0. -1.
          5    1    1    2  501    0 -0.21539309375E+01  0.14802760767E+02 -0.25576333889E+02  0.30000000000E+02  0.47000000000E+01 0. -1.
         -5    1    1    2    0  501  0.21539309375E+01 -0.14802760767E+02  0.25576333889E+02  0.30000000000E+02  0.47000000000E+01 0.  1.
</event>
<event>
 4    1  0.7509957E-002  0.6000000E+02  0.7546771E-02  0.1259629E+00
         11   -1    0    0    0    0  0.00000000000E+00  0.00000000000E+00  0.30000000000E+02  0.30000000000E+02  0.00000000000E+00 0.  1.
        -11   -1    0    0    0    0 -0.00000000000E+00 -0.00000000000E+00 -0.30000000000E+02  0.30000000000E+02  0.00000000000E+00 0. -1.
          5    1    1    2  501    0 -0.47308682244E+01  0.24176368394E+02 -0.16463052485E+02  0.30000000000E+02  0.47000000000E+01 0. -1.
         -5    1    1    2    0  501  0.47308682244E+01 -0.24176368394E+02  0.16463052485E+02  0.30000000000E+02  0.47000000000E+01 0.  1.
</event>
<event>
 4    1  0.7509957E-002  0.6000000E+02  0.7546771E-02  0.1259629E+00
         11   -1    0    0    0    0  0.00000000000E+00  0.00000000000E+00  0.30000000000E+02  0.30000000000E+02  0.00000000000E+00 0. -1.
        -11   -1    0    0    0    0 -0.00000000000E+00 -0.00000000000E+00 -0.30000000000E+02  0.30000000000E+02  0.00000000000E+00 0.  1.
          5    1    1    2  501    0 -0.18688758234E+02  0.10386601378E+02 -0.20512406672E+02  0.30000000000E+02  0.47000000000E+01 0.  1.
         -5    1    1    2    0  501  0.18688758234E+02 -0.10386601378E+02  0.20512406672E+02  0.30000000000E+02  0.47000000000E+01 0. -1.
</event>
<event>
 4    1  0.7509957E-002  0.6000000E+02  0.7546771E-02  0.1259629E+00
         11   -1    0    0    0    0  0.00000000000E+00  0.00000000000E+00  0.30000000000E+02  0.30000000000E+02  0.00000000000E+00 0. -1.
        -11   -1    0    0    0    0 -0.00000000000E+00 -0.00000000000E+00 -0.30000000000E+02  0.30000000000E+02  0.00000000000E+00 0.  1.
          5    1    1    2  501    0  0.24233259321E+02 -0.28615165090E+00 -0.17046326875E+02  0.30000000000E+02  0.47000000000E+01 0.  1.
         -5    1    1    2    0  501 -0.24233259321E+02  0.28615165090E+00  0.17046326875E+02  0.30000000000E+02  0.47000000000E+01 0. -1.
</event>
<event>
 4    1  0.7509957E-002  0.6000000E+02  0.7546771E-02  0.1259629E+00
         11   -1    0    0    0    0  0.00000000000E+00  0.00000000000E+00  0.30000000000E+02  0.30000000000E+02  0.00000000000E+00 0.  1.
        -11   -1    0    0    0    0 -0.00000000000E+00 -0.00000000000E+00 -0.30000000000E+02  0.30000000000E+02  0.00000000000E+00 0. -1.
          5    1    1    2  501    0 -0.15936686694E+02  0.17872121962E+02 -0.17450480618E+02  0.30000000000E+02  0.47000000000E+01 0. -1.
         -5    1    1    2    0  501  0.15936686694E+02 -0.17872121962E+02  0.17450480618E+02  0.30000000000E+02  0.47000000000E+01 0.  1.
</event>
<event>
 4    1  0.7509957E-002  0.6000000E+02  0.7546771E-02  0.1259629E+00
         11   -1    0    0    0    0  0.00000000000E+00  0.00000000000E+00  0.30000000000E+02  0.30000000000E+02  0.00000000000E+00 0.  1.
        -11   -1    0    0    0    0 -0.00000000000E+00 -0.00000000000E+00 -0.30000000000E+02  0.30000000000E+02  0.00000000000E+00 0. -1.
          5    1    1    2  501    0 -0.49000993201E+01 -0.32002880454E+00 -0.29219798223E+02  0.30000000000E+02  0.47000000000E+01 0. -1.
         -5    1    1    2    0  501  0.49000993201E+01  0.32002880454E+00  0.29219798223E+02  0.30000000000E+02  0.47000000000E+01 0.  1.
</event>
<event>
 4    1  0.7509957E-002  0.6000000E+02  0.7546771E-02  0.1259629E+00
         11   -1    0    0    0    0  0.00000000000E+00  0.00000000000E+00  0.30000000000E+02  0.30000000000E+02  0.00000000000E+00 0. -1.
        -11   -1    0    0    0    0 -0.00000000000E+00 -0.00000000000E+00 -0.30000000000E+02  0.30000000000E+02  0.00000000000E+00 0.  1.
          5    1    1    2  501    0  0.13883719536E+02 -0.25919492751E+02  0.36513322713E+01  0.30000000000E+02  0.47000000000E+01 0. -1.
         -5    1    1    2    0  501 -0.13883719536E+02  0.25919492751E+02 -0.36513322713E+01  0.30000000000E+02  0.47000000000E+01 0.  1.
</event>
<event>
 4    1  0.7509957E-002  0.6000000E+02  0.7546771E-02  0.1259629E+00
         11   -1    0    0    0    0  0.00000000000E+00  0.00000000000E+00  0.30000000000E+02  0.30000000000E+02  0.00000000000E+00 0.  1.
        -11   -1    0    0    0    0 -0.00000000000E+00 -0.00000000000E+00 -0.30000000000E+02  0.30000000000E+02  0.00000000000E+00 0. -1.
          5    1    1    2  501    0 -0.16018556086E+01 -0.27018946992E+02 -0.12054897845E+02  0.30000000000E+02  0.47000000000E+01 0. -1.
         -5    1    1    2    0  501  0.16018556086E+01  0.27018946992E+02  0.12054897845E+02  0.30000000000E+02  0.47000000000E+01 0.  1.
</event>
<event>
 4    1  0.7509957E-002  0.6000000E+02  0.7546771E-02  0.1259629E+00
         11   -1    0    0    0    0  0.00000000000E+00  0.00000000000E+00  0.30000000000E+02  0.30000000000E+02  0.00000000000E+00 0.  1.
        -11   -1    0    0    0    0 -0.00000000000E+00 -0.00000000000E+00 -0.30000000000E+02  0.30000000000E+02  0.00000000000E+00 0. -1.
          5    1    1    2  501    0 -0.19821534114E+02  0.21094876619E+02  0.63263706649E+01  0.30000000000E+02  0.47000000000E+01 0. -1.
         -5    1    1    2    0  501  0.19821534114E+02 -0.21094876619E+02 -0.63263706649E+01  0.30000000000E+02  0.47000000000E+01 0. -1.
</event>
<event>
 4    1  0.7509957E-002  0.6000000E+02  0.7546771E-02  0.1259629E+00
         11   -1    0    0    0    0  0.00000000000E+00  0.00000000000E+00  0.30000000000E+02  0.30000000000E+02  0.00000000000E+00 0. -1.
        -11   -1    0    0    0    0 -0.00000000000E+00 -0.00000000000E+00 -0.30000000000E+02  0.30000000000E+02  0.00000000000E+00 0.  1.
          5    1    1    2  501    0 -0.91516510759E+01  0.24591866272E+02 -0.13762172643E+02  0.30000000000E+02  0.47000000000E+01 0.  1.
         -5    1    1    2    0  501  0.91516510759E+01 -0.24591866272E+02  0.13762172643E+02  0.30000000000E+02  0.47000000000E+01 0. -1.
</event>
<event>
 4    1  0.7509957E-002  0.6000000E+02  0.7546771E-02  0.1259629E+00
         11   -1    0    0    0    0  0.00000000000E+00  0.00000000000E+00  0.30000000000E+02  0.30000000000E+02  0.00000000000E+00 0.  1.
        -11   -1    0    0    0    0 -0.00000000000E+00 -0.00000000000E+00 -0.30000000000E+02  0.30000000000E+02  0.00000000000E+00 0. -1.
          5    1    1    2  501    0 -0.16517950072E+02 -0.78318622248E+01 -0.23318002906E+02  0.30000000000E+02  0.47000000000E+01 0. -1.
         -5    1    1    2    0  501  0.16517950072E+02  0.78318622248E+01  0.23318002906E+02  0.30000000000E+02  0.47000000000E+01 0.  1.
</event>
<event>
 4    1  0.7509957E-002  0.6000000E+02  0.7546771E-02  0.1259629E+00
         11   -1    0    0    0    0  0.00000000000E+00  0.00000000000E+00  0.30000000000E+02  0.30000000000E+02  0.00000000000E+00 0.  1.
        -11   -1    0    0    0    0 -0.00000000000E+00 -0.00000000000E+00 -0.30000000000E+02  0.30000000000E+02  0.00000000000E+00 0. -1.
          5    1    1    2  501    0  0.29442774101E+02 -0.11808007726E+00  0.33195045342E+01  0.30000000000E+02  0.47000000000E+01 0. -1.
         -5    1    1    2    0  501 -0.29442774101E+02  0.11808007726E+00 -0.33195045342E+01  0.30000000000E+02  0.47000000000E+01 0.  1.
</event>
<event>
 4    1  0.7509957E-002  0.6000000E+02  0.7546771E-02  0.1259629E+00
         11   -1    0    0    0    0  0.00000000000E+00  0.00000000000E+00  0.30000000000E+02  0.30000000000E+02  0.00000000000E+00 0.  1.
        -11   -1    0    0    0    0 -0.00000000000E+00 -0.00000000000E+00 -0.30000000000E+02  0.30000000000E+02  0.00000000000E+00 0. -1.
          5    1    1    2  501    0  0.62466799660E+01  0.21498463299E+02 -0.19408891395E+02  0.30000000000E+02  0.47000000000E+01 0. -1.
         -5    1    1    2    0  501 -0.62466799660E+01 -0.21498463299E+02  0.19408891395E+02  0.30000000000E+02  0.47000000000E+01 0.  1.
</event>
<event>
 4    1  0.7509957E-002  0.6000000E+02  0.7546771E-02  0.1259629E+00
         11   -1    0    0    0    0  0.00000000000E+00  0.00000000000E+00  0.30000000000E+02  0.30000000000E+02  0.00000000000E+00 0. -1.
        -11   -1    0    0    0    0 -0.00000000000E+00 -0.00000000000E+00 -0.30000000000E+02  0.30000000000E+02  0.00000000000E+00 0.  1.
          5    1    1    2  501    0 -0.19435348505E+02 -0.16128892509E+01 -0.22306407527E+02  0.30000000000E+02  0.47000000000E+01 0.  1.
         -5    1    1    2    0  501  0.19435348505E+02  0.16128892509E+01  0.22306407527E+02  0.30000000000E+02  0.47000000000E+01 0. -1.
</event>
<event>
 4    1  0.7509957E-002  0.6000000E+02  0.7546771E-02  0.1259629E+00
         11   -1    0    0    0    0  0.00000000000E+00  0.00000000000E+00  0.30000000000E+02  0.30000000000E+02  0.00000000000E+00 0. -1.
        -11   -1    0    0    0    0 -0.00000000000E+00 -0.00000000000E+00 -0.30000000000E+02  0.30000000000E+02  0.00000000000E+00 0.  1.
          5    1    1    2  501    0  0.42306239334E+01 -0.12301682082E+02 -0.26621052554E+02  0.30000000000E+02  0.47000000000E+01 0.  1.
         -5    1    1    2    0  501 -0.42306239334E+01  0.12301682082E+02  0.26621052554E+02  0.30000000000E+02  0.47000000000E+01 0. -1.
</event>
<event>
 4    1  0.7509957E-002  0.6000000E+02  0.7546771E-02  0.1259629E+00
         11   -1    0    0    0    0  0.00000000000E+00  0.00000000000E+00  0.30000000000E+02  0.30000000000E+02  0.00000000000E+00 0.  1.
        -11   -1    0    0    0    0 -0.00000000000E+00 -0.00000000000E+00 -0.30000000000E+02  0.30000000000E+02  0.00000000000E+00 0. -1.
          5    1    1    2  501    0 -0.33062151613E+01 -0.29069924658E+02 -0.46817114070E+01  0.30000000000E+02  0.47000000000E+01 0. -1.
         -5    1    1    2    0  501  0.33062151613E+01  0.29069924658E+02  0.46817114070E+01  0.30000000000E+02  0.47000000000E+01 0.  1.
</event>
<event>
 4    1  0.7509957E-002  0.6000000E+02  0.7546771E-02  0.1259629E+00
         11   -1    0    0    0    0  0.00000000000E+00  0.00000000000E+00  0.30000000000E+02  0.30000000000E+02  0.00000000000E+00 0.  1.
        -11   -1    0    0    0    0 -0.00000000000E+00 -0.00000000000E+00 -0.30000000000E+02  0.30000000000E+02  0.00000000000E+00 0. -1.
          5    1    1    2  501    0 -0.23221913075E+02 -0.14557726777E+02  0.11257235195E+02  0.30000000000E+02  0.47000000000E+01 0. -1.
         -5    1    1    2    0  501  0.23221913075E+02  0.14557726777E+02 -0.11257235195E+02  0.30000000000E+02  0.47000000000E+01 0.  1.
</event>
<event>
 4    1  0.7509957E-002  0.6000000E+02  0.7546771E-02  0.1259629E+00
         11   -1    0    0    0    0  0.00000000000E+00  0.00000000000E+00  0.30000000000E+02  0.30000000000E+02  0.00000000000E+00 0. -1.
        -11   -1    0    0    0    0 -0.00000000000E+00 -0.00000000000E+00 -0.30000000000E+02  0.30000000000E+02  0.00000000000E+00 0.  1.
          5    1    1    2  501    0  0.18038000065E+01  0.19552939921E+02  0.22188709877E+02  0.30000000000E+02  0.47000000000E+01 0. -1.
         -5    1    1    2    0  501 -0.18038000065E+01 -0.19552939921E+02 -0.22188709877E+02  0.30000000000E+02  0.47000000000E+01 0.  1.
</event>
<event>
 4    1  0.7509957E-002  0.6000000E+02  0.7546771E-02  0.1259629E+00
         11   -1    0    0    0    0  0.00000000000E+00  0.00000000000E+00  0.30000000000E+02  0.30000000000E+02  0.00000000000E+00 0.  1.
        -11   -1    0    0    0    0 -0.00000000000E+00 -0.00000000000E+00 -0.30000000000E+02  0.30000000000E+02  0.00000000000E+00 0. -1.
          5    1    1    2  501    0 -0.19322537107E+01  0.62027090299E+01 -0.28908524630E+02  0.30000000000E+02  0.47000000000E+01 0. -1.
         -5    1    1    2    0  501  0.19322537107E+01 -0.62027090299E+01  0.28908524630E+02  0.30000000000E+02  0.47000000000E+01 0.  1.
</event>
<event>
 4    1  0.7509957E-002  0.6000000E+02  0.7546771E-02  0.1259629E+00
         11   -1    0    0    0    0  0.00000000000E+00  0.00000000000E+00  0.30000000000E+02  0.30000000000E+02  0.00000000000E+00 0.  1.
        -11   -1    0    0    0    0 -0.00000000000E+00 -0.00000000000E+00 -0.30000000000E+02  0.30000000000E+02  0.00000000000E+00 0. -1.
          5    1    1    2  501    0  0.23295178761E+02 -0.14806425004E+02 -0.10770999261E+02  0.30000000000E+02  0.47000000000E+01 0. -1.
         -5    1    1    2    0  501 -0.23295178761E+02  0.14806425004E+02  0.10770999261E+02  0.30000000000E+02  0.47000000000E+01 0.  1.
</event>
<event>
 4    1  0.7509957E-002  0.6000000E+02  0.7546771E-02  0.1259629E+00
         11   -1    0    0    0    0  0.00000000000E+00  0.00000000000E+00  0.30000000000E+02  0.30000000000E+02  0.00000000000E+00 0. -1.
        -11   -1    0    0    0    0 -0.00000000000E+00 -0.00000000000E+00 -0.30000000000E+02  0.30000000000E+02  0.00000000000E+00 0.  1.
          5    1    1    2  501    0  0.28578853587E+02 -0.23598914947E+01 -0.74558728381E+01  0.30000000000E+02  0.47000000000E+01 0.  1.
         -5    1    1    2    0  501 -0.28578853587E+02  0.23598914947E+01  0.74558728381E+01  0.30000000000E+02  0.47000000000E+01 0. -1.
</event>
<event>
 4    1  0.7509957E-002  0.6000000E+02  0.7546771E-02  0.1259629E+00
         11   -1    0    0    0    0  0.00000000000E+00  0.00000000000E+00  0.30000000000E+02  0.30000000000E+02  0.00000000000E+00 0. -1.
        -11   -1    0    0    0    0 -0.00000000000E+00 -0.00000000000E+00 -0.30000000000E+02  0.30000000000E+02  0.00000000000E+00 0.  1.
          5    1    1    2  501    0  0.18036897783E+02  0.82283677250E+01 -0.22019861102E+02  0.30000000000E+02  0.47000000000E+01 0.  1.
         -5    1    1    2    0  501 -0.18036897783E+02 -0.82283677250E+01  0.22019861102E+02  0.30000000000E+02  0.47000000000E+01 0. -1.
</event>
<event>
 4    1  0.7509957E-002  0.6000000E+02  0.7546771E-02  0.1259629E+00
         11   -1    0    0    0    0  0.00000000000E+00  0.00000000000E+00  0.30000000000E+02  0.30000000000E+02  0.00000000000E+00 0.  1.
        -11   -1    0    0    0    0 -0.00000000000E+00 -0.00000000000E+00 -0.30000000000E+02  0.30000000000E+02  0.00000000000E+00 0. -1.
          5    1    1    2  501    0  0.20740301456E+02 -0.29035217180E+01  0.20959948883E+02  0.30000000000E+02  0.47000000000E+01 0.  1.
         -5    1    1    2    0  501 -0.20740301456E+02  0.29035217180E+01 -0.20959948883E+02  0.30000000000E+02  0.47000000000E+01 0. -1.
</event>
<event>
 4    1  0.7509957E-002  0.6000000E+02  0.7546771E-02  0.1259629E+00
         11   -1    0    0    0    0  0.00000000000E+00  0.00000000000E+00  0.30000000000E+02  0.30000000000E+02  0.00000000000E+00 0.  1.
        -11   -1    0    0    0    0 -0.00000000000E+00 -0.00000000000E+00 -0.30000000000E+02  0.30000000000E+02  0.00000000000E+00 0. -1.
          5    1    1    2  501    0 -0.75958618799E+01  0.25332738510E+02  0.13359088363E+02  0.30000000000E+02  0.47000000000E+01 0. -1.
         -5    1    1    2    0  501  0.75958618799E+01 -0.25332738510E+02 -0.13359088363E+02  0.30000000000E+02  0.47000000000E+01 0.  1.
</event>
<event>
 4    1  0.7509957E-002  0.6000000E+02  0.7546771E-02  0.1259629E+00
         11   -1    0    0    0    0  0.00000000000E+00  0.00000000000E+00  0.30000000000E+02  0.30000000000E+02  0.00000000000E+00 0.  1.
        -11   -1    0    0    0    0 -0.00000000000E+00 -0.00000000000E+00 -0.30000000000E+02  0.30000000000E+02  0.00000000000E+00 0. -1.
          5    1    1    2  501    0 -0.64478284362E+01  0.10033216170E+02 -0.27123238777E+02  0.30000000000E+02  0.47000000000E+01 0. -1.
         -5    1    1    2    0  501  0.64478284362E+01 -0.10033216170E+02  0.27123238777E+02  0.30000000000E+02  0.47000000000E+01 0.  1.
</event>
<event>
 4    1  0.7509957E-002  0.6000000E+02  0.7546771E-02  0.1259629E+00
         11   -1    0    0    0    0  0.00000000000E+00  0.00000000000E+00  0.30000000000E+02  0.30000000000E+02  0.00000000000E+00 0.  1.
        -11   -1    0    0    0    0 -0.00000000000E+00 -0.00000000000E+00 -0.30000000000E+02  0.30000000000E+02  0.00000000000E+00 0. -1.
          5    1    1    2  501    0 -0.26007377532E+02  0.11490060083E+02 -0.83369558712E+01  0.30000000000E+02  0.47000000000E+01 0. -1.
         -5    1    1    2    0  501  0.26007377532E+02 -0.11490060083E+02  0.83369558712E+01  0.30000000000E+02  0.47000000000E+01 0.  1.
</event>
<event>
 4    1  0.7509957E-002  0.6000000E+02  0.7546771E-02  0.1259629E+00
         11   -1    0    0    0    0  0.00000000000E+00  0.00000000000E+00  0.30000000000E+02  0.30000000000E+02  0.00000000000E+00 0.  1.
        -11   -1    0    0    0    0 -0.00000000000E+00 -0.00000000000E+00 -0.30000000000E+02  0.30000000000E+02  0.00000000000E+00 0. -1.
          5    1    1    2  501    0 -0.24238207413E+02 -0.15479794700E+02 -0.71270791689E+01  0.30000000000E+02  0.47000000000E+01 0. -1.
         -5    1    1    2    0  501  0.24238207413E+02  0.15479794700E+02  0.71270791689E+01  0.30000000000E+02  0.47000000000E+01 0.  1.
</event>
<event>
 4    1  0.7509957E-002  0.6000000E+02  0.7546771E-02  0.1259629E+00
         11   -1    0    0    0    0  0.00000000000E+00  0.00000000000E+00  0.30000000000E+02  0.30000000000E+02  0.00000000000E+00 0. -1.
        -11   -1    0    0    0    0 -0.00000000000E+00 -0.00000000000E+00 -0.30000000000E+02  0.30000000000E+02  0.00000000000E+00 0.  1.
          5    1    1    2  501    0 -0.11191997656E+02  0.77622754752E+01 -0.26313423721E+02  0.30000000000E+02  0.47000000000E+01 0.  1.
         -5    1    1    2    0  501  0.11191997656E+02 -0.77622754752E+01  0.26313423721E+02  0.30000000000E+02  0.47000000000E+01 0. -1.
</event>
<event>
 4    1  0.7509957E-002  0.6000000E+02  0.7546771E-02  0.1259629E+00
         11   -1    0    0    0    0  0.00000000000E+00  0.00000000000E+00  0.30000000000E+02  0.30000000000E+02  0.00000000000E+00 0.  1.
        -11   -1    0    0    0    0 -0.00000000000E+00 -0.00000000000E+00 -0.30000000000E+02  0.30000000000E+02  0.00000000000E+00 0. -1.
          5    1    1    2  501    0 -0.14305658184E+02 -0.17884264813E+02 -0.18799234453E+02  0.30000000000E+02  0.47000000000E+01 0.  1.
         -5    1    1    2    0  501  0.14305658184E+02  0.17884264813E+02  0.18799234453E+02  0.30000000000E+02  0.47000000000E+01 0. -1.
</event>
<event>
 4    1  0.7509957E-002  0.6000000E+02  0.7546771E-02  0.1259629E+00
         11   -1    0    0    0    0  0.00000000000E+00  0.00000000000E+00  0.30000000000E+02  0.30000000000E+02  0.00000000000E+00 0.  1.
        -11   -1    0    0    0    0 -0.00000000000E+00 -0.00000000000E+00 -0.30000000000E+02  0.30000000000E+02  0.00000000000E+00 0. -1.
          5    1    1    2  501    0 -0.21452756870E+02 -0.13874368302E+02 -0.15006369544E+02  0.30000000000E+02  0.47000000000E+01 0.  1.
         -5    1    1    2    0  501  0.21452756870E+02  0.13874368302E+02  0.15006369544E+02  0.30000000000E+02  0.47000000000E+01 0.  1.
</event>
<event>
 4    1  0.7509957E-002  0.6000000E+02  0.7546771E-02  0.1259629E+00
         11   -1    0    0    0    0  0.00000000000E+00  0.00000000000E+00  0.30000000000E+02  0.30000000000E+02  0.00000000000E+00 0.  1.
        -11   -1    0    0    0    0 -0.00000000000E+00 -0.00000000000E+00 -0.30000000000E+02  0.30000000000E+02  0.00000000000E+00 0. -1.
          5    1    1    2  501    0 -0.52310288803E+01  0.12240781066E+02 -0.26470920191E+02  0.30000000000E+02  0.47000000000E+01 0. -1.
         -5    1    1    2    0  501  0.52310288803E+01 -0.12240781066E+02  0.26470920191E+02  0.30000000000E+02  0.47000000000E+01 0.  1.
</event>
<event>
 4    1  0.7509957E-002  0.6000000E+02  0.7546771E-02  0.1259629E+00
         11   -1    0    0    0    0  0.00000000000E+00  0.00000000000E+00  0.30000000000E+02  0.30000000000E+02  0.00000000000E+00 0.  1.
        -11   -1    0    0    0    0 -0.00000000000E+00 -0.00000000000E+00 -0.30000000000E+02  0.30000000000E+02  0.00000000000E+00 0. -1.
          5    1    1    2  501    0  0.48592163860E+00  0.14614931939E+02 -0.25769704007E+02  0.30000000000E+02  0.47000000000E+01 0. -1.
         -5    1    1    2    0  501 -0.48592163860E+00 -0.14614931939E+02  0.25769704007E+02  0.30000000000E+02  0.47000000000E+01 0.  1.
</event>
<event>
 4    1  0.7509957E-002  0.6000000E+02  0.7546771E-02  0.1259629E+00
         11   -1    0    0    0    0  0.00000000000E+00  0.00000000000E+00  0.30000000000E+02  0.30000000000E+02  0.00000000000E+00 0.  1.
        -11   -1    0    0    0    0 -0.00000000000E+00 -0.00000000000E+00 -0.30000000000E+02  0.30000000000E+02  0.00000000000E+00 0. -1.
          5    1    1    2  501    0 -0.25223672038E+00  0.26619531513E+01 -0.29508649275E+02  0.30000000000E+02  0.47000000000E+01 0. -1.
         -5    1    1    2    0  501  0.25223672038E+00 -0.26619531513E+01  0.29508649275E+02  0.30000000000E+02  0.47000000000E+01 0.  1.
</event>
<event>
 4    1  0.7509957E-002  0.6000000E+02  0.7546771E-02  0.1259629E+00
         11   -1    0    0    0    0  0.00000000000E+00  0.00000000000E+00  0.30000000000E+02  0.30000000000E+02  0.00000000000E+00 0.  1.
        -11   -1    0    0    0    0 -0.00000000000E+00 -0.00000000000E+00 -0.30000000000E+02  0.30000000000E+02  0.00000000000E+00 0. -1.
          5    1    1    2  501    0  0.25143249709E+02 -0.15297722861E+02  0.34215010347E+01  0.30000000000E+02  0.47000000000E+01 0. -1.
         -5    1    1    2    0  501 -0.25143249709E+02  0.15297722861E+02 -0.34215010347E+01  0.30000000000E+02  0.47000000000E+01 0.  1.
</event>
<event>
 4    1  0.7509957E-002  0.6000000E+02  0.7546771E-02  0.1259629E+00
         11   -1    0    0    0    0  0.00000000000E+00  0.00000000000E+00  0.30000000000E+02  0.30000000000E+02  0.00000000000E+00 0.  1.
        -11   -1    0    0    0    0 -0.00000000000E+00 -0.00000000000E+00 -0.30000000000E+02  0.30000000000E+02  0.00000000000E+00 0. -1.
          5    1    1    2  501    0  0.27162223892E+02 -0.11801541047E+02 -0.92044672029E+00  0.30000000000E+02  0.47000000000E+01 0. -1.
         -5    1    1    2    0  501 -0.27162223892E+02  0.11801541047E+02  0.92044672029E+00  0.30000000000E+02  0.47000000000E+01 0.  1.
</event>
<event>
 4    1  0.7509957E-002  0.6000000E+02  0.7546771E-02  0.1259629E+00
         11   -1    0    0    0    0  0.00000000000E+00  0.00000000000E+00  0.30000000000E+02  0.30000000000E+02  0.00000000000E+00 0. -1.
        -11   -1    0    0    0    0 -0.00000000000E+00 -0.00000000000E+00 -0.30000000000E+02  0.30000000000E+02  0.00000000000E+00 0.  1.
          5    1    1    2  501    0 -0.16776035153E+02  0.15026041030E+02 -0.19253382443E+02  0.30000000000E+02  0.47000000000E+01 0.  1.
         -5    1    1    2    0  501  0.16776035153E+02 -0.15026041030E+02  0.19253382443E+02  0.30000000000E+02  0.47000000000E+01 0. -1.
</event>
<event>
 4    1  0.7509957E-002  0.6000000E+02  0.7546771E-02  0.1259629E+00
         11   -1    0    0    0    0  0.00000000000E+00  0.00000000000E+00  0.30000000000E+02  0.30000000000E+02  0.00000000000E+00 0.  1.
        -11   -1    0    0    0    0 -0.00000000000E+00 -0.00000000000E+00 -0.30000000000E+02  0.30000000000E+02  0.00000000000E+00 0. -1.
          5    1    1    2  501    0  0.16046285985E+02 -0.88308685224E+01 -0.23290394313E+02  0.30000000000E+02  0.47000000000E+01 0. -1.
         -5    1    1    2    0  501 -0.16046285985E+02  0.88308685224E+01  0.23290394313E+02  0.30000000000E+02  0.47000000000E+01 0.  1.
</event>
<event>
 4    1  0.7509957E-002  0.6000000E+02  0.7546771E-02  0.1259629E+00
         11   -1    0    0    0    0  0.00000000000E+00  0.00000000000E+00  0.30000000000E+02  0.30000000000E+02  0.00000000000E+00 0.  1.
        -11   -1    0    0    0    0 -0.00000000000E+00 -0.00000000000E+00 -0.30000000000E+02  0.30000000000E+02  0.00000000000E+00 0. -1.
          5    1    1    2  501    0 -0.13874252129E+02  0.18590075214E+02  0.18434322103E+02  0.30000000000E+02  0.47000000000E+01 0.  1.
         -5    1    1    2    0  501  0.13874252129E+02 -0.18590075214E+02 -0.18434322103E+02  0.30000000000E+02  0.47000000000E+01 0. -1.
</event>
<event>
 4    1  0.7509957E-002  0.6000000E+02  0.7546771E-02  0.1259629E+00
         11   -1    0    0    0    0  0.00000000000E+00  0.00000000000E+00  0.30000000000E+02  0.30000000000E+02  0.00000000000E+00 0.  1.
        -11   -1    0    0    0    0 -0.00000000000E+00 -0.00000000000E+00 -0.30000000000E+02  0.30000000000E+02  0.00000000000E+00 0. -1.
          5    1    1    2  501    0  0.37751021541E+00  0.16858721203E+02 -0.24362902238E+02  0.30000000000E+02  0.47000000000E+01 0. -1.
         -5    1    1    2    0  501 -0.37751021541E+00 -0.16858721203E+02  0.24362902238E+02  0.30000000000E+02  0.47000000000E+01 0.  1.
</event>
<event>
 4    1  0.7509957E-002  0.6000000E+02  0.7546771E-02  0.1259629E+00
         11   -1    0    0    0    0  0.00000000000E+00  0.00000000000E+00  0.30000000000E+02  0.30000000000E+02  0.00000000000E+00 0.  1.
        -11   -1    0    0    0    0 -0.00000000000E+00 -0.00000000000E+00 -0.30000000000E+02  0.30000000000E+02  0.00000000000E+00 0. -1.
          5    1    1    2  501    0  0.19564817664E+02 -0.25942091382E+01 -0.22099728250E+02  0.30000000000E+02  0.47000000000E+01 0. -1.
         -5    1    1    2    0  501 -0.19564817664E+02  0.25942091382E+01  0.22099728250E+02  0.30000000000E+02  0.47000000000E+01 0.  1.
</event>
<event>
 4    1  0.7509957E-002  0.6000000E+02  0.7546771E-02  0.1259629E+00
         11   -1    0    0    0    0  0.00000000000E+00  0.00000000000E+00  0.30000000000E+02  0.30000000000E+02  0.00000000000E+00 0.  1.
        -11   -1    0    0    0    0 -0.00000000000E+00 -0.00000000000E+00 -0.30000000000E+02  0.30000000000E+02  0.00000000000E+00 0. -1.
          5    1    1    2  501    0  0.10702761898E+02  0.18423522740E+02  0.20589674539E+02  0.30000000000E+02  0.47000000000E+01 0.  1.
         -5    1    1    2    0  501 -0.10702761898E+02 -0.18423522740E+02 -0.20589674539E+02  0.30000000000E+02  0.47000000000E+01 0. -1.
</event>
<event>
 4    1  0.7509957E-002  0.6000000E+02  0.7546771E-02  0.1259629E+00
         11   -1    0    0    0    0  0.00000000000E+00  0.00000000000E+00  0.30000000000E+02  0.30000000000E+02  0.00000000000E+00 0.  1.
        -11   -1    0    0    0    0 -0.00000000000E+00 -0.00000000000E+00 -0.30000000000E+02  0.30000000000E+02  0.00000000000E+00 0. -1.
          5    1    1    2  501    0  0.93215530287E+01  0.17883341703E-01 -0.28125048077E+02  0.30000000000E+02  0.47000000000E+01 0. -1.
         -5    1    1    2    0  501 -0.93215530287E+01 -0.17883341703E-01  0.28125048077E+02  0.30000000000E+02  0.47000000000E+01 0.  1.
</event>
<event>
 4    1  0.7509957E-002  0.6000000E+02  0.7546771E-02  0.1259629E+00
         11   -1    0    0    0    0  0.00000000000E+00  0.00000000000E+00  0.30000000000E+02  0.30000000000E+02  0.00000000000E+00 0.  1.
        -11   -1    0    0    0    0 -0.00000000000E+00 -0.00000000000E+00 -0.30000000000E+02  0.30000000000E+02  0.00000000000E+00 0. -1.
          5    1    1    2  501    0 -0.11285294574E+02 -0.27344834620E+02 -0.16769454261E+01  0.30000000000E+02  0.47000000000E+01 0. -1.
         -5    1    1    2    0  501  0.11285294574E+02  0.27344834620E+02  0.16769454261E+01  0.30000000000E+02  0.47000000000E+01 0.  1.
</event>
<event>
 4    1  0.7509957E-002  0.6000000E+02  0.7546771E-02  0.1259629E+00
         11   -1    0    0    0    0  0.00000000000E+00  0.00000000000E+00  0.30000000000E+02  0.30000000000E+02  0.00000000000E+00 0.  1.
        -11   -1    0    0    0    0 -0.00000000000E+00 -0.00000000000E+00 -0.30000000000E+02  0.30000000000E+02  0.00000000000E+00 0. -1.
          5    1    1    2  501    0  0.16683266566E+01 -0.26650321798E+02 -0.12840834640E+02  0.30000000000E+02  0.47000000000E+01 0. -1.
         -5    1    1    2    0  501 -0.16683266566E+01  0.26650321798E+02  0.12840834640E+02  0.30000000000E+02  0.47000000000E+01 0.  1.
</event>
<event>
 4    1  0.7509957E-002  0.6000000E+02  0.7546771E-02  0.1259629E+00
         11   -1    0    0    0    0  0.00000000000E+00  0.00000000000E+00  0.30000000000E+02  0.30000000000E+02  0.00000000000E+00 0.  1.
        -11   -1    0    0    0    0 -0.00000000000E+00 -0.00000000000E+00 -0.30000000000E+02  0.30000000000E+02  0.00000000000E+00 0. -1.
          5    1    1    2  501    0 -0.10984011211E+02 -0.19923192168E+02 -0.18982305223E+02  0.30000000000E+02  0.47000000000E+01 0. -1.
         -5    1    1    2    0  501  0.10984011211E+02  0.19923192168E+02  0.18982305223E+02  0.30000000000E+02  0.47000000000E+01 0.  1.
</event>
<event>
 4    1  0.7509957E-002  0.6000000E+02  0.7546771E-02  0.1259629E+00
         11   -1    0    0    0    0  0.00000000000E+00  0.00000000000E+00  0.30000000000E+02  0.30000000000E+02  0.00000000000E+00 0.  1.
        -11   -1    0    0    0    0 -0.00000000000E+00 -0.00000000000E+00 -0.30000000000E+02  0.30000000000E+02  0.00000000000E+00 0. -1.
          5    1    1    2  501    0  0.24709454987E+02 -0.15596273963E+01 -0.16276375415E+02  0.30000000000E+02  0.47000000000E+01 0. -1.
         -5    1    1    2    0  501 -0.24709454987E+02  0.15596273963E+01  0.16276375415E+02  0.30000000000E+02  0.47000000000E+01 0.  1.
</event>
<event>
 4    1  0.7509957E-002  0.6000000E+02  0.7546771E-02  0.1259629E+00
         11   -1    0    0    0    0  0.00000000000E+00  0.00000000000E+00  0.30000000000E+02  0.30000000000E+02  0.00000000000E+00 0.  1.
        -11   -1    0    0    0    0 -0.00000000000E+00 -0.00000000000E+00 -0.30000000000E+02  0.30000000000E+02  0.00000000000E+00 0. -1.
          5    1    1    2  501    0  0.31213766482E+01 -0.27272565938E+02 -0.11152316127E+02  0.30000000000E+02  0.47000000000E+01 0. -1.
         -5    1    1    2    0  501 -0.31213766482E+01  0.27272565938E+02  0.11152316127E+02  0.30000000000E+02  0.47000000000E+01 0.  1.
</event>
<event>
 4    1  0.7509957E-002  0.6000000E+02  0.7546771E-02  0.1259629E+00
         11   -1    0    0    0    0  0.00000000000E+00  0.00000000000E+00  0.30000000000E+02  0.30000000000E+02  0.00000000000E+00 0.  1.
        -11   -1    0    0    0    0 -0.00000000000E+00 -0.00000000000E+00 -0.30000000000E+02  0.30000000000E+02  0.00000000000E+00 0. -1.
          5    1    1    2  501    0 -0.30496017834E+01 -0.24482629290E+02 -0.16407644316E+02  0.30000000000E+02  0.47000000000E+01 0. -1.
         -5    1    1    2    0  501  0.30496017834E+01  0.24482629290E+02  0.16407644316E+02  0.30000000000E+02  0.47000000000E+01 0.  1.
</event>
<event>
 4    1  0.7509957E-002  0.6000000E+02  0.7546771E-02  0.1259629E+00
         11   -1    0    0    0    0  0.00000000000E+00  0.00000000000E+00  0.30000000000E+02  0.30000000000E+02  0.00000000000E+00 0.  1.
        -11   -1    0    0    0    0 -0.00000000000E+00 -0.00000000000E+00 -0.30000000000E+02  0.30000000000E+02  0.00000000000E+00 0. -1.
          5    1    1    2  501    0  0.16490929583E+02 -0.22983424583E+02  0.88159761752E+01  0.30000000000E+02  0.47000000000E+01 0. -1.
         -5    1    1    2    0  501 -0.16490929583E+02  0.22983424583E+02 -0.88159761752E+01  0.30000000000E+02  0.47000000000E+01 0.  1.
</event>
<event>
 4    1  0.7509957E-002  0.6000000E+02  0.7546771E-02  0.1259629E+00
         11   -1    0    0    0    0  0.00000000000E+00  0.00000000000E+00  0.30000000000E+02  0.30000000000E+02  0.00000000000E+00 0.  1.
        -11   -1    0    0    0    0 -0.00000000000E+00 -0.00000000000E+00 -0.30000000000E+02  0.30000000000E+02  0.00000000000E+00 0. -1.
          5    1    1    2  501    0 -0.85201281792E+01 -0.17165816011E+02 -0.22597614398E+02  0.30000000000E+02  0.47000000000E+01 0. -1.
         -5    1    1    2    0  501  0.85201281792E+01  0.17165816011E+02  0.22597614398E+02  0.30000000000E+02  0.47000000000E+01 0.  1.
</event>
<event>
 4    1  0.7509957E-002  0.6000000E+02  0.7546771E-02  0.1259629E+00
         11   -1    0    0    0    0  0.00000000000E+00  0.00000000000E+00  0.30000000000E+02  0.30000000000E+02  0.00000000000E+00 0.  1.
        -11   -1    0    0    0    0 -0.00000000000E+00 -0.00000000000E+00 -0.30000000000E+02  0.30000000000E+02  0.00000000000E+00 0. -1.
          5    1    1    2  501    0  0.12534680055E+02 -0.71364706905E+01 -0.25881703615E+02  0.30000000000E+02  0.47000000000E+01 0. -1.
         -5    1    1    2    0  501 -0.12534680055E+02  0.71364706905E+01  0.25881703615E+02  0.30000000000E+02  0.47000000000E+01 0.  1.
</event>
<event>
 4    1  0.7509957E-002  0.6000000E+02  0.7546771E-02  0.1259629E+00
         11   -1    0    0    0    0  0.00000000000E+00  0.00000000000E+00  0.30000000000E+02  0.30000000000E+02  0.00000000000E+00 0. -1.
        -11   -1    0    0    0    0 -0.00000000000E+00 -0.00000000000E+00 -0.30000000000E+02  0.30000000000E+02  0.00000000000E+00 0.  1.
          5    1    1    2  501    0  0.15479460965E+02  0.19123811484E+02 -0.16509879544E+02  0.30000000000E+02  0.47000000000E+01 0.  1.
         -5    1    1    2    0  501 -0.15479460965E+02 -0.19123811484E+02  0.16509879544E+02  0.30000000000E+02  0.47000000000E+01 0. -1.
</event>
<event>
 4    1  0.7509957E-002  0.6000000E+02  0.7546771E-02  0.1259629E+00
         11   -1    0    0    0    0  0.00000000000E+00  0.00000000000E+00  0.30000000000E+02  0.30000000000E+02  0.00000000000E+00 0.  1.
        -11   -1    0    0    0    0 -0.00000000000E+00 -0.00000000000E+00 -0.30000000000E+02  0.30000000000E+02  0.00000000000E+00 0. -1.
          5    1    1    2  501    0 -0.14030199106E+02  0.22609268926E+02 -0.13033973749E+02  0.30000000000E+02  0.47000000000E+01 0. -1.
         -5    1    1    2    0  501  0.14030199106E+02 -0.22609268926E+02  0.13033973749E+02  0.30000000000E+02  0.47000000000E+01 0.  1.
</event>
<event>
 4    1  0.7509957E-002  0.6000000E+02  0.7546771E-02  0.1259629E+00
         11   -1    0    0    0    0  0.00000000000E+00  0.00000000000E+00  0.30000000000E+02  0.30000000000E+02  0.00000000000E+00 0. -1.
        -11   -1    0    0    0    0 -0.00000000000E+00 -0.00000000000E+00 -0.30000000000E+02  0.30000000000E+02  0.00000000000E+00 0.  1.
          5    1    1    2  501    0 -0.96281313226E+01 -0.54759456712E+01 -0.27481322862E+02  0.30000000000E+02  0.47000000000E+01 0.  1.
         -5    1    1    2    0  501  0.96281313226E+01  0.54759456712E+01  0.27481322862E+02  0.30000000000E+02  0.47000000000E+01 0. -1.
</event>
<event>
 4    1  0.7509957E-002  0.6000000E+02  0.7546771E-02  0.1259629E+00
         11   -1    0    0    0    0  0.00000000000E+00  0.00000000000E+00  0.30000000000E+02  0.30000000000E+02  0.00000000000E+00 0.  1.
        -11   -1    0    0    0    0 -0.00000000000E+00 -0.00000000000E+00 -0.30000000000E+02  0.30000000000E+02  0.00000000000E+00 0. -1.
          5    1    1    2  501    0  0.43481036677E+01 -0.17209018649E+02 -0.23724537332E+02  0.30000000000E+02  0.47000000000E+01 0. -1.
         -5    1    1    2    0  501 -0.43481036677E+01  0.17209018649E+02  0.23724537332E+02  0.30000000000E+02  0.47000000000E+01 0.  1.
</event>
<event>
 4    1  0.7509957E-002  0.6000000E+02  0.7546771E-02  0.1259629E+00
         11   -1    0    0    0    0  0.00000000000E+00  0.00000000000E+00  0.30000000000E+02  0.30000000000E+02  0.00000000000E+00 0.  1.
        -11   -1    0    0    0    0 -0.00000000000E+00 -0.00000000000E+00 -0.30000000000E+02  0.30000000000E+02  0.00000000000E+00 0. -1.
          5    1    1    2  501    0 -0.74918279137E+01  0.24248783721E+02 -0.15289833307E+02  0.30000000000E+02  0.47000000000E+01 0. -1.
         -5    1    1    2    0  501  0.74918279137E+01 -0.24248783721E+02  0.15289833307E+02  0.30000000000E+02  0.47000000000E+01 0.  1.
</event>
<event>
 4    1  0.7509957E-002  0.6000000E+02  0.7546771E-02  0.1259629E+00
         11   -1    0    0    0    0  0.00000000000E+00  0.00000000000E+00  0.30000000000E+02  0.30000000000E+02  0.00000000000E+00 0.  1.
        -11   -1    0    0    0    0 -0.00000000000E+00 -0.00000000000E+00 -0.30000000000E+02  0.30000000000E+02  0.00000000000E+00 0. -1.
          5    1    1    2  501    0  0.15204183213E+02 -0.23570730310E+02 -0.95479571349E+01  0.30000000000E+02  0.47000000000E+01 0. -1.
         -5    1    1    2    0  501 -0.15204183213E+02  0.23570730310E+02  0.95479571349E+01  0.30000000000E+02  0.47000000000E+01 0.  1.
</event>
<event>
 4    1  0.7509957E-002  0.6000000E+02  0.7546771E-02  0.1259629E+00
         11   -1    0    0    0    0  0.00000000000E+00  0.00000000000E+00  0.30000000000E+02  0.30000000000E+02  0.00000000000E+00 0.  1.
        -11   -1    0    0    0    0 -0.00000000000E+00 -0.00000000000E+00 -0.30000000000E+02  0.30000000000E+02  0.00000000000E+00 0. -1.
          5    1    1    2  501    0 -0.10223734155E+01 -0.14009148378E+02  0.26088474741E+02  0.30000000000E+02  0.47000000000E+01 0.  1.
         -5    1    1    2    0  501  0.10223734155E+01  0.14009148378E+02 -0.26088474741E+02  0.30000000000E+02  0.47000000000E+01 0. -1.
</event>
<event>
 4    1  0.7509957E-002  0.6000000E+02  0.7546771E-02  0.1259629E+00
         11   -1    0    0    0    0  0.00000000000E+00  0.00000000000E+00  0.30000000000E+02  0.30000000000E+02  0.00000000000E+00 0. -1.
        -11   -1    0    0    0    0 -0.00000000000E+00 -0.00000000000E+00 -0.30000000000E+02  0.30000000000E+02  0.00000000000E+00 0.  1.
          5    1    1    2  501    0  0.12179724123E+01  0.19359876465E+02 -0.22396913324E+02  0.30000000000E+02  0.47000000000E+01 0.  1.
         -5    1    1    2    0  501 -0.12179724123E+01 -0.19359876465E+02  0.22396913324E+02  0.30000000000E+02  0.47000000000E+01 0. -1.
</event>
<event>
 4    1  0.7509957E-002  0.6000000E+02  0.7546771E-02  0.1259629E+00
         11   -1    0    0    0    0  0.00000000000E+00  0.00000000000E+00  0.30000000000E+02  0.30000000000E+02  0.00000000000E+00 0.  1.
        -11   -1    0    0    0    0 -0.00000000000E+00 -0.00000000000E+00 -0.30000000000E+02  0.30000000000E+02  0.00000000000E+00 0. -1.
          5    1    1    2  501    0  0.40596852838E+01 -0.18689640891E+02  0.22630207219E+02  0.30000000000E+02  0.47000000000E+01 0. -1.
         -5    1    1    2    0  501 -0.40596852838E+01  0.18689640891E+02 -0.22630207219E+02  0.30000000000E+02  0.47000000000E+01 0. -1.
</event>
<event>
 4    1  0.7509957E-002  0.6000000E+02  0.7546771E-02  0.1259629E+00
         11   -1    0    0    0    0  0.00000000000E+00  0.00000000000E+00  0.30000000000E+02  0.30000000000E+02  0.00000000000E+00 0. -1.
        -11   -1    0    0    0    0 -0.00000000000E+00 -0.00000000000E+00 -0.30000000000E+02  0.30000000000E+02  0.00000000000E+00 0.  1.
          5    1    1    2  501    0  0.49423346044E+01 -0.26245971390E+02 -0.12830912456E+02  0.30000000000E+02  0.47000000000E+01 0.  1.
         -5    1    1    2    0  501 -0.49423346044E+01  0.26245971390E+02  0.12830912456E+02  0.30000000000E+02  0.47000000000E+01 0. -1.
</event>
<event>
 4    1  0.7509957E-002  0.6000000E+02  0.7546771E-02  0.1259629E+00
         11   -1    0    0    0    0  0.00000000000E+00  0.00000000000E+00  0.30000000000E+02  0.30000000000E+02  0.00000000000E+00 0.  1.
        -11   -1    0    0    0    0 -0.00000000000E+00 -0.00000000000E+00 -0.30000000000E+02  0.30000000000E+02  0.00000000000E+00 0. -1.
          5    1    1    2  501    0  0.96633478552E+01 -0.26407674605E+02 -0.93361892751E+01  0.30000000000E+02  0.47000000000E+01 0. -1.
         -5    1    1    2    0  501 -0.96633478552E+01  0.26407674605E+02  0.93361892751E+01  0.30000000000E+02  0.47000000000E+01 0.  1.
</event>
<event>
 4    1  0.7509957E-002  0.6000000E+02  0.7546771E-02  0.1259629E+00
         11   -1    0    0    0    0  0.00000000000E+00  0.00000000000E+00  0.30000000000E+02  0.30000000000E+02  0.00000000000E+00 0.  1.
        -11   -1    0    0    0    0 -0.00000000000E+00 -0.00000000000E+00 -0.30000000000E+02  0.30000000000E+02  0.00000000000E+00 0. -1.
          5    1    1    2  501    0 -0.10321698493E+02  0.25103733355E+02 -0.11881713339E+02  0.30000000000E+02  0.47000000000E+01 0. -1.
         -5    1    1    2    0  501  0.10321698493E+02 -0.25103733355E+02  0.11881713339E+02  0.30000000000E+02  0.47000000000E+01 0.  1.
</event>
<event>
 4    1  0.7509957E-002  0.6000000E+02  0.7546771E-02  0.1259629E+00
         11   -1    0    0    0    0  0.00000000000E+00  0.00000000000E+00  0.30000000000E+02  0.30000000000E+02  0.00000000000E+00 0.  1.
        -11   -1    0    0    0    0 -0.00000000000E+00 -0.00000000000E+00 -0.30000000000E+02  0.30000000000E+02  0.00000000000E+00 0. -1.
          5    1    1    2  501    0 -0.18890861160E+02 -0.13162193445E+01  0.22788438544E+02  0.30000000000E+02  0.47000000000E+01 0.  1.
         -5    1    1    2    0  501  0.18890861160E+02  0.13162193445E+01 -0.22788438544E+02  0.30000000000E+02  0.47000000000E+01 0. -1.
</event>
<event>
 4    1  0.7509957E-002  0.6000000E+02  0.7546771E-02  0.1259629E+00
         11   -1    0    0    0    0  0.00000000000E+00  0.00000000000E+00  0.30000000000E+02  0.30000000000E+02  0.00000000000E+00 0. -1.
        -11   -1    0    0    0    0 -0.00000000000E+00 -0.00000000000E+00 -0.30000000000E+02  0.30000000000E+02  0.00000000000E+00 0.  1.
          5    1    1    2  501    0  0.83996723206E+01 -0.28357417806E+02  0.17923058595E+01  0.30000000000E+02  0.47000000000E+01 0.  1.
         -5    1    1    2    0  501 -0.83996723206E+01  0.28357417806E+02 -0.17923058595E+01  0.30000000000E+02  0.47000000000E+01 0. -1.
</event>
<event>
 4    1  0.7509957E-002  0.6000000E+02  0.7546771E-02  0.1259629E+00
         11   -1    0    0    0    0  0.00000000000E+00  0.00000000000E+00  0.30000000000E+02  0.30000000000E+02  0.00000000000E+00 0.  1.
        -11   -1    0    0    0    0 -0.00000000000E+00 -0.00000000000E+00 -0.30000000000E+02  0.30000000000E+02  0.00000000000E+00 0. -1.
          5    1    1    2  501    0  0.25191255653E+02 -0.42459525037E+01  0.15009414577E+02  0.30000000000E+02  0.47000000000E+01 0. -1.
         -5    1    1    2    0  501 -0.25191255653E+02  0.42459525037E+01 -0.15009414577E+02  0.30000000000E+02  0.47000000000E+01 0.  1.
</event>
<event>
 4    1  0.7509957E-002  0.6000000E+02  0.7546771E-02  0.1259629E+00
         11   -1    0    0    0    0  0.00000000000E+00  0.00000000000E+00  0.30000000000E+02  0.30000000000E+02  0.00000000000E+00 0.  1.
        -11   -1    0    0    0    0 -0.00000000000E+00 -0.00000000000E+00 -0.30000000000E+02  0.30000000000E+02  0.00000000000E+00 0. -1.
          5    1    1    2  501    0  0.15154499374E+01  0.61155402595E+01 -0.28951918396E+02  0.30000000000E+02  0.47000000000E+01 0. -1.
         -5    1    1    2    0  501 -0.15154499374E+01 -0.61155402595E+01  0.28951918396E+02  0.30000000000E+02  0.47000000000E+01 0.  1.
</event>
<event>
 4    1  0.7509957E-002  0.6000000E+02  0.7546771E-02  0.1259629E+00
         11   -1    0    0    0    0  0.00000000000E+00  0.00000000000E+00  0.30000000000E+02  0.30000000000E+02  0.00000000000E+00 0.  1.
        -11   -1    0    0    0    0 -0.00000000000E+00 -0.00000000000E+00 -0.30000000000E+02  0.30000000000E+02  0.00000000000E+00 0. -1.
          5    1    1    2  501    0 -0.46180108656E+01 -0.43649945000E+01  0.28940124372E+02  0.30000000000E+02  0.47000000000E+01 0.  1.
         -5    1    1    2    0  501  0.46180108656E+01  0.43649945000E+01 -0.28940124372E+02  0.30000000000E+02  0.47000000000E+01 0. -1.
</event>
<event>
 4    1  0.7509957E-002  0.6000000E+02  0.7546771E-02  0.1259629E+00
         11   -1    0    0    0    0  0.00000000000E+00  0.00000000000E+00  0.30000000000E+02  0.30000000000E+02  0.00000000000E+00 0.  1.
        -11   -1    0    0    0    0 -0.00000000000E+00 -0.00000000000E+00 -0.30000000000E+02  0.30000000000E+02  0.00000000000E+00 0. -1.
          5    1    1    2  501    0  0.13067201159E+02 -0.25077921840E+01 -0.26473934960E+02  0.30000000000E+02  0.47000000000E+01 0. -1.
         -5    1    1    2    0  501 -0.13067201159E+02  0.25077921840E+01  0.26473934960E+02  0.30000000000E+02  0.47000000000E+01 0.  1.
</event>
<event>
 4    1  0.7509957E-002  0.6000000E+02  0.7546771E-02  0.1259629E+00
         11   -1    0    0    0    0  0.00000000000E+00  0.00000000000E+00  0.30000000000E+02  0.30000000000E+02  0.00000000000E+00 0. -1.
        -11   -1    0    0    0    0 -0.00000000000E+00 -0.00000000000E+00 -0.30000000000E+02  0.30000000000E+02  0.00000000000E+00 0.  1.
          5    1    1    2  501    0 -0.27778547592E+02 -0.94603572408E+01 -0.40943784085E+01  0.30000000000E+02  0.47000000000E+01 0.  1.
         -5    1    1    2    0  501  0.27778547592E+02  0.94603572408E+01  0.40943784085E+01  0.30000000000E+02  0.47000000000E+01 0. -1.
</event>
<event>
 4    1  0.7509957E-002  0.6000000E+02  0.7546771E-02  0.1259629E+00
         11   -1    0    0    0    0  0.00000000000E+00  0.00000000000E+00  0.30000000000E+02  0.30000000000E+02  0.00000000000E+00 0. -1.
        -11   -1    0    0    0    0 -0.00000000000E+00 -0.00000000000E+00 -0.30000000000E+02  0.30000000000E+02  0.00000000000E+00 0.  1.
          5    1    1    2  501    0  0.20035783316E+02  0.20943757340E+02 -0.61511312289E+01  0.30000000000E+02  0.47000000000E+01 0. -1.
         -5    1    1    2    0  501 -0.20035783316E+02 -0.20943757340E+02  0.61511312289E+01  0.30000000000E+02  0.47000000000E+01 0.  1.
</event>
<event>
 4    1  0.7509957E-002  0.6000000E+02  0.7546771E-02  0.1259629E+00
         11   -1    0    0    0    0  0.00000000000E+00  0.00000000000E+00  0.30000000000E+02  0.30000000000E+02  0.00000000000E+00 0. -1.
        -11   -1    0    0    0    0 -0.00000000000E+00 -0.00000000000E+00 -0.30000000000E+02  0.30000000000E+02  0.00000000000E+00 0.  1.
          5    1    1    2  501    0 -0.26928681859E+02 -0.11519949355E+02 -0.44773720171E+01  0.30000000000E+02  0.47000000000E+01 0.  1.
         -5    1    1    2    0  501  0.26928681859E+02  0.11519949355E+02  0.44773720171E+01  0.30000000000E+02  0.47000000000E+01 0. -1.
</event>
<event>
 4    1  0.7509957E-002  0.6000000E+02  0.7546771E-02  0.1259629E+00
         11   -1    0    0    0    0  0.00000000000E+00  0.00000000000E+00  0.30000000000E+02  0.30000000000E+02  0.00000000000E+00 0.  1.
        -11   -1    0    0    0    0 -0.00000000000E+00 -0.00000000000E+00 -0.30000000000E+02  0.30000000000E+02  0.00000000000E+00 0. -1.
          5    1    1    2  501    0 -0.18838501569E+02 -0.16025987272E+02 -0.16315287021E+02  0.30000000000E+02  0.47000000000E+01 0. -1.
         -5    1    1    2    0  501  0.18838501569E+02  0.16025987272E+02  0.16315287021E+02  0.30000000000E+02  0.47000000000E+01 0.  1.
</event>
<event>
 4    1  0.7509957E-002  0.6000000E+02  0.7546771E-02  0.1259629E+00
         11   -1    0    0    0    0  0.00000000000E+00  0.00000000000E+00  0.30000000000E+02  0.30000000000E+02  0.00000000000E+00 0.  1.
        -11   -1    0    0    0    0 -0.00000000000E+00 -0.00000000000E+00 -0.30000000000E+02  0.30000000000E+02  0.00000000000E+00 0. -1.
          5    1    1    2  501    0  0.11616389056E+02  0.23003441788E+02 -0.14622283379E+02  0.30000000000E+02  0.47000000000E+01 0. -1.
         -5    1    1    2    0  501 -0.11616389056E+02 -0.23003441788E+02  0.14622283379E+02  0.30000000000E+02  0.47000000000E+01 0.  1.
</event>
<event>
 4    1  0.7509957E-002  0.6000000E+02  0.7546771E-02  0.1259629E+00
         11   -1    0    0    0    0  0.00000000000E+00  0.00000000000E+00  0.30000000000E+02  0.30000000000E+02  0.00000000000E+00 0. -1.
        -11   -1    0    0    0    0 -0.00000000000E+00 -0.00000000000E+00 -0.30000000000E+02  0.30000000000E+02  0.00000000000E+00 0.  1.
          5    1    1    2  501    0  0.19438430663E+02 -0.11870509235E+02 -0.18951211673E+02  0.30000000000E+02  0.47000000000E+01 0.  1.
         -5    1    1    2    0  501 -0.19438430663E+02  0.11870509235E+02  0.18951211673E+02  0.30000000000E+02  0.47000000000E+01 0. -1.
</event>
<event>
 4    1  0.7509957E-002  0.6000000E+02  0.7546771E-02  0.1259629E+00
         11   -1    0    0    0    0  0.00000000000E+00  0.00000000000E+00  0.30000000000E+02  0.30000000000E+02  0.00000000000E+00 0.  1.
        -11   -1    0    0    0    0 -0.00000000000E+00 -0.00000000000E+00 -0.30000000000E+02  0.30000000000E+02  0.00000000000E+00 0. -1.
          5    1    1    2  501    0 -0.67797160875E+01  0.20071832314E+02 -0.20713932445E+02  0.30000000000E+02  0.47000000000E+01 0. -1.
         -5    1    1    2    0  501  0.67797160875E+01 -0.20071832314E+02  0.20713932445E+02  0.30000000000E+02  0.47000000000E+01 0.  1.
</event>
<event>
 4    1  0.7509957E-002  0.6000000E+02  0.7546771E-02  0.1259629E+00
         11   -1    0    0    0    0  0.00000000000E+00  0.00000000000E+00  0.30000000000E+02  0.30000000000E+02  0.00000000000E+00 0.  1.
        -11   -1    0    0    0    0 -0.00000000000E+00 -0.00000000000E+00 -0.30000000000E+02  0.30000000000E+02  0.00000000000E+00 0. -1.
          5    1    1    2  501    0 -0.27539938448E+02  0.16651112279E+00 -0.10928589310E+02  0.30000000000E+02  0.47000000000E+01 0. -1.
         -5    1    1    2    0  501  0.27539938448E+02 -0.16651112279E+00  0.10928589310E+02  0.30000000000E+02  0.47000000000E+01 0.  1.
</event>
<event>
 4    1  0.7509957E-002  0.6000000E+02  0.7546771E-02  0.1259629E+00
         11   -1    0    0    0    0  0.00000000000E+00  0.00000000000E+00  0.30000000000E+02  0.30000000000E+02  0.00000000000E+00 0. -1.
        -11   -1    0    0    0    0 -0.00000000000E+00 -0.00000000000E+00 -0.30000000000E+02  0.30000000000E+02  0.00000000000E+00 0.  1.
          5    1    1    2  501    0  0.12848539824E+02 -0.30931549168E+00 -0.26696991372E+02  0.30000000000E+02  0.47000000000E+01 0.  1.
         -5    1    1    2    0  501 -0.12848539824E+02  0.30931549168E+00  0.26696991372E+02  0.30000000000E+02  0.47000000000E+01 0. -1.
</event>
<event>
 4    1  0.7509957E-002  0.6000000E+02  0.7546771E-02  0.1259629E+00
         11   -1    0    0    0    0  0.00000000000E+00  0.00000000000E+00  0.30000000000E+02  0.30000000000E+02  0.00000000000E+00 0. -1.
        -11   -1    0    0    0    0 -0.00000000000E+00 -0.00000000000E+00 -0.30000000000E+02  0.30000000000E+02  0.00000000000E+00 0.  1.
          5    1    1    2  501    0 -0.10528832667E+02  0.44566860735E+01 -0.27334806235E+02  0.30000000000E+02  0.47000000000E+01 0.  1.
         -5    1    1    2    0  501  0.10528832667E+02 -0.44566860735E+01  0.27334806235E+02  0.30000000000E+02  0.47000000000E+01 0. -1.
</event>
<event>
 4    1  0.7509957E-002  0.6000000E+02  0.7546771E-02  0.1259629E+00
         11   -1    0    0    0    0  0.00000000000E+00  0.00000000000E+00  0.30000000000E+02  0.30000000000E+02  0.00000000000E+00 0.  1.
        -11   -1    0    0    0    0 -0.00000000000E+00 -0.00000000000E+00 -0.30000000000E+02  0.30000000000E+02  0.00000000000E+00 0. -1.
          5    1    1    2  501    0 -0.19034864724E+02 -0.34935093207E+01 -0.22436116365E+02  0.30000000000E+02  0.47000000000E+01 0. -1.
         -5    1    1    2    0  501  0.19034864724E+02  0.34935093207E+01  0.22436116365E+02  0.30000000000E+02  0.47000000000E+01 0.  1.
</event>
<event>
 4    1  0.7509957E-002  0.6000000E+02  0.7546771E-02  0.1259629E+00
         11   -1    0    0    0    0  0.00000000000E+00  0.00000000000E+00  0.30000000000E+02  0.30000000000E+02  0.00000000000E+00 0.  1.
        -11   -1    0    0    0    0 -0.00000000000E+00 -0.00000000000E+00 -0.30000000000E+02  0.30000000000E+02  0.00000000000E+00 0. -1.
          5    1    1    2  501    0  0.11422138822E+02  0.11604273479E+02 -0.24754506292E+02  0.30000000000E+02  0.47000000000E+01 0. -1.
         -5    1    1    2    0  501 -0.11422138822E+02 -0.11604273479E+02  0.24754506292E+02  0.30000000000E+02  0.47000000000E+01 0.  1.
</event>
<event>
 4    1  0.7509957E-002  0.6000000E+02  0.7546771E-02  0.1259629E+00
         11   -1    0    0    0    0  0.00000000000E+00  0.00000000000E+00  0.30000000000E+02  0.30000000000E+02  0.00000000000E+00 0.  1.
        -11   -1    0    0    0    0 -0.00000000000E+00 -0.00000000000E+00 -0.30000000000E+02  0.30000000000E+02  0.00000000000E+00 0. -1.
          5    1    1    2  501    0 -0.16653209473E+02  0.23722228465E+01 -0.24391661957E+02  0.30000000000E+02  0.47000000000E+01 0. -1.
         -5    1    1    2    0  501  0.16653209473E+02 -0.23722228465E+01  0.24391661957E+02  0.30000000000E+02  0.47000000000E+01 0.  1.
</event>
<event>
 4    1  0.7509957E-002  0.6000000E+02  0.7546771E-02  0.1259629E+00
         11   -1    0    0    0    0  0.00000000000E+00  0.00000000000E+00  0.30000000000E+02  0.30000000000E+02  0.00000000000E+00 0. -1.
        -11   -1    0    0    0    0 -0.00000000000E+00 -0.00000000000E+00 -0.30000000000E+02  0.30000000000E+02  0.00000000000E+00 0.  1.
          5    1    1    2  501    0 -0.38832928307E+01 -0.10818324140E+02 -0.27309227371E+02  0.30000000000E+02  0.47000000000E+01 0.  1.
         -5    1    1    2    0  501  0.38832928307E+01  0.10818324140E+02  0.27309227371E+02  0.30000000000E+02  0.47000000000E+01 0. -1.
</event>
<event>
 4    1  0.7509957E-002  0.6000000E+02  0.7546771E-02  0.1259629E+00
         11   -1    0    0    0    0  0.00000000000E+00  0.00000000000E+00  0.30000000000E+02  0.30000000000E+02  0.00000000000E+00 0.  1.
        -11   -1    0    0    0    0 -0.00000000000E+00 -0.00000000000E+00 -0.30000000000E+02  0.30000000000E+02  0.00000000000E+00 0. -1.
          5    1    1    2  501    0  0.39983050176E+01 -0.11568434968E+02 -0.26983233116E+02  0.30000000000E+02  0.47000000000E+01 0. -1.
         -5    1    1    2    0  501 -0.39983050176E+01  0.11568434968E+02  0.26983233116E+02  0.30000000000E+02  0.47000000000E+01 0.  1.
</event>
<event>
 4    1  0.7509957E-002  0.6000000E+02  0.7546771E-02  0.1259629E+00
         11   -1    0    0    0    0  0.00000000000E+00  0.00000000000E+00  0.30000000000E+02  0.30000000000E+02  0.00000000000E+00 0.  1.
        -11   -1    0    0    0    0 -0.00000000000E+00 -0.00000000000E+00 -0.30000000000E+02  0.30000000000E+02  0.00000000000E+00 0. -1.
          5    1    1    2  501    0 -0.21776808657E+02  0.10847182327E+02 -0.16912103366E+02  0.30000000000E+02  0.47000000000E+01 0. -1.
         -5    1    1    2    0  501  0.21776808657E+02 -0.10847182327E+02  0.16912103366E+02  0.30000000000E+02  0.47000000000E+01 0.  1.
</event>
<event>
 4    1  0.7509957E-002  0.6000000E+02  0.7546771E-02  0.1259629E+00
         11   -1    0    0    0    0  0.00000000000E+00  0.00000000000E+00  0.30000000000E+02  0.30000000000E+02  0.00000000000E+00 0.  1.
        -11   -1    0    0    0    0 -0.00000000000E+00 -0.00000000000E+00 -0.30000000000E+02  0.30000000000E+02  0.00000000000E+00 0. -1.
          5    1    1    2  501    0  0.10411382705E+02  0.22775886206E+02 -0.15835785982E+02  0.30000000000E+02  0.47000000000E+01 0. -1.
         -5    1    1    2    0  501 -0.10411382705E+02 -0.22775886206E+02  0.15835785982E+02  0.30000000000E+02  0.47000000000E+01 0.  1.
</event>
<event>
 4    1  0.7509957E-002  0.6000000E+02  0.7546771E-02  0.1259629E+00
         11   -1    0    0    0    0  0.00000000000E+00  0.00000000000E+00  0.30000000000E+02  0.30000000000E+02  0.00000000000E+00 0.  1.
        -11   -1    0    0    0    0 -0.00000000000E+00 -0.00000000000E+00 -0.30000000000E+02  0.30000000000E+02  0.00000000000E+00 0. -1.
          5    1    1    2  501    0  0.42288183228E+01  0.15606843760E+02 -0.24828482101E+02  0.30000000000E+02  0.47000000000E+01 0. -1.
         -5    1    1    2    0  501 -0.42288183228E+01 -0.15606843760E+02  0.24828482101E+02  0.30000000000E+02  0.47000000000E+01 0.  1.
</event>
<event>
 4    1  0.7509957E-002  0.6000000E+02  0.7546771E-02  0.1259629E+00
         11   -1    0    0    0    0  0.00000000000E+00  0.00000000000E+00  0.30000000000E+02  0.30000000000E+02  0.00000000000E+00 0.  1.
        -11   -1    0    0    0    0 -0.00000000000E+00 -0.00000000000E+00 -0.30000000000E+02  0.30000000000E+02  0.00000000000E+00 0. -1.
          5    1    1    2  501    0 -0.27512794766E+01  0.27254808291E+02 -0.11292293224E+02  0.30000000000E+02  0.47000000000E+01 0. -1.
         -5    1    1    2    0  501  0.27512794766E+01 -0.27254808291E+02  0.11292293224E+02  0.30000000000E+02  0.47000000000E+01 0.  1.
</event>
<event>
 4    1  0.7509957E-002  0.6000000E+02  0.7546771E-02  0.1259629E+00
         11   -1    0    0    0    0  0.00000000000E+00  0.00000000000E+00  0.30000000000E+02  0.30000000000E+02  0.00000000000E+00 0.  1.
        -11   -1    0    0    0    0 -0.00000000000E+00 -0.00000000000E+00 -0.30000000000E+02  0.30000000000E+02  0.00000000000E+00 0. -1.
          5    1    1    2  501    0 -0.98878459102E+00  0.13642360004E+02 -0.26283422885E+02  0.30000000000E+02  0.47000000000E+01 0. -1.
         -5    1    1    2    0  501  0.98878459102E+00 -0.13642360004E+02  0.26283422885E+02  0.30000000000E+02  0.47000000000E+01 0.  1.
</event>
<event>
 4    1  0.7509957E-002  0.6000000E+02  0.7546771E-02  0.1259629E+00
         11   -1    0    0    0    0  0.00000000000E+00  0.00000000000E+00  0.30000000000E+02  0.30000000000E+02  0.00000000000E+00 0.  1.
        -11   -1    0    0    0    0 -0.00000000000E+00 -0.00000000000E+00 -0.30000000000E+02  0.30000000000E+02  0.00000000000E+00 0. -1.
          5    1    1    2  501    0  0.41397449172E+01  0.28001992447E+02 -0.87556228220E+01  0.30000000000E+02  0.47000000000E+01 0. -1.
         -5    1    1    2    0  501 -0.41397449172E+01 -0.28001992447E+02  0.87556228220E+01  0.30000000000E+02  0.47000000000E+01 0.  1.
</event>
<event>
 4    1  0.7509957E-002  0.6000000E+02  0.7546771E-02  0.1259629E+00
         11   -1    0    0    0    0  0.00000000000E+00  0.00000000000E+00  0.30000000000E+02  0.30000000000E+02  0.00000000000E+00 0. -1.
        -11   -1    0    0    0    0 -0.00000000000E+00 -0.00000000000E+00 -0.30000000000E+02  0.30000000000E+02  0.00000000000E+00 0.  1.
          5    1    1    2  501    0 -0.89513305204E+01  0.48730321483E+01 -0.27821524753E+02  0.30000000000E+02  0.47000000000E+01 0.  1.
         -5    1    1    2    0  501  0.89513305204E+01 -0.48730321483E+01  0.27821524753E+02  0.30000000000E+02  0.47000000000E+01 0. -1.
</event>
<event>
 4    1  0.7509957E-002  0.6000000E+02  0.7546771E-02  0.1259629E+00
         11   -1    0    0    0    0  0.00000000000E+00  0.00000000000E+00  0.30000000000E+02  0.30000000000E+02  0.00000000000E+00 0.  1.
        -11   -1    0    0    0    0 -0.00000000000E+00 -0.00000000000E+00 -0.30000000000E+02  0.30000000000E+02  0.00000000000E+00 0. -1.
          5    1    1    2  501    0  0.22137289593E+02  0.16168729694E+02 -0.11243780039E+02  0.30000000000E+02  0.47000000000E+01 0. -1.
         -5    1    1    2    0  501 -0.22137289593E+02 -0.16168729694E+02  0.11243780039E+02  0.30000000000E+02  0.47000000000E+01 0.  1.
</event>
<event>
 4    1  0.7509957E-002  0.6000000E+02  0.7546771E-02  0.1259629E+00
         11   -1    0    0    0    0  0.00000000000E+00  0.00000000000E+00  0.30000000000E+02  0.30000000000E+02  0.00000000000E+00 0. -1.
        -11   -1    0    0    0    0 -0.00000000000E+00 -0.00000000000E+00 -0.30000000000E+02  0.30000000000E+02  0.00000000000E+00 0.  1.
          5    1    1    2  501    0 -0.28662067313E+02  0.14297433935E+01  0.73723626596E+01  0.30000000000E+02  0.47000000000E+01 0.  1.
         -5    1    1    2    0  501  0.28662067313E+02 -0.14297433935E+01 -0.73723626596E+01  0.30000000000E+02  0.47000000000E+01 0. -1.
</event>
<event>
 4    1  0.7509957E-002  0.6000000E+02  0.7546771E-02  0.1259629E+00
         11   -1    0    0    0    0  0.00000000000E+00  0.00000000000E+00  0.30000000000E+02  0.30000000000E+02  0.00000000000E+00 0. -1.
        -11   -1    0    0    0    0 -0.00000000000E+00 -0.00000000000E+00 -0.30000000000E+02  0.30000000000E+02  0.00000000000E+00 0.  1.
          5    1    1    2  501    0  0.10258537482E+02  0.32489821655E+01 -0.27606458006E+02  0.30000000000E+02  0.47000000000E+01 0.  1.
         -5    1    1    2    0  501 -0.10258537482E+02 -0.32489821655E+01  0.27606458006E+02  0.30000000000E+02  0.47000000000E+01 0. -1.
</event>
<event>
 4    1  0.7509957E-002  0.6000000E+02  0.7546771E-02  0.1259629E+00
         11   -1    0    0    0    0  0.00000000000E+00  0.00000000000E+00  0.30000000000E+02  0.30000000000E+02  0.00000000000E+00 0.  1.
        -11   -1    0    0    0    0 -0.00000000000E+00 -0.00000000000E+00 -0.30000000000E+02  0.30000000000E+02  0.00000000000E+00 0. -1.
          5    1    1    2  501    0 -0.87991838692E+01 -0.50747196375E+01 -0.27834000500E+02  0.30000000000E+02  0.47000000000E+01 0. -1.
         -5    1    1    2    0  501  0.87991838692E+01  0.50747196375E+01  0.27834000500E+02  0.30000000000E+02  0.47000000000E+01 0.  1.
</event>
<event>
 4    1  0.7509957E-002  0.6000000E+02  0.7546771E-02  0.1259629E+00
         11   -1    0    0    0    0  0.00000000000E+00  0.00000000000E+00  0.30000000000E+02  0.30000000000E+02  0.00000000000E+00 0. -1.
        -11   -1    0    0    0    0 -0.00000000000E+00 -0.00000000000E+00 -0.30000000000E+02  0.30000000000E+02  0.00000000000E+00 0.  1.
          5    1    1    2  501    0 -0.28442733423E+02 -0.34015084453E+01 -0.75730215732E+01  0.30000000000E+02  0.47000000000E+01 0.  1.
         -5    1    1    2    0  501  0.28442733423E+02  0.34015084453E+01  0.75730215732E+01  0.30000000000E+02  0.47000000000E+01 0. -1.
</event>
<event>
 4    1  0.7509957E-002  0.6000000E+02  0.7546771E-02  0.1259629E+00
         11   -1    0    0    0    0  0.00000000000E+00  0.00000000000E+00  0.30000000000E+02  0.30000000000E+02  0.00000000000E+00 0.  1.
        -11   -1    0    0    0    0 -0.00000000000E+00 -0.00000000000E+00 -0.30000000000E+02  0.30000000000E+02  0.00000000000E+00 0. -1.
          5    1    1    2  501    0  0.66873406475E+01 -0.58255623308E+01 -0.28271050539E+02  0.30000000000E+02  0.47000000000E+01 0. -1.
         -5    1    1    2    0  501 -0.66873406475E+01  0.58255623308E+01  0.28271050539E+02  0.30000000000E+02  0.47000000000E+01 0.  1.
</event>
<event>
 4    1  0.7509957E-002  0.6000000E+02  0.7546771E-02  0.1259629E+00
         11   -1    0    0    0    0  0.00000000000E+00  0.00000000000E+00  0.30000000000E+02  0.30000000000E+02  0.00000000000E+00 0.  1.
        -11   -1    0    0    0    0 -0.00000000000E+00 -0.00000000000E+00 -0.30000000000E+02  0.30000000000E+02  0.00000000000E+00 0. -1.
          5    1    1    2  501    0 -0.64698047365E+01 -0.55026514247E+01 -0.28386131367E+02  0.30000000000E+02  0.47000000000E+01 0. -1.
         -5    1    1    2    0  501  0.64698047365E+01  0.55026514247E+01  0.28386131367E+02  0.30000000000E+02  0.47000000000E+01 0.  1.
</event>
<event>
 4    1  0.7509957E-002  0.6000000E+02  0.7546771E-02  0.1259629E+00
         11   -1    0    0    0    0  0.00000000000E+00  0.00000000000E+00  0.30000000000E+02  0.30000000000E+02  0.00000000000E+00 0. -1.
        -11   -1    0    0    0    0 -0.00000000000E+00 -0.00000000000E+00 -0.30000000000E+02  0.30000000000E+02  0.00000000000E+00 0.  1.
          5    1    1    2  501    0  0.14653556770E+02 -0.10122655043E+02 -0.23679424167E+02  0.30000000000E+02  0.47000000000E+01 0.  1.
         -5    1    1    2    0  501 -0.14653556770E+02  0.10122655043E+02  0.23679424167E+02  0.30000000000E+02  0.47000000000E+01 0. -1.
</event>
<event>
 4    1  0.7509957E-002  0.6000000E+02  0.7546771E-02  0.1259629E+00
         11   -1    0    0    0    0  0.00000000000E+00  0.00000000000E+00  0.30000000000E+02  0.30000000000E+02  0.00000000000E+00 0.  1.
        -11   -1    0    0    0    0 -0.00000000000E+00 -0.00000000000E+00 -0.30000000000E+02  0.30000000000E+02  0.00000000000E+00 0. -1.
          5    1    1    2  501    0 -0.21319715197E+02 -0.50438240466E+01 -0.19948423069E+02  0.30000000000E+02  0.47000000000E+01 0. -1.
         -5    1    1    2    0  501  0.21319715197E+02  0.50438240466E+01  0.19948423069E+02  0.30000000000E+02  0.47000000000E+01 0.  1.
</event>
<event>
 4    1  0.7509957E-002  0.6000000E+02  0.7546771E-02  0.1259629E+00
         11   -1    0    0    0    0  0.00000000000E+00  0.00000000000E+00  0.30000000000E+02  0.30000000000E+02  0.00000000000E+00 0.  1.
        -11   -1    0    0    0    0 -0.00000000000E+00 -0.00000000000E+00 -0.30000000000E+02  0.30000000000E+02  0.00000000000E+00 0. -1.
          5    1    1    2  501    0  0.17474172317E+02 -0.22421098275E+02  0.83580891329E+01  0.30000000000E+02  0.47000000000E+01 0. -1.
         -5    1    1    2    0  501 -0.17474172317E+02  0.22421098275E+02 -0.83580891329E+01  0.30000000000E+02  0.47000000000E+01 0.  1.
</event>
<event>
 4    1  0.7509957E-002  0.6000000E+02  0.7546771E-02  0.1259629E+00
         11   -1    0    0    0    0  0.00000000000E+00  0.00000000000E+00  0.30000000000E+02  0.30000000000E+02  0.00000000000E+00 0.  1.
        -11   -1    0    0    0    0 -0.00000000000E+00 -0.00000000000E+00 -0.30000000000E+02  0.30000000000E+02  0.00000000000E+00 0. -1.
          5    1    1    2  501    0 -0.23844218226E+01  0.11417479914E+02 -0.27237211402E+02  0.30000000000E+02  0.47000000000E+01 0. -1.
         -5    1    1    2    0  501  0.23844218226E+01 -0.11417479914E+02  0.27237211402E+02  0.30000000000E+02  0.47000000000E+01 0.  1.
</event>
<event>
 4    1  0.7509957E-002  0.6000000E+02  0.7546771E-02  0.1259629E+00
         11   -1    0    0    0    0  0.00000000000E+00  0.00000000000E+00  0.30000000000E+02  0.30000000000E+02  0.00000000000E+00 0.  1.
        -11   -1    0    0    0    0 -0.00000000000E+00 -0.00000000000E+00 -0.30000000000E+02  0.30000000000E+02  0.00000000000E+00 0. -1.
          5    1    1    2  501    0 -0.54319750612E+01  0.28525903506E+02 -0.58886735416E+01  0.30000000000E+02  0.47000000000E+01 0. -1.
         -5    1    1    2    0  501  0.54319750612E+01 -0.28525903506E+02  0.58886735416E+01  0.30000000000E+02  0.47000000000E+01 0.  1.
</event>
<event>
 4    1  0.7509957E-002  0.6000000E+02  0.7546771E-02  0.1259629E+00
         11   -1    0    0    0    0  0.00000000000E+00  0.00000000000E+00  0.30000000000E+02  0.30000000000E+02  0.00000000000E+00 0.  1.
        -11   -1    0    0    0    0 -0.00000000000E+00 -0.00000000000E+00 -0.30000000000E+02  0.30000000000E+02  0.00000000000E+00 0. -1.
          5    1    1    2  501    0 -0.13761818206E+02 -0.18231127465E+02 -0.18871893148E+02  0.30000000000E+02  0.47000000000E+01 0. -1.
         -5    1    1    2    0  501  0.13761818206E+02  0.18231127465E+02  0.18871893148E+02  0.30000000000E+02  0.47000000000E+01 0.  1.
</event>
<event>
 4    1  0.7509957E-002  0.6000000E+02  0.7546771E-02  0.1259629E+00
         11   -1    0    0    0    0  0.00000000000E+00  0.00000000000E+00  0.30000000000E+02  0.30000000000E+02  0.00000000000E+00 0.  1.
        -11   -1    0    0    0    0 -0.00000000000E+00 -0.00000000000E+00 -0.30000000000E+02  0.30000000000E+02  0.00000000000E+00 0. -1.
          5    1    1    2  501    0 -0.12814751926E+02 -0.86228154089E+01 -0.25285157454E+02  0.30000000000E+02  0.47000000000E+01 0. -1.
         -5    1    1    2    0  501  0.12814751926E+02  0.86228154089E+01  0.25285157454E+02  0.30000000000E+02  0.47000000000E+01 0.  1.
</event>
<event>
 4    1  0.7509957E-002  0.6000000E+02  0.7546771E-02  0.1259629E+00
         11   -1    0    0    0    0  0.00000000000E+00  0.00000000000E+00  0.30000000000E+02  0.30000000000E+02  0.00000000000E+00 0. -1.
        -11   -1    0    0    0    0 -0.00000000000E+00 -0.00000000000E+00 -0.30000000000E+02  0.30000000000E+02  0.00000000000E+00 0.  1.
          5    1    1    2  501    0  0.13568695297E+02  0.25860094629E+02  0.50055982393E+01  0.30000000000E+02  0.47000000000E+01 0.  1.
         -5    1    1    2    0  501 -0.13568695297E+02 -0.25860094629E+02 -0.50055982393E+01  0.30000000000E+02  0.47000000000E+01 0. -1.
</event>
<event>
 4    1  0.7509957E-002  0.6000000E+02  0.7546771E-02  0.1259629E+00
         11   -1    0    0    0    0  0.00000000000E+00  0.00000000000E+00  0.30000000000E+02  0.30000000000E+02  0.00000000000E+00 0.  1.
        -11   -1    0    0    0    0 -0.00000000000E+00 -0.00000000000E+00 -0.30000000000E+02  0.30000000000E+02  0.00000000000E+00 0. -1.
          5    1    1    2  501    0 -0.23291813521E+02 -0.71651980015E+01 -0.16854119986E+02  0.30000000000E+02  0.47000000000E+01 0. -1.
         -5    1    1    2    0  501  0.23291813521E+02  0.71651980015E+01  0.16854119986E+02  0.30000000000E+02  0.47000000000E+01 0.  1.
</event>
<event>
 4    1  0.7509957E-002  0.6000000E+02  0.7546771E-02  0.1259629E+00
         11   -1    0    0    0    0  0.00000000000E+00  0.00000000000E+00  0.30000000000E+02  0.30000000000E+02  0.00000000000E+00 0.  1.
        -11   -1    0    0    0    0 -0.00000000000E+00 -0.00000000000E+00 -0.30000000000E+02  0.30000000000E+02  0.00000000000E+00 0. -1.
          5    1    1    2  501    0 -0.34291263897E+01  0.27971885941E+02 -0.91501196228E+01  0.30000000000E+02  0.47000000000E+01 0. -1.
         -5    1    1    2    0  501  0.34291263897E+01 -0.27971885941E+02  0.91501196228E+01  0.30000000000E+02  0.47000000000E+01 0.  1.
</event>
<event>
 4    1  0.7509957E-002  0.6000000E+02  0.7546771E-02  0.1259629E+00
         11   -1    0    0    0    0  0.00000000000E+00  0.00000000000E+00  0.30000000000E+02  0.30000000000E+02  0.00000000000E+00 0.  1.
        -11   -1    0    0    0    0 -0.00000000000E+00 -0.00000000000E+00 -0.30000000000E+02  0.30000000000E+02  0.00000000000E+00 0. -1.
          5    1    1    2  501    0 -0.13487183957E+02 -0.63821857245E+01 -0.25598311942E+02  0.30000000000E+02  0.47000000000E+01 0. -1.
         -5    1    1    2    0  501  0.13487183957E+02  0.63821857245E+01  0.25598311942E+02  0.30000000000E+02  0.47000000000E+01 0.  1.
</event>
<event>
 4    1  0.7509957E-002  0.6000000E+02  0.7546771E-02  0.1259629E+00
         11   -1    0    0    0    0  0.00000000000E+00  0.00000000000E+00  0.30000000000E+02  0.30000000000E+02  0.00000000000E+00 0.  1.
        -11   -1    0    0    0    0 -0.00000000000E+00 -0.00000000000E+00 -0.30000000000E+02  0.30000000000E+02  0.00000000000E+00 0. -1.
          5    1    1    2  501    0 -0.28853873730E+02 -0.27589539809E+01 -0.61442773118E+01  0.30000000000E+02  0.47000000000E+01 0. -1.
         -5    1    1    2    0  501  0.28853873730E+02  0.27589539809E+01  0.61442773118E+01  0.30000000000E+02  0.47000000000E+01 0.  1.
</event>
<event>
 4    1  0.7509957E-002  0.6000000E+02  0.7546771E-02  0.1259629E+00
         11   -1    0    0    0    0  0.00000000000E+00  0.00000000000E+00  0.30000000000E+02  0.30000000000E+02  0.00000000000E+00 0.  1.
        -11   -1    0    0    0    0 -0.00000000000E+00 -0.00000000000E+00 -0.30000000000E+02  0.30000000000E+02  0.00000000000E+00 0. -1.
          5    1    1    2  501    0  0.12950979710E+02  0.21781001068E+02 -0.15354807620E+02  0.30000000000E+02  0.47000000000E+01 0. -1.
         -5    1    1    2    0  501 -0.12950979710E+02 -0.21781001068E+02  0.15354807620E+02  0.30000000000E+02  0.47000000000E+01 0.  1.
</event>
<event>
 4    1  0.7509957E-002  0.6000000E+02  0.7546771E-02  0.1259629E+00
         11   -1    0    0    0    0  0.00000000000E+00  0.00000000000E+00  0.30000000000E+02  0.30000000000E+02  0.00000000000E+00 0.  1.
        -11   -1    0    0    0    0 -0.00000000000E+00 -0.00000000000E+00 -0.30000000000E+02  0.30000000000E+02  0.00000000000E+00 0. -1.
          5    1    1    2  501    0  0.78912496894E+01 -0.55770615234E+01 -0.28009544143E+02  0.30000000000E+02  0.47000000000E+01 0. -1.
         -5    1    1    2    0  501 -0.78912496894E+01  0.55770615234E+01  0.28009544143E+02  0.30000000000E+02  0.47000000000E+01 0.  1.
</event>
<event>
 4    1  0.7509957E-002  0.6000000E+02  0.7546771E-02  0.1259629E+00
         11   -1    0    0    0    0  0.00000000000E+00  0.00000000000E+00  0.30000000000E+02  0.30000000000E+02  0.00000000000E+00 0.  1.
        -11   -1    0    0    0    0 -0.00000000000E+00 -0.00000000000E+00 -0.30000000000E+02  0.30000000000E+02  0.00000000000E+00 0. -1.
          5    1    1    2  501    0  0.22495247197E+02  0.19016418218E+02  0.32015139755E+01  0.30000000000E+02  0.47000000000E+01 0.  1.
         -5    1    1    2    0  501 -0.22495247197E+02 -0.19016418218E+02 -0.32015139755E+01  0.30000000000E+02  0.47000000000E+01 0. -1.
</event>
<event>
 4    1  0.7509957E-002  0.6000000E+02  0.7546771E-02  0.1259629E+00
         11   -1    0    0    0    0  0.00000000000E+00  0.00000000000E+00  0.30000000000E+02  0.30000000000E+02  0.00000000000E+00 0. -1.
        -11   -1    0    0    0    0 -0.00000000000E+00 -0.00000000000E+00 -0.30000000000E+02  0.30000000000E+02  0.00000000000E+00 0.  1.
          5    1    1    2  501    0 -0.28750801619E+02  0.24643169116E+01 -0.67252173518E+01  0.30000000000E+02  0.47000000000E+01 0.  1.
         -5    1    1    2    0  501  0.28750801619E+02 -0.24643169116E+01  0.67252173518E+01  0.30000000000E+02  0.47000000000E+01 0. -1.
</event>
<event>
 4    1  0.7509957E-002  0.6000000E+02  0.7546771E-02  0.1259629E+00
         11   -1    0    0    0    0  0.00000000000E+00  0.00000000000E+00  0.30000000000E+02  0.30000000000E+02  0.00000000000E+00 0.  1.
        -11   -1    0    0    0    0 -0.00000000000E+00 -0.00000000000E+00 -0.30000000000E+02  0.30000000000E+02  0.00000000000E+00 0. -1.
          5    1    1    2  501    0 -0.12534230413E+02  0.18353590689E+02 -0.19594610911E+02  0.30000000000E+02  0.47000000000E+01 0. -1.
         -5    1    1    2    0  501  0.12534230413E+02 -0.18353590689E+02  0.19594610911E+02  0.30000000000E+02  0.47000000000E+01 0.  1.
</event>
<event>
 4    1  0.7509957E-002  0.6000000E+02  0.7546771E-02  0.1259629E+00
         11   -1    0    0    0    0  0.00000000000E+00  0.00000000000E+00  0.30000000000E+02  0.30000000000E+02  0.00000000000E+00 0.  1.
        -11   -1    0    0    0    0 -0.00000000000E+00 -0.00000000000E+00 -0.30000000000E+02  0.30000000000E+02  0.00000000000E+00 0. -1.
          5    1    1    2  501    0 -0.92053210946E+01 -0.26894585665E+02  0.83578301875E+01  0.30000000000E+02  0.47000000000E+01 0.  1.
         -5    1    1    2    0  501  0.92053210946E+01  0.26894585665E+02 -0.83578301875E+01  0.30000000000E+02  0.47000000000E+01 0. -1.
</event>
<event>
 4    1  0.7509957E-002  0.6000000E+02  0.7546771E-02  0.1259629E+00
         11   -1    0    0    0    0  0.00000000000E+00  0.00000000000E+00  0.30000000000E+02  0.30000000000E+02  0.00000000000E+00 0.  1.
        -11   -1    0    0    0    0 -0.00000000000E+00 -0.00000000000E+00 -0.30000000000E+02  0.30000000000E+02  0.00000000000E+00 0. -1.
          5    1    1    2  501    0  0.17745844574E+02  0.48547115718E+01 -0.23225562984E+02  0.30000000000E+02  0.47000000000E+01 0. -1.
         -5    1    1    2    0  501 -0.17745844574E+02 -0.48547115718E+01  0.23225562984E+02  0.30000000000E+02  0.47000000000E+01 0.  1.
</event>
<event>
 4    1  0.7509957E-002  0.6000000E+02  0.7546771E-02  0.1259629E+00
         11   -1    0    0    0    0  0.00000000000E+00  0.00000000000E+00  0.30000000000E+02  0.30000000000E+02  0.00000000000E+00 0. -1.
        -11   -1    0    0    0    0 -0.00000000000E+00 -0.00000000000E+00 -0.30000000000E+02  0.30000000000E+02  0.00000000000E+00 0.  1.
          5    1    1    2  501    0  0.27279413319E+02 -0.61725393340E+01 -0.97797426933E+01  0.30000000000E+02  0.47000000000E+01 0.  1.
         -5    1    1    2    0  501 -0.27279413319E+02  0.61725393340E+01  0.97797426933E+01  0.30000000000E+02  0.47000000000E+01 0. -1.
</event>
<event>
 4    1  0.7509957E-002  0.6000000E+02  0.7546771E-02  0.1259629E+00
         11   -1    0    0    0    0  0.00000000000E+00  0.00000000000E+00  0.30000000000E+02  0.30000000000E+02  0.00000000000E+00 0. -1.
        -11   -1    0    0    0    0 -0.00000000000E+00 -0.00000000000E+00 -0.30000000000E+02  0.30000000000E+02  0.00000000000E+00 0.  1.
          5    1    1    2  501    0 -0.19475211491E+02  0.16396658420E+02 -0.15158355123E+02  0.30000000000E+02  0.47000000000E+01 0.  1.
         -5    1    1    2    0  501  0.19475211491E+02 -0.16396658420E+02  0.15158355123E+02  0.30000000000E+02  0.47000000000E+01 0. -1.
</event>
<event>
 4    1  0.7509957E-002  0.6000000E+02  0.7546771E-02  0.1259629E+00
         11   -1    0    0    0    0  0.00000000000E+00  0.00000000000E+00  0.30000000000E+02  0.30000000000E+02  0.00000000000E+00 0.  1.
        -11   -1    0    0    0    0 -0.00000000000E+00 -0.00000000000E+00 -0.30000000000E+02  0.30000000000E+02  0.00000000000E+00 0. -1.
          5    1    1    2  501    0 -0.15622185500E+02  0.19340068274E+02  0.16118904410E+02  0.30000000000E+02  0.47000000000E+01 0.  1.
         -5    1    1    2    0  501  0.15622185500E+02 -0.19340068274E+02 -0.16118904410E+02  0.30000000000E+02  0.47000000000E+01 0. -1.
</event>
<event>
 4    1  0.7509957E-002  0.6000000E+02  0.7546771E-02  0.1259629E+00
         11   -1    0    0    0    0  0.00000000000E+00  0.00000000000E+00  0.30000000000E+02  0.30000000000E+02  0.00000000000E+00 0.  1.
        -11   -1    0    0    0    0 -0.00000000000E+00 -0.00000000000E+00 -0.30000000000E+02  0.30000000000E+02  0.00000000000E+00 0. -1.
          5    1    1    2  501    0 -0.77767262315E+01  0.25263966190E+02 -0.13385235952E+02  0.30000000000E+02  0.47000000000E+01 0. -1.
         -5    1    1    2    0  501  0.77767262315E+01 -0.25263966190E+02  0.13385235952E+02  0.30000000000E+02  0.47000000000E+01 0.  1.
</event>
<event>
 4    1  0.7509957E-002  0.6000000E+02  0.7546771E-02  0.1259629E+00
         11   -1    0    0    0    0  0.00000000000E+00  0.00000000000E+00  0.30000000000E+02  0.30000000000E+02  0.00000000000E+00 0.  1.
        -11   -1    0    0    0    0 -0.00000000000E+00 -0.00000000000E+00 -0.30000000000E+02  0.30000000000E+02  0.00000000000E+00 0. -1.
          5    1    1    2  501    0 -0.24558053581E+02 -0.16562202868E+02  0.71094338779E+00  0.30000000000E+02  0.47000000000E+01 0. -1.
         -5    1    1    2    0  501  0.24558053581E+02  0.16562202868E+02 -0.71094338779E+00  0.30000000000E+02  0.47000000000E+01 0.  1.
</event>
<event>
 4    1  0.7509957E-002  0.6000000E+02  0.7546771E-02  0.1259629E+00
         11   -1    0    0    0    0  0.00000000000E+00  0.00000000000E+00  0.30000000000E+02  0.30000000000E+02  0.00000000000E+00 0.  1.
        -11   -1    0    0    0    0 -0.00000000000E+00 -0.00000000000E+00 -0.30000000000E+02  0.30000000000E+02  0.00000000000E+00 0. -1.
          5    1    1    2  501    0 -0.27246700616E+02 -0.50349010960E+01  0.10496526879E+02  0.30000000000E+02  0.47000000000E+01 0. -1.
         -5    1    1    2    0  501  0.27246700616E+02  0.50349010960E+01 -0.10496526879E+02  0.30000000000E+02  0.47000000000E+01 0.  1.
</event>
<event>
 4    1  0.7509957E-002  0.6000000E+02  0.7546771E-02  0.1259629E+00
         11   -1    0    0    0    0  0.00000000000E+00  0.00000000000E+00  0.30000000000E+02  0.30000000000E+02  0.00000000000E+00 0.  1.
        -11   -1    0    0    0    0 -0.00000000000E+00 -0.00000000000E+00 -0.30000000000E+02  0.30000000000E+02  0.00000000000E+00 0. -1.
          5    1    1    2  501    0 -0.13356677139E+02  0.26398453778E+02  0.16219783958E+01  0.30000000000E+02  0.47000000000E+01 0. -1.
         -5    1    1    2    0  501  0.13356677139E+02 -0.26398453778E+02 -0.16219783958E+01  0.30000000000E+02  0.47000000000E+01 0.  1.
</event>
<event>
 4    1  0.7509957E-002  0.6000000E+02  0.7546771E-02  0.1259629E+00
         11   -1    0    0    0    0  0.00000000000E+00  0.00000000000E+00  0.30000000000E+02  0.30000000000E+02  0.00000000000E+00 0.  1.
        -11   -1    0    0    0    0 -0.00000000000E+00 -0.00000000000E+00 -0.30000000000E+02  0.30000000000E+02  0.00000000000E+00 0. -1.
          5    1    1    2  501    0  0.57127765764E+01 -0.26215490561E+02 -0.12570689656E+02  0.30000000000E+02  0.47000000000E+01 0. -1.
         -5    1    1    2    0  501 -0.57127765764E+01  0.26215490561E+02  0.12570689656E+02  0.30000000000E+02  0.47000000000E+01 0.  1.
</event>
<event>
 4    1  0.7509957E-002  0.6000000E+02  0.7546771E-02  0.1259629E+00
         11   -1    0    0    0    0  0.00000000000E+00  0.00000000000E+00  0.30000000000E+02  0.30000000000E+02  0.00000000000E+00 0.  1.
        -11   -1    0    0    0    0 -0.00000000000E+00 -0.00000000000E+00 -0.30000000000E+02  0.30000000000E+02  0.00000000000E+00 0. -1.
          5    1    1    2  501    0 -0.20216026699E+02  0.21630590923E+02 -0.11574976686E+01  0.30000000000E+02  0.47000000000E+01 0. -1.
         -5    1    1    2    0  501  0.20216026699E+02 -0.21630590923E+02  0.11574976686E+01  0.30000000000E+02  0.47000000000E+01 0.  1.
</event>
<event>
 4    1  0.7509957E-002  0.6000000E+02  0.7546771E-02  0.1259629E+00
         11   -1    0    0    0    0  0.00000000000E+00  0.00000000000E+00  0.30000000000E+02  0.30000000000E+02  0.00000000000E+00 0.  1.
        -11   -1    0    0    0    0 -0.00000000000E+00 -0.00000000000E+00 -0.30000000000E+02  0.30000000000E+02  0.00000000000E+00 0. -1.
          5    1    1    2  501    0  0.11294839443E+02 -0.17685214972E+02 -0.20918168499E+02  0.30000000000E+02  0.47000000000E+01 0. -1.
         -5    1    1    2    0  501 -0.11294839443E+02  0.17685214972E+02  0.20918168499E+02  0.30000000000E+02  0.47000000000E+01 0.  1.
</event>
<event>
 4    1  0.7509957E-002  0.6000000E+02  0.7546771E-02  0.1259629E+00
         11   -1    0    0    0    0  0.00000000000E+00  0.00000000000E+00  0.30000000000E+02  0.30000000000E+02  0.00000000000E+00 0.  1.
        -11   -1    0    0    0    0 -0.00000000000E+00 -0.00000000000E+00 -0.30000000000E+02  0.30000000000E+02  0.00000000000E+00 0. -1.
          5    1    1    2  501    0 -0.19308730992E+02 -0.22466979713E+02  0.56367547345E+00  0.30000000000E+02  0.47000000000E+01 0. -1.
         -5    1    1    2    0  501  0.19308730992E+02  0.22466979713E+02 -0.56367547345E+00  0.30000000000E+02  0.47000000000E+01 0.  1.
</event>
<event>
 4    1  0.7509957E-002  0.6000000E+02  0.7546771E-02  0.1259629E+00
         11   -1    0    0    0    0  0.00000000000E+00  0.00000000000E+00  0.30000000000E+02  0.30000000000E+02  0.00000000000E+00 0. -1.
        -11   -1    0    0    0    0 -0.00000000000E+00 -0.00000000000E+00 -0.30000000000E+02  0.30000000000E+02  0.00000000000E+00 0.  1.
          5    1    1    2  501    0 -0.12952578728E+02  0.26597037290E+01 -0.26515404586E+02  0.30000000000E+02  0.47000000000E+01 0.  1.
         -5    1    1    2    0  501  0.12952578728E+02 -0.26597037290E+01  0.26515404586E+02  0.30000000000E+02  0.47000000000E+01 0. -1.
</event>
<event>
 4    1  0.7509957E-002  0.6000000E+02  0.7546771E-02  0.1259629E+00
         11   -1    0    0    0    0  0.00000000000E+00  0.00000000000E+00  0.30000000000E+02  0.30000000000E+02  0.00000000000E+00 0.  1.
        -11   -1    0    0    0    0 -0.00000000000E+00 -0.00000000000E+00 -0.30000000000E+02  0.30000000000E+02  0.00000000000E+00 0. -1.
          5    1    1    2  501    0 -0.22477884609E+02  0.15856303930E+01 -0.19239035312E+02  0.30000000000E+02  0.47000000000E+01 0. -1.
         -5    1    1    2    0  501  0.22477884609E+02 -0.15856303930E+01  0.19239035312E+02  0.30000000000E+02  0.47000000000E+01 0.  1.
</event>
<event>
 4    1  0.7509957E-002  0.6000000E+02  0.7546771E-02  0.1259629E+00
         11   -1    0    0    0    0  0.00000000000E+00  0.00000000000E+00  0.30000000000E+02  0.30000000000E+02  0.00000000000E+00 0.  1.
        -11   -1    0    0    0    0 -0.00000000000E+00 -0.00000000000E+00 -0.30000000000E+02  0.30000000000E+02  0.00000000000E+00 0. -1.
          5    1    1    2  501    0 -0.23813866398E+02 -0.83332651238E+01 -0.15535973081E+02  0.30000000000E+02  0.47000000000E+01 0. -1.
         -5    1    1    2    0  501  0.23813866398E+02  0.83332651238E+01  0.15535973081E+02  0.30000000000E+02  0.47000000000E+01 0.  1.
</event>
<event>
 4    1  0.7509957E-002  0.6000000E+02  0.7546771E-02  0.1259629E+00
         11   -1    0    0    0    0  0.00000000000E+00  0.00000000000E+00  0.30000000000E+02  0.30000000000E+02  0.00000000000E+00 0.  1.
        -11   -1    0    0    0    0 -0.00000000000E+00 -0.00000000000E+00 -0.30000000000E+02  0.30000000000E+02  0.00000000000E+00 0. -1.
          5    1    1    2  501    0  0.26400964861E+02 -0.10595046105E+02 -0.82851706330E+01  0.30000000000E+02  0.47000000000E+01 0. -1.
         -5    1    1    2    0  501 -0.26400964861E+02  0.10595046105E+02  0.82851706330E+01  0.30000000000E+02  0.47000000000E+01 0.  1.
</event>
<event>
 4    1  0.7509957E-002  0.6000000E+02  0.7546771E-02  0.1259629E+00
         11   -1    0    0    0    0  0.00000000000E+00  0.00000000000E+00  0.30000000000E+02  0.30000000000E+02  0.00000000000E+00 0.  1.
        -11   -1    0    0    0    0 -0.00000000000E+00 -0.00000000000E+00 -0.30000000000E+02  0.30000000000E+02  0.00000000000E+00 0. -1.
          5    1    1    2  501    0  0.29511548444E+02  0.23693756828E+01  0.11681469526E+01  0.30000000000E+02  0.47000000000E+01 0. -1.
         -5    1    1    2    0  501 -0.29511548444E+02 -0.23693756828E+01 -0.11681469526E+01  0.30000000000E+02  0.47000000000E+01 0.  1.
</event>
<event>
 4    1  0.7509957E-002  0.6000000E+02  0.7546771E-02  0.1259629E+00
         11   -1    0    0    0    0  0.00000000000E+00  0.00000000000E+00  0.30000000000E+02  0.30000000000E+02  0.00000000000E+00 0.  1.
        -11   -1    0    0    0    0 -0.00000000000E+00 -0.00000000000E+00 -0.30000000000E+02  0.30000000000E+02  0.00000000000E+00 0. -1.
          5    1    1    2  501    0  0.20794374635E+02 -0.88120848781E+01 -0.19179445863E+02  0.30000000000E+02  0.47000000000E+01 0. -1.
         -5    1    1    2    0  501 -0.20794374635E+02  0.88120848781E+01  0.19179445863E+02  0.30000000000E+02  0.47000000000E+01 0.  1.
</event>
<event>
 4    1  0.7509957E-002  0.6000000E+02  0.7546771E-02  0.1259629E+00
         11   -1    0    0    0    0  0.00000000000E+00  0.00000000000E+00  0.30000000000E+02  0.30000000000E+02  0.00000000000E+00 0.  1.
        -11   -1    0    0    0    0 -0.00000000000E+00 -0.00000000000E+00 -0.30000000000E+02  0.30000000000E+02  0.00000000000E+00 0. -1.
          5    1    1    2  501    0  0.12385389411E+02  0.24529201246E+02 -0.11082888403E+02  0.30000000000E+02  0.47000000000E+01 0. -1.
         -5    1    1    2    0  501 -0.12385389411E+02 -0.24529201246E+02  0.11082888403E+02  0.30000000000E+02  0.47000000000E+01 0.  1.
</event>
<event>
 4    1  0.7509957E-002  0.6000000E+02  0.7546771E-02  0.1259629E+00
         11   -1    0    0    0    0  0.00000000000E+00  0.00000000000E+00  0.30000000000E+02  0.30000000000E+02  0.00000000000E+00 0.  1.
        -11   -1    0    0    0    0 -0.00000000000E+00 -0.00000000000E+00 -0.30000000000E+02  0.30000000000E+02  0.00000000000E+00 0. -1.
          5    1    1    2  501    0 -0.15868485198E+02  0.21684913861E+02 -0.12484618070E+02  0.30000000000E+02  0.47000000000E+01 0. -1.
         -5    1    1    2    0  501  0.15868485198E+02 -0.21684913861E+02  0.12484618070E+02  0.30000000000E+02  0.47000000000E+01 0.  1.
</event>
<event>
 4    1  0.7509957E-002  0.6000000E+02  0.7546771E-02  0.1259629E+00
         11   -1    0    0    0    0  0.00000000000E+00  0.00000000000E+00  0.30000000000E+02  0.30000000000E+02  0.00000000000E+00 0.  1.
        -11   -1    0    0    0    0 -0.00000000000E+00 -0.00000000000E+00 -0.30000000000E+02  0.30000000000E+02  0.00000000000E+00 0. -1.
          5    1    1    2  501    0  0.48400939184E+01 -0.28580523811E+02 -0.61349123499E+01  0.30000000000E+02  0.47000000000E+01 0. -1.
         -5    1    1    2    0  501 -0.48400939184E+01  0.28580523811E+02  0.61349123499E+01  0.30000000000E+02  0.47000000000E+01 0.  1.
</event>
<event>
 4    1  0.7509957E-002  0.6000000E+02  0.7546771E-02  0.1259629E+00
         11   -1    0    0    0    0  0.00000000000E+00  0.00000000000E+00  0.30000000000E+02  0.30000000000E+02  0.00000000000E+00 0.  1.
        -11   -1    0    0    0    0 -0.00000000000E+00 -0.00000000000E+00 -0.30000000000E+02  0.30000000000E+02  0.00000000000E+00 0. -1.
          5    1    1    2  501    0 -0.24706637405E+02  0.16068778089E+02 -0.30473658877E+01  0.30000000000E+02  0.47000000000E+01 0. -1.
         -5    1    1    2    0  501  0.24706637405E+02 -0.16068778089E+02  0.30473658877E+01  0.30000000000E+02  0.47000000000E+01 0.  1.
</event>
<event>
 4    1  0.7509957E-002  0.6000000E+02  0.7546771E-02  0.1259629E+00
         11   -1    0    0    0    0  0.00000000000E+00  0.00000000000E+00  0.30000000000E+02  0.30000000000E+02  0.00000000000E+00 0.  1.
        -11   -1    0    0    0    0 -0.00000000000E+00 -0.00000000000E+00 -0.30000000000E+02  0.30000000000E+02  0.00000000000E+00 0. -1.
          5    1    1    2  501    0 -0.26179442181E+02  0.22349390799E+01 -0.13694957261E+02  0.30000000000E+02  0.47000000000E+01 0. -1.
         -5    1    1    2    0  501  0.26179442181E+02 -0.22349390799E+01  0.13694957261E+02  0.30000000000E+02  0.47000000000E+01 0.  1.
</event>
<event>
 4    1  0.7509957E-002  0.6000000E+02  0.7546771E-02  0.1259629E+00
         11   -1    0    0    0    0  0.00000000000E+00  0.00000000000E+00  0.30000000000E+02  0.30000000000E+02  0.00000000000E+00 0.  1.
        -11   -1    0    0    0    0 -0.00000000000E+00 -0.00000000000E+00 -0.30000000000E+02  0.30000000000E+02  0.00000000000E+00 0. -1.
          5    1    1    2  501    0 -0.17201011872E+02 -0.24123730437E+02  0.28428920403E+00  0.30000000000E+02  0.47000000000E+01 0. -1.
         -5    1    1    2    0  501  0.17201011872E+02  0.24123730437E+02 -0.28428920403E+00  0.30000000000E+02  0.47000000000E+01 0.  1.
</event>
<event>
 4    1  0.7509957E-002  0.6000000E+02  0.7546771E-02  0.1259629E+00
         11   -1    0    0    0    0  0.00000000000E+00  0.00000000000E+00  0.30000000000E+02  0.30000000000E+02  0.00000000000E+00 0.  1.
        -11   -1    0    0    0    0 -0.00000000000E+00 -0.00000000000E+00 -0.30000000000E+02  0.30000000000E+02  0.00000000000E+00 0. -1.
          5    1    1    2  501    0 -0.18564475427E+02 -0.12565433303E+02 -0.19374729366E+02  0.30000000000E+02  0.47000000000E+01 0. -1.
         -5    1    1    2    0  501  0.18564475427E+02  0.12565433303E+02  0.19374729366E+02  0.30000000000E+02  0.47000000000E+01 0.  1.
</event>
<event>
 4    1  0.7509957E-002  0.6000000E+02  0.7546771E-02  0.1259629E+00
         11   -1    0    0    0    0  0.00000000000E+00  0.00000000000E+00  0.30000000000E+02  0.30000000000E+02  0.00000000000E+00 0. -1.
        -11   -1    0    0    0    0 -0.00000000000E+00 -0.00000000000E+00 -0.30000000000E+02  0.30000000000E+02  0.00000000000E+00 0.  1.
          5    1    1    2  501    0  0.68844353057E+01 -0.25407155658E+02 -0.13601139360E+02  0.30000000000E+02  0.47000000000E+01 0.  1.
         -5    1    1    2    0  501 -0.68844353057E+01  0.25407155658E+02  0.13601139360E+02  0.30000000000E+02  0.47000000000E+01 0. -1.
</event>
<event>
 4    1  0.7509957E-002  0.6000000E+02  0.7546771E-02  0.1259629E+00
         11   -1    0    0    0    0  0.00000000000E+00  0.00000000000E+00  0.30000000000E+02  0.30000000000E+02  0.00000000000E+00 0.  1.
        -11   -1    0    0    0    0 -0.00000000000E+00 -0.00000000000E+00 -0.30000000000E+02  0.30000000000E+02  0.00000000000E+00 0. -1.
          5    1    1    2  501    0  0.17259001307E+02  0.23313781278E+02  0.60418934443E+01  0.30000000000E+02  0.47000000000E+01 0.  1.
         -5    1    1    2    0  501 -0.17259001307E+02 -0.23313781278E+02 -0.60418934443E+01  0.30000000000E+02  0.47000000000E+01 0. -1.
</event>
<event>
 4    1  0.7509957E-002  0.6000000E+02  0.7546771E-02  0.1259629E+00
         11   -1    0    0    0    0  0.00000000000E+00  0.00000000000E+00  0.30000000000E+02  0.30000000000E+02  0.00000000000E+00 0.  1.
        -11   -1    0    0    0    0 -0.00000000000E+00 -0.00000000000E+00 -0.30000000000E+02  0.30000000000E+02  0.00000000000E+00 0. -1.
          5    1    1    2  501    0  0.25130561395E+01 -0.17840661647E+02 -0.23522443343E+02  0.30000000000E+02  0.47000000000E+01 0. -1.
         -5    1    1    2    0  501 -0.25130561395E+01  0.17840661647E+02  0.23522443343E+02  0.30000000000E+02  0.47000000000E+01 0.  1.
</event>
<event>
 4    1  0.7509957E-002  0.6000000E+02  0.7546771E-02  0.1259629E+00
         11   -1    0    0    0    0  0.00000000000E+00  0.00000000000E+00  0.30000000000E+02  0.30000000000E+02  0.00000000000E+00 0.  1.
        -11   -1    0    0    0    0 -0.00000000000E+00 -0.00000000000E+00 -0.30000000000E+02  0.30000000000E+02  0.00000000000E+00 0. -1.
          5    1    1    2  501    0  0.10720281226E+02 -0.27310710343E+02 -0.41365046808E+01  0.30000000000E+02  0.47000000000E+01 0. -1.
         -5    1    1    2    0  501 -0.10720281226E+02  0.27310710343E+02  0.41365046808E+01  0.30000000000E+02  0.47000000000E+01 0.  1.
</event>
<event>
 4    1  0.7509957E-002  0.6000000E+02  0.7546771E-02  0.1259629E+00
         11   -1    0    0    0    0  0.00000000000E+00  0.00000000000E+00  0.30000000000E+02  0.30000000000E+02  0.00000000000E+00 0. -1.
        -11   -1    0    0    0    0 -0.00000000000E+00 -0.00000000000E+00 -0.30000000000E+02  0.30000000000E+02  0.00000000000E+00 0.  1.
          5    1    1    2  501    0 -0.85836346225E+01  0.24126935089E+02 -0.14903765293E+02  0.30000000000E+02  0.47000000000E+01 0.  1.
         -5    1    1    2    0  501  0.85836346225E+01 -0.24126935089E+02  0.14903765293E+02  0.30000000000E+02  0.47000000000E+01 0. -1.
</event>
<event>
 4    1  0.7509957E-002  0.6000000E+02  0.7546771E-02  0.1259629E+00
         11   -1    0    0    0    0  0.00000000000E+00  0.00000000000E+00  0.30000000000E+02  0.30000000000E+02  0.00000000000E+00 0.  1.
        -11   -1    0    0    0    0 -0.00000000000E+00 -0.00000000000E+00 -0.30000000000E+02  0.30000000000E+02  0.00000000000E+00 0. -1.
          5    1    1    2  501    0  0.59693512289E+01 -0.79158212897E+01 -0.27921615627E+02  0.30000000000E+02  0.47000000000E+01 0. -1.
         -5    1    1    2    0  501 -0.59693512289E+01  0.79158212897E+01  0.27921615627E+02  0.30000000000E+02  0.47000000000E+01 0.  1.
</event>
<event>
 4    1  0.7509957E-002  0.6000000E+02  0.7546771E-02  0.1259629E+00
         11   -1    0    0    0    0  0.00000000000E+00  0.00000000000E+00  0.30000000000E+02  0.30000000000E+02  0.00000000000E+00 0.  1.
        -11   -1    0    0    0    0 -0.00000000000E+00 -0.00000000000E+00 -0.30000000000E+02  0.30000000000E+02  0.00000000000E+00 0. -1.
          5    1    1    2  501    0 -0.26331294700E+02 -0.90176125650E+01 -0.10161475438E+02  0.30000000000E+02  0.47000000000E+01 0. -1.
         -5    1    1    2    0  501  0.26331294700E+02  0.90176125650E+01  0.10161475438E+02  0.30000000000E+02  0.47000000000E+01 0.  1.
</event>
<event>
 4    1  0.7509957E-002  0.6000000E+02  0.7546771E-02  0.1259629E+00
         11   -1    0    0    0    0  0.00000000000E+00  0.00000000000E+00  0.30000000000E+02  0.30000000000E+02  0.00000000000E+00 0.  1.
        -11   -1    0    0    0    0 -0.00000000000E+00 -0.00000000000E+00 -0.30000000000E+02  0.30000000000E+02  0.00000000000E+00 0. -1.
          5    1    1    2  501    0  0.22482382389E+02 -0.17785649344E+01  0.19216898524E+02  0.30000000000E+02  0.47000000000E+01 0.  1.
         -5    1    1    2    0  501 -0.22482382389E+02  0.17785649344E+01 -0.19216898524E+02  0.30000000000E+02  0.47000000000E+01 0. -1.
</event>
<event>
 4    1  0.7509957E-002  0.6000000E+02  0.7546771E-02  0.1259629E+00
         11   -1    0    0    0    0  0.00000000000E+00  0.00000000000E+00  0.30000000000E+02  0.30000000000E+02  0.00000000000E+00 0.  1.
        -11   -1    0    0    0    0 -0.00000000000E+00 -0.00000000000E+00 -0.30000000000E+02  0.30000000000E+02  0.00000000000E+00 0. -1.
          5    1    1    2  501    0  0.24684110589E+02 -0.42209276377E+01 -0.15836301788E+02  0.30000000000E+02  0.47000000000E+01 0. -1.
         -5    1    1    2    0  501 -0.24684110589E+02  0.42209276377E+01  0.15836301788E+02  0.30000000000E+02  0.47000000000E+01 0.  1.
</event>
<event>
 4    1  0.7509957E-002  0.6000000E+02  0.7546771E-02  0.1259629E+00
         11   -1    0    0    0    0  0.00000000000E+00  0.00000000000E+00  0.30000000000E+02  0.30000000000E+02  0.00000000000E+00 0.  1.
        -11   -1    0    0    0    0 -0.00000000000E+00 -0.00000000000E+00 -0.30000000000E+02  0.30000000000E+02  0.00000000000E+00 0. -1.
          5    1    1    2  501    0 -0.19860970033E+02 -0.35230175186E+01 -0.21703460943E+02  0.30000000000E+02  0.47000000000E+01 0. -1.
         -5    1    1    2    0  501  0.19860970033E+02  0.35230175186E+01  0.21703460943E+02  0.30000000000E+02  0.47000000000E+01 0.  1.
</event>
<event>
 4    1  0.7509957E-002  0.6000000E+02  0.7546771E-02  0.1259629E+00
         11   -1    0    0    0    0  0.00000000000E+00  0.00000000000E+00  0.30000000000E+02  0.30000000000E+02  0.00000000000E+00 0.  1.
        -11   -1    0    0    0    0 -0.00000000000E+00 -0.00000000000E+00 -0.30000000000E+02  0.30000000000E+02  0.00000000000E+00 0. -1.
          5    1    1    2  501    0  0.13972995578E+01  0.13446002148E+02 -0.26365935982E+02  0.30000000000E+02  0.47000000000E+01 0. -1.
         -5    1    1    2    0  501 -0.13972995578E+01 -0.13446002148E+02  0.26365935982E+02  0.30000000000E+02  0.47000000000E+01 0.  1.
</event>
<event>
 4    1  0.7509957E-002  0.6000000E+02  0.7546771E-02  0.1259629E+00
         11   -1    0    0    0    0  0.00000000000E+00  0.00000000000E+00  0.30000000000E+02  0.30000000000E+02  0.00000000000E+00 0.  1.
        -11   -1    0    0    0    0 -0.00000000000E+00 -0.00000000000E+00 -0.30000000000E+02  0.30000000000E+02  0.00000000000E+00 0. -1.
          5    1    1    2  501    0  0.33703565044E+01 -0.26507372183E+01 -0.29317644674E+02  0.30000000000E+02  0.47000000000E+01 0. -1.
         -5    1    1    2    0  501 -0.33703565044E+01  0.26507372183E+01  0.29317644674E+02  0.30000000000E+02  0.47000000000E+01 0.  1.
</event>
<event>
 4    1  0.7509957E-002  0.6000000E+02  0.7546771E-02  0.1259629E+00
         11   -1    0    0    0    0  0.00000000000E+00  0.00000000000E+00  0.30000000000E+02  0.30000000000E+02  0.00000000000E+00 0. -1.
        -11   -1    0    0    0    0 -0.00000000000E+00 -0.00000000000E+00 -0.30000000000E+02  0.30000000000E+02  0.00000000000E+00 0.  1.
          5    1    1    2  501    0 -0.23395587393E+02  0.18173268296E+02 -0.53741044798E+00  0.30000000000E+02  0.47000000000E+01 0.  1.
         -5    1    1    2    0  501  0.23395587393E+02 -0.18173268296E+02  0.53741044798E+00  0.30000000000E+02  0.47000000000E+01 0. -1.
</event>
<event>
 4    1  0.7509957E-002  0.6000000E+02  0.7546771E-02  0.1259629E+00
         11   -1    0    0    0    0  0.00000000000E+00  0.00000000000E+00  0.30000000000E+02  0.30000000000E+02  0.00000000000E+00 0.  1.
        -11   -1    0    0    0    0 -0.00000000000E+00 -0.00000000000E+00 -0.30000000000E+02  0.30000000000E+02  0.00000000000E+00 0. -1.
          5    1    1    2  501    0  0.26430196951E+02  0.93196226123E+01  0.96176568602E+01  0.30000000000E+02  0.47000000000E+01 0.  1.
         -5    1    1    2    0  501 -0.26430196951E+02 -0.93196226123E+01 -0.96176568602E+01  0.30000000000E+02  0.47000000000E+01 0. -1.
</event>
<event>
 4    1  0.7509957E-002  0.6000000E+02  0.7546771E-02  0.1259629E+00
         11   -1    0    0    0    0  0.00000000000E+00  0.00000000000E+00  0.30000000000E+02  0.30000000000E+02  0.00000000000E+00 0.  1.
        -11   -1    0    0    0    0 -0.00000000000E+00 -0.00000000000E+00 -0.30000000000E+02  0.30000000000E+02  0.00000000000E+00 0. -1.
          5    1    1    2  501    0  0.11489509469E+02  0.64418504308E+01 -0.26540605403E+02  0.30000000000E+02  0.47000000000E+01 0. -1.
         -5    1    1    2    0  501 -0.11489509469E+02 -0.64418504308E+01  0.26540605403E+02  0.30000000000E+02  0.47000000000E+01 0.  1.
</event>
<event>
 4    1  0.7509957E-002  0.6000000E+02  0.7546771E-02  0.1259629E+00
         11   -1    0    0    0    0  0.00000000000E+00  0.00000000000E+00  0.30000000000E+02  0.30000000000E+02  0.00000000000E+00 0.  1.
        -11   -1    0    0    0    0 -0.00000000000E+00 -0.00000000000E+00 -0.30000000000E+02  0.30000000000E+02  0.00000000000E+00 0. -1.
          5    1    1    2  501    0  0.27481538837E+02 -0.10526959618E+02 -0.34435656434E+01  0.30000000000E+02  0.47000000000E+01 0. -1.
         -5    1    1    2    0  501 -0.27481538837E+02  0.10526959618E+02  0.34435656434E+01  0.30000000000E+02  0.47000000000E+01 0.  1.
</event>
<event>
 4    1  0.7509957E-002  0.6000000E+02  0.7546771E-02  0.1259629E+00
         11   -1    0    0    0    0  0.00000000000E+00  0.00000000000E+00  0.30000000000E+02  0.30000000000E+02  0.00000000000E+00 0. -1.
        -11   -1    0    0    0    0 -0.00000000000E+00 -0.00000000000E+00 -0.30000000000E+02  0.30000000000E+02  0.00000000000E+00 0.  1.
          5    1    1    2  501    0  0.59073751199E+01  0.17379616730E+02 -0.23258586404E+02  0.30000000000E+02  0.47000000000E+01 0.  1.
         -5    1    1    2    0  501 -0.59073751199E+01 -0.17379616730E+02  0.23258586404E+02  0.30000000000E+02  0.47000000000E+01 0. -1.
</event>
<event>
 4    1  0.7509957E-002  0.6000000E+02  0.7546771E-02  0.1259629E+00
         11   -1    0    0    0    0  0.00000000000E+00  0.00000000000E+00  0.30000000000E+02  0.30000000000E+02  0.00000000000E+00 0.  1.
        -11   -1    0    0    0    0 -0.00000000000E+00 -0.00000000000E+00 -0.30000000000E+02  0.30000000000E+02  0.00000000000E+00 0. -1.
          5    1    1    2  501    0  0.54464805571E+01  0.15429587543E+01 -0.29083760552E+02  0.30000000000E+02  0.47000000000E+01 0. -1.
         -5    1    1    2    0  501 -0.54464805571E+01 -0.15429587543E+01  0.29083760552E+02  0.30000000000E+02  0.47000000000E+01 0.  1.
</event>
<event>
 4    1  0.7509957E-002  0.6000000E+02  0.7546771E-02  0.1259629E+00
         11   -1    0    0    0    0  0.00000000000E+00  0.00000000000E+00  0.30000000000E+02  0.30000000000E+02  0.00000000000E+00 0.  1.
        -11   -1    0    0    0    0 -0.00000000000E+00 -0.00000000000E+00 -0.30000000000E+02  0.30000000000E+02  0.00000000000E+00 0. -1.
          5    1    1    2  501    0 -0.12456176672E+02  0.81955115026E+01 -0.25604438169E+02  0.30000000000E+02  0.47000000000E+01 0. -1.
         -5    1    1    2    0  501  0.12456176672E+02 -0.81955115026E+01  0.25604438169E+02  0.30000000000E+02  0.47000000000E+01 0.  1.
</event>
<event>
 4    1  0.7509957E-002  0.6000000E+02  0.7546771E-02  0.1259629E+00
         11   -1    0    0    0    0  0.00000000000E+00  0.00000000000E+00  0.30000000000E+02  0.30000000000E+02  0.00000000000E+00 0. -1.
        -11   -1    0    0    0    0 -0.00000000000E+00 -0.00000000000E+00 -0.30000000000E+02  0.30000000000E+02  0.00000000000E+00 0.  1.
          5    1    1    2  501    0  0.25671511794E+02 -0.13663775130E+02 -0.56731588561E+01  0.30000000000E+02  0.47000000000E+01 0. -1.
         -5    1    1    2    0  501 -0.25671511794E+02  0.13663775130E+02  0.56731588561E+01  0.30000000000E+02  0.47000000000E+01 0.  1.
</event>
<event>
 4    1  0.7509957E-002  0.6000000E+02  0.7546771E-02  0.1259629E+00
         11   -1    0    0    0    0  0.00000000000E+00  0.00000000000E+00  0.30000000000E+02  0.30000000000E+02  0.00000000000E+00 0.  1.
        -11   -1    0    0    0    0 -0.00000000000E+00 -0.00000000000E+00 -0.30000000000E+02  0.30000000000E+02  0.00000000000E+00 0. -1.
          5    1    1    2  501    0  0.22546662600E+01 -0.11628722562E+02 -0.27158779273E+02  0.30000000000E+02  0.47000000000E+01 0. -1.
         -5    1    1    2    0  501 -0.22546662600E+01  0.11628722562E+02  0.27158779273E+02  0.30000000000E+02  0.47000000000E+01 0.  1.
</event>
<event>
 4    1  0.7509957E-002  0.6000000E+02  0.7546771E-02  0.1259629E+00
         11   -1    0    0    0    0  0.00000000000E+00  0.00000000000E+00  0.30000000000E+02  0.30000000000E+02  0.00000000000E+00 0.  1.
        -11   -1    0    0    0    0 -0.00000000000E+00 -0.00000000000E+00 -0.30000000000E+02  0.30000000000E+02  0.00000000000E+00 0. -1.
          5    1    1    2  501    0 -0.10246105224E+01 -0.51559393584E+01 -0.29159500383E+02  0.30000000000E+02  0.47000000000E+01 0. -1.
         -5    1    1    2    0  501  0.10246105224E+01  0.51559393584E+01  0.29159500383E+02  0.30000000000E+02  0.47000000000E+01 0.  1.
</event>
<event>
 4    1  0.7509957E-002  0.6000000E+02  0.7546771E-02  0.1259629E+00
         11   -1    0    0    0    0  0.00000000000E+00  0.00000000000E+00  0.30000000000E+02  0.30000000000E+02  0.00000000000E+00 0.  1.
        -11   -1    0    0    0    0 -0.00000000000E+00 -0.00000000000E+00 -0.30000000000E+02  0.30000000000E+02  0.00000000000E+00 0. -1.
          5    1    1    2  501    0  0.27837874255E+02  0.13167413251E+01 -0.10061259825E+02  0.30000000000E+02  0.47000000000E+01 0. -1.
         -5    1    1    2    0  501 -0.27837874255E+02 -0.13167413251E+01  0.10061259825E+02  0.30000000000E+02  0.47000000000E+01 0.  1.
</event>
<event>
 4    1  0.7509957E-002  0.6000000E+02  0.7546771E-02  0.1259629E+00
         11   -1    0    0    0    0  0.00000000000E+00  0.00000000000E+00  0.30000000000E+02  0.30000000000E+02  0.00000000000E+00 0.  1.
        -11   -1    0    0    0    0 -0.00000000000E+00 -0.00000000000E+00 -0.30000000000E+02  0.30000000000E+02  0.00000000000E+00 0. -1.
          5    1    1    2  501    0 -0.11658919445E+02  0.91624838331E+01 -0.25652065948E+02  0.30000000000E+02  0.47000000000E+01 0. -1.
         -5    1    1    2    0  501  0.11658919445E+02 -0.91624838331E+01  0.25652065948E+02  0.30000000000E+02  0.47000000000E+01 0.  1.
</event>
<event>
 4    1  0.7509957E-002  0.6000000E+02  0.7546771E-02  0.1259629E+00
         11   -1    0    0    0    0  0.00000000000E+00  0.00000000000E+00  0.30000000000E+02  0.30000000000E+02  0.00000000000E+00 0. -1.
        -11   -1    0    0    0    0 -0.00000000000E+00 -0.00000000000E+00 -0.30000000000E+02  0.30000000000E+02  0.00000000000E+00 0.  1.
          5    1    1    2  501    0  0.11618116359E+02  0.33547567967E+01 -0.27049491291E+02  0.30000000000E+02  0.47000000000E+01 0.  1.
         -5    1    1    2    0  501 -0.11618116359E+02 -0.33547567967E+01  0.27049491291E+02  0.30000000000E+02  0.47000000000E+01 0. -1.
</event>
<event>
 4    1  0.7509957E-002  0.6000000E+02  0.7546771E-02  0.1259629E+00
         11   -1    0    0    0    0  0.00000000000E+00  0.00000000000E+00  0.30000000000E+02  0.30000000000E+02  0.00000000000E+00 0.  1.
        -11   -1    0    0    0    0 -0.00000000000E+00 -0.00000000000E+00 -0.30000000000E+02  0.30000000000E+02  0.00000000000E+00 0. -1.
          5    1    1    2  501    0  0.40202696123E+00  0.25904327920E+02 -0.14377557837E+02  0.30000000000E+02  0.47000000000E+01 0. -1.
         -5    1    1    2    0  501 -0.40202696123E+00 -0.25904327920E+02  0.14377557837E+02  0.30000000000E+02  0.47000000000E+01 0.  1.
</event>
<event>
 4    1  0.7509957E-002  0.6000000E+02  0.7546771E-02  0.1259629E+00
         11   -1    0    0    0    0  0.00000000000E+00  0.00000000000E+00  0.30000000000E+02  0.30000000000E+02  0.00000000000E+00 0.  1.
        -11   -1    0    0    0    0 -0.00000000000E+00 -0.00000000000E+00 -0.30000000000E+02  0.30000000000E+02  0.00000000000E+00 0. -1.
          5    1    1    2  501    0  0.11107933728E+02  0.37109155758E+01 -0.27216776332E+02  0.30000000000E+02  0.47000000000E+01 0. -1.
         -5    1    1    2    0  501 -0.11107933728E+02 -0.37109155758E+01  0.27216776332E+02  0.30000000000E+02  0.47000000000E+01 0.  1.
</event>
<event>
 4    1  0.7509957E-002  0.6000000E+02  0.7546771E-02  0.1259629E+00
         11   -1    0    0    0    0  0.00000000000E+00  0.00000000000E+00  0.30000000000E+02  0.30000000000E+02  0.00000000000E+00 0. -1.
        -11   -1    0    0    0    0 -0.00000000000E+00 -0.00000000000E+00 -0.30000000000E+02  0.30000000000E+02  0.00000000000E+00 0.  1.
          5    1    1    2  501    0 -0.19683141566E+02 -0.21371287171E+02 -0.58096491050E+01  0.30000000000E+02  0.47000000000E+01 0.  1.
         -5    1    1    2    0  501  0.19683141566E+02  0.21371287171E+02  0.58096491050E+01  0.30000000000E+02  0.47000000000E+01 0. -1.
</event>
<event>
 4    1  0.7509957E-002  0.6000000E+02  0.7546771E-02  0.1259629E+00
         11   -1    0    0    0    0  0.00000000000E+00  0.00000000000E+00  0.30000000000E+02  0.30000000000E+02  0.00000000000E+00 0. -1.
        -11   -1    0    0    0    0 -0.00000000000E+00 -0.00000000000E+00 -0.30000000000E+02  0.30000000000E+02  0.00000000000E+00 0.  1.
          5    1    1    2  501    0 -0.28354830682E+02 -0.75535074309E+01 -0.41058619647E+01  0.30000000000E+02  0.47000000000E+01 0.  1.
         -5    1    1    2    0  501  0.28354830682E+02  0.75535074309E+01  0.41058619647E+01  0.30000000000E+02  0.47000000000E+01 0. -1.
</event>
<event>
 4    1  0.7509957E-002  0.6000000E+02  0.7546771E-02  0.1259629E+00
         11   -1    0    0    0    0  0.00000000000E+00  0.00000000000E+00  0.30000000000E+02  0.30000000000E+02  0.00000000000E+00 0.  1.
        -11   -1    0    0    0    0 -0.00000000000E+00 -0.00000000000E+00 -0.30000000000E+02  0.30000000000E+02  0.00000000000E+00 0. -1.
          5    1    1    2  501    0 -0.72679835770E+01  0.15241140076E+02 -0.24347362566E+02  0.30000000000E+02  0.47000000000E+01 0. -1.
         -5    1    1    2    0  501  0.72679835770E+01 -0.15241140076E+02  0.24347362566E+02  0.30000000000E+02  0.47000000000E+01 0.  1.
</event>
<event>
 4    1  0.7509957E-002  0.6000000E+02  0.7546771E-02  0.1259629E+00
         11   -1    0    0    0    0  0.00000000000E+00  0.00000000000E+00  0.30000000000E+02  0.30000000000E+02  0.00000000000E+00 0.  1.
        -11   -1    0    0    0    0 -0.00000000000E+00 -0.00000000000E+00 -0.30000000000E+02  0.30000000000E+02  0.00000000000E+00 0. -1.
          5    1    1    2  501    0  0.49474271046E+01  0.21599066493E+02  0.19670111633E+02  0.30000000000E+02  0.47000000000E+01 0.  1.
         -5    1    1    2    0  501 -0.49474271046E+01 -0.21599066493E+02 -0.19670111633E+02  0.30000000000E+02  0.47000000000E+01 0. -1.
</event>
<event>
 4    1  0.7509957E-002  0.6000000E+02  0.7546771E-02  0.1259629E+00
         11   -1    0    0    0    0  0.00000000000E+00  0.00000000000E+00  0.30000000000E+02  0.30000000000E+02  0.00000000000E+00 0.  1.
        -11   -1    0    0    0    0 -0.00000000000E+00 -0.00000000000E+00 -0.30000000000E+02  0.30000000000E+02  0.00000000000E+00 0. -1.
          5    1    1    2  501    0 -0.63372455296E+01 -0.26566637994E+02  0.11487517782E+02  0.30000000000E+02  0.47000000000E+01 0. -1.
         -5    1    1    2    0  501  0.63372455296E+01  0.26566637994E+02 -0.11487517782E+02  0.30000000000E+02  0.47000000000E+01 0.  1.
</event>
<event>
 4    1  0.7509957E-002  0.6000000E+02  0.7546771E-02  0.1259629E+00
         11   -1    0    0    0    0  0.00000000000E+00  0.00000000000E+00  0.30000000000E+02  0.30000000000E+02  0.00000000000E+00 0.  1.
        -11   -1    0    0    0    0 -0.00000000000E+00 -0.00000000000E+00 -0.30000000000E+02  0.30000000000E+02  0.00000000000E+00 0. -1.
          5    1    1    2  501    0  0.18905305331E+01  0.71072493512E+00 -0.29560628619E+02  0.30000000000E+02  0.47000000000E+01 0. -1.
         -5    1    1    2    0  501 -0.18905305331E+01 -0.71072493512E+00  0.29560628619E+02  0.30000000000E+02  0.47000000000E+01 0.  1.
</event>
<event>
 4    1  0.7509957E-002  0.6000000E+02  0.7546771E-02  0.1259629E+00
         11   -1    0    0    0    0  0.00000000000E+00  0.00000000000E+00  0.30000000000E+02  0.30000000000E+02  0.00000000000E+00 0. -1.
        -11   -1    0    0    0    0 -0.00000000000E+00 -0.00000000000E+00 -0.30000000000E+02  0.30000000000E+02  0.00000000000E+00 0.  1.
          5    1    1    2  501    0  0.46567870371E+01  0.16515984868E+02  0.24154638858E+02  0.30000000000E+02  0.47000000000E+01 0. -1.
         -5    1    1    2    0  501 -0.46567870371E+01 -0.16515984868E+02 -0.24154638858E+02  0.30000000000E+02  0.47000000000E+01 0.  1.
</event>
<event>
 4    1  0.7509957E-002  0.6000000E+02  0.7546771E-02  0.1259629E+00
         11   -1    0    0    0    0  0.00000000000E+00  0.00000000000E+00  0.30000000000E+02  0.30000000000E+02  0.00000000000E+00 0.  1.
        -11   -1    0    0    0    0 -0.00000000000E+00 -0.00000000000E+00 -0.30000000000E+02  0.30000000000E+02  0.00000000000E+00 0. -1.
          5    1    1    2  501    0  0.25892534570E+02 -0.86047825695E+01 -0.11551812432E+02  0.30000000000E+02  0.47000000000E+01 0. -1.
         -5    1    1    2    0  501 -0.25892534570E+02  0.86047825695E+01  0.11551812432E+02  0.30000000000E+02  0.47000000000E+01 0.  1.
</event>
<event>
 4    1  0.7509957E-002  0.6000000E+02  0.7546771E-02  0.1259629E+00
         11   -1    0    0    0    0  0.00000000000E+00  0.00000000000E+00  0.30000000000E+02  0.30000000000E+02  0.00000000000E+00 0.  1.
        -11   -1    0    0    0    0 -0.00000000000E+00 -0.00000000000E+00 -0.30000000000E+02  0.30000000000E+02  0.00000000000E+00 0. -1.
          5    1    1    2  501    0 -0.23892839078E+02  0.15503406001E+02 -0.81661890227E+01  0.30000000000E+02  0.47000000000E+01 0. -1.
         -5    1    1    2    0  501  0.23892839078E+02 -0.15503406001E+02  0.81661890227E+01  0.30000000000E+02  0.47000000000E+01 0.  1.
</event>
<event>
 4    1  0.7509957E-002  0.6000000E+02  0.7546771E-02  0.1259629E+00
         11   -1    0    0    0    0  0.00000000000E+00  0.00000000000E+00  0.30000000000E+02  0.30000000000E+02  0.00000000000E+00 0.  1.
        -11   -1    0    0    0    0 -0.00000000000E+00 -0.00000000000E+00 -0.30000000000E+02  0.30000000000E+02  0.00000000000E+00 0. -1.
          5    1    1    2  501    0 -0.27549140414E+02  0.18684668878E+01  0.10745403388E+02  0.30000000000E+02  0.47000000000E+01 0. -1.
         -5    1    1    2    0  501  0.27549140414E+02 -0.18684668878E+01 -0.10745403388E+02  0.30000000000E+02  0.47000000000E+01 0.  1.
</event>
<event>
 4    1  0.7509957E-002  0.6000000E+02  0.7546771E-02  0.1259629E+00
         11   -1    0    0    0    0  0.00000000000E+00  0.00000000000E+00  0.30000000000E+02  0.30000000000E+02  0.00000000000E+00 0. -1.
        -11   -1    0    0    0    0 -0.00000000000E+00 -0.00000000000E+00 -0.30000000000E+02  0.30000000000E+02  0.00000000000E+00 0.  1.
          5    1    1    2  501    0  0.22750787904E+02  0.12225742337E+02 -0.14520429541E+02  0.30000000000E+02  0.47000000000E+01 0.  1.
         -5    1    1    2    0  501 -0.22750787904E+02 -0.12225742337E+02  0.14520429541E+02  0.30000000000E+02  0.47000000000E+01 0. -1.
</event>
<event>
 4    1  0.7509957E-002  0.6000000E+02  0.7546771E-02  0.1259629E+00
         11   -1    0    0    0    0  0.00000000000E+00  0.00000000000E+00  0.30000000000E+02  0.30000000000E+02  0.00000000000E+00 0.  1.
        -11   -1    0    0    0    0 -0.00000000000E+00 -0.00000000000E+00 -0.30000000000E+02  0.30000000000E+02  0.00000000000E+00 0. -1.
          5    1    1    2  501    0  0.23530269418E+02 -0.14980342812E+02  0.99912837176E+01  0.30000000000E+02  0.47000000000E+01 0. -1.
         -5    1    1    2    0  501 -0.23530269418E+02  0.14980342812E+02 -0.99912837176E+01  0.30000000000E+02  0.47000000000E+01 0.  1.
</event>
<event>
 4    1  0.7509957E-002  0.6000000E+02  0.7546771E-02  0.1259629E+00
         11   -1    0    0    0    0  0.00000000000E+00  0.00000000000E+00  0.30000000000E+02  0.30000000000E+02  0.00000000000E+00 0.  1.
        -11   -1    0    0    0    0 -0.00000000000E+00 -0.00000000000E+00 -0.30000000000E+02  0.30000000000E+02  0.00000000000E+00 0. -1.
          5    1    1    2  501    0 -0.27467170452E+02 -0.43611527386E+01 -0.10219828478E+02  0.30000000000E+02  0.47000000000E+01 0. -1.
         -5    1    1    2    0  501  0.27467170452E+02  0.43611527386E+01  0.10219828478E+02  0.30000000000E+02  0.47000000000E+01 0.  1.
</event>
<event>
 4    1  0.7509957E-002  0.6000000E+02  0.7546771E-02  0.1259629E+00
         11   -1    0    0    0    0  0.00000000000E+00  0.00000000000E+00  0.30000000000E+02  0.30000000000E+02  0.00000000000E+00 0. -1.
        -11   -1    0    0    0    0 -0.00000000000E+00 -0.00000000000E+00 -0.30000000000E+02  0.30000000000E+02  0.00000000000E+00 0.  1.
          5    1    1    2  501    0 -0.17441697938E+02  0.23950538583E+02 -0.26243971970E+00  0.30000000000E+02  0.47000000000E+01 0. -1.
         -5    1    1    2    0  501  0.17441697938E+02 -0.23950538583E+02  0.26243971970E+00  0.30000000000E+02  0.47000000000E+01 0.  1.
</event>
<event>
 4    1  0.7509957E-002  0.6000000E+02  0.7546771E-02  0.1259629E+00
         11   -1    0    0    0    0  0.00000000000E+00  0.00000000000E+00  0.30000000000E+02  0.30000000000E+02  0.00000000000E+00 0.  1.
        -11   -1    0    0    0    0 -0.00000000000E+00 -0.00000000000E+00 -0.30000000000E+02  0.30000000000E+02  0.00000000000E+00 0. -1.
          5    1    1    2  501    0 -0.20868446338E+02  0.20642648420E+02 -0.40372036886E+01  0.30000000000E+02  0.47000000000E+01 0. -1.
         -5    1    1    2    0  501  0.20868446338E+02 -0.20642648420E+02  0.40372036886E+01  0.30000000000E+02  0.47000000000E+01 0.  1.
</event>
<event>
 4    1  0.7509957E-002  0.6000000E+02  0.7546771E-02  0.1259629E+00
         11   -1    0    0    0    0  0.00000000000E+00  0.00000000000E+00  0.30000000000E+02  0.30000000000E+02  0.00000000000E+00 0.  1.
        -11   -1    0    0    0    0 -0.00000000000E+00 -0.00000000000E+00 -0.30000000000E+02  0.30000000000E+02  0.00000000000E+00 0. -1.
          5    1    1    2  501    0  0.84891671679E+01  0.21391450561E+02 -0.18661454490E+02  0.30000000000E+02  0.47000000000E+01 0. -1.
         -5    1    1    2    0  501 -0.84891671679E+01 -0.21391450561E+02  0.18661454490E+02  0.30000000000E+02  0.47000000000E+01 0.  1.
</event>
<event>
 4    1  0.7509957E-002  0.6000000E+02  0.7546771E-02  0.1259629E+00
         11   -1    0    0    0    0  0.00000000000E+00  0.00000000000E+00  0.30000000000E+02  0.30000000000E+02  0.00000000000E+00 0.  1.
        -11   -1    0    0    0    0 -0.00000000000E+00 -0.00000000000E+00 -0.30000000000E+02  0.30000000000E+02  0.00000000000E+00 0. -1.
          5    1    1    2  501    0  0.12448432601E+02  0.73630739417E+01 -0.25859846634E+02  0.30000000000E+02  0.47000000000E+01 0. -1.
         -5    1    1    2    0  501 -0.12448432601E+02 -0.73630739417E+01  0.25859846634E+02  0.30000000000E+02  0.47000000000E+01 0.  1.
</event>
<event>
 4    1  0.7509957E-002  0.6000000E+02  0.7546771E-02  0.1259629E+00
         11   -1    0    0    0    0  0.00000000000E+00  0.00000000000E+00  0.30000000000E+02  0.30000000000E+02  0.00000000000E+00 0. -1.
        -11   -1    0    0    0    0 -0.00000000000E+00 -0.00000000000E+00 -0.30000000000E+02  0.30000000000E+02  0.00000000000E+00 0.  1.
          5    1    1    2  501    0 -0.91036582267E+01 -0.21367542721E+02 -0.18397323854E+02  0.30000000000E+02  0.47000000000E+01 0.  1.
         -5    1    1    2    0  501  0.91036582267E+01  0.21367542721E+02  0.18397323854E+02  0.30000000000E+02  0.47000000000E+01 0. -1.
</event>
<event>
 4    1  0.7509957E-002  0.6000000E+02  0.7546771E-02  0.1259629E+00
         11   -1    0    0    0    0  0.00000000000E+00  0.00000000000E+00  0.30000000000E+02  0.30000000000E+02  0.00000000000E+00 0. -1.
        -11   -1    0    0    0    0 -0.00000000000E+00 -0.00000000000E+00 -0.30000000000E+02  0.30000000000E+02  0.00000000000E+00 0.  1.
          5    1    1    2  501    0 -0.28706470538E+02  0.64382844601E+00 -0.73098586960E+01  0.30000000000E+02  0.47000000000E+01 0.  1.
         -5    1    1    2    0  501  0.28706470538E+02 -0.64382844601E+00  0.73098586960E+01  0.30000000000E+02  0.47000000000E+01 0. -1.
</event>
<event>
 4    1  0.7509957E-002  0.6000000E+02  0.7546771E-02  0.1259629E+00
         11   -1    0    0    0    0  0.00000000000E+00  0.00000000000E+00  0.30000000000E+02  0.30000000000E+02  0.00000000000E+00 0. -1.
        -11   -1    0    0    0    0 -0.00000000000E+00 -0.00000000000E+00 -0.30000000000E+02  0.30000000000E+02  0.00000000000E+00 0.  1.
          5    1    1    2  501    0 -0.25684315953E+01 -0.22242186228E+02 -0.19406141063E+02  0.30000000000E+02  0.47000000000E+01 0.  1.
         -5    1    1    2    0  501  0.25684315953E+01  0.22242186228E+02  0.19406141063E+02  0.30000000000E+02  0.47000000000E+01 0. -1.
</event>
<event>
 4    1  0.7509957E-002  0.6000000E+02  0.7546771E-02  0.1259629E+00
         11   -1    0    0    0    0  0.00000000000E+00  0.00000000000E+00  0.30000000000E+02  0.30000000000E+02  0.00000000000E+00 0.  1.
        -11   -1    0    0    0    0 -0.00000000000E+00 -0.00000000000E+00 -0.30000000000E+02  0.30000000000E+02  0.00000000000E+00 0. -1.
          5    1    1    2  501    0 -0.13021653698E+02  0.88989599846E+01  0.25082963265E+02  0.30000000000E+02  0.47000000000E+01 0.  1.
         -5    1    1    2    0  501  0.13021653698E+02 -0.88989599846E+01 -0.25082963265E+02  0.30000000000E+02  0.47000000000E+01 0. -1.
</event>
<event>
 4    1  0.7509957E-002  0.6000000E+02  0.7546771E-02  0.1259629E+00
         11   -1    0    0    0    0  0.00000000000E+00  0.00000000000E+00  0.30000000000E+02  0.30000000000E+02  0.00000000000E+00 0.  1.
        -11   -1    0    0    0    0 -0.00000000000E+00 -0.00000000000E+00 -0.30000000000E+02  0.30000000000E+02  0.00000000000E+00 0. -1.
          5    1    1    2  501    0 -0.14708156652E+02  0.10362521216E+02 -0.23541416312E+02  0.30000000000E+02  0.47000000000E+01 0. -1.
         -5    1    1    2    0  501  0.14708156652E+02 -0.10362521216E+02  0.23541416312E+02  0.30000000000E+02  0.47000000000E+01 0.  1.
</event>
<event>
 4    1  0.7509957E-002  0.6000000E+02  0.7546771E-02  0.1259629E+00
         11   -1    0    0    0    0  0.00000000000E+00  0.00000000000E+00  0.30000000000E+02  0.30000000000E+02  0.00000000000E+00 0. -1.
        -11   -1    0    0    0    0 -0.00000000000E+00 -0.00000000000E+00 -0.30000000000E+02  0.30000000000E+02  0.00000000000E+00 0.  1.
          5    1    1    2  501    0  0.25064109266E+02  0.74101947265E+01 -0.13956698779E+02  0.30000000000E+02  0.47000000000E+01 0.  1.
         -5    1    1    2    0  501 -0.25064109266E+02 -0.74101947265E+01  0.13956698779E+02  0.30000000000E+02  0.47000000000E+01 0. -1.
</event>
<event>
 4    1  0.7509957E-002  0.6000000E+02  0.7546771E-02  0.1259629E+00
         11   -1    0    0    0    0  0.00000000000E+00  0.00000000000E+00  0.30000000000E+02  0.30000000000E+02  0.00000000000E+00 0.  1.
        -11   -1    0    0    0    0 -0.00000000000E+00 -0.00000000000E+00 -0.30000000000E+02  0.30000000000E+02  0.00000000000E+00 0. -1.
          5    1    1    2  501    0 -0.14371248029E+02  0.76322808349E+01 -0.24761371516E+02  0.30000000000E+02  0.47000000000E+01 0. -1.
         -5    1    1    2    0  501  0.14371248029E+02 -0.76322808349E+01  0.24761371516E+02  0.30000000000E+02  0.47000000000E+01 0.  1.
</event>
<event>
 4    1  0.7509957E-002  0.6000000E+02  0.7546771E-02  0.1259629E+00
         11   -1    0    0    0    0  0.00000000000E+00  0.00000000000E+00  0.30000000000E+02  0.30000000000E+02  0.00000000000E+00 0.  1.
        -11   -1    0    0    0    0 -0.00000000000E+00 -0.00000000000E+00 -0.30000000000E+02  0.30000000000E+02  0.00000000000E+00 0. -1.
          5    1    1    2  501    0  0.10348442626E+01 -0.27740289984E+02  0.10359315082E+02  0.30000000000E+02  0.47000000000E+01 0. -1.
         -5    1    1    2    0  501 -0.10348442626E+01  0.27740289984E+02 -0.10359315082E+02  0.30000000000E+02  0.47000000000E+01 0.  1.
</event>
<event>
 4    1  0.7509957E-002  0.6000000E+02  0.7546771E-02  0.1259629E+00
         11   -1    0    0    0    0  0.00000000000E+00  0.00000000000E+00  0.30000000000E+02  0.30000000000E+02  0.00000000000E+00 0.  1.
        -11   -1    0    0    0    0 -0.00000000000E+00 -0.00000000000E+00 -0.30000000000E+02  0.30000000000E+02  0.00000000000E+00 0. -1.
          5    1    1    2  501    0 -0.64438010962E+01  0.16189250990E+02 -0.23964464939E+02  0.30000000000E+02  0.47000000000E+01 0. -1.
         -5    1    1    2    0  501  0.64438010962E+01 -0.16189250990E+02  0.23964464939E+02  0.30000000000E+02  0.47000000000E+01 0.  1.
</event>
<event>
 4    1  0.7509957E-002  0.6000000E+02  0.7546771E-02  0.1259629E+00
         11   -1    0    0    0    0  0.00000000000E+00  0.00000000000E+00  0.30000000000E+02  0.30000000000E+02  0.00000000000E+00 0.  1.
        -11   -1    0    0    0    0 -0.00000000000E+00 -0.00000000000E+00 -0.30000000000E+02  0.30000000000E+02  0.00000000000E+00 0. -1.
          5    1    1    2  501    0  0.17385069995E+02  0.18899695211E+02 -0.14780759865E+02  0.30000000000E+02  0.47000000000E+01 0. -1.
         -5    1    1    2    0  501 -0.17385069995E+02 -0.18899695211E+02  0.14780759865E+02  0.30000000000E+02  0.47000000000E+01 0.  1.
</event>
<event>
 4    1  0.7509957E-002  0.6000000E+02  0.7546771E-02  0.1259629E+00
         11   -1    0    0    0    0  0.00000000000E+00  0.00000000000E+00  0.30000000000E+02  0.30000000000E+02  0.00000000000E+00 0. -1.
        -11   -1    0    0    0    0 -0.00000000000E+00 -0.00000000000E+00 -0.30000000000E+02  0.30000000000E+02  0.00000000000E+00 0.  1.
          5    1    1    2  501    0  0.26047457887E+02  0.51267343972E+01 -0.13158895549E+02  0.30000000000E+02  0.47000000000E+01 0.  1.
         -5    1    1    2    0  501 -0.26047457887E+02 -0.51267343972E+01  0.13158895549E+02  0.30000000000E+02  0.47000000000E+01 0. -1.
</event>
<event>
 4    1  0.7509957E-002  0.6000000E+02  0.7546771E-02  0.1259629E+00
         11   -1    0    0    0    0  0.00000000000E+00  0.00000000000E+00  0.30000000000E+02  0.30000000000E+02  0.00000000000E+00 0.  1.
        -11   -1    0    0    0    0 -0.00000000000E+00 -0.00000000000E+00 -0.30000000000E+02  0.30000000000E+02  0.00000000000E+00 0. -1.
          5    1    1    2  501    0  0.10866090664E+02  0.26455636699E+02 -0.77419222764E+01  0.30000000000E+02  0.47000000000E+01 0. -1.
         -5    1    1    2    0  501 -0.10866090664E+02 -0.26455636699E+02  0.77419222764E+01  0.30000000000E+02  0.47000000000E+01 0.  1.
</event>
<event>
 4    1  0.7509957E-002  0.6000000E+02  0.7546771E-02  0.1259629E+00
         11   -1    0    0    0    0  0.00000000000E+00  0.00000000000E+00  0.30000000000E+02  0.30000000000E+02  0.00000000000E+00 0.  1.
        -11   -1    0    0    0    0 -0.00000000000E+00 -0.00000000000E+00 -0.30000000000E+02  0.30000000000E+02  0.00000000000E+00 0. -1.
          5    1    1    2  501    0 -0.20980857831E+02  0.89024906192E+01 -0.18933020505E+02  0.30000000000E+02  0.47000000000E+01 0. -1.
         -5    1    1    2    0  501  0.20980857831E+02 -0.89024906192E+01  0.18933020505E+02  0.30000000000E+02  0.47000000000E+01 0.  1.
</event>
<event>
 4    1  0.7509957E-002  0.6000000E+02  0.7546771E-02  0.1259629E+00
         11   -1    0    0    0    0  0.00000000000E+00  0.00000000000E+00  0.30000000000E+02  0.30000000000E+02  0.00000000000E+00 0. -1.
        -11   -1    0    0    0    0 -0.00000000000E+00 -0.00000000000E+00 -0.30000000000E+02  0.30000000000E+02  0.00000000000E+00 0.  1.
          5    1    1    2  501    0 -0.15712641368E+02 -0.78516366688E+01 -0.23861573772E+02  0.30000000000E+02  0.47000000000E+01 0.  1.
         -5    1    1    2    0  501  0.15712641368E+02  0.78516366688E+01  0.23861573772E+02  0.30000000000E+02  0.47000000000E+01 0. -1.
</event>
<event>
 4    1  0.7509957E-002  0.6000000E+02  0.7546771E-02  0.1259629E+00
         11   -1    0    0    0    0  0.00000000000E+00  0.00000000000E+00  0.30000000000E+02  0.30000000000E+02  0.00000000000E+00 0. -1.
        -11   -1    0    0    0    0 -0.00000000000E+00 -0.00000000000E+00 -0.30000000000E+02  0.30000000000E+02  0.00000000000E+00 0.  1.
          5    1    1    2  501    0 -0.18992795569E+02 -0.22738373668E+02  0.38740086322E+00  0.30000000000E+02  0.47000000000E+01 0.  1.
         -5    1    1    2    0  501  0.18992795569E+02  0.22738373668E+02 -0.38740086322E+00  0.30000000000E+02  0.47000000000E+01 0. -1.
</event>
<event>
 4    1  0.7509957E-002  0.6000000E+02  0.7546771E-02  0.1259629E+00
         11   -1    0    0    0    0  0.00000000000E+00  0.00000000000E+00  0.30000000000E+02  0.30000000000E+02  0.00000000000E+00 0.  1.
        -11   -1    0    0    0    0 -0.00000000000E+00 -0.00000000000E+00 -0.30000000000E+02  0.30000000000E+02  0.00000000000E+00 0. -1.
          5    1    1    2  501    0 -0.29350963980E+02 -0.23468728785E+01  0.33050115214E+01  0.30000000000E+02  0.47000000000E+01 0. -1.
         -5    1    1    2    0  501  0.29350963980E+02  0.23468728785E+01 -0.33050115214E+01  0.30000000000E+02  0.47000000000E+01 0.  1.
</event>
<event>
 4    1  0.7509957E-002  0.6000000E+02  0.7546771E-02  0.1259629E+00
         11   -1    0    0    0    0  0.00000000000E+00  0.00000000000E+00  0.30000000000E+02  0.30000000000E+02  0.00000000000E+00 0.  1.
        -11   -1    0    0    0    0 -0.00000000000E+00 -0.00000000000E+00 -0.30000000000E+02  0.30000000000E+02  0.00000000000E+00 0. -1.
          5    1    1    2  501    0  0.21854914654E+02 -0.19292239595E+02 -0.52992638045E+01  0.30000000000E+02  0.47000000000E+01 0. -1.
         -5    1    1    2    0  501 -0.21854914654E+02  0.19292239595E+02  0.52992638045E+01  0.30000000000E+02  0.47000000000E+01 0.  1.
</event>
<event>
 4    1  0.7509957E-002  0.6000000E+02  0.7546771E-02  0.1259629E+00
         11   -1    0    0    0    0  0.00000000000E+00  0.00000000000E+00  0.30000000000E+02  0.30000000000E+02  0.00000000000E+00 0. -1.
        -11   -1    0    0    0    0 -0.00000000000E+00 -0.00000000000E+00 -0.30000000000E+02  0.30000000000E+02  0.00000000000E+00 0.  1.
          5    1    1    2  501    0 -0.42406477966E+01  0.77721048010E+01 -0.28275807561E+02  0.30000000000E+02  0.47000000000E+01 0.  1.
         -5    1    1    2    0  501  0.42406477966E+01 -0.77721048010E+01  0.28275807561E+02  0.30000000000E+02  0.47000000000E+01 0. -1.
</event>
<event>
 4    1  0.7509957E-002  0.6000000E+02  0.7546771E-02  0.1259629E+00
         11   -1    0    0    0    0  0.00000000000E+00  0.00000000000E+00  0.30000000000E+02  0.30000000000E+02  0.00000000000E+00 0. -1.
        -11   -1    0    0    0    0 -0.00000000000E+00 -0.00000000000E+00 -0.30000000000E+02  0.30000000000E+02  0.00000000000E+00 0.  1.
          5    1    1    2  501    0 -0.26579396905E+02 -0.11976960668E+02 -0.52913205673E+01  0.30000000000E+02  0.47000000000E+01 0.  1.
         -5    1    1    2    0  501  0.26579396905E+02  0.11976960668E+02  0.52913205673E+01  0.30000000000E+02  0.47000000000E+01 0. -1.
</event>
<event>
 4    1  0.7509957E-002  0.6000000E+02  0.7546771E-02  0.1259629E+00
         11   -1    0    0    0    0  0.00000000000E+00  0.00000000000E+00  0.30000000000E+02  0.30000000000E+02  0.00000000000E+00 0.  1.
        -11   -1    0    0    0    0 -0.00000000000E+00 -0.00000000000E+00 -0.30000000000E+02  0.30000000000E+02  0.00000000000E+00 0. -1.
          5    1    1    2  501    0 -0.28345026662E+02 -0.84184903583E+01 -0.18969669534E+01  0.30000000000E+02  0.47000000000E+01 0. -1.
         -5    1    1    2    0  501  0.28345026662E+02  0.84184903583E+01  0.18969669534E+01  0.30000000000E+02  0.47000000000E+01 0.  1.
</event>
<event>
 4    1  0.7509957E-002  0.6000000E+02  0.7546771E-02  0.1259629E+00
         11   -1    0    0    0    0  0.00000000000E+00  0.00000000000E+00  0.30000000000E+02  0.30000000000E+02  0.00000000000E+00 0.  1.
        -11   -1    0    0    0    0 -0.00000000000E+00 -0.00000000000E+00 -0.30000000000E+02  0.30000000000E+02  0.00000000000E+00 0. -1.
          5    1    1    2  501    0  0.13735747315E+02 -0.17451010421E+02 -0.19613808426E+02  0.30000000000E+02  0.47000000000E+01 0. -1.
         -5    1    1    2    0  501 -0.13735747315E+02  0.17451010421E+02  0.19613808426E+02  0.30000000000E+02  0.47000000000E+01 0.  1.
</event>
<event>
 4    1  0.7509957E-002  0.6000000E+02  0.7546771E-02  0.1259629E+00
         11   -1    0    0    0    0  0.00000000000E+00  0.00000000000E+00  0.30000000000E+02  0.30000000000E+02  0.00000000000E+00 0.  1.
        -11   -1    0    0    0    0 -0.00000000000E+00 -0.00000000000E+00 -0.30000000000E+02  0.30000000000E+02  0.00000000000E+00 0. -1.
          5    1    1    2  501    0  0.20992958310E+02  0.27633919156E+00 -0.20907638270E+02  0.30000000000E+02  0.47000000000E+01 0. -1.
         -5    1    1    2    0  501 -0.20992958310E+02 -0.27633919156E+00  0.20907638270E+02  0.30000000000E+02  0.47000000000E+01 0.  1.
</event>
<event>
 4    1  0.7509957E-002  0.6000000E+02  0.7546771E-02  0.1259629E+00
         11   -1    0    0    0    0  0.00000000000E+00  0.00000000000E+00  0.30000000000E+02  0.30000000000E+02  0.00000000000E+00 0. -1.
        -11   -1    0    0    0    0 -0.00000000000E+00 -0.00000000000E+00 -0.30000000000E+02  0.30000000000E+02  0.00000000000E+00 0.  1.
          5    1    1    2  501    0 -0.28058981236E+02  0.91552533406E+01  0.26047856421E+01  0.30000000000E+02  0.47000000000E+01 0.  1.
         -5    1    1    2    0  501  0.28058981236E+02 -0.91552533406E+01 -0.26047856421E+01  0.30000000000E+02  0.47000000000E+01 0. -1.
</event>
<event>
 4    1  0.7509957E-002  0.6000000E+02  0.7546771E-02  0.1259629E+00
         11   -1    0    0    0    0  0.00000000000E+00  0.00000000000E+00  0.30000000000E+02  0.30000000000E+02  0.00000000000E+00 0.  1.
        -11   -1    0    0    0    0 -0.00000000000E+00 -0.00000000000E+00 -0.30000000000E+02  0.30000000000E+02  0.00000000000E+00 0. -1.
          5    1    1    2  501    0  0.38022473014E+01  0.28711015415E+02 -0.62554383800E+01  0.30000000000E+02  0.47000000000E+01 0. -1.
         -5    1    1    2    0  501 -0.38022473014E+01 -0.28711015415E+02  0.62554383800E+01  0.30000000000E+02  0.47000000000E+01 0.  1.
</event>
<event>
 4    1  0.7509957E-002  0.6000000E+02  0.7546771E-02  0.1259629E+00
         11   -1    0    0    0    0  0.00000000000E+00  0.00000000000E+00  0.30000000000E+02  0.30000000000E+02  0.00000000000E+00 0.  1.
        -11   -1    0    0    0    0 -0.00000000000E+00 -0.00000000000E+00 -0.30000000000E+02  0.30000000000E+02  0.00000000000E+00 0. -1.
          5    1    1    2  501    0 -0.56210955679E+01 -0.44524852917E+01 -0.28748715786E+02  0.30000000000E+02  0.47000000000E+01 0. -1.
         -5    1    1    2    0  501  0.56210955679E+01  0.44524852917E+01  0.28748715786E+02  0.30000000000E+02  0.47000000000E+01 0.  1.
</event>
<event>
 4    1  0.7509957E-002  0.6000000E+02  0.7546771E-02  0.1259629E+00
         11   -1    0    0    0    0  0.00000000000E+00  0.00000000000E+00  0.30000000000E+02  0.30000000000E+02  0.00000000000E+00 0. -1.
        -11   -1    0    0    0    0 -0.00000000000E+00 -0.00000000000E+00 -0.30000000000E+02  0.30000000000E+02  0.00000000000E+00 0.  1.
          5    1    1    2  501    0  0.56482357411E+01  0.16912699811E+01 -0.29036994315E+02  0.30000000000E+02  0.47000000000E+01 0.  1.
         -5    1    1    2    0  501 -0.56482357411E+01 -0.16912699811E+01  0.29036994315E+02  0.30000000000E+02  0.47000000000E+01 0. -1.
</event>
<event>
 4    1  0.7509957E-002  0.6000000E+02  0.7546771E-02  0.1259629E+00
         11   -1    0    0    0    0  0.00000000000E+00  0.00000000000E+00  0.30000000000E+02  0.30000000000E+02  0.00000000000E+00 0. -1.
        -11   -1    0    0    0    0 -0.00000000000E+00 -0.00000000000E+00 -0.30000000000E+02  0.30000000000E+02  0.00000000000E+00 0.  1.
          5    1    1    2  501    0 -0.29303246572E+02 -0.30030997352E+01 -0.31954862409E+01  0.30000000000E+02  0.47000000000E+01 0.  1.
         -5    1    1    2    0  501  0.29303246572E+02  0.30030997352E+01  0.31954862409E+01  0.30000000000E+02  0.47000000000E+01 0. -1.
</event>
<event>
 4    1  0.7509957E-002  0.6000000E+02  0.7546771E-02  0.1259629E+00
         11   -1    0    0    0    0  0.00000000000E+00  0.00000000000E+00  0.30000000000E+02  0.30000000000E+02  0.00000000000E+00 0.  1.
        -11   -1    0    0    0    0 -0.00000000000E+00 -0.00000000000E+00 -0.30000000000E+02  0.30000000000E+02  0.00000000000E+00 0. -1.
          5    1    1    2  501    0  0.77425823283E+01 -0.12707470210E+02 -0.25621916785E+02  0.30000000000E+02  0.47000000000E+01 0. -1.
         -5    1    1    2    0  501 -0.77425823283E+01  0.12707470210E+02  0.25621916785E+02  0.30000000000E+02  0.47000000000E+01 0.  1.
</event>
<event>
 4    1  0.7509957E-002  0.6000000E+02  0.7546771E-02  0.1259629E+00
         11   -1    0    0    0    0  0.00000000000E+00  0.00000000000E+00  0.30000000000E+02  0.30000000000E+02  0.00000000000E+00 0.  1.
        -11   -1    0    0    0    0 -0.00000000000E+00 -0.00000000000E+00 -0.30000000000E+02  0.30000000000E+02  0.00000000000E+00 0. -1.
          5    1    1    2  501    0 -0.23644875487E+02  0.38436187716E+01 -0.17437214742E+02  0.30000000000E+02  0.47000000000E+01 0. -1.
         -5    1    1    2    0  501  0.23644875487E+02 -0.38436187716E+01  0.17437214742E+02  0.30000000000E+02  0.47000000000E+01 0.  1.
</event>
<event>
 4    1  0.7509957E-002  0.6000000E+02  0.7546771E-02  0.1259629E+00
         11   -1    0    0    0    0  0.00000000000E+00  0.00000000000E+00  0.30000000000E+02  0.30000000000E+02  0.00000000000E+00 0.  1.
        -11   -1    0    0    0    0 -0.00000000000E+00 -0.00000000000E+00 -0.30000000000E+02  0.30000000000E+02  0.00000000000E+00 0. -1.
          5    1    1    2  501    0  0.16453595945E+02  0.21909276138E+02  0.11277091806E+02  0.30000000000E+02  0.47000000000E+01 0.  1.
         -5    1    1    2    0  501 -0.16453595945E+02 -0.21909276138E+02 -0.11277091806E+02  0.30000000000E+02  0.47000000000E+01 0. -1.
</event>
<event>
 4    1  0.7509957E-002  0.6000000E+02  0.7546771E-02  0.1259629E+00
         11   -1    0    0    0    0  0.00000000000E+00  0.00000000000E+00  0.30000000000E+02  0.30000000000E+02  0.00000000000E+00 0.  1.
        -11   -1    0    0    0    0 -0.00000000000E+00 -0.00000000000E+00 -0.30000000000E+02  0.30000000000E+02  0.00000000000E+00 0. -1.
          5    1    1    2  501    0  0.12042146162E+02  0.10765087948E+01 -0.27050653313E+02  0.30000000000E+02  0.47000000000E+01 0. -1.
         -5    1    1    2    0  501 -0.12042146162E+02 -0.10765087948E+01  0.27050653313E+02  0.30000000000E+02  0.47000000000E+01 0.  1.
</event>
<event>
 4    1  0.7509957E-002  0.6000000E+02  0.7546771E-02  0.1259629E+00
         11   -1    0    0    0    0  0.00000000000E+00  0.00000000000E+00  0.30000000000E+02  0.30000000000E+02  0.00000000000E+00 0.  1.
        -11   -1    0    0    0    0 -0.00000000000E+00 -0.00000000000E+00 -0.30000000000E+02  0.30000000000E+02  0.00000000000E+00 0. -1.
          5    1    1    2  501    0  0.23061762801E+02  0.27485183197E+01 -0.18398661461E+02  0.30000000000E+02  0.47000000000E+01 0. -1.
         -5    1    1    2    0  501 -0.23061762801E+02 -0.27485183197E+01  0.18398661461E+02  0.30000000000E+02  0.47000000000E+01 0.  1.
</event>
<event>
 4    1  0.7509957E-002  0.6000000E+02  0.7546771E-02  0.1259629E+00
         11   -1    0    0    0    0  0.00000000000E+00  0.00000000000E+00  0.30000000000E+02  0.30000000000E+02  0.00000000000E+00 0.  1.
        -11   -1    0    0    0    0 -0.00000000000E+00 -0.00000000000E+00 -0.30000000000E+02  0.30000000000E+02  0.00000000000E+00 0. -1.
          5    1    1    2  501    0 -0.13395077203E+01  0.28745807756E+02 -0.70565044816E+01  0.30000000000E+02  0.47000000000E+01 0. -1.
         -5    1    1    2    0  501  0.13395077203E+01 -0.28745807756E+02  0.70565044816E+01  0.30000000000E+02  0.47000000000E+01 0.  1.
</event>
<event>
 4    1  0.7509957E-002  0.6000000E+02  0.7546771E-02  0.1259629E+00
         11   -1    0    0    0    0  0.00000000000E+00  0.00000000000E+00  0.30000000000E+02  0.30000000000E+02  0.00000000000E+00 0.  1.
        -11   -1    0    0    0    0 -0.00000000000E+00 -0.00000000000E+00 -0.30000000000E+02  0.30000000000E+02  0.00000000000E+00 0. -1.
          5    1    1    2  501    0 -0.12231479678E+02 -0.24860338135E+02 -0.10500690105E+02  0.30000000000E+02  0.47000000000E+01 0. -1.
         -5    1    1    2    0  501  0.12231479678E+02  0.24860338135E+02  0.10500690105E+02  0.30000000000E+02  0.47000000000E+01 0.  1.
</event>
<event>
 4    1  0.7509957E-002  0.6000000E+02  0.7546771E-02  0.1259629E+00
         11   -1    0    0    0    0  0.00000000000E+00  0.00000000000E+00  0.30000000000E+02  0.30000000000E+02  0.00000000000E+00 0.  1.
        -11   -1    0    0    0    0 -0.00000000000E+00 -0.00000000000E+00 -0.30000000000E+02  0.30000000000E+02  0.00000000000E+00 0. -1.
          5    1    1    2  501    0  0.22106013165E+00  0.20399908379E+02 -0.21487318831E+02  0.30000000000E+02  0.47000000000E+01 0. -1.
         -5    1    1    2    0  501 -0.22106013165E+00 -0.20399908379E+02  0.21487318831E+02  0.30000000000E+02  0.47000000000E+01 0.  1.
</event>
<event>
 4    1  0.7509957E-002  0.6000000E+02  0.7546771E-02  0.1259629E+00
         11   -1    0    0    0    0  0.00000000000E+00  0.00000000000E+00  0.30000000000E+02  0.30000000000E+02  0.00000000000E+00 0. -1.
        -11   -1    0    0    0    0 -0.00000000000E+00 -0.00000000000E+00 -0.30000000000E+02  0.30000000000E+02  0.00000000000E+00 0.  1.
          5    1    1    2  501    0 -0.48704230837E+01 -0.13278544674E+02 -0.26035921922E+02  0.30000000000E+02  0.47000000000E+01 0.  1.
         -5    1    1    2    0  501  0.48704230837E+01  0.13278544674E+02  0.26035921922E+02  0.30000000000E+02  0.47000000000E+01 0. -1.
</event>
<event>
 4    1  0.7509957E-002  0.6000000E+02  0.7546771E-02  0.1259629E+00
         11   -1    0    0    0    0  0.00000000000E+00  0.00000000000E+00  0.30000000000E+02  0.30000000000E+02  0.00000000000E+00 0.  1.
        -11   -1    0    0    0    0 -0.00000000000E+00 -0.00000000000E+00 -0.30000000000E+02  0.30000000000E+02  0.00000000000E+00 0. -1.
          5    1    1    2  501    0 -0.78864724109E+01  0.14996826500E+02 -0.24306557712E+02  0.30000000000E+02  0.47000000000E+01 0. -1.
         -5    1    1    2    0  501  0.78864724109E+01 -0.14996826500E+02  0.24306557712E+02  0.30000000000E+02  0.47000000000E+01 0.  1.
</event>
<event>
 4    1  0.7509957E-002  0.6000000E+02  0.7546771E-02  0.1259629E+00
         11   -1    0    0    0    0  0.00000000000E+00  0.00000000000E+00  0.30000000000E+02  0.30000000000E+02  0.00000000000E+00 0.  1.
        -11   -1    0    0    0    0 -0.00000000000E+00 -0.00000000000E+00 -0.30000000000E+02  0.30000000000E+02  0.00000000000E+00 0. -1.
          5    1    1    2  501    0  0.23167863940E+02  0.16856231153E+02  0.75516588743E+01  0.30000000000E+02  0.47000000000E+01 0.  1.
         -5    1    1    2    0  501 -0.23167863940E+02 -0.16856231153E+02 -0.75516588743E+01  0.30000000000E+02  0.47000000000E+01 0. -1.
</event>
<event>
 4    1  0.7509957E-002  0.6000000E+02  0.7546771E-02  0.1259629E+00
         11   -1    0    0    0    0  0.00000000000E+00  0.00000000000E+00  0.30000000000E+02  0.30000000000E+02  0.00000000000E+00 0. -1.
        -11   -1    0    0    0    0 -0.00000000000E+00 -0.00000000000E+00 -0.30000000000E+02  0.30000000000E+02  0.00000000000E+00 0.  1.
          5    1    1    2  501    0 -0.15665524973E+01  0.23380999061E+02 -0.18132423892E+02  0.30000000000E+02  0.47000000000E+01 0.  1.
         -5    1    1    2    0  501  0.15665524973E+01 -0.23380999061E+02  0.18132423892E+02  0.30000000000E+02  0.47000000000E+01 0. -1.
</event>
<event>
 4    1  0.7509957E-002  0.6000000E+02  0.7546771E-02  0.1259629E+00
         11   -1    0    0    0    0  0.00000000000E+00  0.00000000000E+00  0.30000000000E+02  0.30000000000E+02  0.00000000000E+00 0.  1.
        -11   -1    0    0    0    0 -0.00000000000E+00 -0.00000000000E+00 -0.30000000000E+02  0.30000000000E+02  0.00000000000E+00 0. -1.
          5    1    1    2  501    0  0.78425828319E+01  0.14117318659E+02 -0.24841602372E+02  0.30000000000E+02  0.47000000000E+01 0. -1.
         -5    1    1    2    0  501 -0.78425828319E+01 -0.14117318659E+02  0.24841602372E+02  0.30000000000E+02  0.47000000000E+01 0.  1.
</event>
<event>
 4    1  0.7509957E-002  0.6000000E+02  0.7546771E-02  0.1259629E+00
         11   -1    0    0    0    0  0.00000000000E+00  0.00000000000E+00  0.30000000000E+02  0.30000000000E+02  0.00000000000E+00 0.  1.
        -11   -1    0    0    0    0 -0.00000000000E+00 -0.00000000000E+00 -0.30000000000E+02  0.30000000000E+02  0.00000000000E+00 0. -1.
          5    1    1    2  501    0  0.10151232096E+02 -0.19916148127E+02 -0.19447609897E+02  0.30000000000E+02  0.47000000000E+01 0. -1.
         -5    1    1    2    0  501 -0.10151232096E+02  0.19916148127E+02  0.19447609897E+02  0.30000000000E+02  0.47000000000E+01 0.  1.
</event>
<event>
 4    1  0.7509957E-002  0.6000000E+02  0.7546771E-02  0.1259629E+00
         11   -1    0    0    0    0  0.00000000000E+00  0.00000000000E+00  0.30000000000E+02  0.30000000000E+02  0.00000000000E+00 0.  1.
        -11   -1    0    0    0    0 -0.00000000000E+00 -0.00000000000E+00 -0.30000000000E+02  0.30000000000E+02  0.00000000000E+00 0. -1.
          5    1    1    2  501    0  0.16941140183E+02  0.20437648168E+02  0.13160938668E+02  0.30000000000E+02  0.47000000000E+01 0.  1.
         -5    1    1    2    0  501 -0.16941140183E+02 -0.20437648168E+02 -0.13160938668E+02  0.30000000000E+02  0.47000000000E+01 0. -1.
</event>
<event>
 4    1  0.7509957E-002  0.6000000E+02  0.7546771E-02  0.1259629E+00
         11   -1    0    0    0    0  0.00000000000E+00  0.00000000000E+00  0.30000000000E+02  0.30000000000E+02  0.00000000000E+00 0.  1.
        -11   -1    0    0    0    0 -0.00000000000E+00 -0.00000000000E+00 -0.30000000000E+02  0.30000000000E+02  0.00000000000E+00 0. -1.
          5    1    1    2  501    0  0.48477630161E+01  0.12502296658E+02 -0.26421615621E+02  0.30000000000E+02  0.47000000000E+01 0. -1.
         -5    1    1    2    0  501 -0.48477630161E+01 -0.12502296658E+02  0.26421615621E+02  0.30000000000E+02  0.47000000000E+01 0.  1.
</event>
<event>
 4    1  0.7509957E-002  0.6000000E+02  0.7546771E-02  0.1259629E+00
         11   -1    0    0    0    0  0.00000000000E+00  0.00000000000E+00  0.30000000000E+02  0.30000000000E+02  0.00000000000E+00 0.  1.
        -11   -1    0    0    0    0 -0.00000000000E+00 -0.00000000000E+00 -0.30000000000E+02  0.30000000000E+02  0.00000000000E+00 0. -1.
          5    1    1    2  501    0 -0.24983347989E+02 -0.45790800699E+01 -0.15256944287E+02  0.30000000000E+02  0.47000000000E+01 0. -1.
         -5    1    1    2    0  501  0.24983347989E+02  0.45790800699E+01  0.15256944287E+02  0.30000000000E+02  0.47000000000E+01 0.  1.
</event>
<event>
 4    1  0.7509957E-002  0.6000000E+02  0.7546771E-02  0.1259629E+00
         11   -1    0    0    0    0  0.00000000000E+00  0.00000000000E+00  0.30000000000E+02  0.30000000000E+02  0.00000000000E+00 0.  1.
        -11   -1    0    0    0    0 -0.00000000000E+00 -0.00000000000E+00 -0.30000000000E+02  0.30000000000E+02  0.00000000000E+00 0. -1.
          5    1    1    2  501    0  0.10989319802E+02  0.19439050099E+01 -0.27447515072E+02  0.30000000000E+02  0.47000000000E+01 0. -1.
         -5    1    1    2    0  501 -0.10989319802E+02 -0.19439050099E+01  0.27447515072E+02  0.30000000000E+02  0.47000000000E+01 0.  1.
</event>
<event>
 4    1  0.7509957E-002  0.6000000E+02  0.7546771E-02  0.1259629E+00
         11   -1    0    0    0    0  0.00000000000E+00  0.00000000000E+00  0.30000000000E+02  0.30000000000E+02  0.00000000000E+00 0.  1.
        -11   -1    0    0    0    0 -0.00000000000E+00 -0.00000000000E+00 -0.30000000000E+02  0.30000000000E+02  0.00000000000E+00 0. -1.
          5    1    1    2  501    0  0.26412684828E+02  0.74764801810E+01 -0.11152682379E+02  0.30000000000E+02  0.47000000000E+01 0. -1.
         -5    1    1    2    0  501 -0.26412684828E+02 -0.74764801810E+01  0.11152682379E+02  0.30000000000E+02  0.47000000000E+01 0.  1.
</event>
<event>
 4    1  0.7509957E-002  0.6000000E+02  0.7546771E-02  0.1259629E+00
         11   -1    0    0    0    0  0.00000000000E+00  0.00000000000E+00  0.30000000000E+02  0.30000000000E+02  0.00000000000E+00 0.  1.
        -11   -1    0    0    0    0 -0.00000000000E+00 -0.00000000000E+00 -0.30000000000E+02  0.30000000000E+02  0.00000000000E+00 0. -1.
          5    1    1    2  501    0  0.25971189139E+02  0.13618180621E+02 -0.42370380338E+01  0.30000000000E+02  0.47000000000E+01 0. -1.
         -5    1    1    2    0  501 -0.25971189139E+02 -0.13618180621E+02  0.42370380338E+01  0.30000000000E+02  0.47000000000E+01 0.  1.
</event>
<event>
 4    1  0.7509957E-002  0.6000000E+02  0.7546771E-02  0.1259629E+00
         11   -1    0    0    0    0  0.00000000000E+00  0.00000000000E+00  0.30000000000E+02  0.30000000000E+02  0.00000000000E+00 0.  1.
        -11   -1    0    0    0    0 -0.00000000000E+00 -0.00000000000E+00 -0.30000000000E+02  0.30000000000E+02  0.00000000000E+00 0. -1.
          5    1    1    2  501    0 -0.37660879434E+01  0.29326853144E+02  0.19137048483E+01  0.30000000000E+02  0.47000000000E+01 0. -1.
         -5    1    1    2    0  501  0.37660879434E+01 -0.29326853144E+02 -0.19137048483E+01  0.30000000000E+02  0.47000000000E+01 0.  1.
</event>
<event>
 4    1  0.7509957E-002  0.6000000E+02  0.7546771E-02  0.1259629E+00
         11   -1    0    0    0    0  0.00000000000E+00  0.00000000000E+00  0.30000000000E+02  0.30000000000E+02  0.00000000000E+00 0.  1.
        -11   -1    0    0    0    0 -0.00000000000E+00 -0.00000000000E+00 -0.30000000000E+02  0.30000000000E+02  0.00000000000E+00 0. -1.
          5    1    1    2  501    0 -0.18619532530E+02  0.54343994469E+00  0.23041868010E+02  0.30000000000E+02  0.47000000000E+01 0.  1.
         -5    1    1    2    0  501  0.18619532530E+02 -0.54343994469E+00 -0.23041868010E+02  0.30000000000E+02  0.47000000000E+01 0. -1.
</event>
<event>
 4    1  0.7509957E-002  0.6000000E+02  0.7546771E-02  0.1259629E+00
         11   -1    0    0    0    0  0.00000000000E+00  0.00000000000E+00  0.30000000000E+02  0.30000000000E+02  0.00000000000E+00 0.  1.
        -11   -1    0    0    0    0 -0.00000000000E+00 -0.00000000000E+00 -0.30000000000E+02  0.30000000000E+02  0.00000000000E+00 0. -1.
          5    1    1    2  501    0 -0.33533560462E+01  0.13047008202E+02 -0.26390160670E+02  0.30000000000E+02  0.47000000000E+01 0. -1.
         -5    1    1    2    0  501  0.33533560462E+01 -0.13047008202E+02  0.26390160670E+02  0.30000000000E+02  0.47000000000E+01 0.  1.
</event>
<event>
 4    1  0.7509957E-002  0.6000000E+02  0.7546771E-02  0.1259629E+00
         11   -1    0    0    0    0  0.00000000000E+00  0.00000000000E+00  0.30000000000E+02  0.30000000000E+02  0.00000000000E+00 0. -1.
        -11   -1    0    0    0    0 -0.00000000000E+00 -0.00000000000E+00 -0.30000000000E+02  0.30000000000E+02  0.00000000000E+00 0.  1.
          5    1    1    2  501    0 -0.26914990097E+02  0.21710420123E+01 -0.12197536008E+02  0.30000000000E+02  0.47000000000E+01 0.  1.
         -5    1    1    2    0  501  0.26914990097E+02 -0.21710420123E+01  0.12197536008E+02  0.30000000000E+02  0.47000000000E+01 0. -1.
</event>
<event>
 4    1  0.7509957E-002  0.6000000E+02  0.7546771E-02  0.1259629E+00
         11   -1    0    0    0    0  0.00000000000E+00  0.00000000000E+00  0.30000000000E+02  0.30000000000E+02  0.00000000000E+00 0. -1.
        -11   -1    0    0    0    0 -0.00000000000E+00 -0.00000000000E+00 -0.30000000000E+02  0.30000000000E+02  0.00000000000E+00 0.  1.
          5    1    1    2  501    0 -0.40818805522E+01 -0.17079874763E+02  0.23864746578E+02  0.30000000000E+02  0.47000000000E+01 0. -1.
         -5    1    1    2    0  501  0.40818805522E+01  0.17079874763E+02 -0.23864746578E+02  0.30000000000E+02  0.47000000000E+01 0.  1.
</event>
<event>
 4    1  0.7509957E-002  0.6000000E+02  0.7546771E-02  0.1259629E+00
         11   -1    0    0    0    0  0.00000000000E+00  0.00000000000E+00  0.30000000000E+02  0.30000000000E+02  0.00000000000E+00 0.  1.
        -11   -1    0    0    0    0 -0.00000000000E+00 -0.00000000000E+00 -0.30000000000E+02  0.30000000000E+02  0.00000000000E+00 0. -1.
          5    1    1    2  501    0  0.18147965093E+02  0.22300855648E+02 -0.71577370963E+01  0.30000000000E+02  0.47000000000E+01 0. -1.
         -5    1    1    2    0  501 -0.18147965093E+02 -0.22300855648E+02  0.71577370963E+01  0.30000000000E+02  0.47000000000E+01 0.  1.
</event>
<event>
 4    1  0.7509957E-002  0.6000000E+02  0.7546771E-02  0.1259629E+00
         11   -1    0    0    0    0  0.00000000000E+00  0.00000000000E+00  0.30000000000E+02  0.30000000000E+02  0.00000000000E+00 0.  1.
        -11   -1    0    0    0    0 -0.00000000000E+00 -0.00000000000E+00 -0.30000000000E+02  0.30000000000E+02  0.00000000000E+00 0. -1.
          5    1    1    2  501    0 -0.17092569494E+02 -0.29247907664E+01 -0.24024980064E+02  0.30000000000E+02  0.47000000000E+01 0. -1.
         -5    1    1    2    0  501  0.17092569494E+02  0.29247907664E+01  0.24024980064E+02  0.30000000000E+02  0.47000000000E+01 0.  1.
</event>
<event>
 4    1  0.7509957E-002  0.6000000E+02  0.7546771E-02  0.1259629E+00
         11   -1    0    0    0    0  0.00000000000E+00  0.00000000000E+00  0.30000000000E+02  0.30000000000E+02  0.00000000000E+00 0. -1.
        -11   -1    0    0    0    0 -0.00000000000E+00 -0.00000000000E+00 -0.30000000000E+02  0.30000000000E+02  0.00000000000E+00 0.  1.
          5    1    1    2  501    0 -0.91426156831E+01  0.26384714618E+02 -0.99080478896E+01  0.30000000000E+02  0.47000000000E+01 0.  1.
         -5    1    1    2    0  501  0.91426156831E+01 -0.26384714618E+02  0.99080478896E+01  0.30000000000E+02  0.47000000000E+01 0. -1.
</event>
<event>
 4    1  0.7509957E-002  0.6000000E+02  0.7546771E-02  0.1259629E+00
         11   -1    0    0    0    0  0.00000000000E+00  0.00000000000E+00  0.30000000000E+02  0.30000000000E+02  0.00000000000E+00 0.  1.
        -11   -1    0    0    0    0 -0.00000000000E+00 -0.00000000000E+00 -0.30000000000E+02  0.30000000000E+02  0.00000000000E+00 0. -1.
          5    1    1    2  501    0 -0.50712906843E+01 -0.25885176973E+02  0.13496281854E+02  0.30000000000E+02  0.47000000000E+01 0.  1.
         -5    1    1    2    0  501  0.50712906843E+01  0.25885176973E+02 -0.13496281854E+02  0.30000000000E+02  0.47000000000E+01 0. -1.
</event>
<event>
 4    1  0.7509957E-002  0.6000000E+02  0.7546771E-02  0.1259629E+00
         11   -1    0    0    0    0  0.00000000000E+00  0.00000000000E+00  0.30000000000E+02  0.30000000000E+02  0.00000000000E+00 0.  1.
        -11   -1    0    0    0    0 -0.00000000000E+00 -0.00000000000E+00 -0.30000000000E+02  0.30000000000E+02  0.00000000000E+00 0. -1.
          5    1    1    2  501    0  0.59584305655E+01 -0.27505019984E+02 -0.92671991920E+01  0.30000000000E+02  0.47000000000E+01 0. -1.
         -5    1    1    2    0  501 -0.59584305655E+01  0.27505019984E+02  0.92671991920E+01  0.30000000000E+02  0.47000000000E+01 0.  1.
</event>
<event>
 4    1  0.7509957E-002  0.6000000E+02  0.7546771E-02  0.1259629E+00
         11   -1    0    0    0    0  0.00000000000E+00  0.00000000000E+00  0.30000000000E+02  0.30000000000E+02  0.00000000000E+00 0. -1.
        -11   -1    0    0    0    0 -0.00000000000E+00 -0.00000000000E+00 -0.30000000000E+02  0.30000000000E+02  0.00000000000E+00 0.  1.
          5    1    1    2  501    0  0.20819441252E+02 -0.20926677707E+02 -0.25563697148E+01  0.30000000000E+02  0.47000000000E+01 0.  1.
         -5    1    1    2    0  501 -0.20819441252E+02  0.20926677707E+02  0.25563697148E+01  0.30000000000E+02  0.47000000000E+01 0. -1.
</event>
<event>
 4    1  0.7509957E-002  0.6000000E+02  0.7546771E-02  0.1259629E+00
         11   -1    0    0    0    0  0.00000000000E+00  0.00000000000E+00  0.30000000000E+02  0.30000000000E+02  0.00000000000E+00 0.  1.
        -11   -1    0    0    0    0 -0.00000000000E+00 -0.00000000000E+00 -0.30000000000E+02  0.30000000000E+02  0.00000000000E+00 0. -1.
          5    1    1    2  501    0 -0.14352273700E+02  0.21972047398E+02  0.13753231359E+02  0.30000000000E+02  0.47000000000E+01 0. -1.
         -5    1    1    2    0  501  0.14352273700E+02 -0.21972047398E+02 -0.13753231359E+02  0.30000000000E+02  0.47000000000E+01 0.  1.
</event>
<event>
 4    1  0.7509957E-002  0.6000000E+02  0.7546771E-02  0.1259629E+00
         11   -1    0    0    0    0  0.00000000000E+00  0.00000000000E+00  0.30000000000E+02  0.30000000000E+02  0.00000000000E+00 0.  1.
        -11   -1    0    0    0    0 -0.00000000000E+00 -0.00000000000E+00 -0.30000000000E+02  0.30000000000E+02  0.00000000000E+00 0. -1.
          5    1    1    2  501    0  0.52386845462E+01 -0.15111850975E+02 -0.24941895364E+02  0.30000000000E+02  0.47000000000E+01 0. -1.
         -5    1    1    2    0  501 -0.52386845462E+01  0.15111850975E+02  0.24941895364E+02  0.30000000000E+02  0.47000000000E+01 0.  1.
</event>
<event>
 4    1  0.7509957E-002  0.6000000E+02  0.7546771E-02  0.1259629E+00
         11   -1    0    0    0    0  0.00000000000E+00  0.00000000000E+00  0.30000000000E+02  0.30000000000E+02  0.00000000000E+00 0.  1.
        -11   -1    0    0    0    0 -0.00000000000E+00 -0.00000000000E+00 -0.30000000000E+02  0.30000000000E+02  0.00000000000E+00 0. -1.
          5    1    1    2  501    0 -0.48491453726E+01 -0.29202742250E+02  0.12631841745E+01  0.30000000000E+02  0.47000000000E+01 0. -1.
         -5    1    1    2    0  501  0.48491453726E+01  0.29202742250E+02 -0.12631841745E+01  0.30000000000E+02  0.47000000000E+01 0.  1.
</event>
<event>
 4    1  0.7509957E-002  0.6000000E+02  0.7546771E-02  0.1259629E+00
         11   -1    0    0    0    0  0.00000000000E+00  0.00000000000E+00  0.30000000000E+02  0.30000000000E+02  0.00000000000E+00 0. -1.
        -11   -1    0    0    0    0 -0.00000000000E+00 -0.00000000000E+00 -0.30000000000E+02  0.30000000000E+02  0.00000000000E+00 0.  1.
          5    1    1    2  501    0 -0.96990021938E+01  0.10297776729E+02 -0.26034499244E+02  0.30000000000E+02  0.47000000000E+01 0.  1.
         -5    1    1    2    0  501  0.96990021938E+01 -0.10297776729E+02  0.26034499244E+02  0.30000000000E+02  0.47000000000E+01 0. -1.
</event>
<event>
 4    1  0.7509957E-002  0.6000000E+02  0.7546771E-02  0.1259629E+00
         11   -1    0    0    0    0  0.00000000000E+00  0.00000000000E+00  0.30000000000E+02  0.30000000000E+02  0.00000000000E+00 0.  1.
        -11   -1    0    0    0    0 -0.00000000000E+00 -0.00000000000E+00 -0.30000000000E+02  0.30000000000E+02  0.00000000000E+00 0. -1.
          5    1    1    2  501    0 -0.98853501919E+01 -0.23173856984E+02 -0.15593659098E+02  0.30000000000E+02  0.47000000000E+01 0. -1.
         -5    1    1    2    0  501  0.98853501919E+01  0.23173856984E+02  0.15593659098E+02  0.30000000000E+02  0.47000000000E+01 0.  1.
</event>
<event>
 4    1  0.7509957E-002  0.6000000E+02  0.7546771E-02  0.1259629E+00
         11   -1    0    0    0    0  0.00000000000E+00  0.00000000000E+00  0.30000000000E+02  0.30000000000E+02  0.00000000000E+00 0.  1.
        -11   -1    0    0    0    0 -0.00000000000E+00 -0.00000000000E+00 -0.30000000000E+02  0.30000000000E+02  0.00000000000E+00 0. -1.
          5    1    1    2  501    0  0.16508202089E+02  0.11340604704E+02 -0.21835291359E+02  0.30000000000E+02  0.47000000000E+01 0. -1.
         -5    1    1    2    0  501 -0.16508202089E+02 -0.11340604704E+02  0.21835291359E+02  0.30000000000E+02  0.47000000000E+01 0.  1.
</event>
<event>
 4    1  0.7509957E-002  0.6000000E+02  0.7546771E-02  0.1259629E+00
         11   -1    0    0    0    0  0.00000000000E+00  0.00000000000E+00  0.30000000000E+02  0.30000000000E+02  0.00000000000E+00 0. -1.
        -11   -1    0    0    0    0 -0.00000000000E+00 -0.00000000000E+00 -0.30000000000E+02  0.30000000000E+02  0.00000000000E+00 0.  1.
          5    1    1    2  501    0 -0.20052664034E+02  0.21756522795E+02  0.15666464299E+01  0.30000000000E+02  0.47000000000E+01 0.  1.
         -5    1    1    2    0  501  0.20052664034E+02 -0.21756522795E+02 -0.15666464299E+01  0.30000000000E+02  0.47000000000E+01 0. -1.
</event>
<event>
 4    1  0.7509957E-002  0.6000000E+02  0.7546771E-02  0.1259629E+00
         11   -1    0    0    0    0  0.00000000000E+00  0.00000000000E+00  0.30000000000E+02  0.30000000000E+02  0.00000000000E+00 0.  1.
        -11   -1    0    0    0    0 -0.00000000000E+00 -0.00000000000E+00 -0.30000000000E+02  0.30000000000E+02  0.00000000000E+00 0. -1.
          5    1    1    2  501    0  0.17966340183E+02 -0.23551577139E+02  0.66620918310E+00  0.30000000000E+02  0.47000000000E+01 0. -1.
         -5    1    1    2    0  501 -0.17966340183E+02  0.23551577139E+02 -0.66620918310E+00  0.30000000000E+02  0.47000000000E+01 0.  1.
</event>
<event>
 4    1  0.7509957E-002  0.6000000E+02  0.7546771E-02  0.1259629E+00
         11   -1    0    0    0    0  0.00000000000E+00  0.00000000000E+00  0.30000000000E+02  0.30000000000E+02  0.00000000000E+00 0.  1.
        -11   -1    0    0    0    0 -0.00000000000E+00 -0.00000000000E+00 -0.30000000000E+02  0.30000000000E+02  0.00000000000E+00 0. -1.
          5    1    1    2  501    0 -0.21055663707E+02 -0.13153105786E+02  0.16172966149E+02  0.30000000000E+02  0.47000000000E+01 0.  1.
         -5    1    1    2    0  501  0.21055663707E+02  0.13153105786E+02 -0.16172966149E+02  0.30000000000E+02  0.47000000000E+01 0. -1.
</event>
<event>
 4    1  0.7509957E-002  0.6000000E+02  0.7546771E-02  0.1259629E+00
         11   -1    0    0    0    0  0.00000000000E+00  0.00000000000E+00  0.30000000000E+02  0.30000000000E+02  0.00000000000E+00 0.  1.
        -11   -1    0    0    0    0 -0.00000000000E+00 -0.00000000000E+00 -0.30000000000E+02  0.30000000000E+02  0.00000000000E+00 0. -1.
          5    1    1    2  501    0 -0.15970444177E+02  0.94696184304E+01 -0.23090717606E+02  0.30000000000E+02  0.47000000000E+01 0. -1.
         -5    1    1    2    0  501  0.15970444177E+02 -0.94696184304E+01  0.23090717606E+02  0.30000000000E+02  0.47000000000E+01 0.  1.
</event>
<event>
 4    1  0.7509957E-002  0.6000000E+02  0.7546771E-02  0.1259629E+00
         11   -1    0    0    0    0  0.00000000000E+00  0.00000000000E+00  0.30000000000E+02  0.30000000000E+02  0.00000000000E+00 0. -1.
        -11   -1    0    0    0    0 -0.00000000000E+00 -0.00000000000E+00 -0.30000000000E+02  0.30000000000E+02  0.00000000000E+00 0.  1.
          5    1    1    2  501    0 -0.74412099957E+01 -0.31164504722E+01 -0.28510105757E+02  0.30000000000E+02  0.47000000000E+01 0.  1.
         -5    1    1    2    0  501  0.74412099957E+01  0.31164504722E+01  0.28510105757E+02  0.30000000000E+02  0.47000000000E+01 0. -1.
</event>
<event>
 4    1  0.7509957E-002  0.6000000E+02  0.7546771E-02  0.1259629E+00
         11   -1    0    0    0    0  0.00000000000E+00  0.00000000000E+00  0.30000000000E+02  0.30000000000E+02  0.00000000000E+00 0. -1.
        -11   -1    0    0    0    0 -0.00000000000E+00 -0.00000000000E+00 -0.30000000000E+02  0.30000000000E+02  0.00000000000E+00 0.  1.
          5    1    1    2  501    0 -0.28547483427E+02  0.79215698519E+01  0.44712534972E+00  0.30000000000E+02  0.47000000000E+01 0.  1.
         -5    1    1    2    0  501  0.28547483427E+02 -0.79215698519E+01 -0.44712534972E+00  0.30000000000E+02  0.47000000000E+01 0. -1.
</event>
<event>
 4    1  0.7509957E-002  0.6000000E+02  0.7546771E-02  0.1259629E+00
         11   -1    0    0    0    0  0.00000000000E+00  0.00000000000E+00  0.30000000000E+02  0.30000000000E+02  0.00000000000E+00 0.  1.
        -11   -1    0    0    0    0 -0.00000000000E+00 -0.00000000000E+00 -0.30000000000E+02  0.30000000000E+02  0.00000000000E+00 0. -1.
          5    1    1    2  501    0 -0.47785030936E+01  0.21258538234E+02 -0.20078607032E+02  0.30000000000E+02  0.47000000000E+01 0. -1.
         -5    1    1    2    0  501  0.47785030936E+01 -0.21258538234E+02  0.20078607032E+02  0.30000000000E+02  0.47000000000E+01 0.  1.
</event>
<event>
 4    1  0.7509957E-002  0.6000000E+02  0.7546771E-02  0.1259629E+00
         11   -1    0    0    0    0  0.00000000000E+00  0.00000000000E+00  0.30000000000E+02  0.30000000000E+02  0.00000000000E+00 0.  1.
        -11   -1    0    0    0    0 -0.00000000000E+00 -0.00000000000E+00 -0.30000000000E+02  0.30000000000E+02  0.00000000000E+00 0. -1.
          5    1    1    2  501    0 -0.76033500263E+01  0.16407515573E+02 -0.23471099273E+02  0.30000000000E+02  0.47000000000E+01 0. -1.
         -5    1    1    2    0  501  0.76033500263E+01 -0.16407515573E+02  0.23471099273E+02  0.30000000000E+02  0.47000000000E+01 0.  1.
</event>
<event>
 4    1  0.7509957E-002  0.6000000E+02  0.7546771E-02  0.1259629E+00
         11   -1    0    0    0    0  0.00000000000E+00  0.00000000000E+00  0.30000000000E+02  0.30000000000E+02  0.00000000000E+00 0.  1.
        -11   -1    0    0    0    0 -0.00000000000E+00 -0.00000000000E+00 -0.30000000000E+02  0.30000000000E+02  0.00000000000E+00 0. -1.
          5    1    1    2  501    0 -0.14947592131E+02 -0.25099233337E+02 -0.49505530393E+01  0.30000000000E+02  0.47000000000E+01 0. -1.
         -5    1    1    2    0  501  0.14947592131E+02  0.25099233337E+02  0.49505530393E+01  0.30000000000E+02  0.47000000000E+01 0.  1.
</event>
<event>
 4    1  0.7509957E-002  0.6000000E+02  0.7546771E-02  0.1259629E+00
         11   -1    0    0    0    0  0.00000000000E+00  0.00000000000E+00  0.30000000000E+02  0.30000000000E+02  0.00000000000E+00 0.  1.
        -11   -1    0    0    0    0 -0.00000000000E+00 -0.00000000000E+00 -0.30000000000E+02  0.30000000000E+02  0.00000000000E+00 0. -1.
          5    1    1    2  501    0 -0.27653040844E+02  0.48453645628E+01 -0.94732135174E+01  0.30000000000E+02  0.47000000000E+01 0. -1.
         -5    1    1    2    0  501  0.27653040844E+02 -0.48453645628E+01  0.94732135174E+01  0.30000000000E+02  0.47000000000E+01 0.  1.
</event>
<event>
 4    1  0.7509957E-002  0.6000000E+02  0.7546771E-02  0.1259629E+00
         11   -1    0    0    0    0  0.00000000000E+00  0.00000000000E+00  0.30000000000E+02  0.30000000000E+02  0.00000000000E+00 0.  1.
        -11   -1    0    0    0    0 -0.00000000000E+00 -0.00000000000E+00 -0.30000000000E+02  0.30000000000E+02  0.00000000000E+00 0. -1.
          5    1    1    2  501    0  0.13793365324E+01  0.19522576732E+02 -0.22245818224E+02  0.30000000000E+02  0.47000000000E+01 0. -1.
         -5    1    1    2    0  501 -0.13793365324E+01 -0.19522576732E+02  0.22245818224E+02  0.30000000000E+02  0.47000000000E+01 0.  1.
</event>
<event>
 4    1  0.7509957E-002  0.6000000E+02  0.7546771E-02  0.1259629E+00
         11   -1    0    0    0    0  0.00000000000E+00  0.00000000000E+00  0.30000000000E+02  0.30000000000E+02  0.00000000000E+00 0. -1.
        -11   -1    0    0    0    0 -0.00000000000E+00 -0.00000000000E+00 -0.30000000000E+02  0.30000000000E+02  0.00000000000E+00 0.  1.
          5    1    1    2  501    0  0.26814356645E+02 -0.57386990754E+01 -0.11223529332E+02  0.30000000000E+02  0.47000000000E+01 0.  1.
         -5    1    1    2    0  501 -0.26814356645E+02  0.57386990754E+01  0.11223529332E+02  0.30000000000E+02  0.47000000000E+01 0. -1.
</event>
<event>
 4    1  0.7509957E-002  0.6000000E+02  0.7546771E-02  0.1259629E+00
         11   -1    0    0    0    0  0.00000000000E+00  0.00000000000E+00  0.30000000000E+02  0.30000000000E+02  0.00000000000E+00 0.  1.
        -11   -1    0    0    0    0 -0.00000000000E+00 -0.00000000000E+00 -0.30000000000E+02  0.30000000000E+02  0.00000000000E+00 0. -1.
          5    1    1    2  501    0  0.91631719117E+00  0.21793510281E+02 -0.20052762215E+02  0.30000000000E+02  0.47000000000E+01 0. -1.
         -5    1    1    2    0  501 -0.91631719117E+00 -0.21793510281E+02  0.20052762215E+02  0.30000000000E+02  0.47000000000E+01 0.  1.
</event>
<event>
 4    1  0.7509957E-002  0.6000000E+02  0.7546771E-02  0.1259629E+00
         11   -1    0    0    0    0  0.00000000000E+00  0.00000000000E+00  0.30000000000E+02  0.30000000000E+02  0.00000000000E+00 0.  1.
        -11   -1    0    0    0    0 -0.00000000000E+00 -0.00000000000E+00 -0.30000000000E+02  0.30000000000E+02  0.00000000000E+00 0. -1.
          5    1    1    2  501    0 -0.76537941603E+01  0.12879240014E+02 -0.25562758294E+02  0.30000000000E+02  0.47000000000E+01 0. -1.
         -5    1    1    2    0  501  0.76537941603E+01 -0.12879240014E+02  0.25562758294E+02  0.30000000000E+02  0.47000000000E+01 0.  1.
</event>
<event>
 4    1  0.7509957E-002  0.6000000E+02  0.7546771E-02  0.1259629E+00
         11   -1    0    0    0    0  0.00000000000E+00  0.00000000000E+00  0.30000000000E+02  0.30000000000E+02  0.00000000000E+00 0.  1.
        -11   -1    0    0    0    0 -0.00000000000E+00 -0.00000000000E+00 -0.30000000000E+02  0.30000000000E+02  0.00000000000E+00 0. -1.
          5    1    1    2  501    0 -0.46651557753E+01  0.10730976637E+02 -0.27221176720E+02  0.30000000000E+02  0.47000000000E+01 0. -1.
         -5    1    1    2    0  501  0.46651557753E+01 -0.10730976637E+02  0.27221176720E+02  0.30000000000E+02  0.47000000000E+01 0.  1.
</event>
<event>
 4    1  0.7509957E-002  0.6000000E+02  0.7546771E-02  0.1259629E+00
         11   -1    0    0    0    0  0.00000000000E+00  0.00000000000E+00  0.30000000000E+02  0.30000000000E+02  0.00000000000E+00 0.  1.
        -11   -1    0    0    0    0 -0.00000000000E+00 -0.00000000000E+00 -0.30000000000E+02  0.30000000000E+02  0.00000000000E+00 0. -1.
          5    1    1    2  501    0 -0.18581086873E+02  0.10864233786E+02 -0.20362260062E+02  0.30000000000E+02  0.47000000000E+01 0. -1.
         -5    1    1    2    0  501  0.18581086873E+02 -0.10864233786E+02  0.20362260062E+02  0.30000000000E+02  0.47000000000E+01 0.  1.
</event>
<event>
 4    1  0.7509957E-002  0.6000000E+02  0.7546771E-02  0.1259629E+00
         11   -1    0    0    0    0  0.00000000000E+00  0.00000000000E+00  0.30000000000E+02  0.30000000000E+02  0.00000000000E+00 0. -1.
        -11   -1    0    0    0    0 -0.00000000000E+00 -0.00000000000E+00 -0.30000000000E+02  0.30000000000E+02  0.00000000000E+00 0.  1.
          5    1    1    2  501    0  0.57896088756E+01 -0.51704930791E+01 -0.28594692346E+02  0.30000000000E+02  0.47000000000E+01 0.  1.
         -5    1    1    2    0  501 -0.57896088756E+01  0.51704930791E+01  0.28594692346E+02  0.30000000000E+02  0.47000000000E+01 0. -1.
</event>
<event>
 4    1  0.7509957E-002  0.6000000E+02  0.7546771E-02  0.1259629E+00
         11   -1    0    0    0    0  0.00000000000E+00  0.00000000000E+00  0.30000000000E+02  0.30000000000E+02  0.00000000000E+00 0.  1.
        -11   -1    0    0    0    0 -0.00000000000E+00 -0.00000000000E+00 -0.30000000000E+02  0.30000000000E+02  0.00000000000E+00 0. -1.
          5    1    1    2  501    0 -0.74006952279E+01  0.11638382860E+02 -0.26223801299E+02  0.30000000000E+02  0.47000000000E+01 0. -1.
         -5    1    1    2    0  501  0.74006952279E+01 -0.11638382860E+02  0.26223801299E+02  0.30000000000E+02  0.47000000000E+01 0.  1.
</event>
<event>
 4    1  0.7509957E-002  0.6000000E+02  0.7546771E-02  0.1259629E+00
         11   -1    0    0    0    0  0.00000000000E+00  0.00000000000E+00  0.30000000000E+02  0.30000000000E+02  0.00000000000E+00 0.  1.
        -11   -1    0    0    0    0 -0.00000000000E+00 -0.00000000000E+00 -0.30000000000E+02  0.30000000000E+02  0.00000000000E+00 0. -1.
          5    1    1    2  501    0  0.96493835662E+01  0.65809246555E+01 -0.27230329184E+02  0.30000000000E+02  0.47000000000E+01 0. -1.
         -5    1    1    2    0  501 -0.96493835662E+01 -0.65809246555E+01  0.27230329184E+02  0.30000000000E+02  0.47000000000E+01 0.  1.
</event>
